                         Program Version 5.0.3 -  RELEASE  -
|  1> ! ri-mp2 aug-cc-pvdz aug-cc-pvdz/c tightscf
|  2> %pal nprocs 16 end
|  3> %maxcore 3800
|  4> %base "DZ_00_B"
|  5> %scf STABPerform true end
|  6>
|  7> *xyz 0 2
|  8> B         0.0 0.0 0.0
|  9> *
| 10>
| 11> $new_job
| 12> ! ri-mp2 aug-cc-pvtz aug-cc-pvtz/c tightscf
| 13> %pal nprocs 16 end
| 14> %maxcore 3800
| 15> %base "TZ_00_B"
| 16>
| 17> *xyz 0 2
| 18> B         0.0 0.0 0.0
| 19> *
| 20>
| 21> $new_job
| 22> ! ri-mp2 aug-cc-pvqz aug-cc-pvqz/c tightscf
| 23> %pal nprocs 16 end
| 24> %maxcore 3800
| 25> %base "QZ_00_B"
| 26>
| 27> *xyz 0 2
| 28> B         0.0 0.0 0.0
| 29> *
| 30>
| 31>
| 32>
| 33>
| 34>                          ****END OF INPUT****
 Total Charge           Charge          ....    0
 Multiplicity           Mult            ....    2
 Number of Electrons    NEL             ....    5
MP2 TOTAL ENERGY:      -24.567644637 Eh
FINAL SINGLE POINT ENERGY       -24.567644636608
MP2 TOTAL ENERGY:      -24.576577048 Eh
FINAL SINGLE POINT ENERGY       -24.576577047859

CARTESIAN COORDINATES (ANGSTROEM)
---------------------------------
  B      0.000000    0.000000    0.000000

 Multiplicity           Mult            ....    2
 Number of Electrons    NEL             ....    5
 Basis Dimension        Dim             ....   80

ORBITAL ENERGIES
----------------
                 SPIN UP ORBITALS
  NO   OCC          E(Eh)            E(eV)
   0   1.0000      -7.701446      -209.5670
   1   1.0000      -0.545284       -14.8379
   2   1.0000      -0.318755        -8.6738
   3   0.0000       0.023683         0.6444
   4   0.0000       0.023683         0.6444
   5   0.0000       0.050931         1.3859
   6   0.0000       0.055655         1.5145
   7   0.0000       0.077360         2.1051

                 SPIN DOWN ORBITALS
  NO   OCC          E(Eh)            E(eV)
   0   1.0000      -7.686297      -209.1548
   1   1.0000      -0.446230       -12.1425
   2   0.0000       0.027496         0.7482
   3   0.0000       0.027496         0.7482
   4   0.0000       0.039815         1.0834
   5   0.0000       0.059191         1.6107
   6   0.0000       0.084443         2.2978

MULLIKEN ATOMIC CHARGES AND SPIN POPULATIONS
--------------------------------------------
   0 B :   -0.000000    1.000000
Sum of atomic charges         :   -0.0000000

LOEWDIN ATOMIC CHARGES AND SPIN POPULATIONS
-------------------------------------------
   0 B :   -0.000000    1.000000

MP2 TOTAL ENERGY:      -24.580229061 Eh
FINAL SINGLE POINT ENERGY       -24.580229061118

DIPOLE MOMENT
-------------
                                X             Y             Z
Electronic contribution:      0.00000      -0.00000      -0.00000
Nuclear contribution   :      0.00000       0.00000       0.00000
                        -----------------------------------------
Total Dipole Moment    :      0.00000      -0.00000      -0.00000
                        -----------------------------------------
Magnitude (a.u.)       :      0.00000
Magnitude (Debye)      :      0.00000

Rotational constants in cm-1:     0.000000     0.000000     0.000000
Rotational constants in MHz :     0.000000     0.000000     0.000000

                             ****ORCA TERMINATED NORMALLY****
TOTAL RUN TIME: 0 days 0 hours 19 minutes 27 seconds 599 msec
