                         Program Version 5.0.3 -  RELEASE  -
|  1> ! ri-mp2 aug-cc-pvdz aug-cc-pvdz/c tightscf
|  2> %pal nprocs 16 end
|  3> %maxcore 3800
|  4> %base "DZ_00_Cl"
|  5> %scf STABPerform true end
|  6>
|  7> *xyz 0 2
|  8> Cl         0.0 0.0 0.0
|  9> *
| 10>
| 11> $new_job
| 12> ! ri-mp2 aug-cc-pvtz aug-cc-pvtz/c tightscf
| 13> %pal nprocs 16 end
| 14> %maxcore 3800
| 15> %base "TZ_00_Cl"
| 16>
| 17> *xyz 0 2
| 18> Cl         0.0 0.0 0.0
| 19> *
| 20>
| 21> $new_job
| 22> ! ri-mp2 aug-cc-pvqz aug-cc-pvqz/c tightscf
| 23> %pal nprocs 16 end
| 24> %maxcore 3800
| 25> %base "QZ_00_Cl"
| 26>
| 27> *xyz 0 2
| 28> Cl         0.0 0.0 0.0
| 29> *
| 30>
| 31>
| 32>
| 33>
| 34>                          ****END OF INPUT****
 Total Charge           Charge          ....    0
 Multiplicity           Mult            ....    2
 Number of Electrons    NEL             ....   17
MP2 TOTAL ENERGY:     -459.592147236 Eh
FINAL SINGLE POINT ENERGY      -459.592147235814
MP2 TOTAL ENERGY:     -459.647327160 Eh
FINAL SINGLE POINT ENERGY      -459.647327160232

CARTESIAN COORDINATES (ANGSTROEM)
---------------------------------
  Cl     0.000000    0.000000    0.000000

 Multiplicity           Mult            ....    2
 Number of Electrons    NEL             ....   17
 Basis Dimension        Dim             ....   84

ORBITAL ENERGIES
----------------
                 SPIN UP ORBITALS
  NO   OCC          E(Eh)            E(eV)
   0   1.0000    -104.889398     -2854.1856
   1   1.0000     -10.612500      -288.7808
   2   1.0000      -8.098204      -220.3633
   3   1.0000      -8.073753      -219.6980
   4   1.0000      -8.073753      -219.6980
   5   1.0000      -1.136151       -30.9162
   6   1.0000      -0.581781       -15.8311
   7   1.0000      -0.502589       -13.6761
   8   1.0000      -0.502589       -13.6761
   9   0.0000       0.090620         2.4659
  10   0.0000       0.097092         2.6420
  11   0.0000       0.097092         2.6420
  12   0.0000       0.099936         2.7194
  13   0.0000       0.248809         6.7704

                 SPIN DOWN ORBITALS
  NO   OCC          E(Eh)            E(eV)
   0   1.0000    -104.878150     -2853.8796
   1   1.0000     -10.601121      -288.4712
   2   1.0000      -8.067825      -219.5367
   3   1.0000      -8.067825      -219.5367
   4   1.0000      -8.048555      -219.0123
   5   1.0000      -1.014474       -27.6052
   6   1.0000      -0.480889       -13.0857
   7   1.0000      -0.480889       -13.0857
   8   0.0000      -0.041007        -1.1159
   9   0.0000       0.097688         2.6582
  10   0.0000       0.097688         2.6582
  11   0.0000       0.104178         2.8348
  12   0.0000       0.106984         2.9112

MULLIKEN ATOMIC CHARGES AND SPIN POPULATIONS
--------------------------------------------
   0 Cl:   -0.000000    1.000000
Sum of atomic charges         :   -0.0000000

LOEWDIN ATOMIC CHARGES AND SPIN POPULATIONS
-------------------------------------------
   0 Cl:    0.000000    1.000000

MP2 TOTAL ENERGY:     -459.665634678 Eh
FINAL SINGLE POINT ENERGY      -459.665634677630

DIPOLE MOMENT
-------------
                                X             Y             Z
Electronic contribution:      0.00000       0.00000       0.00000
Nuclear contribution   :      0.00000       0.00000       0.00000
                        -----------------------------------------
Total Dipole Moment    :      0.00000       0.00000       0.00000
                        -----------------------------------------
Magnitude (a.u.)       :      0.00000
Magnitude (Debye)      :      0.00000

Rotational constants in cm-1:     0.000000     0.000000     0.000000
Rotational constants in MHz :     0.000000     0.000000     0.000000

                             ****ORCA TERMINATED NORMALLY****
TOTAL RUN TIME: 0 days 0 hours 6 minutes 3 seconds 585 msec
