                         Program Version 5.0.3 -  RELEASE  -
|  1> ! ri-mp2 aug-cc-pvdz aug-cc-pvdz/c tightscf
|  2> %pal nprocs 16 end
|  3> %maxcore 3800
|  4> %base "DZ_00_C"
|  5> %scf STABPerform true end
|  6>
|  7> *xyz 0 3
|  8> C         0.0 0.0 0.0
|  9> *
| 10>
| 11> $new_job
| 12> ! ri-mp2 aug-cc-pvtz aug-cc-pvtz/c tightscf
| 13> %pal nprocs 16 end
| 14> %maxcore 3800
| 15> %base "TZ_00_C"
| 16>
| 17> *xyz 0 3
| 18> C         0.0 0.0 0.0
| 19> *
| 20>
| 21> $new_job
| 22> ! ri-mp2 aug-cc-pvqz aug-cc-pvqz/c tightscf
| 23> %pal nprocs 16 end
| 24> %maxcore 3800
| 25> %base "QZ_00_C"
| 26>
| 27> *xyz 0 3
| 28> C         0.0 0.0 0.0
| 29> *
| 30>
| 31>
| 32>
| 33>
| 34>                          ****END OF INPUT****
 Total Charge           Charge          ....    0
 Multiplicity           Mult            ....    3
 Number of Electrons    NEL             ....    6
MP2 TOTAL ENERGY:      -37.741465931 Eh
FINAL SINGLE POINT ENERGY       -37.741465931332
MP2 TOTAL ENERGY:      -37.759561616 Eh
FINAL SINGLE POINT ENERGY       -37.759561616012

CARTESIAN COORDINATES (ANGSTROEM)
---------------------------------
  C      0.000000    0.000000    0.000000

 Multiplicity           Mult            ....    3
 Number of Electrons    NEL             ....    6
 Basis Dimension        Dim             ....   80

ORBITAL ENERGIES
----------------
                 SPIN UP ORBITALS
  NO   OCC          E(Eh)            E(eV)
   0   1.0000     -11.345965      -308.7394
   1   1.0000      -0.829337       -22.5674
   2   1.0000      -0.439026       -11.9465
   3   1.0000      -0.439026       -11.9465
   4   0.0000       0.017089         0.4650
   5   0.0000       0.081497         2.2177
   6   0.0000       0.083418         2.2699
   7   0.0000       0.083418         2.2699
   8   0.0000       0.107166         2.9161

                 SPIN DOWN ORBITALS
  NO   OCC          E(Eh)            E(eV)
   0   1.0000     -11.300622      -307.5056
   1   1.0000      -0.583572       -15.8798
   2   0.0000       0.036010         0.9799
   3   0.0000       0.058282         1.5859
   4   0.0000       0.058282         1.5859
   5   0.0000       0.090457         2.4615
   6   0.0000       0.123549         3.3619

MULLIKEN ATOMIC CHARGES AND SPIN POPULATIONS
--------------------------------------------
   0 C :   -0.000000    2.000000
Sum of atomic charges         :   -0.0000000

LOEWDIN ATOMIC CHARGES AND SPIN POPULATIONS
-------------------------------------------
   0 C :   -0.000000    2.000000

MP2 TOTAL ENERGY:      -37.765872470 Eh
FINAL SINGLE POINT ENERGY       -37.765872470244

DIPOLE MOMENT
-------------
                                X             Y             Z
Electronic contribution:     -0.00000      -0.00000      -0.00000
Nuclear contribution   :      0.00000       0.00000       0.00000
                        -----------------------------------------
Total Dipole Moment    :     -0.00000      -0.00000      -0.00000
                        -----------------------------------------
Magnitude (a.u.)       :      0.00000
Magnitude (Debye)      :      0.00000

Rotational constants in cm-1:     0.000000     0.000000     0.000000
Rotational constants in MHz :     0.000000     0.000000     0.000000

                             ****ORCA TERMINATED NORMALLY****
TOTAL RUN TIME: 0 days 0 hours 24 minutes 8 seconds 468 msec
