                         Program Version 5.0.3 -  RELEASE  -
|  1> ! ri-mp2 aug-cc-pvdz aug-cc-pvdz/c tightscf
|  2> %pal nprocs 16 end
|  3> %maxcore 3800
|  4> %base "DZ_00_F"
|  5> %scf STABPerform true end
|  6>
|  7> *xyz 0 2
|  8> F         0.0 0.0 0.0
|  9> *
| 10>
| 11> $new_job
| 12> ! ri-mp2 aug-cc-pvtz aug-cc-pvtz/c tightscf
| 13> %pal nprocs 16 end
| 14> %maxcore 3800
| 15> %base "TZ_00_F"
| 16>
| 17> *xyz 0 2
| 18> F         0.0 0.0 0.0
| 19> *
| 20>
| 21> $new_job
| 22> ! ri-mp2 aug-cc-pvqz aug-cc-pvqz/c tightscf
| 23> %pal nprocs 16 end
| 24> %maxcore 3800
| 25> %base "QZ_00_F"
| 26>
| 27> *xyz 0 2
| 28> F         0.0 0.0 0.0
| 29> *
| 30>
| 31>
| 32>
| 33>
| 34>                          ****END OF INPUT****
 Total Charge           Charge          ....    0
 Multiplicity           Mult            ....    2
 Number of Electrons    NEL             ....    9
MP2 TOTAL ENERGY:      -99.535696514 Eh
FINAL SINGLE POINT ENERGY       -99.535696514072
MP2 TOTAL ENERGY:      -99.612091912 Eh
FINAL SINGLE POINT ENERGY       -99.612091912202

CARTESIAN COORDINATES (ANGSTROEM)
---------------------------------
  F      0.000000    0.000000    0.000000

 Multiplicity           Mult            ....    2
 Number of Electrons    NEL             ....    9
 Basis Dimension        Dim             ....   80

ORBITAL ENERGIES
----------------
                 SPIN UP ORBITALS
  NO   OCC          E(Eh)            E(eV)
   0   1.0000     -26.408044      -718.5994
   1   1.0000      -1.673004       -45.5247
   2   1.0000      -0.845465       -23.0063
   3   1.0000      -0.731742       -19.9117
   4   1.0000      -0.731742       -19.9117
   5   0.0000       0.160335         4.3629
   6   0.0000       0.168306         4.5798
   7   0.0000       0.168306         4.5798
   8   0.0000       0.169810         4.6208
   9   0.0000       0.619076        16.8459

                 SPIN DOWN ORBITALS
  NO   OCC          E(Eh)            E(eV)
   0   1.0000     -26.359977      -717.2914
   1   1.0000      -1.477482       -40.2043
   2   1.0000      -0.679980       -18.5032
   3   1.0000      -0.679980       -18.5032
   4   0.0000       0.035278         0.9600
   5   0.0000       0.169843         4.6217
   6   0.0000       0.169843         4.6217
   7   0.0000       0.175442         4.7740
   8   0.0000       0.209680         5.7057

MULLIKEN ATOMIC CHARGES AND SPIN POPULATIONS
--------------------------------------------
   0 F :   -0.000000    1.000000
Sum of atomic charges         :   -0.0000000

LOEWDIN ATOMIC CHARGES AND SPIN POPULATIONS
-------------------------------------------
   0 F :   -0.000000    1.000000

MP2 TOTAL ENERGY:      -99.637972563 Eh
FINAL SINGLE POINT ENERGY       -99.637972563397

DIPOLE MOMENT
-------------
                                X             Y             Z
Electronic contribution:     -0.00000      -0.00000       0.00000
Nuclear contribution   :      0.00000       0.00000       0.00000
                        -----------------------------------------
Total Dipole Moment    :     -0.00000      -0.00000       0.00000
                        -----------------------------------------
Magnitude (a.u.)       :      0.00000
Magnitude (Debye)      :      0.00000

Rotational constants in cm-1:     0.000000     0.000000     0.000000
Rotational constants in MHz :     0.000000     0.000000     0.000000

                             ****ORCA TERMINATED NORMALLY****
TOTAL RUN TIME: 0 days 0 hours 26 minutes 27 seconds 778 msec
