                         Program Version 5.0.3 -  RELEASE  -
|  1> ! ri-mp2 aug-cc-pvdz aug-cc-pvdz/c tightscf
|  2> %pal nprocs 16 end
|  3> %maxcore 3800
|  4> %base "DZ_00_N"
|  5> %scf STABPerform true end
|  6>
|  7> *xyz 0 4
|  8> N         0.0 0.0 0.0
|  9> *
| 10>
| 11> $new_job
| 12> ! ri-mp2 aug-cc-pvtz aug-cc-pvtz/c tightscf
| 13> %pal nprocs 16 end
| 14> %maxcore 3800
| 15> %base "TZ_00_N"
| 16>
| 17> *xyz 0 4
| 18> N         0.0 0.0 0.0
| 19> *
| 20>
| 21> $new_job
| 22> ! ri-mp2 aug-cc-pvqz aug-cc-pvqz/c tightscf
| 23> %pal nprocs 16 end
| 24> %maxcore 3800
| 25> %base "QZ_00_N"
| 26>
| 27> *xyz 0 4
| 28> N         0.0 0.0 0.0
| 29> *
| 30>
| 31>
| 32>
| 33>
| 34>                          ****END OF INPUT****
 Total Charge           Charge          ....    0
 Multiplicity           Mult            ....    4
 Number of Electrons    NEL             ....    7
MP2 TOTAL ENERGY:      -54.468174556 Eh
FINAL SINGLE POINT ENERGY       -54.468174555879
MP2 TOTAL ENERGY:      -54.498647595 Eh
FINAL SINGLE POINT ENERGY       -54.498647594769

CARTESIAN COORDINATES (ANGSTROEM)
---------------------------------
  N      0.000000    0.000000    0.000000

 Multiplicity           Mult            ....    4
 Number of Electrons    NEL             ....    7
 Basis Dimension        Dim             ....   80

ORBITAL ENERGIES
----------------
                 SPIN UP ORBITALS
  NO   OCC          E(Eh)            E(eV)
   0   1.0000     -15.671465      -426.4422
   1   1.0000      -1.163183       -31.6518
   2   1.0000      -0.570898       -15.5349
   3   1.0000      -0.570898       -15.5349
   4   1.0000      -0.570898       -15.5349
   5   0.0000       0.105889         2.8814
   6   0.0000       0.111982         3.0472
   7   0.0000       0.111982         3.0472
   8   0.0000       0.111982         3.0472
   9   0.0000       0.339851         9.2478

                 SPIN DOWN ORBITALS
  NO   OCC          E(Eh)            E(eV)
   0   1.0000     -15.581219      -423.9865
   1   1.0000      -0.726065       -19.7572
   2   0.0000       0.071984         1.9588
   3   0.0000       0.071984         1.9588
   4   0.0000       0.071984         1.9588
   5   0.0000       0.121308         3.3009
   6   0.0000       0.200099         5.4450

MULLIKEN ATOMIC CHARGES AND SPIN POPULATIONS
--------------------------------------------
   0 N :    0.000000    3.000000
Sum of atomic charges         :    0.0000000

LOEWDIN ATOMIC CHARGES AND SPIN POPULATIONS
-------------------------------------------
   0 N :    0.000000    3.000000

MP2 TOTAL ENERGY:      -54.508441587 Eh
FINAL SINGLE POINT ENERGY       -54.508441587454

DIPOLE MOMENT
-------------
                                X             Y             Z
Electronic contribution:     -0.00000      -0.00000       0.00000
Nuclear contribution   :      0.00000       0.00000       0.00000
                        -----------------------------------------
Total Dipole Moment    :     -0.00000      -0.00000       0.00000
                        -----------------------------------------
Magnitude (a.u.)       :      0.00000
Magnitude (Debye)      :      0.00000

Rotational constants in cm-1:     0.000000     0.000000     0.000000
Rotational constants in MHz :     0.000000     0.000000     0.000000

                             ****ORCA TERMINATED NORMALLY****
TOTAL RUN TIME: 0 days 0 hours 24 minutes 7 seconds 997 msec
