                         Program Version 5.0.3 -  RELEASE  -
|  1> ! ri-mp2 aug-cc-pvdz aug-cc-pvdz/c tightscf
|  2> %pal nprocs 16 end
|  3> %maxcore 3800
|  4> %base "DZ_00_O"
|  5> %scf STABPerform true end
|  6>
|  7> *xyz 0 3
|  8> O         0.0 0.0 0.0
|  9> *
| 10>
| 11> $new_job
| 12> ! ri-mp2 aug-cc-pvtz aug-cc-pvtz/c tightscf
| 13> %pal nprocs 16 end
| 14> %maxcore 3800
| 15> %base "TZ_00_O"
| 16>
| 17> *xyz 0 3
| 18> O         0.0 0.0 0.0
| 19> *
| 20>
| 21> $new_job
| 22> ! ri-mp2 aug-cc-pvqz aug-cc-pvqz/c tightscf
| 23> %pal nprocs 16 end
| 24> %maxcore 3800
| 25> %base "QZ_00_O"
| 26>
| 27> *xyz 0 3
| 28> O         0.0 0.0 0.0
| 29> *
| 30>
| 31>
| 32>
| 33>
| 34>                          ****END OF INPUT****
 Total Charge           Charge          ....    0
 Multiplicity           Mult            ....    3
 Number of Electrons    NEL             ....    8
MP2 TOTAL ENERGY:      -74.906965478 Eh
FINAL SINGLE POINT ENERGY       -74.906965478290
MP2 TOTAL ENERGY:      -74.959289399 Eh
FINAL SINGLE POINT ENERGY       -74.959289399116

CARTESIAN COORDINATES (ANGSTROEM)
---------------------------------
  O      0.000000    0.000000    0.000000

 Multiplicity           Mult            ....    3
 Number of Electrons    NEL             ....    8
 Basis Dimension        Dim             ....   80

ORBITAL ENERGIES
----------------
                 SPIN UP ORBITALS
  NO   OCC          E(Eh)            E(eV)
   0   1.0000     -20.708587      -563.5093
   1   1.0000      -1.418674       -38.6041
   2   1.0000      -0.711081       -19.3495
   3   1.0000      -0.711081       -19.3495
   4   1.0000      -0.611668       -16.6443
   5   0.0000       0.132279         3.5995
   6   0.0000       0.132279         3.5995
   7   0.0000       0.136137         3.7045
   8   0.0000       0.140006         3.8098
   9   0.0000       0.460958        12.5433

                 SPIN DOWN ORBITALS
  NO   OCC          E(Eh)            E(eV)
   0   1.0000     -20.629881      -561.3676
   1   1.0000      -1.075945       -29.2780
   2   1.0000      -0.521728       -14.1969
   3   0.0000       0.062468         1.6998
   4   0.0000       0.062468         1.6998
   5   0.0000       0.143166         3.8958
   6   0.0000       0.146810         3.9949
   7   0.0000       0.197792         5.3822

MULLIKEN ATOMIC CHARGES AND SPIN POPULATIONS
--------------------------------------------
   0 O :    0.000000    2.000000
Sum of atomic charges         :    0.0000000

LOEWDIN ATOMIC CHARGES AND SPIN POPULATIONS
-------------------------------------------
   0 O :    0.000000    2.000000

MP2 TOTAL ENERGY:      -74.976707422 Eh
FINAL SINGLE POINT ENERGY       -74.976707421537

DIPOLE MOMENT
-------------
                                X             Y             Z
Electronic contribution:     -0.00000       0.00000      -0.00000
Nuclear contribution   :      0.00000       0.00000       0.00000
                        -----------------------------------------
Total Dipole Moment    :     -0.00000       0.00000      -0.00000
                        -----------------------------------------
Magnitude (a.u.)       :      0.00000
Magnitude (Debye)      :      0.00000

Rotational constants in cm-1:     0.000000     0.000000     0.000000
Rotational constants in MHz :     0.000000     0.000000     0.000000

                             ****ORCA TERMINATED NORMALLY****
TOTAL RUN TIME: 0 days 0 hours 25 minutes 24 seconds 882 msec
