                         Program Version 5.0.3 -  RELEASE  -
|  1> ! ri-mp2 aug-cc-pvdz aug-cc-pvdz/c tightscf
|  2> %pal nprocs 16 end
|  3> %maxcore 3800
|  4> %base "DZ_00_P"
|  5> %scf STABPerform true end
|  6>
|  7> *xyz 0 4
|  8> P         0.0 0.0 0.0
|  9> *
| 10>
| 11> $new_job
| 12> ! ri-mp2 aug-cc-pvtz aug-cc-pvtz/c tightscf
| 13> %pal nprocs 16 end
| 14> %maxcore 3800
| 15> %base "TZ_00_P"
| 16>
| 17> *xyz 0 4
| 18> P         0.0 0.0 0.0
| 19> *
| 20>
| 21> $new_job
| 22> ! ri-mp2 aug-cc-pvqz aug-cc-pvqz/c tightscf
| 23> %pal nprocs 16 end
| 24> %maxcore 3800
| 25> %base "QZ_00_P"
| 26>
| 27> *xyz 0 4
| 28> P         0.0 0.0 0.0
| 29> *
| 30>
| 31>
| 32>
| 33>
| 34>                          ****END OF INPUT****
 Total Charge           Charge          ....    0
 Multiplicity           Mult            ....    4
 Number of Electrons    NEL             ....   15
MP2 TOTAL ENERGY:     -340.776891573 Eh
FINAL SINGLE POINT ENERGY      -340.776891573485
MP2 TOTAL ENERGY:     -340.800758771 Eh
FINAL SINGLE POINT ENERGY      -340.800758771479

CARTESIAN COORDINATES (ANGSTROEM)
---------------------------------
  P      0.000000    0.000000    0.000000

 Multiplicity           Mult            ....    4
 Number of Electrons    NEL             ....   15
 Basis Dimension        Dim             ....   84

ORBITAL ENERGIES
----------------
                 SPIN UP ORBITALS
  NO   OCC          E(Eh)            E(eV)
   0   1.0000     -79.979343     -2176.3486
   1   1.0000      -7.522144      -204.6879
   2   1.0000      -5.420888      -147.5099
   3   1.0000      -5.420888      -147.5099
   4   1.0000      -5.420888      -147.5099
   5   1.0000      -0.836248       -22.7555
   6   1.0000      -0.392087       -10.6692
   7   1.0000      -0.392087       -10.6692
   8   1.0000      -0.392087       -10.6692
   9   0.0000       0.065635         1.7860
  10   0.0000       0.070579         1.9205
  11   0.0000       0.070579         1.9205
  12   0.0000       0.070579         1.9205
  13   0.0000       0.160495         4.3673

                 SPIN DOWN ORBITALS
  NO   OCC          E(Eh)            E(eV)
   0   1.0000     -79.959909     -2175.8197
   1   1.0000      -7.499812      -204.0803
   2   1.0000      -5.380834      -146.4199
   3   1.0000      -5.380834      -146.4199
   4   1.0000      -5.380834      -146.4199
   5   1.0000      -0.556353       -15.1391
   6   0.0000       0.028571         0.7775
   7   0.0000       0.028571         0.7775
   8   0.0000       0.028571         0.7775
   9   0.0000       0.077447         2.1075
  10   0.0000       0.104487         2.8432

MULLIKEN ATOMIC CHARGES AND SPIN POPULATIONS
--------------------------------------------
   0 P :    0.000000    3.000000
Sum of atomic charges         :    0.0000000

LOEWDIN ATOMIC CHARGES AND SPIN POPULATIONS
-------------------------------------------
   0 P :    0.000000    3.000000

MP2 TOTAL ENERGY:     -340.808117931 Eh
FINAL SINGLE POINT ENERGY      -340.808117930832

DIPOLE MOMENT
-------------
                                X             Y             Z
Electronic contribution:     -0.00000       0.00000       0.00000
Nuclear contribution   :      0.00000       0.00000       0.00000
                        -----------------------------------------
Total Dipole Moment    :     -0.00000       0.00000       0.00000
                        -----------------------------------------
Magnitude (a.u.)       :      0.00000
Magnitude (Debye)      :      0.00000

Rotational constants in cm-1:     0.000000     0.000000     0.000000
Rotational constants in MHz :     0.000000     0.000000     0.000000

                             ****ORCA TERMINATED NORMALLY****
TOTAL RUN TIME: 0 days 0 hours 24 minutes 6 seconds 529 msec
