                         Program Version 5.0.3 -  RELEASE  -
|  1> ! ri-mp2 aug-cc-pvdz aug-cc-pvdz/c tightscf
|  2> %pal nprocs 16 end
|  3> %maxcore 3800
|  4> %base "DZ_00_Si"
|  5> %scf STABPerform true end
|  6>
|  7> *xyz 0 3
|  8> Si         0.0 0.0 0.0
|  9> *
| 10>
| 11> $new_job
| 12> ! ri-mp2 aug-cc-pvtz aug-cc-pvtz/c tightscf
| 13> %pal nprocs 16 end
| 14> %maxcore 3800
| 15> %base "TZ_00_Si"
| 16>
| 17> *xyz 0 3
| 18> Si         0.0 0.0 0.0
| 19> *
| 20>
| 21> $new_job
| 22> ! ri-mp2 aug-cc-pvqz aug-cc-pvqz/c tightscf
| 23> %pal nprocs 16 end
| 24> %maxcore 3800
| 25> %base "QZ_00_Si"
| 26>
| 27> *xyz 0 3
| 28> Si         0.0 0.0 0.0
| 29> *
| 30>
| 31>
| 32>
| 33>
| 34>                          ****END OF INPUT****
 Total Charge           Charge          ....    0
 Multiplicity           Mult            ....    3
 Number of Electrons    NEL             ....   14
MP2 TOTAL ENERGY:     -288.897475828 Eh
FINAL SINGLE POINT ENERGY      -288.897475828450
MP2 TOTAL ENERGY:     -288.913275278 Eh
FINAL SINGLE POINT ENERGY      -288.913275277544

CARTESIAN COORDINATES (ANGSTROEM)
---------------------------------
  Si     0.000000    0.000000    0.000000

 Multiplicity           Mult            ....    3
 Number of Electrons    NEL             ....   14
 Basis Dimension        Dim             ....   84

ORBITAL ENERGIES
----------------
                 SPIN UP ORBITALS
  NO   OCC          E(Eh)            E(eV)
   0   1.0000     -68.815806     -1872.5733
   1   1.0000      -6.160877      -167.6460
   2   1.0000      -4.268211      -116.1439
   3   1.0000      -4.268211      -116.1439
   4   1.0000      -4.258444      -115.8782
   5   1.0000      -0.619878       -16.8677
   6   1.0000      -0.301335        -8.1997
   7   1.0000      -0.301335        -8.1997
   8   0.0000      -0.010179        -0.2770
   9   0.0000       0.051740         1.4079
  10   0.0000       0.054084         1.4717
  11   0.0000       0.054084         1.4717
  12   0.0000       0.062423         1.6986

                 SPIN DOWN ORBITALS
  NO   OCC          E(Eh)            E(eV)
   0   1.0000     -68.806913     -1872.3313
   1   1.0000      -6.149839      -167.3456
   2   1.0000      -4.253881      -115.7540
   3   1.0000      -4.240537      -115.3909
   4   1.0000      -4.240537      -115.3909
   5   1.0000      -0.462901       -12.5962
   6   0.0000       0.005127         0.1395
   7   0.0000       0.031554         0.8586
   8   0.0000       0.031554         0.8586
   9   0.0000       0.058794         1.5999
  10   0.0000       0.067538         1.8378

MULLIKEN ATOMIC CHARGES AND SPIN POPULATIONS
--------------------------------------------
   0 Si:    0.000000    2.000000
Sum of atomic charges         :    0.0000000

LOEWDIN ATOMIC CHARGES AND SPIN POPULATIONS
-------------------------------------------
   0 Si:    0.000000    2.000000

MP2 TOTAL ENERGY:     -288.918498715 Eh
FINAL SINGLE POINT ENERGY      -288.918498715040

DIPOLE MOMENT
-------------
                                X             Y             Z
Electronic contribution:     -0.00000      -0.00000      -0.00000
Nuclear contribution   :      0.00000       0.00000       0.00000
                        -----------------------------------------
Total Dipole Moment    :     -0.00000      -0.00000      -0.00000
                        -----------------------------------------
Magnitude (a.u.)       :      0.00000
Magnitude (Debye)      :      0.00000

Rotational constants in cm-1:     0.000000     0.000000     0.000000
Rotational constants in MHz :     0.000000     0.000000     0.000000

                             ****ORCA TERMINATED NORMALLY****
TOTAL RUN TIME: 0 days 0 hours 6 minutes 6 seconds 470 msec
