                         Program Version 5.0.3 -  RELEASE  -
|  1> ! ri-mp2 aug-cc-pvdz aug-cc-pvdz/c tightscf
|  2> %pal nprocs 16 end
|  3> %maxcore 3800
|  4> %base "DZ_00_S"
|  5> %scf STABPerform true end
|  6>
|  7> *xyz 0 3
|  8> S         0.0 0.0 0.0
|  9> *
| 10>
| 11> $new_job
| 12> ! ri-mp2 aug-cc-pvtz aug-cc-pvtz/c tightscf
| 13> %pal nprocs 16 end
| 14> %maxcore 3800
| 15> %base "TZ_00_S"
| 16>
| 17> *xyz 0 3
| 18> S         0.0 0.0 0.0
| 19> *
| 20>
| 21> $new_job
| 22> ! ri-mp2 aug-cc-pvqz aug-cc-pvqz/c tightscf
| 23> %pal nprocs 16 end
| 24> %maxcore 3800
| 25> %base "QZ_00_S"
| 26>
| 27> *xyz 0 3
| 28> S         0.0 0.0 0.0
| 29> *
| 30>
| 31>
| 32>
| 33>
| 34>                          ****END OF INPUT****
 Total Charge           Charge          ....    0
 Multiplicity           Mult            ....    3
 Number of Electrons    NEL             ....   16
MP2 TOTAL ENERGY:     -397.588623298 Eh
FINAL SINGLE POINT ENERGY      -397.588623297547
MP2 TOTAL ENERGY:     -397.628327651 Eh
FINAL SINGLE POINT ENERGY      -397.628327650714

CARTESIAN COORDINATES (ANGSTROEM)
---------------------------------
  S      0.000000    0.000000    0.000000

 Multiplicity           Mult            ....    3
 Number of Electrons    NEL             ....   16
 Basis Dimension        Dim             ....   84

ORBITAL ENERGIES
----------------
                 SPIN UP ORBITALS
  NO   OCC          E(Eh)            E(eV)
   0   1.0000     -92.012687     -2503.7925
   1   1.0000      -9.013146      -245.2602
   2   1.0000      -6.705900      -182.4768
   3   1.0000      -6.705900      -182.4768
   4   1.0000      -6.685298      -181.9162
   5   1.0000      -0.989886       -26.9362
   6   1.0000      -0.486998       -13.2519
   7   1.0000      -0.486998       -13.2519
   8   1.0000      -0.415622       -11.3096
   9   0.0000       0.078668         2.1407
  10   0.0000       0.078668         2.1407
  11   0.0000       0.080865         2.2005
  12   0.0000       0.085166         2.3175
  13   0.0000       0.194952         5.3049

                 SPIN DOWN ORBITALS
  NO   OCC          E(Eh)            E(eV)
   0   1.0000     -91.994865     -2503.3075
   1   1.0000      -8.994125      -244.7426
   2   1.0000      -6.675489      -181.6493
   3   1.0000      -6.659612      -181.2173
   4   1.0000      -6.659612      -181.2173
   5   1.0000      -0.773996       -21.0615
   6   1.0000      -0.379463       -10.3257
   7   0.0000       0.001095         0.0298
   8   0.0000       0.001095         0.0298
   9   0.0000       0.086370         2.3502
  10   0.0000       0.088928         2.4199
  11   0.0000       0.100896         2.7455

MULLIKEN ATOMIC CHARGES AND SPIN POPULATIONS
--------------------------------------------
   0 S :   -0.000000    2.000000
Sum of atomic charges         :   -0.0000000

LOEWDIN ATOMIC CHARGES AND SPIN POPULATIONS
-------------------------------------------
   0 S :   -0.000000    2.000000

MP2 TOTAL ENERGY:     -397.640930833 Eh
FINAL SINGLE POINT ENERGY      -397.640930832668

DIPOLE MOMENT
-------------
                                X             Y             Z
Electronic contribution:      0.00000      -0.00000       0.00000
Nuclear contribution   :      0.00000       0.00000       0.00000
                        -----------------------------------------
Total Dipole Moment    :      0.00000      -0.00000       0.00000
                        -----------------------------------------
Magnitude (a.u.)       :      0.00000
Magnitude (Debye)      :      0.00000

Rotational constants in cm-1:     0.000000     0.000000     0.000000
Rotational constants in MHz :     0.000000     0.000000     0.000000

                             ****ORCA TERMINATED NORMALLY****
TOTAL RUN TIME: 0 days 0 hours 23 minutes 57 seconds 862 msec
