                         Program Version 5.0.3 -  RELEASE  -
|  1> ! ri-mp2 aug-cc-pvdz aug-cc-pvdz/c tightscf
|  2> %pal nprocs 16 end
|  3> %maxcore 3800
|  4> %base "DZ_01_N"
|  5> %scf STABPerform true end
|  6>
|  7> *xyz -1 3
|  8> N         0.0 0.0 0.0
|  9> *
| 10>
| 11> $new_job
| 12> ! ri-mp2 aug-cc-pvtz aug-cc-pvtz/c tightscf
| 13> %pal nprocs 16 end
| 14> %maxcore 3800
| 15> %base "TZ_01_N"
| 16>
| 17> *xyz -1 3
| 18> N         0.0 0.0 0.0
| 19> *
| 20>
| 21> $new_job
| 22> ! ri-mp2 aug-cc-pvqz aug-cc-pvqz/c tightscf
| 23> %pal nprocs 16 end
| 24> %maxcore 3800
| 25> %base "QZ_01_N"
| 26>
| 27> *xyz -1 3
| 28> N         0.0 0.0 0.0
| 29> *
| 30>
| 31>
| 32>
| 33>
| 34>                          ****END OF INPUT****
 Total Charge           Charge          ....   -1
 Multiplicity           Mult            ....    3
 Number of Electrons    NEL             ....    8
MP2 TOTAL ENERGY:      -54.441692321 Eh
FINAL SINGLE POINT ENERGY       -54.441692320629
MP2 TOTAL ENERGY:      -54.475811623 Eh
FINAL SINGLE POINT ENERGY       -54.475811622777

CARTESIAN COORDINATES (ANGSTROEM)
---------------------------------
  N      0.000000    0.000000    0.000000

 Multiplicity           Mult            ....    3
 Number of Electrons    NEL             ....    8
 Basis Dimension        Dim             ....   80

ORBITAL ENERGIES
----------------
                 SPIN UP ORBITALS
  NO   OCC          E(Eh)            E(eV)
   0   1.0000     -15.348061      -417.6420
   1   1.0000      -0.823162       -22.3994
   2   1.0000      -0.247405        -6.7322
   3   1.0000      -0.247405        -6.7322
   4   1.0000      -0.208567        -5.6754
   5   0.0000       0.282984         7.7004
   6   0.0000       0.282984         7.7004
   7   0.0000       0.298589         8.1250
   8   0.0000       0.307755         8.3744
   9   0.0000       0.551139        14.9973

                 SPIN DOWN ORBITALS
  NO   OCC          E(Eh)            E(eV)
   0   1.0000     -15.271105      -415.5479
   1   1.0000      -0.459220       -12.4960
   2   1.0000       0.049132         1.3369
   3   0.0000       0.257198         6.9987
   4   0.0000       0.257198         6.9987
   5   0.0000       0.300105         8.1663
   6   0.0000       0.349037         9.4978
   7   0.0000       0.450555        12.2602

MULLIKEN ATOMIC CHARGES AND SPIN POPULATIONS
--------------------------------------------
   0 N :   -1.000000    2.000000
Sum of atomic charges         :   -1.0000000

LOEWDIN ATOMIC CHARGES AND SPIN POPULATIONS
-------------------------------------------
   0 N :   -1.000000    2.000000

MP2 TOTAL ENERGY:      -54.483170661 Eh
FINAL SINGLE POINT ENERGY       -54.483170660710

DIPOLE MOMENT
-------------
                                X             Y             Z
Electronic contribution:     -0.00000       0.00000       0.00000
Nuclear contribution   :      0.00000       0.00000       0.00000
                        -----------------------------------------
Total Dipole Moment    :     -0.00000       0.00000       0.00000
                        -----------------------------------------
Magnitude (a.u.)       :      0.00000
Magnitude (Debye)      :      0.00000

Rotational constants in cm-1:     0.000000     0.000000     0.000000
Rotational constants in MHz :     0.000000     0.000000     0.000000

                             ****ORCA TERMINATED NORMALLY****
TOTAL RUN TIME: 0 days 0 hours 4 minutes 13 seconds 215 msec
