                         Program Version 5.0.3 -  RELEASE  -
|  1> ! ri-mp2 aug-cc-pvdz aug-cc-pvdz/c tightscf
|  2> %pal nprocs 16 end
|  3> %maxcore 3800
|  4> %base "DZ_01_H"
|  5>
|  6> *xyz -1 1
|  7> H         0.0 0.0 0.0
|  8> *
|  9>
| 10> $new_job
| 11> ! ri-mp2 aug-cc-pvtz aug-cc-pvtz/c tightscf
| 12> %pal nprocs 16 end
| 13> %maxcore 3800
| 14> %base "TZ_01_H"
| 15>
| 16> *xyz -1 1
| 17> H         0.0 0.0 0.0
| 18> *
| 19>
| 20> $new_job
| 21> ! ri-mp2 aug-cc-pvqz aug-cc-pvqz/c tightscf
| 22> %pal nprocs 16 end
| 23> %maxcore 3800
| 24> %base "QZ_01_H"
| 25>
| 26> *xyz -1 1
| 27> H         0.0 0.0 0.0
| 28> *
| 29>
| 30>
| 31>
| 32>
| 33>                          ****END OF INPUT****
 Total Charge           Charge          ....   -1
 Multiplicity           Mult            ....    1
 Number of Electrons    NEL             ....    2
MP2 TOTAL ENERGY:       -0.511790279 Eh
FINAL SINGLE POINT ENERGY        -0.511790278653
MP2 TOTAL ENERGY:       -0.515722337 Eh
FINAL SINGLE POINT ENERGY        -0.515722336795

CARTESIAN COORDINATES (ANGSTROEM)
---------------------------------
  H      0.000000    0.000000    0.000000

 Multiplicity           Mult            ....    1
 Number of Electrons    NEL             ....    2
 Basis Dimension        Dim             ....   46

ORBITAL ENERGIES
----------------

  NO   OCC          E(Eh)            E(eV)
   0   2.0000      -0.045851        -1.2477
   1   0.0000       0.223371         6.0782
   2   0.0000       0.396167        10.7802
   3   0.0000       0.396167        10.7802
   4   0.0000       0.396167        10.7802
   5   0.0000       0.665344        18.1049

MULLIKEN ATOMIC CHARGES
-----------------------
   0 H :   -1.000000
Sum of atomic charges:   -1.0000000

LOEWDIN ATOMIC CHARGES
----------------------
   0 H :   -1.000000

MP2 TOTAL ENERGY:       -0.517049293 Eh
FINAL SINGLE POINT ENERGY        -0.517049293220

DIPOLE MOMENT
-------------
                                X             Y             Z
Electronic contribution:     -0.00000       0.00000       0.00000
Nuclear contribution   :      0.00000       0.00000       0.00000
                        -----------------------------------------
Total Dipole Moment    :     -0.00000       0.00000       0.00000
                        -----------------------------------------
Magnitude (a.u.)       :      0.00000
Magnitude (Debye)      :      0.00000

Rotational constants in cm-1:     0.000000     0.000000     0.000000
Rotational constants in MHz :     0.000000     0.000000     0.000000

                             ****ORCA TERMINATED NORMALLY****
TOTAL RUN TIME: 0 days 0 hours 0 minutes 28 seconds 375 msec
