                         Program Version 5.0.3 -  RELEASE  -
|  1> ! ri-mp2 aug-cc-pvdz aug-cc-pvdz/c tightscf
|  2> %pal nprocs 16 end
|  3> %maxcore 3800
|  4> %base "DZ_01_C"
|  5> %scf STABPerform true end
|  6>
|  7> *xyz -1 4
|  8> C         0.0 0.0 0.0
|  9> *
| 10>
| 11> $new_job
| 12> ! ri-mp2 aug-cc-pvtz aug-cc-pvtz/c tightscf
| 13> %pal nprocs 16 end
| 14> %maxcore 3800
| 15> %base "TZ_01_C"
| 16>
| 17> *xyz -1 4
| 18> C         0.0 0.0 0.0
| 19> *
| 20>
| 21> $new_job
| 22> ! ri-mp2 aug-cc-pvqz aug-cc-pvqz/c tightscf
| 23> %pal nprocs 16 end
| 24> %maxcore 3800
| 25> %base "QZ_01_C"
| 26>
| 27> *xyz -1 4
| 28> C         0.0 0.0 0.0
| 29> *
| 30>
| 31>
| 32>
| 33>
| 34>                          ****END OF INPUT****
 Total Charge           Charge          ....   -1
 Multiplicity           Mult            ....    4
 Number of Electrons    NEL             ....    7
MP2 TOTAL ENERGY:      -37.785093196 Eh
FINAL SINGLE POINT ENERGY       -37.785093196389
MP2 TOTAL ENERGY:      -37.806053718 Eh
FINAL SINGLE POINT ENERGY       -37.806053717725

CARTESIAN COORDINATES (ANGSTROEM)
---------------------------------
  C      0.000000    0.000000    0.000000

 Multiplicity           Mult            ....    4
 Number of Electrons    NEL             ....    7
 Basis Dimension        Dim             ....   80

ORBITAL ENERGIES
----------------
                 SPIN UP ORBITALS
  NO   OCC          E(Eh)            E(eV)
   0   1.0000     -10.975315      -298.6535
   1   1.0000      -0.525530       -14.3004
   2   1.0000      -0.078030        -2.1233
   3   1.0000      -0.078030        -2.1233
   4   1.0000      -0.078030        -2.1233
   5   0.0000       0.239823         6.5259
   6   0.0000       0.239823         6.5259
   7   0.0000       0.239823         6.5259
   8   0.0000       0.257776         7.0144
   9   0.0000       0.428291        11.6544

                 SPIN DOWN ORBITALS
  NO   OCC          E(Eh)            E(eV)
   0   1.0000     -10.926818      -297.3338
   1   1.0000      -0.212900        -5.7933
   2   0.0000       0.226509         6.1636
   3   0.0000       0.226509         6.1636
   4   0.0000       0.226509         6.1636
   5   0.0000       0.279463         7.6046
   6   0.0000       0.433642        11.8000

MULLIKEN ATOMIC CHARGES AND SPIN POPULATIONS
--------------------------------------------
   0 C :   -1.000000    3.000000
Sum of atomic charges         :   -1.0000000

LOEWDIN ATOMIC CHARGES AND SPIN POPULATIONS
-------------------------------------------
   0 C :   -1.000000    3.000000

MP2 TOTAL ENERGY:      -37.813146862 Eh
FINAL SINGLE POINT ENERGY       -37.813146861522

DIPOLE MOMENT
-------------
                                X             Y             Z
Electronic contribution:     -0.00000       0.00000      -0.00000
Nuclear contribution   :      0.00000       0.00000       0.00000
                        -----------------------------------------
Total Dipole Moment    :     -0.00000       0.00000      -0.00000
                        -----------------------------------------
Magnitude (a.u.)       :      0.00000
Magnitude (Debye)      :      0.00000

Rotational constants in cm-1:     0.000000     0.000000     0.000000
Rotational constants in MHz :     0.000000     0.000000     0.000000

                             ****ORCA TERMINATED NORMALLY****
TOTAL RUN TIME: 0 days 0 hours 3 minutes 1 seconds 348 msec
