                         Program Version 5.0.3 -  RELEASE  -
|  1> ! ri-mp2 aug-cc-pvdz aug-cc-pvdz/c tightscf
|  2> %pal nprocs 16 end
|  3> %maxcore 3800
|  4> %base "DZ_01_S"
|  5> %scf STABPerform true end
|  6>
|  7> *xyz -1 2
|  8> S         0.0 0.0 0.0
|  9> *
| 10>
| 11> $new_job
| 12> ! ri-mp2 aug-cc-pvtz aug-cc-pvtz/c tightscf
| 13> %pal nprocs 16 end
| 14> %maxcore 3800
| 15> %base "TZ_01_S"
| 16>
| 17> *xyz -1 2
| 18> S         0.0 0.0 0.0
| 19> *
| 20>
| 21> $new_job
| 22> ! ri-mp2 aug-cc-pvqz aug-cc-pvqz/c tightscf
| 23> %pal nprocs 16 end
| 24> %maxcore 3800
| 25> %base "QZ_01_S"
| 26>
| 27> *xyz -1 2
| 28> S         0.0 0.0 0.0
| 29> *
| 30>
| 31>
| 32>
| 33>
| 34>                          ****END OF INPUT****
 Total Charge           Charge          ....   -1
 Multiplicity           Mult            ....    2
 Number of Electrons    NEL             ....   17
MP2 TOTAL ENERGY:     -397.654603855 Eh
FINAL SINGLE POINT ENERGY      -397.654603854558
MP2 TOTAL ENERGY:     -397.699394516 Eh
FINAL SINGLE POINT ENERGY      -397.699394515730

CARTESIAN COORDINATES (ANGSTROEM)
---------------------------------
  S      0.000000    0.000000    0.000000

 Multiplicity           Mult            ....    2
 Number of Electrons    NEL             ....   17
 Basis Dimension        Dim             ....   84

ORBITAL ENERGIES
----------------
                 SPIN UP ORBITALS
  NO   OCC          E(Eh)            E(eV)
   0   1.0000     -91.680033     -2494.7405
   1   1.0000      -8.679839      -236.1904
   2   1.0000      -6.374997      -173.4725
   3   1.0000      -6.357226      -172.9889
   4   1.0000      -6.357226      -172.9889
   5   1.0000      -0.634421       -17.2635
   6   1.0000      -0.173929        -4.7328
   7   1.0000      -0.106203        -2.8899
   8   1.0000      -0.106203        -2.8899
   9   0.0000       0.225187         6.1277
  10   0.0000       0.233448         6.3524
  11   0.0000       0.233448         6.3524
  12   0.0000       0.262338         7.1386
  13   0.0000       0.397282        10.8106

                 SPIN DOWN ORBITALS
  NO   OCC          E(Eh)            E(eV)
   0   1.0000     -91.671817     -2494.5170
   1   1.0000      -8.671019      -235.9504
   2   1.0000      -6.351981      -172.8462
   3   1.0000      -6.351981      -172.8462
   4   1.0000      -6.338119      -172.4690
   5   1.0000      -0.529896       -14.4192
   6   1.0000      -0.085450        -2.3252
   7   1.0000      -0.085450        -2.3252
   8   0.0000       0.204831         5.5737
   9   0.0000       0.234773         6.3885
  10   0.0000       0.234773         6.3885
  11   0.0000       0.266229         7.2445
  12   0.0000       0.304993         8.2993

MULLIKEN ATOMIC CHARGES AND SPIN POPULATIONS
--------------------------------------------
   0 S :   -1.000000    1.000000
Sum of atomic charges         :   -1.0000000

LOEWDIN ATOMIC CHARGES AND SPIN POPULATIONS
-------------------------------------------
   0 S :   -1.000000    1.000000

MP2 TOTAL ENERGY:     -397.715034032 Eh
FINAL SINGLE POINT ENERGY      -397.715034031971

DIPOLE MOMENT
-------------
                                X             Y             Z
Electronic contribution:     -0.00000       0.00000       0.00000
Nuclear contribution   :      0.00000       0.00000       0.00000
                        -----------------------------------------
Total Dipole Moment    :     -0.00000       0.00000       0.00000
                        -----------------------------------------
Magnitude (a.u.)       :      0.00000
Magnitude (Debye)      :      0.00000

Rotational constants in cm-1:     0.000000     0.000000     0.000000
Rotational constants in MHz :     0.000000     0.000000     0.000000

                             ****ORCA TERMINATED NORMALLY****
TOTAL RUN TIME: 0 days 0 hours 3 minutes 31 seconds 981 msec
