                         Program Version 5.0.3 -  RELEASE  -
|  1> ! ri-mp2 aug-cc-pvdz aug-cc-pvdz/c tightscf
|  2> %pal nprocs 16 end
|  3> %maxcore 3800
|  4> %base "DZ_01_F"
|  5> %scf STABPerform true end
|  6>
|  7> *xyz -1 1
|  8> F         0.0 0.0 0.0
|  9> *
| 10>
| 11> $new_job
| 12> ! ri-mp2 aug-cc-pvtz aug-cc-pvtz/c tightscf
| 13> %pal nprocs 16 end
| 14> %maxcore 3800
| 15> %base "TZ_01_F"
| 16>
| 17> *xyz -1 1
| 18> F         0.0 0.0 0.0
| 19> *
| 20>
| 21> $new_job
| 22> ! ri-mp2 aug-cc-pvqz aug-cc-pvqz/c tightscf
| 23> %pal nprocs 16 end
| 24> %maxcore 3800
| 25> %base "QZ_01_F"
| 26>
| 27> *xyz -1 1
| 28> F         0.0 0.0 0.0
| 29> *
| 30>
| 31>
| 32>
| 33>
| 34>                          ****END OF INPUT****
 Total Charge           Charge          ....   -1
 Multiplicity           Mult            ....    1
 Number of Electrons    NEL             ....   10
MP2 TOTAL ENERGY:      -99.665937626 Eh
FINAL SINGLE POINT ENERGY       -99.665937625891
MP2 TOTAL ENERGY:      -99.745854209 Eh
FINAL SINGLE POINT ENERGY       -99.745854209126

CARTESIAN COORDINATES (ANGSTROEM)
---------------------------------
  F      0.000000    0.000000    0.000000

 Multiplicity           Mult            ....    1
 Number of Electrons    NEL             ....   10
 Basis Dimension        Dim             ....   80

ORBITAL ENERGIES
----------------

  NO   OCC          E(Eh)            E(eV)
   0   2.0000     -25.830663      -702.8881
   1   2.0000      -1.074935       -29.2505
   2   2.0000      -0.180975        -4.9246
   3   2.0000      -0.180975        -4.9246
   4   2.0000      -0.180975        -4.9246
   5   0.0000       0.396320        10.7844
   6   0.0000       0.396320        10.7844
   7   0.0000       0.396320        10.7844
   8   0.0000       0.444486        12.0951
   9   0.0000       0.947818        25.7914

MULLIKEN ATOMIC CHARGES
-----------------------
   0 F :   -1.000000
Sum of atomic charges:   -1.0000000

LOEWDIN ATOMIC CHARGES
----------------------
   0 F :   -1.000000

MP2 TOTAL ENERGY:      -99.774399068 Eh
FINAL SINGLE POINT ENERGY       -99.774399068265

DIPOLE MOMENT
-------------
                                X             Y             Z
Electronic contribution:     -0.00000      -0.00000       0.00000
Nuclear contribution   :      0.00000       0.00000       0.00000
                        -----------------------------------------
Total Dipole Moment    :     -0.00000      -0.00000       0.00000
                        -----------------------------------------
Magnitude (a.u.)       :      0.00000
Magnitude (Debye)      :      0.00000

Rotational constants in cm-1:     0.000000     0.000000     0.000000
Rotational constants in MHz :     0.000000     0.000000     0.000000

                             ****ORCA TERMINATED NORMALLY****
TOTAL RUN TIME: 0 days 0 hours 3 minutes 46 seconds 682 msec
