                         Program Version 5.0.3 -  RELEASE  -
|  1> ! ri-mp2 aug-cc-pvdz aug-cc-pvdz/c tightscf
|  2> %pal nprocs 16 end
|  3> %maxcore 3800
|  4> %base "DZ_01_O"
|  5> %scf STABPerform true end
|  6>
|  7> *xyz -1 2
|  8> O         0.0 0.0 0.0
|  9> *
| 10>
| 11> $new_job
| 12> ! ri-mp2 aug-cc-pvtz aug-cc-pvtz/c tightscf
| 13> %pal nprocs 16 end
| 14> %maxcore 3800
| 15> %base "TZ_01_O"
| 16>
| 17> *xyz -1 2
| 18> O         0.0 0.0 0.0
| 19> *
| 20>
| 21> $new_job
| 22> ! ri-mp2 aug-cc-pvqz aug-cc-pvqz/c tightscf
| 23> %pal nprocs 16 end
| 24> %maxcore 3800
| 25> %base "QZ_01_O"
| 26>
| 27> *xyz -1 2
| 28> O         0.0 0.0 0.0
| 29> *
| 30>
| 31>
| 32>
| 33>
| 34>                          ****END OF INPUT****
 Total Charge           Charge          ....   -1
 Multiplicity           Mult            ....    2
 Number of Electrons    NEL             ....    9
MP2 TOTAL ENERGY:      -74.953595907 Eh
FINAL SINGLE POINT ENERGY       -74.953595907383
MP2 TOTAL ENERGY:      -75.011316838 Eh
FINAL SINGLE POINT ENERGY       -75.011316838474

CARTESIAN COORDINATES (ANGSTROEM)
---------------------------------
  O      0.000000    0.000000    0.000000

 Multiplicity           Mult            ....    2
 Number of Electrons    NEL             ....    9
 Basis Dimension        Dim             ....   80

ORBITAL ENERGIES
----------------
                 SPIN UP ORBITALS
  NO   OCC          E(Eh)            E(eV)
   0   1.0000     -20.224131      -550.3266
   1   1.0000      -0.909196       -24.7405
   2   1.0000      -0.237925        -6.4743
   3   1.0000      -0.144910        -3.9432
   4   1.0000      -0.144910        -3.9432
   5   0.0000       0.332789         9.0557
   6   0.0000       0.344076         9.3628
   7   0.0000       0.344076         9.3628
   8   0.0000       0.379602        10.3295
   9   0.0000       0.737417        20.0661

                 SPIN DOWN ORBITALS
  NO   OCC          E(Eh)            E(eV)
   0   1.0000     -20.183142      -549.2112
   1   1.0000      -0.729308       -19.8455
   2   1.0000      -0.079956        -2.1757
   3   1.0000      -0.079956        -2.1757
   4   0.0000       0.307817         8.3761
   5   0.0000       0.349471         9.5096
   6   0.0000       0.349471         9.5096
   7   0.0000       0.382250        10.4015
   8   0.0000       0.523042        14.2327

MULLIKEN ATOMIC CHARGES AND SPIN POPULATIONS
--------------------------------------------
   0 O :   -1.000000    1.000000
Sum of atomic charges         :   -1.0000000

LOEWDIN ATOMIC CHARGES AND SPIN POPULATIONS
-------------------------------------------
   0 O :   -1.000000    1.000000

MP2 TOTAL ENERGY:      -75.031512180 Eh
FINAL SINGLE POINT ENERGY       -75.031512179700

DIPOLE MOMENT
-------------
                                X             Y             Z
Electronic contribution:      0.00000       0.00000       0.00000
Nuclear contribution   :      0.00000       0.00000       0.00000
                        -----------------------------------------
Total Dipole Moment    :      0.00000       0.00000       0.00000
                        -----------------------------------------
Magnitude (a.u.)       :      0.00000
Magnitude (Debye)      :      0.00000

Rotational constants in cm-1:     0.000000     0.000000     0.000000
Rotational constants in MHz :     0.000000     0.000000     0.000000

                             ****ORCA TERMINATED NORMALLY****
TOTAL RUN TIME: 0 days 0 hours 2 minutes 58 seconds 483 msec
