                         Program Version 5.0.3 -  RELEASE  -
|  1> ! ri-mp2 aug-cc-pvdz aug-cc-pvdz/c tightscf
|  2> %pal nprocs 16 end
|  3> %maxcore 3800
|  4> %base "DZ_01_Cl"
|  5> %scf STABPerform true end
|  6>
|  7> *xyz -1 1
|  8> Cl         0.0 0.0 0.0
|  9> *
| 10>
| 11> $new_job
| 12> ! ri-mp2 aug-cc-pvtz aug-cc-pvtz/c tightscf
| 13> %pal nprocs 16 end
| 14> %maxcore 3800
| 15> %base "TZ_01_Cl"
| 16>
| 17> *xyz -1 1
| 18> Cl         0.0 0.0 0.0
| 19> *
| 20>
| 21> $new_job
| 22> ! ri-mp2 aug-cc-pvqz aug-cc-pvqz/c tightscf
| 23> %pal nprocs 16 end
| 24> %maxcore 3800
| 25> %base "QZ_01_Cl"
| 26>
| 27> *xyz -1 1
| 28> Cl         0.0 0.0 0.0
| 29> *
| 30>
| 31>
| 32>
| 33>
| 34>                          ****END OF INPUT****
 Total Charge           Charge          ....   -1
 Multiplicity           Mult            ....    1
 Number of Electrons    NEL             ....   18
MP2 TOTAL ENERGY:     -459.722753229 Eh
FINAL SINGLE POINT ENERGY      -459.722753228882
MP2 TOTAL ENERGY:     -459.780778937 Eh
FINAL SINGLE POINT ENERGY      -459.780778936571

CARTESIAN COORDINATES (ANGSTROEM)
---------------------------------
  Cl     0.000000    0.000000    0.000000

 Multiplicity           Mult            ....    1
 Number of Electrons    NEL             ....   18
 Basis Dimension        Dim             ....   84

ORBITAL ENERGIES
----------------

  NO   OCC          E(Eh)            E(eV)
   0   2.0000    -104.505300     -2843.7338
   1   2.0000     -10.229413      -278.3565
   2   2.0000      -7.695761      -209.4123
   3   2.0000      -7.695761      -209.4123
   4   2.0000      -7.695761      -209.4123
   5   2.0000      -0.733402       -19.9569
   6   2.0000      -0.150312        -4.0902
   7   2.0000      -0.150312        -4.0902
   8   2.0000      -0.150312        -4.0902
   9   0.0000       0.258580         7.0363
  10   0.0000       0.258580         7.0363
  11   0.0000       0.258580         7.0363
  12   0.0000       0.302381         8.2282
  13   0.0000       0.485200        13.2030

MULLIKEN ATOMIC CHARGES
-----------------------
   0 Cl:   -1.000000
Sum of atomic charges:   -1.0000000

LOEWDIN ATOMIC CHARGES
----------------------
   0 Cl:   -1.000000

MP2 TOTAL ENERGY:     -459.802370525 Eh
FINAL SINGLE POINT ENERGY      -459.802370525449

DIPOLE MOMENT
-------------
                                X             Y             Z
Electronic contribution:     -0.00000      -0.00000      -0.00000
Nuclear contribution   :      0.00000       0.00000       0.00000
                        -----------------------------------------
Total Dipole Moment    :     -0.00000      -0.00000      -0.00000
                        -----------------------------------------
Magnitude (a.u.)       :      0.00000
Magnitude (Debye)      :      0.00000

Rotational constants in cm-1:     0.000000     0.000000     0.000000
Rotational constants in MHz :     0.000000     0.000000     0.000000

                             ****ORCA TERMINATED NORMALLY****
TOTAL RUN TIME: 0 days 0 hours 3 minutes 46 seconds 788 msec
