                         Program Version 5.0.3 -  RELEASE  -
|  1> ! ri-mp2 aug-cc-pvdz aug-cc-pvdz/c tightscf
|  2> %pal nprocs 16 end
|  3> %maxcore 3800
|  4> %base "DZ_01_Si"
|  5> %scf STABPerform true end
|  6>
|  7> *xyz -1 4
|  8> Si         0.0 0.0 0.0
|  9> *
| 10>
| 11> $new_job
| 12> ! ri-mp2 aug-cc-pvtz aug-cc-pvtz/c tightscf
| 13> %pal nprocs 16 end
| 14> %maxcore 3800
| 15> %base "TZ_01_Si"
| 16>
| 17> *xyz -1 4
| 18> Si         0.0 0.0 0.0
| 19> *
| 20>
| 21> $new_job
| 22> ! ri-mp2 aug-cc-pvqz aug-cc-pvqz/c tightscf
| 23> %pal nprocs 16 end
| 24> %maxcore 3800
| 25> %base "QZ_01_Si"
| 26>
| 27> *xyz -1 4
| 28> Si         0.0 0.0 0.0
| 29> *
| 30>
| 31>
| 32>
| 33>
| 34>                          ****END OF INPUT****
 Total Charge           Charge          ....   -1
 Multiplicity           Mult            ....    4
 Number of Electrons    NEL             ....   15
MP2 TOTAL ENERGY:     -288.945754560 Eh
FINAL SINGLE POINT ENERGY      -288.945754559651
MP2 TOTAL ENERGY:     -288.964348002 Eh
FINAL SINGLE POINT ENERGY      -288.964348002015

CARTESIAN COORDINATES (ANGSTROEM)
---------------------------------
  Si     0.000000    0.000000    0.000000

 Multiplicity           Mult            ....    4
 Number of Electrons    NEL             ....   15
 Basis Dimension        Dim             ....   84

ORBITAL ENERGIES
----------------
                 SPIN UP ORBITALS
  NO   OCC          E(Eh)            E(eV)
   0   1.0000     -68.558205     -1865.5636
   1   1.0000      -5.903112      -160.6318
   2   1.0000      -4.009500      -109.1041
   3   1.0000      -4.009500      -109.1041
   4   1.0000      -4.009500      -109.1041
   5   1.0000      -0.400613       -10.9012
   6   1.0000      -0.062006        -1.6873
   7   1.0000      -0.062006        -1.6873
   8   1.0000      -0.062006        -1.6873
   9   0.0000       0.171556         4.6683
  10   0.0000       0.171556         4.6683
  11   0.0000       0.171556         4.6683
  12   0.0000       0.187530         5.1030
  13   0.0000       0.266050         7.2396

                 SPIN DOWN ORBITALS
  NO   OCC          E(Eh)            E(eV)
   0   1.0000     -68.548869     -1865.3096
   1   1.0000      -5.891854      -160.3255
   2   1.0000      -3.987569      -108.5073
   3   1.0000      -3.987569      -108.5073
   4   1.0000      -3.987569      -108.5073
   5   1.0000      -0.204216        -5.5570
   6   0.0000       0.162359         4.4180
   7   0.0000       0.162359         4.4180
   8   0.0000       0.162359         4.4180
   9   0.0000       0.204995         5.5782
  10   0.0000       0.281726         7.6662

MULLIKEN ATOMIC CHARGES AND SPIN POPULATIONS
--------------------------------------------
   0 Si:   -1.000000    3.000000
Sum of atomic charges         :   -1.0000000

LOEWDIN ATOMIC CHARGES AND SPIN POPULATIONS
-------------------------------------------
   0 Si:   -1.000000    3.000000

MP2 TOTAL ENERGY:     -288.970278564 Eh
FINAL SINGLE POINT ENERGY      -288.970278564373

DIPOLE MOMENT
-------------
                                X             Y             Z
Electronic contribution:      0.00000       0.00000       0.00000
Nuclear contribution   :      0.00000       0.00000       0.00000
                        -----------------------------------------
Total Dipole Moment    :      0.00000       0.00000       0.00000
                        -----------------------------------------
Magnitude (a.u.)       :      0.00000
Magnitude (Debye)      :      0.00000

Rotational constants in cm-1:     0.000000     0.000000     0.000000
Rotational constants in MHz :     0.000000     0.000000     0.000000

                             ****ORCA TERMINATED NORMALLY****
TOTAL RUN TIME: 0 days 0 hours 2 minutes 53 seconds 583 msec
