                         Program Version 5.0.3 -  RELEASE  -
|  1> ! ri-mp2 aug-cc-pvdz aug-cc-pvdz/c tightscf
|  2> %pal nprocs 16 end
|  3> %maxcore 3800
|  4> %base "DZ_01_P"
|  5> %scf STABPerform true end
|  6>
|  7> *xyz -1 3
|  8> P         0.0 0.0 0.0
|  9> *
| 10>
| 11> $new_job
| 12> ! ri-mp2 aug-cc-pvtz aug-cc-pvtz/c tightscf
| 13> %pal nprocs 16 end
| 14> %maxcore 3800
| 15> %base "TZ_01_P"
| 16>
| 17> *xyz -1 3
| 18> P         0.0 0.0 0.0
| 19> *
| 20>
| 21> $new_job
| 22> ! ri-mp2 aug-cc-pvqz aug-cc-pvqz/c tightscf
| 23> %pal nprocs 16 end
| 24> %maxcore 3800
| 25> %base "QZ_01_P"
| 26>
| 27> *xyz -1 3
| 28> P         0.0 0.0 0.0
| 29> *
| 30>
| 31>
| 32>
| 33>
| 34>                          ****END OF INPUT****
 Total Charge           Charge          ....   -1
 Multiplicity           Mult            ....    3
 Number of Electrons    NEL             ....   16
MP2 TOTAL ENERGY:     -340.786642167 Eh
FINAL SINGLE POINT ENERGY      -340.786642166652
MP2 TOTAL ENERGY:     -340.817890090 Eh
FINAL SINGLE POINT ENERGY      -340.817890090026

CARTESIAN COORDINATES (ANGSTROEM)
---------------------------------
  P      0.000000    0.000000    0.000000

 Multiplicity           Mult            ....    3
 Number of Electrons    NEL             ....   16
 Basis Dimension        Dim             ....   84

ORBITAL ENERGIES
----------------
                 SPIN UP ORBITALS
  NO   OCC          E(Eh)            E(eV)
   0   1.0000     -79.701034     -2168.7754
   1   1.0000      -7.241530      -197.0520
   2   1.0000      -5.142494      -139.9344
   3   1.0000      -5.142494      -139.9344
   4   1.0000      -5.129698      -139.5862
   5   1.0000      -0.530238       -14.4285
   6   1.0000      -0.123266        -3.3542
   7   1.0000      -0.123266        -3.3542
   8   1.0000      -0.066500        -1.8095
   9   0.0000       0.204798         5.5728
  10   0.0000       0.204798         5.5728
  11   0.0000       0.214715         5.8427
  12   0.0000       0.225962         6.1487
  13   0.0000       0.329907         8.9772

                 SPIN DOWN ORBITALS
  NO   OCC          E(Eh)            E(eV)
   0   1.0000     -79.689295     -2168.4560
   1   1.0000      -7.227973      -196.6831
   2   1.0000      -5.120286      -139.3301
   3   1.0000      -5.110780      -139.0714
   4   1.0000      -5.110780      -139.0714
   5   1.0000      -0.351293        -9.5592
   6   1.0000      -0.024977        -0.6797
   7   0.0000       0.188909         5.1405
   8   0.0000       0.188909         5.1405
   9   0.0000       0.219715         5.9788
  10   0.0000       0.233771         6.3612
  11   0.0000       0.300441         8.1754

MULLIKEN ATOMIC CHARGES AND SPIN POPULATIONS
--------------------------------------------
   0 P :   -1.000000    2.000000
Sum of atomic charges         :   -1.0000000

LOEWDIN ATOMIC CHARGES AND SPIN POPULATIONS
-------------------------------------------
   0 P :   -1.000000    2.000000

MP2 TOTAL ENERGY:     -340.827996602 Eh
FINAL SINGLE POINT ENERGY      -340.827996602160

DIPOLE MOMENT
-------------
                                X             Y             Z
Electronic contribution:      0.00000       0.00000      -0.00000
Nuclear contribution   :      0.00000       0.00000       0.00000
                        -----------------------------------------
Total Dipole Moment    :      0.00000       0.00000      -0.00000
                        -----------------------------------------
Magnitude (a.u.)       :      0.00000
Magnitude (Debye)      :      0.00000

Rotational constants in cm-1:     0.000000     0.000000     0.000000
Rotational constants in MHz :     0.000000     0.000000     0.000000

                             ****ORCA TERMINATED NORMALLY****
TOTAL RUN TIME: 0 days 0 hours 3 minutes 32 seconds 259 msec
