                         Program Version 5.0.3 -  RELEASE  -
|  1> ! ri-mp2 aug-cc-pvdz aug-cc-pvdz/c tightscf
|  2> %pal nprocs 16 end
|  3> %maxcore 3800
|  4> %base "DZ_01_B"
|  5> %scf STABPerform true end
|  6>
|  7> *xyz -1 3
|  8> B         0.0 0.0 0.0
|  9> *
| 10>
| 11> $new_job
| 12> ! ri-mp2 aug-cc-pvtz aug-cc-pvtz/c tightscf
| 13> %pal nprocs 16 end
| 14> %maxcore 3800
| 15> %base "TZ_01_B"
| 16>
| 17> *xyz -1 3
| 18> B         0.0 0.0 0.0
| 19> *
| 20>
| 21> $new_job
| 22> ! ri-mp2 aug-cc-pvqz aug-cc-pvqz/c tightscf
| 23> %pal nprocs 16 end
| 24> %maxcore 3800
| 25> %base "QZ_01_B"
| 26>
| 27> *xyz -1 3
| 28> B         0.0 0.0 0.0
| 29> *
| 30>
| 31>
| 32>
| 33>
| 34>                          ****END OF INPUT****
 Total Charge           Charge          ....   -1
 Multiplicity           Mult            ....    3
 Number of Electrons    NEL             ....    6
MP2 TOTAL ENERGY:      -24.572920823 Eh
FINAL SINGLE POINT ENERGY       -24.572920822668
MP2 TOTAL ENERGY:      -24.584196691 Eh
FINAL SINGLE POINT ENERGY       -24.584196691025

CARTESIAN COORDINATES (ANGSTROEM)
---------------------------------
  B      0.000000    0.000000    0.000000

 Multiplicity           Mult            ....    3
 Number of Electrons    NEL             ....    6
 Basis Dimension        Dim             ....   80

ORBITAL ENERGIES
----------------
                 SPIN UP ORBITALS
  NO   OCC          E(Eh)            E(eV)
   0   1.0000      -7.427425      -202.1105
   1   1.0000      -0.312035        -8.4909
   2   1.0000      -0.028442        -0.7739
   3   1.0000      -0.028442        -0.7739
   4   0.0000       0.155476         4.2307
   5   0.0000       0.173752         4.7280
   6   0.0000       0.173752         4.7280
   7   0.0000       0.193833         5.2745
   8   0.0000       0.274601         7.4723

                 SPIN DOWN ORBITALS
  NO   OCC          E(Eh)            E(eV)
   0   1.0000      -7.411498      -201.6771
   1   1.0000      -0.167231        -4.5506
   2   0.0000       0.158180         4.3043
   3   0.0000       0.164415         4.4740
   4   0.0000       0.164415         4.4740
   5   0.0000       0.208525         5.6743
   6   0.0000       0.290612         7.9080

MULLIKEN ATOMIC CHARGES AND SPIN POPULATIONS
--------------------------------------------
   0 B :   -1.000000    2.000000
Sum of atomic charges         :   -1.0000000

LOEWDIN ATOMIC CHARGES AND SPIN POPULATIONS
-------------------------------------------
   0 B :   -1.000000    2.000000

MP2 TOTAL ENERGY:      -24.588493849 Eh
FINAL SINGLE POINT ENERGY       -24.588493848798

DIPOLE MOMENT
-------------
                                X             Y             Z
Electronic contribution:      0.00000      -0.00000       0.00000
Nuclear contribution   :      0.00000       0.00000       0.00000
                        -----------------------------------------
Total Dipole Moment    :      0.00000      -0.00000       0.00000
                        -----------------------------------------
Magnitude (a.u.)       :      0.00000
Magnitude (Debye)      :      0.00000

Rotational constants in cm-1:     0.000000     0.000000     0.000000
Rotational constants in MHz :     0.000000     0.000000     0.000000

                             ****ORCA TERMINATED NORMALLY****
TOTAL RUN TIME: 0 days 0 hours 3 minutes 5 seconds 79 msec
