                         Program Version 5.0.3 -  RELEASE  -
|  1> ! ri-mp2 aug-cc-pvdz aug-cc-pvdz/c tightscf
|  2> %pal nprocs 16 end
|  3> %maxcore 3800
|  4> %base "DZ_02_N"
|  5> %scf STABPerform true end
|  6>
|  7> *xyz 1 3
|  8> N         0.0 0.0 0.0
|  9> *
| 10>
| 11> $new_job
| 12> ! ri-mp2 aug-cc-pvtz aug-cc-pvtz/c tightscf
| 13> %pal nprocs 16 end
| 14> %maxcore 3800
| 15> %base "TZ_02_N"
| 16>
| 17> *xyz 1 3
| 18> N         0.0 0.0 0.0
| 19> *
| 20>
| 21> $new_job
| 22> ! ri-mp2 aug-cc-pvqz aug-cc-pvqz/c tightscf
| 23> %pal nprocs 16 end
| 24> %maxcore 3800
| 25> %base "QZ_02_N"
| 26>
| 27> *xyz 1 3
| 28> N         0.0 0.0 0.0
| 29> *
| 30>
| 31>
| 32>
| 33>
| 34>                          ****END OF INPUT****
 Total Charge           Charge          ....    1
 Multiplicity           Mult            ....    3
 Number of Electrons    NEL             ....    6
MP2 TOTAL ENERGY:      -53.936104958 Eh
FINAL SINGLE POINT ENERGY       -53.936104957760
MP2 TOTAL ENERGY:      -53.962465745 Eh
FINAL SINGLE POINT ENERGY       -53.962465744687

CARTESIAN COORDINATES (ANGSTROEM)
---------------------------------
  N      0.000000    0.000000    0.000000

 Multiplicity           Mult            ....    3
 Number of Electrons    NEL             ....    6
 Basis Dimension        Dim             ....   80

ORBITAL ENERGIES
----------------
                 SPIN UP ORBITALS
  NO   OCC          E(Eh)            E(eV)
   0   1.0000     -16.320759      -444.1104
   1   1.0000      -1.622936       -44.1623
   2   1.0000      -1.116382       -30.3783
   3   1.0000      -1.116382       -30.3783
   4   0.0000      -0.460426       -12.5288
   5   0.0000      -0.129619        -3.5271
   6   0.0000      -0.084871        -2.3094
   7   0.0000      -0.084871        -2.3094
   8   0.0000      -0.076919        -2.0931

                 SPIN DOWN ORBITALS
  NO   OCC          E(Eh)            E(eV)
   0   1.0000     -16.246309      -442.0845
   1   1.0000      -1.305976       -35.5374
   2   0.0000      -0.404653       -11.0112
   3   0.0000      -0.327724        -8.9178
   4   0.0000      -0.327724        -8.9178
   5   0.0000      -0.119085        -3.2405
   6   0.0000      -0.072433        -1.9710

MULLIKEN ATOMIC CHARGES AND SPIN POPULATIONS
--------------------------------------------
   0 N :    1.000000    2.000000
Sum of atomic charges         :    1.0000000

LOEWDIN ATOMIC CHARGES AND SPIN POPULATIONS
-------------------------------------------
   0 N :    1.000000    2.000000

MP2 TOTAL ENERGY:      -53.971200297 Eh
FINAL SINGLE POINT ENERGY       -53.971200297031

DIPOLE MOMENT
-------------
                                X             Y             Z
Electronic contribution:     -0.00000      -0.00000      -0.00000
Nuclear contribution   :      0.00000       0.00000       0.00000
                        -----------------------------------------
Total Dipole Moment    :     -0.00000      -0.00000      -0.00000
                        -----------------------------------------
Magnitude (a.u.)       :      0.00000
Magnitude (Debye)      :      0.00000

Rotational constants in cm-1:     0.000000     0.000000     0.000000
Rotational constants in MHz :     0.000000     0.000000     0.000000

                             ****ORCA TERMINATED NORMALLY****
TOTAL RUN TIME: 0 days 0 hours 2 minutes 7 seconds 436 msec
