                         Program Version 5.0.3 -  RELEASE  -
|  1> ! ri-mp2 aug-cc-pvdz aug-cc-pvdz/c tightscf
|  2> %pal nprocs 16 end
|  3> %maxcore 3800
|  4> %base "DZ_02_S"
|  5> %scf STABPerform true end
|  6>
|  7> *xyz 1 4
|  8> S         0.0 0.0 0.0
|  9> *
| 10>
| 11> $new_job
| 12> ! ri-mp2 aug-cc-pvtz aug-cc-pvtz/c tightscf
| 13> %pal nprocs 16 end
| 14> %maxcore 3800
| 15> %base "TZ_02_S"
| 16>
| 17> *xyz 1 4
| 18> S         0.0 0.0 0.0
| 19> *
| 20>
| 21> $new_job
| 22> ! ri-mp2 aug-cc-pvqz aug-cc-pvqz/c tightscf
| 23> %pal nprocs 16 end
| 24> %maxcore 3800
| 25> %base "QZ_02_S"
| 26>
| 27> *xyz 1 4
| 28> S         0.0 0.0 0.0
| 29> *
| 30>
| 31>
| 32>
| 33>
| 34>                          ****END OF INPUT****
 Total Charge           Charge          ....    1
 Multiplicity           Mult            ....    4
 Number of Electrons    NEL             ....   15
MP2 TOTAL ENERGY:     -397.229502525 Eh
FINAL SINGLE POINT ENERGY      -397.229502524570
MP2 TOTAL ENERGY:     -397.260709222 Eh
FINAL SINGLE POINT ENERGY      -397.260709221796

CARTESIAN COORDINATES (ANGSTROEM)
---------------------------------
  S      0.000000    0.000000    0.000000

 Multiplicity           Mult            ....    4
 Number of Electrons    NEL             ....   15
 Basis Dimension        Dim             ....   84

ORBITAL ENERGIES
----------------
                 SPIN UP ORBITALS
  NO   OCC          E(Eh)            E(eV)
   0   1.0000     -92.449367     -2515.6752
   1   1.0000      -9.443692      -256.9759
   2   1.0000      -7.132820      -194.0939
   3   1.0000      -7.132820      -194.0939
   4   1.0000      -7.132820      -194.0939
   5   1.0000      -1.412413       -38.4337
   6   1.0000      -0.862366       -23.4662
   7   1.0000      -0.862366       -23.4662
   8   1.0000      -0.862366       -23.4662
   9   0.0000      -0.119415        -3.2494
  10   0.0000      -0.079218        -2.1556
  11   0.0000      -0.079218        -2.1556
  12   0.0000      -0.079218        -2.1556
  13   0.0000      -0.031137        -0.8473

                 SPIN DOWN ORBITALS
  NO   OCC          E(Eh)            E(eV)
   0   1.0000     -92.418879     -2514.8456
   1   1.0000      -9.411409      -256.0975
   2   1.0000      -7.074956      -192.5193
   3   1.0000      -7.074956      -192.5193
   4   1.0000      -7.074956      -192.5193
   5   1.0000      -1.067861       -29.0580
   6   0.0000      -0.306981        -8.3534
   7   0.0000      -0.306981        -8.3534
   8   0.0000      -0.306981        -8.3534
   9   0.0000      -0.106386        -2.8949
  10   0.0000      -0.065700        -1.7878

MULLIKEN ATOMIC CHARGES AND SPIN POPULATIONS
--------------------------------------------
   0 S :    1.000000    3.000000
Sum of atomic charges         :    1.0000000

LOEWDIN ATOMIC CHARGES AND SPIN POPULATIONS
-------------------------------------------
   0 S :    1.000000    3.000000

MP2 TOTAL ENERGY:     -397.269803987 Eh
FINAL SINGLE POINT ENERGY      -397.269803987159

DIPOLE MOMENT
-------------
                                X             Y             Z
Electronic contribution:      0.00000      -0.00000       0.00000
Nuclear contribution   :      0.00000       0.00000       0.00000
                        -----------------------------------------
Total Dipole Moment    :      0.00000      -0.00000       0.00000
                        -----------------------------------------
Magnitude (a.u.)       :      0.00000
Magnitude (Debye)      :      0.00000

Rotational constants in cm-1:     0.000000     0.000000     0.000000
Rotational constants in MHz :     0.000000     0.000000     0.000000

                             ****ORCA TERMINATED NORMALLY****
TOTAL RUN TIME: 0 days 0 hours 2 minutes 4 seconds 346 msec
