                         Program Version 5.0.3 -  RELEASE  -
|  1> ! ri-mp2 aug-cc-pvdz aug-cc-pvdz/c tightscf
|  2> %pal nprocs 16 end
|  3> %maxcore 3800
|  4> %base "DZ_02_C"
|  5> %scf STABPerform true end
|  6>
|  7> *xyz 1 2
|  8> C         0.0 0.0 0.0
|  9> *
| 10>
| 11> $new_job
| 12> ! ri-mp2 aug-cc-pvtz aug-cc-pvtz/c tightscf
| 13> %pal nprocs 16 end
| 14> %maxcore 3800
| 15> %base "TZ_02_C"
| 16>
| 17> *xyz 1 2
| 18> C         0.0 0.0 0.0
| 19> *
| 20>
| 21> $new_job
| 22> ! ri-mp2 aug-cc-pvqz aug-cc-pvqz/c tightscf
| 23> %pal nprocs 16 end
| 24> %maxcore 3800
| 25> %base "QZ_02_C"
| 26>
| 27> *xyz 1 2
| 28> C         0.0 0.0 0.0
| 29> *
| 30>
| 31>
| 32>
| 33>
| 34>                          ****END OF INPUT****
 Total Charge           Charge          ....    1
 Multiplicity           Mult            ....    2
 Number of Electrons    NEL             ....    5
MP2 TOTAL ENERGY:      -37.331909104 Eh
FINAL SINGLE POINT ENERGY       -37.331909104386
MP2 TOTAL ENERGY:      -37.345943301 Eh
FINAL SINGLE POINT ENERGY       -37.345943300940

CARTESIAN COORDINATES (ANGSTROEM)
---------------------------------
  C      0.000000    0.000000    0.000000

 Multiplicity           Mult            ....    2
 Number of Electrons    NEL             ....    5
 Basis Dimension        Dim             ....   80

ORBITAL ENERGIES
----------------
                 SPIN UP ORBITALS
  NO   OCC          E(Eh)            E(eV)
   0   1.0000     -11.912752      -324.1625
   1   1.0000      -1.224022       -33.3073
   2   1.0000      -0.914217       -24.8771
   3   0.0000      -0.362167        -9.8551
   4   0.0000      -0.362167        -9.8551
   5   0.0000      -0.121739        -3.3127
   6   0.0000      -0.085192        -2.3182
   7   0.0000      -0.078136        -2.1262

                 SPIN DOWN ORBITALS
  NO   OCC          E(Eh)            E(eV)
   0   1.0000     -11.882876      -323.3495
   1   1.0000      -1.087429       -29.5904
   2   0.0000      -0.340346        -9.2613
   3   0.0000      -0.340346        -9.2613
   4   0.0000      -0.273704        -7.4479
   5   0.0000      -0.116991        -3.1835
   6   0.0000      -0.076220        -2.0741

MULLIKEN ATOMIC CHARGES AND SPIN POPULATIONS
--------------------------------------------
   0 C :    1.000000    1.000000
Sum of atomic charges         :    1.0000000

LOEWDIN ATOMIC CHARGES AND SPIN POPULATIONS
-------------------------------------------
   0 C :    1.000000    1.000000

MP2 TOTAL ENERGY:      -37.351221993 Eh
FINAL SINGLE POINT ENERGY       -37.351221993169

DIPOLE MOMENT
-------------
                                X             Y             Z
Electronic contribution:     -0.00000      -0.00000       0.00000
Nuclear contribution   :      0.00000       0.00000       0.00000
                        -----------------------------------------
Total Dipole Moment    :     -0.00000      -0.00000       0.00000
                        -----------------------------------------
Magnitude (a.u.)       :      0.00000
Magnitude (Debye)      :      0.00000

Rotational constants in cm-1:     0.000000     0.000000     0.000000
Rotational constants in MHz :     0.000000     0.000000     0.000000

                             ****ORCA TERMINATED NORMALLY****
TOTAL RUN TIME: 0 days 0 hours 2 minutes 47 seconds 883 msec
