                         Program Version 5.0.3 -  RELEASE  -
|  1> ! ri-mp2 aug-cc-pvdz aug-cc-pvdz/c tightscf
|  2> %pal nprocs 16 end
|  3> %maxcore 3800
|  4> %base "DZ_02_O"
|  5> %scf STABPerform true end
|  6>
|  7> *xyz 1 4
|  8> O         0.0 0.0 0.0
|  9> *
| 10>
| 11> $new_job
| 12> ! ri-mp2 aug-cc-pvtz aug-cc-pvtz/c tightscf
| 13> %pal nprocs 16 end
| 14> %maxcore 3800
| 15> %base "TZ_02_O"
| 16>
| 17> *xyz 1 4
| 18> O         0.0 0.0 0.0
| 19> *
| 20>
| 21> $new_job
| 22> ! ri-mp2 aug-cc-pvqz aug-cc-pvqz/c tightscf
| 23> %pal nprocs 16 end
| 24> %maxcore 3800
| 25> %base "QZ_02_O"
| 26>
| 27> *xyz 1 4
| 28> O         0.0 0.0 0.0
| 29> *
| 30>
| 31>
| 32>
| 33>
| 34>                          ****END OF INPUT****
 Total Charge           Charge          ....    1
 Multiplicity           Mult            ....    4
 Number of Electrons    NEL             ....    7
MP2 TOTAL ENERGY:      -74.425730867 Eh
FINAL SINGLE POINT ENERGY       -74.425730867028
MP2 TOTAL ENERGY:      -74.469208568 Eh
FINAL SINGLE POINT ENERGY       -74.469208567866

CARTESIAN COORDINATES (ANGSTROEM)
---------------------------------
  O      0.000000    0.000000    0.000000

 Multiplicity           Mult            ....    4
 Number of Electrons    NEL             ....    7
 Basis Dimension        Dim             ....   80

ORBITAL ENERGIES
----------------
                 SPIN UP ORBITALS
  NO   OCC          E(Eh)            E(eV)
   0   1.0000     -21.411735      -582.6429
   1   1.0000      -2.071751       -56.3752
   2   1.0000      -1.330587       -36.2071
   3   1.0000      -1.330587       -36.2071
   4   1.0000      -1.330587       -36.2071
   5   0.0000      -0.134030        -3.6472
   6   0.0000      -0.084690        -2.3045
   7   0.0000      -0.084690        -2.3045
   8   0.0000      -0.084690        -2.3045
   9   0.0000       0.165974         4.5164

                 SPIN DOWN ORBITALS
  NO   OCC          E(Eh)            E(eV)
   0   1.0000     -21.278186      -579.0089
   1   1.0000      -1.530941       -41.6590
   2   0.0000      -0.382380       -10.4051
   3   0.0000      -0.382380       -10.4051
   4   0.0000      -0.382380       -10.4051
   5   0.0000      -0.116542        -3.1713
   6   0.0000      -0.058809        -1.6003

MULLIKEN ATOMIC CHARGES AND SPIN POPULATIONS
--------------------------------------------
   0 O :    1.000000    3.000000
Sum of atomic charges         :    1.0000000

LOEWDIN ATOMIC CHARGES AND SPIN POPULATIONS
-------------------------------------------
   0 O :    1.000000    3.000000

MP2 TOTAL ENERGY:      -74.483037648 Eh
FINAL SINGLE POINT ENERGY       -74.483037648419

DIPOLE MOMENT
-------------
                                X             Y             Z
Electronic contribution:     -0.00000       0.00000       0.00000
Nuclear contribution   :      0.00000       0.00000       0.00000
                        -----------------------------------------
Total Dipole Moment    :     -0.00000       0.00000       0.00000
                        -----------------------------------------
Magnitude (a.u.)       :      0.00000
Magnitude (Debye)      :      0.00000

Rotational constants in cm-1:     0.000000     0.000000     0.000000
Rotational constants in MHz :     0.000000     0.000000     0.000000

                             ****ORCA TERMINATED NORMALLY****
TOTAL RUN TIME: 0 days 0 hours 2 minutes 4 seconds 777 msec
