                         Program Version 5.0.3 -  RELEASE  -
|  1> ! ri-mp2 aug-cc-pvdz aug-cc-pvdz/c tightscf
|  2> %pal nprocs 16 end
|  3> %maxcore 3800
|  4> %base "DZ_02_B"
|  5> %scf STABPerform true end
|  6>
|  7> *xyz 1 1
|  8> B         0.0 0.0 0.0
|  9> *
| 10>
| 11> $new_job
| 12> ! ri-mp2 aug-cc-pvtz aug-cc-pvtz/c tightscf
| 13> %pal nprocs 16 end
| 14> %maxcore 3800
| 15> %base "TZ_02_B"
| 16>
| 17> *xyz 1 1
| 18> B         0.0 0.0 0.0
| 19> *
| 20>
| 21> $new_job
| 22> ! ri-mp2 aug-cc-pvqz aug-cc-pvqz/c tightscf
| 23> %pal nprocs 16 end
| 24> %maxcore 3800
| 25> %base "QZ_02_B"
| 26>
| 27> *xyz 1 1
| 28> B         0.0 0.0 0.0
| 29> *
| 30>
| 31>
| 32>
| 33>
| 34>                          ****END OF INPUT****
 Total Charge           Charge          ....    1
 Multiplicity           Mult            ....    1
 Number of Electrons    NEL             ....    4
MP2 TOTAL ENERGY:      -24.267670225 Eh
FINAL SINGLE POINT ENERGY       -24.267670225045
MP2 TOTAL ENERGY:      -24.272818855 Eh
FINAL SINGLE POINT ENERGY       -24.272818855294

CARTESIAN COORDINATES (ANGSTROEM)
---------------------------------
  B      0.000000    0.000000    0.000000

 Multiplicity           Mult            ....    1
 Number of Electrons    NEL             ....    4
 Basis Dimension        Dim             ....   80

ORBITAL ENERGIES
----------------

  NO   OCC          E(Eh)            E(eV)
   0   2.0000      -8.185972      -222.7516
   1   2.0000      -0.873829       -23.7781
   2   0.0000      -0.275874        -7.5069
   3   0.0000      -0.275874        -7.5069
   4   0.0000      -0.275874        -7.5069
   5   0.0000      -0.111529        -3.0349
   6   0.0000      -0.077012        -2.0956

MULLIKEN ATOMIC CHARGES
-----------------------
   0 B :    1.000000
Sum of atomic charges:    1.0000000

LOEWDIN ATOMIC CHARGES
----------------------
   0 B :    1.000000

MP2 TOTAL ENERGY:      -24.275559396 Eh
FINAL SINGLE POINT ENERGY       -24.275559396405

DIPOLE MOMENT
-------------
                                X             Y             Z
Electronic contribution:      0.00000       0.00000      -0.00000
Nuclear contribution   :      0.00000       0.00000       0.00000
                        -----------------------------------------
Total Dipole Moment    :      0.00000       0.00000      -0.00000
                        -----------------------------------------
Magnitude (a.u.)       :      0.00000
Magnitude (Debye)      :      0.00000

Rotational constants in cm-1:     0.000000     0.000000     0.000000
Rotational constants in MHz :     0.000000     0.000000     0.000000

                             ****ORCA TERMINATED NORMALLY****
TOTAL RUN TIME: 0 days 0 hours 2 minutes 47 seconds 35 msec
