                         Program Version 5.0.3 -  RELEASE  -
|  1> ! ri-mp2 aug-cc-pvdz aug-cc-pvdz/c tightscf
|  2> %pal nprocs 16 end
|  3> %maxcore 3800
|  4> %base "DZ_02_Si"
|  5> %scf STABPerform true end
|  6>
|  7> *xyz 1 2
|  8> Si         0.0 0.0 0.0
|  9> *
| 10>
| 11> $new_job
| 12> ! ri-mp2 aug-cc-pvtz aug-cc-pvtz/c tightscf
| 13> %pal nprocs 16 end
| 14> %maxcore 3800
| 15> %base "TZ_02_Si"
| 16>
| 17> *xyz 1 2
| 18> Si         0.0 0.0 0.0
| 19> *
| 20>
| 21> $new_job
| 22> ! ri-mp2 aug-cc-pvqz aug-cc-pvqz/c tightscf
| 23> %pal nprocs 16 end
| 24> %maxcore 3800
| 25> %base "QZ_02_Si"
| 26>
| 27> *xyz 1 2
| 28> Si         0.0 0.0 0.0
| 29> *
| 30>
| 31>
| 32>
| 33>
| 34>                          ****END OF INPUT****
 Total Charge           Charge          ....    1
 Multiplicity           Mult            ....    2
 Number of Electrons    NEL             ....   13
MP2 TOTAL ENERGY:     -288.604859910 Eh
FINAL SINGLE POINT ENERGY      -288.604859909592
MP2 TOTAL ENERGY:     -288.617403690 Eh
FINAL SINGLE POINT ENERGY      -288.617403689731

CARTESIAN COORDINATES (ANGSTROEM)
---------------------------------
  Si     0.000000    0.000000    0.000000

 Multiplicity           Mult            ....    2
 Number of Electrons    NEL             ....   13
 Basis Dimension        Dim             ....   84

ORBITAL ENERGIES
----------------
                 SPIN UP ORBITALS
  NO   OCC          E(Eh)            E(eV)
   0   1.0000     -69.177748     -1882.4222
   1   1.0000      -6.515355      -177.2918
   2   1.0000      -4.623631      -125.8154
   3   1.0000      -4.611172      -125.4764
   4   1.0000      -4.611172      -125.4764
   5   1.0000      -0.884762       -24.0756
   6   1.0000      -0.596005       -16.2181
   7   0.0000      -0.262667        -7.1475
   8   0.0000      -0.262667        -7.1475
   9   0.0000      -0.105350        -2.8667
  10   0.0000      -0.071916        -1.9569
  11   0.0000      -0.069627        -1.8946

                 SPIN DOWN ORBITALS
  NO   OCC          E(Eh)            E(eV)
   0   1.0000     -69.171923     -1882.2637
   1   1.0000      -6.508150      -177.0958
   2   1.0000      -4.608180      -125.3950
   3   1.0000      -4.608180      -125.3950
   4   1.0000      -4.591500      -124.9411
   5   1.0000      -0.796347       -21.6697
   6   0.0000      -0.251836        -6.8528
   7   0.0000      -0.251836        -6.8528
   8   0.0000      -0.200836        -5.4650
   9   0.0000      -0.101738        -2.7684
  10   0.0000      -0.068800        -1.8722

MULLIKEN ATOMIC CHARGES AND SPIN POPULATIONS
--------------------------------------------
   0 Si:    1.000000    1.000000
Sum of atomic charges         :    1.0000000

LOEWDIN ATOMIC CHARGES AND SPIN POPULATIONS
-------------------------------------------
   0 Si:    1.000000    1.000000

MP2 TOTAL ENERGY:     -288.621720359 Eh
FINAL SINGLE POINT ENERGY      -288.621720358887

DIPOLE MOMENT
-------------
                                X             Y             Z
Electronic contribution:     -0.00000      -0.00000      -0.00000
Nuclear contribution   :      0.00000       0.00000       0.00000
                        -----------------------------------------
Total Dipole Moment    :     -0.00000      -0.00000      -0.00000
                        -----------------------------------------
Magnitude (a.u.)       :      0.00000
Magnitude (Debye)      :      0.00000

Rotational constants in cm-1:     0.000000     0.000000     0.000000
Rotational constants in MHz :     0.000000     0.000000     0.000000

                             ****ORCA TERMINATED NORMALLY****
TOTAL RUN TIME: 0 days 0 hours 2 minutes 12 seconds 921 msec
