                         Program Version 5.0.3 -  RELEASE  -
|  1> ! ri-mp2 aug-cc-pvdz aug-cc-pvdz/c tightscf
|  2> %pal nprocs 16 end
|  3> %maxcore 3800
|  4> %base "DZ_02_P"
|  5> %scf STABPerform true end
|  6>
|  7> *xyz 1 3
|  8> P         0.0 0.0 0.0
|  9> *
| 10>
| 11> $new_job
| 12> ! ri-mp2 aug-cc-pvtz aug-cc-pvtz/c tightscf
| 13> %pal nprocs 16 end
| 14> %maxcore 3800
| 15> %base "TZ_02_P"
| 16>
| 17> *xyz 1 3
| 18> P         0.0 0.0 0.0
| 19> *
| 20>
| 21> $new_job
| 22> ! ri-mp2 aug-cc-pvqz aug-cc-pvqz/c tightscf
| 23> %pal nprocs 16 end
| 24> %maxcore 3800
| 25> %base "QZ_02_P"
| 26>
| 27> *xyz 1 3
| 28> P         0.0 0.0 0.0
| 29> *
| 30>
| 31>
| 32>
| 33>
| 34>                          ****END OF INPUT****
 Total Charge           Charge          ....    1
 Multiplicity           Mult            ....    3
 Number of Electrons    NEL             ....   14
MP2 TOTAL ENERGY:     -340.394891823 Eh
FINAL SINGLE POINT ENERGY      -340.394891823313
MP2 TOTAL ENERGY:     -340.414974842 Eh
FINAL SINGLE POINT ENERGY      -340.414974842064

CARTESIAN COORDINATES (ANGSTROEM)
---------------------------------
  P      0.000000    0.000000    0.000000

 Multiplicity           Mult            ....    3
 Number of Electrons    NEL             ....   14
 Basis Dimension        Dim             ....   84

ORBITAL ENERGIES
----------------
                 SPIN UP ORBITALS
  NO   OCC          E(Eh)            E(eV)
   0   1.0000     -80.389608     -2187.5124
   1   1.0000      -7.923325      -215.6046
   2   1.0000      -5.823294      -158.4599
   3   1.0000      -5.823294      -158.4599
   4   1.0000      -5.807419      -158.0279
   5   1.0000      -1.137966       -30.9656
   6   1.0000      -0.725125       -19.7317
   7   1.0000      -0.725125       -19.7317
   8   0.0000      -0.339496        -9.2382
   9   0.0000      -0.113083        -3.0772
  10   0.0000      -0.074949        -2.0395
  11   0.0000      -0.074949        -2.0395
  12   0.0000      -0.072691        -1.9780

                 SPIN DOWN ORBITALS
  NO   OCC          E(Eh)            E(eV)
   0   1.0000     -80.373770     -2187.0815
   1   1.0000      -7.905221      -215.1120
   2   1.0000      -5.799540      -157.8135
   3   1.0000      -5.779164      -157.2591
   4   1.0000      -5.779164      -157.2591
   5   1.0000      -0.934299       -25.4236
   6   0.0000      -0.311355        -8.4724
   7   0.0000      -0.252217        -6.8632
   8   0.0000      -0.252217        -6.8632
   9   0.0000      -0.105005        -2.8573
  10   0.0000      -0.070726        -1.9246

MULLIKEN ATOMIC CHARGES AND SPIN POPULATIONS
--------------------------------------------
   0 P :    1.000000    2.000000
Sum of atomic charges         :    1.0000000

LOEWDIN ATOMIC CHARGES AND SPIN POPULATIONS
-------------------------------------------
   0 P :    1.000000    2.000000

MP2 TOTAL ENERGY:     -340.421328462 Eh
FINAL SINGLE POINT ENERGY      -340.421328461935

DIPOLE MOMENT
-------------
                                X             Y             Z
Electronic contribution:      0.00000      -0.00000       0.00000
Nuclear contribution   :      0.00000       0.00000       0.00000
                        -----------------------------------------
Total Dipole Moment    :      0.00000      -0.00000       0.00000
                        -----------------------------------------
Magnitude (a.u.)       :      0.00000
Magnitude (Debye)      :      0.00000

Rotational constants in cm-1:     0.000000     0.000000     0.000000
Rotational constants in MHz :     0.000000     0.000000     0.000000

                             ****ORCA TERMINATED NORMALLY****
TOTAL RUN TIME: 0 days 0 hours 2 minutes 57 seconds 514 msec
