                         Program Version 5.0.3 -  RELEASE  -
|  1> ! ri-mp2 aug-cc-pvdz aug-cc-pvdz/c tightscf
|  2> %pal nprocs 16 end
|  3> %maxcore 3800
|  4> %base "DZ_03_B2"
|  5>
|  6> *xyzfile 0 3 03_B2.xyz
|  7>
|  8> $new_job
|  9> ! ri-mp2 aug-cc-pvtz aug-cc-pvtz/c tightscf
| 10> %pal nprocs 16 end
| 11> %maxcore 3800
| 12> %base "TZ_03_B2"
| 13>
| 14> *xyzfile 0 3 03_B2.xyz
| 15>
| 16> $new_job
| 17> ! ri-mp2 aug-cc-pvqz aug-cc-pvqz/c tightscf
| 18> %pal nprocs 16 end
| 19> %maxcore 3800
| 20> %base "QZ_03_B2"
| 21>
| 22> *xyzfile 0 3 03_B2.xyz
| 23>
| 24>
| 25>
| 26>                          ****END OF INPUT****
 Total Charge           Charge          ....    0
 Multiplicity           Mult            ....    3
 Number of Electrons    NEL             ....   10
MP2 TOTAL ENERGY:      -49.149105924 Eh
FINAL SINGLE POINT ENERGY       -49.149105923843
MP2 TOTAL ENERGY:      -49.182237402 Eh
FINAL SINGLE POINT ENERGY       -49.182237401735

CARTESIAN COORDINATES (ANGSTROEM)
---------------------------------
  B      1.802060    0.000000    0.000000
  B      3.197940    0.000000    0.000000

 Multiplicity           Mult            ....    3
 Number of Electrons    NEL             ....   10
 Basis Dimension        Dim             ....  160

ORBITAL ENERGIES
----------------
                 SPIN UP ORBITALS
  NO   OCC          E(Eh)            E(eV)
   0   1.0000      -7.687438      -209.1858
   1   1.0000      -7.684608      -209.1088
   2   1.0000      -0.741470       -20.1764
   3   1.0000      -0.425146       -11.5688
   4   1.0000      -0.380239       -10.3468
   5   1.0000      -0.336314        -9.1516
   6   0.0000      -0.057345        -1.5604
   7   0.0000       0.029610         0.8057
   8   0.0000       0.043466         1.1828
   9   0.0000       0.047787         1.3003
  10   0.0000       0.048647         1.3238

                 SPIN DOWN ORBITALS
  NO   OCC          E(Eh)            E(eV)
   0   1.0000      -7.663354      -208.5305
   1   1.0000      -7.660301      -208.4474
   2   1.0000      -0.691447       -18.8152
   3   1.0000      -0.299589        -8.1522
   4   0.0000      -0.012328        -0.3355
   5   0.0000       0.012571         0.3421
   6   0.0000       0.022046         0.5999
   7   0.0000       0.036024         0.9803
   8   0.0000       0.051598         1.4041

MULLIKEN ATOMIC CHARGES AND SPIN POPULATIONS
--------------------------------------------
   0 B :    0.000000    1.000000
   1 B :   -0.000000    1.000000
Sum of atomic charges         :    0.0000000

LOEWDIN ATOMIC CHARGES AND SPIN POPULATIONS
-------------------------------------------
   0 B :   -0.000000    1.000000
   1 B :    0.000000    1.000000

  Mayer bond orders larger than 0.100000
B(  0-B ,  1-B ) :   2.4340

MP2 TOTAL ENERGY:      -49.192891097 Eh
FINAL SINGLE POINT ENERGY       -49.192891096907

DIPOLE MOMENT
-------------
                                X             Y             Z
Electronic contribution:      0.00000       0.00000       0.00000
Nuclear contribution   :      0.00000       0.00000       0.00000
                        -----------------------------------------
Total Dipole Moment    :      0.00000       0.00000       0.00000
                        -----------------------------------------
Magnitude (a.u.)       :      0.00000
Magnitude (Debye)      :      0.00000

Rotational constants in cm-1:     0.000000     1.600684     1.600684
Rotational constants in MHz :     0.000000 47987.284632 47987.284632

                             ****ORCA TERMINATED NORMALLY****
TOTAL RUN TIME: 0 days 0 hours 0 minutes 42 seconds 147 msec
