                         Program Version 5.0.3 -  RELEASE  -
|  1> ! ri-mp2 aug-cc-pvdz aug-cc-pvdz/c tightscf
|  2> %pal nprocs 16 end
|  3> %maxcore 3800
|  4> %base "DZ_04_BH"
|  5>
|  6> *xyzfile 0 1 04_BH.xyz
|  7>
|  8> $new_job
|  9> ! ri-mp2 aug-cc-pvtz aug-cc-pvtz/c tightscf
| 10> %pal nprocs 16 end
| 11> %maxcore 3800
| 12> %base "TZ_04_BH"
| 13>
| 14> *xyzfile 0 1 04_BH.xyz
| 15>
| 16> $new_job
| 17> ! ri-mp2 aug-cc-pvqz aug-cc-pvqz/c tightscf
| 18> %pal nprocs 16 end
| 19> %maxcore 3800
| 20> %base "QZ_04_BH"
| 21>
| 22> *xyzfile 0 1 04_BH.xyz
| 23>
| 24>
| 25>
| 26>                          ****END OF INPUT****
 Total Charge           Charge          ....    0
 Multiplicity           Mult            ....    1
 Number of Electrons    NEL             ....    6
MP2 TOTAL ENERGY:      -25.188798610 Eh
FINAL SINGLE POINT ENERGY       -25.188798610021
MP2 TOTAL ENERGY:      -25.204552683 Eh
FINAL SINGLE POINT ENERGY       -25.204552683278

CARTESIAN COORDINATES (ANGSTROEM)
---------------------------------
  B      1.882046    0.000000    0.000000
  H      3.117954    0.000000    0.000000

 Multiplicity           Mult            ....    1
 Number of Electrons    NEL             ....    6
 Basis Dimension        Dim             ....  126

ORBITAL ENERGIES
----------------

  NO   OCC          E(Eh)            E(eV)
   0   2.0000      -7.686304      -209.1550
   1   2.0000      -0.648264       -17.6401
   2   2.0000      -0.348382        -9.4800
   3   0.0000       0.023988         0.6527
   4   0.0000       0.023988         0.6527
   5   0.0000       0.030900         0.8408
   6   0.0000       0.045645         1.2421
   7   0.0000       0.078681         2.1410

MULLIKEN ATOMIC CHARGES
-----------------------
   0 B :    0.120711
   1 H :   -0.120711
Sum of atomic charges:   -0.0000000

LOEWDIN ATOMIC CHARGES
----------------------
   0 B :    0.492729
   1 H :   -0.492729

  Mayer bond orders larger than 0.100000
B(  0-B ,  1-H ) :   0.8889

MP2 TOTAL ENERGY:      -25.209972844 Eh
FINAL SINGLE POINT ENERGY       -25.209972843582

DIPOLE MOMENT
-------------
                                X             Y             Z
Electronic contribution:     -0.45956      -0.00000      -0.00000
Nuclear contribution   :      1.14029       0.00000       0.00000
                        -----------------------------------------
Total Dipole Moment    :      0.68074      -0.00000      -0.00000
                        -----------------------------------------
Magnitude (a.u.)       :      0.68074
Magnitude (Debye)      :      1.73030

Rotational constants in cm-1:     0.000000    11.969668    11.969668
Rotational constants in MHz :     0.000000 358841.623834 358841.623834

                             ****ORCA TERMINATED NORMALLY****
TOTAL RUN TIME: 0 days 0 hours 0 minutes 36 seconds 790 msec
