                         Program Version 5.0.3 -  RELEASE  -
|  1> ! ri-mp2 aug-cc-pvdz aug-cc-pvdz/c tightscf
|  2> %pal nprocs 16 end
|  3> %maxcore 3800
|  4> %base "DZ_04_CH"
|  5>
|  6> *xyzfile 0 2 04_CH.xyz
|  7>
|  8> $new_job
|  9> ! ri-mp2 aug-cc-pvtz aug-cc-pvtz/c tightscf
| 10> %pal nprocs 16 end
| 11> %maxcore 3800
| 12> %base "TZ_04_CH"
| 13>
| 14> *xyzfile 0 2 04_CH.xyz
| 15>
| 16> $new_job
| 17> ! ri-mp2 aug-cc-pvqz aug-cc-pvqz/c tightscf
| 18> %pal nprocs 16 end
| 19> %maxcore 3800
| 20> %base "QZ_04_CH"
| 21>
| 22> *xyzfile 0 2 04_CH.xyz
| 23>
| 24>
| 25>
| 26>                          ****END OF INPUT****
 Total Charge           Charge          ....    0
 Multiplicity           Mult            ....    2
 Number of Electrons    NEL             ....    7
MP2 TOTAL ENERGY:      -38.358334290 Eh
FINAL SINGLE POINT ENERGY       -38.358334290424
MP2 TOTAL ENERGY:      -38.384960653 Eh
FINAL SINGLE POINT ENERGY       -38.384960652743

CARTESIAN COORDINATES (ANGSTROEM)
---------------------------------
  C      1.939663    0.000000    0.000000
  H      3.060337    0.000000    0.000000

 Multiplicity           Mult            ....    2
 Number of Electrons    NEL             ....    7
 Basis Dimension        Dim             ....  126

ORBITAL ENERGIES
----------------
                 SPIN UP ORBITALS
  NO   OCC          E(Eh)            E(eV)
   0   1.0000     -11.326408      -308.2072
   1   1.0000      -0.879378       -23.9291
   2   1.0000      -0.473291       -12.8789
   3   1.0000      -0.425515       -11.5789
   4   0.0000       0.018419         0.5012
   5   0.0000       0.026267         0.7148
   6   0.0000       0.080763         2.1977
   7   0.0000       0.083207         2.2642
   8   0.0000       0.103843         2.8257

                 SPIN DOWN ORBITALS
  NO   OCC          E(Eh)            E(eV)
   0   1.0000     -11.303237      -307.5767
   1   1.0000      -0.785175       -21.3657
   2   1.0000      -0.435251       -11.8438
   3   0.0000       0.027292         0.7426
   4   0.0000       0.029562         0.8044
   5   0.0000       0.053898         1.4667
   6   0.0000       0.084087         2.2881
   7   0.0000       0.112025         3.0484

MULLIKEN ATOMIC CHARGES AND SPIN POPULATIONS
--------------------------------------------
   0 C :   -0.278642    1.051646
   1 H :    0.278642   -0.051646
Sum of atomic charges         :   -0.0000000

LOEWDIN ATOMIC CHARGES AND SPIN POPULATIONS
-------------------------------------------
   0 C :    0.713125    0.740908
   1 H :   -0.713125    0.259092

  Mayer bond orders larger than 0.100000
B(  0-C ,  1-H ) :   0.8255

MP2 TOTAL ENERGY:      -38.393340625 Eh
FINAL SINGLE POINT ENERGY       -38.393340625073

DIPOLE MOMENT
-------------
                                X             Y             Z
Electronic contribution:     -0.34841       0.00000       0.00000
Nuclear contribution   :      0.96999       0.00000       0.00000
                        -----------------------------------------
Total Dipole Moment    :      0.62158       0.00000       0.00000
                        -----------------------------------------
Magnitude (a.u.)       :      0.62158
Magnitude (Debye)      :      1.57992

Rotational constants in cm-1:     0.000000    14.433646    14.433646
Rotational constants in MHz :     0.000000 432709.813127 432709.813127

                             ****ORCA TERMINATED NORMALLY****
TOTAL RUN TIME: 0 days 0 hours 0 minutes 41 seconds 215 msec
