                         Program Version 5.0.3 -  RELEASE  -
|  1> ! ri-mp2 aug-cc-pvdz aug-cc-pvdz/c tightscf
|  2> %pal nprocs 16 end
|  3> %maxcore 3800
|  4> %base "DZ_03_Cl2"
|  5>
|  6> *xyzfile 0 1 03_Cl2.xyz
|  7>
|  8> $new_job
|  9> ! ri-mp2 aug-cc-pvtz aug-cc-pvtz/c tightscf
| 10> %pal nprocs 16 end
| 11> %maxcore 3800
| 12> %base "TZ_03_Cl2"
| 13>
| 14> *xyzfile 0 1 03_Cl2.xyz
| 15>
| 16> $new_job
| 17> ! ri-mp2 aug-cc-pvqz aug-cc-pvqz/c tightscf
| 18> %pal nprocs 16 end
| 19> %maxcore 3800
| 20> %base "QZ_03_Cl2"
| 21>
| 22> *xyzfile 0 1 03_Cl2.xyz
| 23>
| 24>
| 25>
| 26>                          ****END OF INPUT****
 Total Charge           Charge          ....    0
 Multiplicity           Mult            ....    1
 Number of Electrons    NEL             ....   34
MP2 TOTAL ENERGY:     -919.258190511 Eh
FINAL SINGLE POINT ENERGY      -919.258190511348
MP2 TOTAL ENERGY:     -919.386826284 Eh
FINAL SINGLE POINT ENERGY      -919.386826283833

CARTESIAN COORDINATES (ANGSTROEM)
---------------------------------
  Cl     1.513497    0.000000    0.000000
  Cl     3.486503    0.000000    0.000000

 Multiplicity           Mult            ....    1
 Number of Electrons    NEL             ....   34
 Basis Dimension        Dim             ....  168

ORBITAL ENERGIES
----------------

  NO   OCC          E(Eh)            E(eV)
   0   2.0000    -104.897395     -2854.4032
   1   2.0000    -104.897393     -2854.4032
   2   2.0000     -10.619632      -288.9749
   3   2.0000     -10.619457      -288.9701
   4   2.0000      -8.086919      -220.0562
   5   2.0000      -8.086635      -220.0485
   6   2.0000      -8.083925      -219.9748
   7   2.0000      -8.083925      -219.9748
   8   2.0000      -8.083916      -219.9745
   9   2.0000      -8.083916      -219.9745
  10   2.0000      -1.223840       -33.3024
  11   2.0000      -1.013043       -27.5663
  12   2.0000      -0.600402       -16.3378
  13   2.0000      -0.572350       -15.5744
  14   2.0000      -0.572350       -15.5744
  15   2.0000      -0.442255       -12.0344
  16   2.0000      -0.442255       -12.0344
  17   0.0000       0.026965         0.7338
  18   0.0000       0.083506         2.2723
  19   0.0000       0.087527         2.3817
  20   0.0000       0.094116         2.5610
  21   0.0000       0.094116         2.5610

MULLIKEN ATOMIC CHARGES
-----------------------
   0 Cl:    0.000000
   1 Cl:   -0.000000
Sum of atomic charges:    0.0000000

LOEWDIN ATOMIC CHARGES
----------------------
   0 Cl:    0.000000
   1 Cl:   -0.000000

  Mayer bond orders larger than 0.100000
B(  0-Cl,  1-Cl) :   1.0378

MP2 TOTAL ENERGY:     -919.428945080 Eh
FINAL SINGLE POINT ENERGY      -919.428945079963

DIPOLE MOMENT
-------------
                                X             Y             Z
Electronic contribution:     -0.00000       0.00000       0.00000
Nuclear contribution   :      0.00000       0.00000       0.00000
                        -----------------------------------------
Total Dipole Moment    :     -0.00000       0.00000       0.00000
                        -----------------------------------------
Magnitude (a.u.)       :      0.00000
Magnitude (Debye)      :      0.00000

Rotational constants in cm-1:     0.000000     0.244296     0.244296
Rotational constants in MHz :     0.000000  7323.822343  7323.822343

                             ****ORCA TERMINATED NORMALLY****
TOTAL RUN TIME: 0 days 0 hours 0 minutes 39 seconds 192 msec
