                         Program Version 5.0.3 -  RELEASE  -
|  1> ! ri-mp2 aug-cc-pvdz aug-cc-pvdz/c tightscf
|  2> %pal nprocs 16 end
|  3> %maxcore 3800
|  4> %base "DZ_04_ClH"
|  5>
|  6> *xyzfile 0 1 04_ClH.xyz
|  7>
|  8> $new_job
|  9> ! ri-mp2 aug-cc-pvtz aug-cc-pvtz/c tightscf
| 10> %pal nprocs 16 end
| 11> %maxcore 3800
| 12> %base "TZ_04_ClH"
| 13>
| 14> *xyzfile 0 1 04_ClH.xyz
| 15>
| 16> $new_job
| 17> ! ri-mp2 aug-cc-pvqz aug-cc-pvqz/c tightscf
| 18> %pal nprocs 16 end
| 19> %maxcore 3800
| 20> %base "QZ_04_ClH"
| 21>
| 22> *xyzfile 0 1 04_ClH.xyz
| 23>
| 24>
| 25>
| 26>                          ****END OF INPUT****
 Total Charge           Charge          ....    0
 Multiplicity           Mult            ....    1
 Number of Electrons    NEL             ....   18
MP2 TOTAL ENERGY:     -460.251708487 Eh
FINAL SINGLE POINT ENERGY      -460.251708487296
MP2 TOTAL ENERGY:     -460.315113690 Eh
FINAL SINGLE POINT ENERGY      -460.315113690489

CARTESIAN COORDINATES (ANGSTROEM)
---------------------------------
  Cl     1.862699    0.000000    0.000000
  H      3.137301    0.000000    0.000000

 Multiplicity           Mult            ....    1
 Number of Electrons    NEL             ....   18
 Basis Dimension        Dim             ....  130

ORBITAL ENERGIES
----------------

  NO   OCC          E(Eh)            E(eV)
   0   2.0000    -104.848762     -2853.0799
   1   2.0000     -10.574500      -287.7468
   2   2.0000      -8.041816      -218.8289
   3   2.0000      -8.039871      -218.7760
   4   2.0000      -8.039871      -218.7760
   5   2.0000      -1.117210       -30.4008
   6   2.0000      -0.625709       -17.0264
   7   2.0000      -0.477121       -12.9831
   8   2.0000      -0.477121       -12.9831
   9   0.0000       0.025696         0.6992
  10   0.0000       0.089774         2.4429
  11   0.0000       0.097278         2.6471
  12   0.0000       0.097278         2.6471
  13   0.0000       0.121983         3.3193

MULLIKEN ATOMIC CHARGES
-----------------------
   0 Cl:   -0.240149
   1 H :    0.240149
Sum of atomic charges:   -0.0000000

LOEWDIN ATOMIC CHARGES
----------------------
   0 Cl:    1.310188
   1 H :   -1.310188

  Mayer bond orders larger than 0.100000
B(  0-Cl,  1-H ) :   1.0159

MP2 TOTAL ENERGY:     -460.336087044 Eh
FINAL SINGLE POINT ENERGY      -460.336087043589

DIPOLE MOMENT
-------------
                                X             Y             Z
Electronic contribution:     -0.74232       0.00000       0.00000
Nuclear contribution   :      1.21004       0.00000       0.00000
                        -----------------------------------------
Total Dipole Moment    :      0.46772       0.00000       0.00000
                        -----------------------------------------
Magnitude (a.u.)       :      0.46772
Magnitude (Debye)      :      1.18885

Rotational constants in cm-1:     0.000000    10.586754    10.586754
Rotational constants in MHz :     0.000000 317382.891224 317382.891224

                             ****ORCA TERMINATED NORMALLY****
TOTAL RUN TIME: 0 days 0 hours 0 minutes 44 seconds 927 msec
