                         Program Version 5.0.3 -  RELEASE  -
|  1> ! ri-mp2 aug-cc-pvdz aug-cc-pvdz/c tightscf
|  2> %pal nprocs 16 end
|  3> %maxcore 3800
|  4> %base "DZ_03_C2"
|  5>
|  6> *xyzfile 0 1 03_C2.xyz
|  7>
|  8> $new_job
|  9> ! ri-mp2 aug-cc-pvtz aug-cc-pvtz/c tightscf
| 10> %pal nprocs 16 end
| 11> %maxcore 3800
| 12> %base "TZ_03_C2"
| 13>
| 14> *xyzfile 0 1 03_C2.xyz
| 15>
| 16> $new_job
| 17> ! ri-mp2 aug-cc-pvqz aug-cc-pvqz/c tightscf
| 18> %pal nprocs 16 end
| 19> %maxcore 3800
| 20> %base "QZ_03_C2"
| 21>
| 22> *xyzfile 0 1 03_C2.xyz
| 23>
| 24>
| 25>
| 26>                          ****END OF INPUT****
 Total Charge           Charge          ....    0
 Multiplicity           Mult            ....    1
 Number of Electrons    NEL             ....   12
MP2 TOTAL ENERGY:      -75.705038469 Eh
FINAL SINGLE POINT ENERGY       -75.705038469389
MP2 TOTAL ENERGY:      -75.760602177 Eh
FINAL SINGLE POINT ENERGY       -75.760602176758

CARTESIAN COORDINATES (ANGSTROEM)
---------------------------------
  C      3.124097    0.000000    0.000000
  C      1.875903    0.000000    0.000000

 Multiplicity           Mult            ....    1
 Number of Electrons    NEL             ....   12
 Basis Dimension        Dim             ....  160

ORBITAL ENERGIES
----------------

  NO   OCC          E(Eh)            E(eV)
   0   2.0000     -11.361540      -309.1632
   1   2.0000     -11.359316      -309.1027
   2   2.0000      -1.059365       -28.8268
   3   2.0000      -0.518838       -14.1183
   4   2.0000      -0.456711       -12.4277
   5   2.0000      -0.456711       -12.4277
   6   0.0000      -0.115783        -3.1506
   7   0.0000       0.049313         1.3419
   8   0.0000       0.074554         2.0287
   9   0.0000       0.082821         2.2537
  10   0.0000       0.082821         2.2537

MULLIKEN ATOMIC CHARGES
-----------------------
   0 C :   -0.000000
   1 C :    0.000000
Sum of atomic charges:    0.0000000

LOEWDIN ATOMIC CHARGES
----------------------
   0 C :   -0.000000
   1 C :    0.000000

  Mayer bond orders larger than 0.100000
B(  0-C ,  1-C ) :   3.2837

MP2 TOTAL ENERGY:      -75.779365903 Eh
FINAL SINGLE POINT ENERGY       -75.779365903498

DIPOLE MOMENT
-------------
                                X             Y             Z
Electronic contribution:     -0.00000       0.00000       0.00000
Nuclear contribution   :      0.00000       0.00000       0.00000
                        -----------------------------------------
Total Dipole Moment    :     -0.00000       0.00000       0.00000
                        -----------------------------------------
Magnitude (a.u.)       :      0.00000
Magnitude (Debye)      :      0.00000

Rotational constants in cm-1:     0.000000     1.801704     1.801704
Rotational constants in MHz :     0.000000 54013.714748 54013.714748

                             ****ORCA TERMINATED NORMALLY****
TOTAL RUN TIME: 0 days 0 hours 0 minutes 38 seconds 542 msec
