                         Program Version 5.0.3 -  RELEASE  -
|  1> ! ri-mp2 aug-cc-pvdz aug-cc-pvdz/c tightscf
|  2> %pal nprocs 16 end
|  3> %maxcore 3800
|  4> %base "DZ_03_F2"
|  5>
|  6> *xyzfile 0 1 03_F2.xyz
|  7>
|  8> $new_job
|  9> ! ri-mp2 aug-cc-pvtz aug-cc-pvtz/c tightscf
| 10> %pal nprocs 16 end
| 11> %maxcore 3800
| 12> %base "TZ_03_F2"
| 13>
| 14> *xyzfile 0 1 03_F2.xyz
| 15>
| 16> $new_job
| 17> ! ri-mp2 aug-cc-pvqz aug-cc-pvqz/c tightscf
| 18> %pal nprocs 16 end
| 19> %maxcore 3800
| 20> %base "QZ_03_F2"
| 21>
| 22> *xyzfile 0 1 03_F2.xyz
| 23>
| 24>
| 25>
| 26>                          ****END OF INPUT****
 Total Charge           Charge          ....    0
 Multiplicity           Mult            ....    1
 Number of Electrons    NEL             ....   18
MP2 TOTAL ENERGY:     -199.125654538 Eh
FINAL SINGLE POINT ENERGY      -199.125654538226
MP2 TOTAL ENERGY:     -199.290602460 Eh
FINAL SINGLE POINT ENERGY      -199.290602460277

CARTESIAN COORDINATES (ANGSTROEM)
---------------------------------
  F      1.809532    0.000000    0.000000
  F      3.190468    0.000000    0.000000

 Multiplicity           Mult            ....    1
 Number of Electrons    NEL             ....   18
 Basis Dimension        Dim             ....  160

ORBITAL ENERGIES
----------------

  NO   OCC          E(Eh)            E(eV)
   0   2.0000     -26.426538      -719.1027
   1   2.0000     -26.426273      -719.0955
   2   2.0000      -1.781424       -48.4750
   3   2.0000      -1.489620       -40.5346
   4   2.0000      -0.818274       -22.2664
   5   2.0000      -0.818274       -22.2664
   6   2.0000      -0.763998       -20.7894
   7   2.0000      -0.660831       -17.9821
   8   2.0000      -0.660831       -17.9821
   9   0.0000       0.073430         1.9981
  10   0.0000       0.153229         4.1696
  11   0.0000       0.156050         4.2463
  12   0.0000       0.164267         4.4699
  13   0.0000       0.164267         4.4699

MULLIKEN ATOMIC CHARGES
-----------------------
   0 F :    0.000000
   1 F :   -0.000000
Sum of atomic charges:    0.0000000

LOEWDIN ATOMIC CHARGES
----------------------
   0 F :    0.000000
   1 F :   -0.000000

  Mayer bond orders larger than 0.100000
B(  0-F ,  1-F ) :   0.8856

MP2 TOTAL ENERGY:     -199.344709407 Eh
FINAL SINGLE POINT ENERGY      -199.344709406520

DIPOLE MOMENT
-------------
                                X             Y             Z
Electronic contribution:      0.00000       0.00000       0.00000
Nuclear contribution   :     -0.00000       0.00000       0.00000
                        -----------------------------------------
Total Dipole Moment    :      0.00000       0.00000       0.00000
                        -----------------------------------------
Magnitude (a.u.)       :      0.00000
Magnitude (Debye)      :      0.00000

Rotational constants in cm-1:     0.000000     0.930619     0.930619
Rotational constants in MHz :     0.000000 27899.256821 27899.256821

                             ****ORCA TERMINATED NORMALLY****
TOTAL RUN TIME: 0 days 0 hours 0 minutes 35 seconds 744 msec
