                         Program Version 5.0.3 -  RELEASE  -
|  1> ! ri-mp2 aug-cc-pvdz aug-cc-pvdz/c tightscf
|  2> %pal nprocs 16 end
|  3> %maxcore 3800
|  4> %base "DZ_04_FH"
|  5>
|  6> *xyzfile 0 1 04_FH.xyz
|  7>
|  8> $new_job
|  9> ! ri-mp2 aug-cc-pvtz aug-cc-pvtz/c tightscf
| 10> %pal nprocs 16 end
| 11> %maxcore 3800
| 12> %base "TZ_04_FH"
| 13>
| 14> *xyzfile 0 1 04_FH.xyz
| 15>
| 16> $new_job
| 17> ! ri-mp2 aug-cc-pvqz aug-cc-pvqz/c tightscf
| 18> %pal nprocs 16 end
| 19> %maxcore 3800
| 20> %base "QZ_04_FH"
| 21>
| 22> *xyzfile 0 1 04_FH.xyz
| 23>
| 24>
| 25>
| 26>                          ****END OF INPUT****
 Total Charge           Charge          ....    0
 Multiplicity           Mult            ....    1
 Number of Electrons    NEL             ....   10
MP2 TOTAL ENERGY:     -100.255802885 Eh
FINAL SINGLE POINT ENERGY      -100.255802885262
MP2 TOTAL ENERGY:     -100.340865157 Eh
FINAL SINGLE POINT ENERGY      -100.340865157491

CARTESIAN COORDINATES (ANGSTROEM)
---------------------------------
  F      2.038208    0.000000    0.000000
  H      2.961792    0.000000    0.000000

 Multiplicity           Mult            ....    1
 Number of Electrons    NEL             ....   10
 Basis Dimension        Dim             ....  126

ORBITAL ENERGIES
----------------

  NO   OCC          E(Eh)            E(eV)
   0   2.0000     -26.295909      -715.5481
   1   2.0000      -1.599142       -43.5149
   2   2.0000      -0.765799       -20.8385
   3   2.0000      -0.649777       -17.6813
   4   2.0000      -0.649777       -17.6813
   5   0.0000       0.028076         0.7640
   6   0.0000       0.114944         3.1278
   7   0.0000       0.171312         4.6616
   8   0.0000       0.171312         4.6616
   9   0.0000       0.179015         4.8712

MULLIKEN ATOMIC CHARGES
-----------------------
   0 F :   -0.429408
   1 H :    0.429408
Sum of atomic charges:   -0.0000000

LOEWDIN ATOMIC CHARGES
----------------------
   0 F :    1.109161
   1 H :   -1.109161

  Mayer bond orders larger than 0.100000
B(  0-F ,  1-H ) :   0.8717

MP2 TOTAL ENERGY:     -100.369724647 Eh
FINAL SINGLE POINT ENERGY      -100.369724647039

DIPOLE MOMENT
-------------
                                X             Y             Z
Electronic contribution:     -0.10455      -0.00000       0.00000
Nuclear contribution   :      0.86594       0.00000       0.00000
                        -----------------------------------------
Total Dipole Moment    :      0.76139      -0.00000       0.00000
                        -----------------------------------------
Magnitude (a.u.)       :      0.76139
Magnitude (Debye)      :      1.93531

Rotational constants in cm-1:     0.000000    20.646039    20.646039
Rotational constants in MHz :     0.000000 618952.666060 618952.666060

                             ****ORCA TERMINATED NORMALLY****
TOTAL RUN TIME: 0 days 0 hours 0 minutes 36 seconds 389 msec
