                         Program Version 5.0.3 -  RELEASE  -
|  1> ! ri-mp2 aug-cc-pvdz aug-cc-pvdz/c tightscf
|  2> %pal nprocs 16 end
|  3> %maxcore 3800
|  4> %base "DZ_03_H2"
|  5>
|  6> *xyzfile 0 1 03_H2.xyz
|  7>
|  8> $new_job
|  9> ! ri-mp2 aug-cc-pvtz aug-cc-pvtz/c tightscf
| 10> %pal nprocs 16 end
| 11> %maxcore 3800
| 12> %base "TZ_03_H2"
| 13>
| 14> *xyzfile 0 1 03_H2.xyz
| 15>
| 16> $new_job
| 17> ! ri-mp2 aug-cc-pvqz aug-cc-pvqz/c tightscf
| 18> %pal nprocs 16 end
| 19> %maxcore 3800
| 20> %base "QZ_03_H2"
| 21>
| 22> *xyzfile 0 1 03_H2.xyz
| 23>
| 24>
| 25>
| 26>                          ****END OF INPUT****
 Total Charge           Charge          ....    0
 Multiplicity           Mult            ....    1
 Number of Electrons    NEL             ....    2
MP2 TOTAL ENERGY:       -1.156113781 Eh
FINAL SINGLE POINT ENERGY        -1.156113780756
MP2 TOTAL ENERGY:       -1.164995904 Eh
FINAL SINGLE POINT ENERGY        -1.164995904360

CARTESIAN COORDINATES (ANGSTROEM)
---------------------------------
  H      2.128374    0.000000    0.000000
  H      2.871626    0.000000    0.000000

 Multiplicity           Mult            ....    1
 Number of Electrons    NEL             ....    2
 Basis Dimension        Dim             ....   92

ORBITAL ENERGIES
----------------

  NO   OCC          E(Eh)            E(eV)
   0   2.0000      -0.593875       -16.1602
   1   0.0000       0.047242         1.2855
   2   0.0000       0.047360         1.2887
   3   0.0000       0.160522         4.3680
   4   0.0000       0.173718         4.7271
   5   0.0000       0.173718         4.7271

MULLIKEN ATOMIC CHARGES
-----------------------
   0 H :    0.000000
   1 H :   -0.000000
Sum of atomic charges:    0.0000000

LOEWDIN ATOMIC CHARGES
----------------------
   0 H :    0.000000
   1 H :    0.000000

  Mayer bond orders larger than 0.100000
B(  0-H ,  1-H ) :   1.0000

MP2 TOTAL ENERGY:       -1.166703618 Eh
FINAL SINGLE POINT ENERGY        -1.166703618364

DIPOLE MOMENT
-------------
                                X             Y             Z
Electronic contribution:     -0.00000       0.00000       0.00000
Nuclear contribution   :     -0.00000       0.00000       0.00000
                        -----------------------------------------
Total Dipole Moment    :     -0.00000       0.00000       0.00000
                        -----------------------------------------
Magnitude (a.u.)       :      0.00000
Magnitude (Debye)      :      0.00000

Rotational constants in cm-1:     0.000000    60.547185    60.547185
Rotational constants in MHz :     0.000000 1815158.947711 1815158.947711

                             ****ORCA TERMINATED NORMALLY****
TOTAL RUN TIME: 0 days 0 hours 0 minutes 33 seconds 255 msec
