                         Program Version 5.0.3 -  RELEASE  -
|  1> ! ri-mp2 aug-cc-pvdz aug-cc-pvdz/c tightscf
|  2> %pal nprocs 16 end
|  3> %maxcore 3800
|  4> %base "DZ_04_NH"
|  5>
|  6> *xyzfile 0 3 04_NH.xyz
|  7>
|  8> $new_job
|  9> ! ri-mp2 aug-cc-pvtz aug-cc-pvtz/c tightscf
| 10> %pal nprocs 16 end
| 11> %maxcore 3800
| 12> %base "TZ_04_NH"
| 13>
| 14> *xyzfile 0 3 04_NH.xyz
| 15>
| 16> $new_job
| 17> ! ri-mp2 aug-cc-pvqz aug-cc-pvqz/c tightscf
| 18> %pal nprocs 16 end
| 19> %maxcore 3800
| 20> %base "QZ_04_NH"
| 21>
| 22> *xyzfile 0 3 04_NH.xyz
| 23>
| 24>
| 25>
| 26>                          ****END OF INPUT****
 Total Charge           Charge          ....    0
 Multiplicity           Mult            ....    3
 Number of Electrons    NEL             ....    8
MP2 TOTAL ENERGY:      -55.082543994 Eh
FINAL SINGLE POINT ENERGY       -55.082543994002
MP2 TOTAL ENERGY:      -55.122051937 Eh
FINAL SINGLE POINT ENERGY       -55.122051937297

CARTESIAN COORDINATES (ANGSTROEM)
---------------------------------
  N      1.981724    0.000000    0.000000
  H      3.018276    0.000000    0.000000

 Multiplicity           Mult            ....    3
 Number of Electrons    NEL             ....    8
 Basis Dimension        Dim             ....  126

ORBITAL ENERGIES
----------------
                 SPIN UP ORBITALS
  NO   OCC          E(Eh)            E(eV)
   0   1.0000     -15.639033      -425.5597
   1   1.0000      -1.173274       -31.9264
   2   1.0000      -0.586691       -15.9647
   3   1.0000      -0.547023       -14.8853
   4   1.0000      -0.547023       -14.8853
   5   0.0000       0.026706         0.7267
   6   0.0000       0.105387         2.8677
   7   0.0000       0.106317         2.8930
   8   0.0000       0.106317         2.8930
   9   0.0000       0.142320         3.8727

                 SPIN DOWN ORBITALS
  NO   OCC          E(Eh)            E(eV)
   0   1.0000     -15.577708      -423.8910
   1   1.0000      -0.921488       -25.0750
   2   1.0000      -0.508431       -13.8351
   3   0.0000       0.028743         0.7821
   4   0.0000       0.066792         1.8175
   5   0.0000       0.066792         1.8175
   6   0.0000       0.107746         2.9319
   7   0.0000       0.150954         4.1077

MULLIKEN ATOMIC CHARGES AND SPIN POPULATIONS
--------------------------------------------
   0 N :   -0.275337    2.058560
   1 H :    0.275337   -0.058560
Sum of atomic charges         :    0.0000000

LOEWDIN ATOMIC CHARGES AND SPIN POPULATIONS
-------------------------------------------
   0 N :    0.887724    1.530990
   1 H :   -0.887724    0.469010

  Mayer bond orders larger than 0.100000
B(  0-N ,  1-H ) :   0.9174

MP2 TOTAL ENERGY:      -55.134496818 Eh
FINAL SINGLE POINT ENERGY       -55.134496818298

DIPOLE MOMENT
-------------
                                X             Y             Z
Electronic contribution:     -0.26449      -0.00000      -0.00000
Nuclear contribution   :      0.90680       0.00000       0.00000
                        -----------------------------------------
Total Dipole Moment    :      0.64231      -0.00000      -0.00000
                        -----------------------------------------
Magnitude (a.u.)       :      0.64231
Magnitude (Debye)      :      1.63263

Rotational constants in cm-1:     0.000000    16.685336    16.685336
Rotational constants in MHz :     0.000000 500213.781166 500213.781166

                             ****ORCA TERMINATED NORMALLY****
TOTAL RUN TIME: 0 days 0 hours 0 minutes 41 seconds 438 msec
