                         Program Version 5.0.3 -  RELEASE  -
|  1> ! ri-mp2 aug-cc-pvdz aug-cc-pvdz/c tightscf
|  2> %pal nprocs 16 end
|  3> %maxcore 3800
|  4> %base "DZ_03_N2"
|  5>
|  6> *xyzfile 0 1 03_N2.xyz
|  7>
|  8> $new_job
|  9> ! ri-mp2 aug-cc-pvtz aug-cc-pvtz/c tightscf
| 10> %pal nprocs 16 end
| 11> %maxcore 3800
| 12> %base "TZ_03_N2"
| 13>
| 14> *xyzfile 0 1 03_N2.xyz
| 15>
| 16> $new_job
| 17> ! ri-mp2 aug-cc-pvqz aug-cc-pvqz/c tightscf
| 18> %pal nprocs 16 end
| 19> %maxcore 3800
| 20> %base "QZ_03_N2"
| 21>
| 22> *xyzfile 0 1 03_N2.xyz
| 23>
| 24>
| 25>
| 26>                          ****END OF INPUT****
 Total Charge           Charge          ....    0
 Multiplicity           Mult            ....    1
 Number of Electrons    NEL             ....   14
MP2 TOTAL ENERGY:     -109.276862205 Eh
FINAL SINGLE POINT ENERGY      -109.276862204639
MP2 TOTAL ENERGY:     -109.363620150 Eh
FINAL SINGLE POINT ENERGY      -109.363620149970

CARTESIAN COORDINATES (ANGSTROEM)
---------------------------------
  N      1.954048    0.000000    0.000000
  N      3.045952    0.000000    0.000000

 Multiplicity           Mult            ....    1
 Number of Electrons    NEL             ....   14
 Basis Dimension        Dim             ....  160

ORBITAL ENERGIES
----------------

  NO   OCC          E(Eh)            E(eV)
   0   2.0000     -15.681540      -426.7164
   1   2.0000     -15.677876      -426.6167
   2   2.0000      -1.475520       -40.1509
   3   2.0000      -0.777435       -21.1551
   4   2.0000      -0.635015       -17.2796
   5   2.0000      -0.616736       -16.7822
   6   2.0000      -0.616736       -16.7822
   7   0.0000       0.071269         1.9393
   8   0.0000       0.100648         2.7388
   9   0.0000       0.108034         2.9398
  10   0.0000       0.108034         2.9398
  11   0.0000       0.108679         2.9573

MULLIKEN ATOMIC CHARGES
-----------------------
   0 N :    0.000000
   1 N :   -0.000000
Sum of atomic charges:   -0.0000000

LOEWDIN ATOMIC CHARGES
----------------------
   0 N :   -0.000000
   1 N :    0.000000

  Mayer bond orders larger than 0.100000
B(  0-N ,  1-N ) :   2.7695

MP2 TOTAL ENERGY:     -109.392816885 Eh
FINAL SINGLE POINT ENERGY      -109.392816885356

DIPOLE MOMENT
-------------
                                X             Y             Z
Electronic contribution:      0.00000       0.00000       0.00000
Nuclear contribution   :     -0.00000       0.00000       0.00000
                        -----------------------------------------
Total Dipole Moment    :      0.00000       0.00000       0.00000
                        -----------------------------------------
Magnitude (a.u.)       :      0.00000
Magnitude (Debye)      :      0.00000

Rotational constants in cm-1:     0.000000     2.018895     2.018895
Rotational constants in MHz :     0.000000 60524.934982 60524.934982

                             ****ORCA TERMINATED NORMALLY****
TOTAL RUN TIME: 0 days 0 hours 0 minutes 37 seconds 400 msec
