                         Program Version 5.0.3 -  RELEASE  -
|  1> ! ri-mp2 aug-cc-pvdz aug-cc-pvdz/c tightscf
|  2> %pal nprocs 16 end
|  3> %maxcore 3800
|  4> %base "DZ_04_OH"
|  5>
|  6> *xyzfile 0 2 04_OH.xyz
|  7>
|  8> $new_job
|  9> ! ri-mp2 aug-cc-pvtz aug-cc-pvtz/c tightscf
| 10> %pal nprocs 16 end
| 11> %maxcore 3800
| 12> %base "TZ_04_OH"
| 13>
| 14> *xyzfile 0 2 04_OH.xyz
| 15>
| 16> $new_job
| 17> ! ri-mp2 aug-cc-pvqz aug-cc-pvqz/c tightscf
| 18> %pal nprocs 16 end
| 19> %maxcore 3800
| 20> %base "QZ_04_OH"
| 21>
| 22> *xyzfile 0 2 04_OH.xyz
| 23>
| 24>
| 25>
| 26>                          ****END OF INPUT****
 Total Charge           Charge          ....    0
 Multiplicity           Mult            ....    2
 Number of Electrons    NEL             ....    9
MP2 TOTAL ENERGY:      -75.565562134 Eh
FINAL SINGLE POINT ENERGY       -75.565562133826
MP2 TOTAL ENERGY:      -75.626312389 Eh
FINAL SINGLE POINT ENERGY       -75.626312388886

CARTESIAN COORDINATES (ANGSTROEM)
---------------------------------
  O      2.013615    0.000000    0.000000
  H      2.986385    0.000000    0.000000

 Multiplicity           Mult            ....    2
 Number of Electrons    NEL             ....    9
 Basis Dimension        Dim             ....  126

ORBITAL ENERGIES
----------------
                 SPIN UP ORBITALS
  NO   OCC          E(Eh)            E(eV)
   0   1.0000     -20.638889      -561.6127
   1   1.0000      -1.388441       -37.7814
   2   1.0000      -0.682006       -18.5583
   3   1.0000      -0.658749       -17.9255
   4   1.0000      -0.561634       -15.2828
   5   0.0000       0.027489         0.7480
   6   0.0000       0.113262         3.0820
   7   0.0000       0.130404         3.5485
   8   0.0000       0.137803         3.7498
   9   0.0000       0.161289         4.3889

                 SPIN DOWN ORBITALS
  NO   OCC          E(Eh)            E(eV)
   0   1.0000     -20.599038      -560.5283
   1   1.0000      -1.229771       -33.4638
   2   1.0000      -0.638157       -17.3651
   3   1.0000      -0.513567       -13.9749
   4   0.0000       0.028532         0.7764
   5   0.0000       0.060711         1.6520
   6   0.0000       0.115073         3.1313
   7   0.0000       0.139413         3.7936
   8   0.0000       0.164336         4.4718

MULLIKEN ATOMIC CHARGES AND SPIN POPULATIONS
--------------------------------------------
   0 O :   -0.314706    1.036122
   1 H :    0.314706   -0.036122
Sum of atomic charges         :    0.0000000

LOEWDIN ATOMIC CHARGES AND SPIN POPULATIONS
-------------------------------------------
   0 O :    1.025927    0.798274
   1 H :   -1.025927    0.201726

  Mayer bond orders larger than 0.100000
B(  0-O ,  1-H ) :   0.9656

MP2 TOTAL ENERGY:      -75.646596557 Eh
FINAL SINGLE POINT ENERGY       -75.646596556590

DIPOLE MOMENT
-------------
                                X             Y             Z
Electronic contribution:     -0.16524      -0.00000      -0.00000
Nuclear contribution   :      0.85769       0.00000       0.00000
                        -----------------------------------------
Total Dipole Moment    :      0.69245      -0.00000      -0.00000
                        -----------------------------------------
Magnitude (a.u.)       :      0.69245
Magnitude (Debye)      :      1.76006

Rotational constants in cm-1:     0.000000    18.786693    18.786693
Rotational constants in MHz :     0.000000 563210.885623 563210.885623

                             ****ORCA TERMINATED NORMALLY****
TOTAL RUN TIME: 0 days 0 hours 0 minutes 42 seconds 11 msec
