                         Program Version 5.0.3 -  RELEASE  -
|  1> ! ri-mp2 aug-cc-pvdz aug-cc-pvdz/c tightscf
|  2> %pal nprocs 16 end
|  3> %maxcore 3800
|  4> %base "DZ_03_O2"
|  5>
|  6> *xyzfile 0 3 03_O2.xyz
|  7>
|  8> $new_job
|  9> ! ri-mp2 aug-cc-pvtz aug-cc-pvtz/c tightscf
| 10> %pal nprocs 16 end
| 11> %maxcore 3800
| 12> %base "TZ_03_O2"
| 13>
| 14> *xyzfile 0 3 03_O2.xyz
| 15>
| 16> $new_job
| 17> ! ri-mp2 aug-cc-pvqz aug-cc-pvqz/c tightscf
| 18> %pal nprocs 16 end
| 19> %maxcore 3800
| 20> %base "QZ_03_O2"
| 21>
| 22> *xyzfile 0 3 03_O2.xyz
| 23>
| 24>
| 25>
| 26>                          ****END OF INPUT****
 Total Charge           Charge          ....    0
 Multiplicity           Mult            ....    3
 Number of Electrons    NEL             ....   16
MP2 TOTAL ENERGY:     -150.002601665 Eh
FINAL SINGLE POINT ENERGY      -150.002601664863
MP2 TOTAL ENERGY:     -150.119916648 Eh
FINAL SINGLE POINT ENERGY      -150.119916647522

CARTESIAN COORDINATES (ANGSTROEM)
---------------------------------
  O      1.902317    0.000000    0.000000
  O      3.097683    0.000000    0.000000

 Multiplicity           Mult            ....    3
 Number of Electrons    NEL             ....   16
 Basis Dimension        Dim             ....  160

ORBITAL ENERGIES
----------------
                 SPIN UP ORBITALS
  NO   OCC          E(Eh)            E(eV)
   0   1.0000     -20.753803      -564.7397
   1   1.0000     -20.753095      -564.7204
   2   1.0000      -1.727377       -47.0043
   3   1.0000      -1.203503       -32.7490
   4   1.0000      -0.849168       -23.1070
   5   1.0000      -0.849168       -23.1070
   6   1.0000      -0.771173       -20.9847
   7   1.0000      -0.554266       -15.0824
   8   1.0000      -0.554266       -15.0824
   9   0.0000       0.084134         2.2894
  10   0.0000       0.123714         3.3664
  11   0.0000       0.130156         3.5417
  12   0.0000       0.130156         3.5417
  13   0.0000       0.167432         4.5561

                 SPIN DOWN ORBITALS
  NO   OCC          E(Eh)            E(eV)
   0   1.0000     -20.699002      -563.2485
   1   1.0000     -20.697745      -563.2143
   2   1.0000      -1.597157       -43.4609
   3   1.0000      -0.990804       -26.9612
   4   1.0000      -0.708117       -19.2689
   5   1.0000      -0.583473       -15.8771
   6   1.0000      -0.583473       -15.8771
   7   0.0000       0.085884         2.3370
   8   0.0000       0.092344         2.5128
   9   0.0000       0.092344         2.5128
  10   0.0000       0.126451         3.4409
  11   0.0000       0.136233         3.7071

MULLIKEN ATOMIC CHARGES AND SPIN POPULATIONS
--------------------------------------------
   0 O :   -0.000000    1.000000
   1 O :    0.000000    1.000000
Sum of atomic charges         :    0.0000000

LOEWDIN ATOMIC CHARGES AND SPIN POPULATIONS
-------------------------------------------
   0 O :    0.000000    1.000000
   1 O :   -0.000000    1.000000

  Mayer bond orders larger than 0.100000
B(  0-O ,  1-O ) :   1.7972

MP2 TOTAL ENERGY:     -150.159733978 Eh
FINAL SINGLE POINT ENERGY      -150.159733977666

DIPOLE MOMENT
-------------
                                X             Y             Z
Electronic contribution:     -0.00000      -0.00000       0.00000
Nuclear contribution   :      0.00000       0.00000       0.00000
                        -----------------------------------------
Total Dipole Moment    :     -0.00000      -0.00000       0.00000
                        -----------------------------------------
Magnitude (a.u.)       :      0.00000
Magnitude (Debye)      :      0.00000

Rotational constants in cm-1:     0.000000     1.474799     1.474799
Rotational constants in MHz :     0.000000 44213.348657 44213.348657

                             ****ORCA TERMINATED NORMALLY****
TOTAL RUN TIME: 0 days 0 hours 0 minutes 42 seconds 571 msec
