                         Program Version 5.0.3 -  RELEASE  -
|  1> ! ri-mp2 aug-cc-pvdz aug-cc-pvdz/c tightscf
|  2> %pal nprocs 16 end
|  3> %maxcore 3800
|  4> %base "DZ_04_PH"
|  5>
|  6> *xyzfile 0 3 04_PH.xyz
|  7>
|  8> $new_job
|  9> ! ri-mp2 aug-cc-pvtz aug-cc-pvtz/c tightscf
| 10> %pal nprocs 16 end
| 11> %maxcore 3800
| 12> %base "TZ_04_PH"
| 13>
| 14> *xyzfile 0 3 04_PH.xyz
| 15>
| 16> $new_job
| 17> ! ri-mp2 aug-cc-pvqz aug-cc-pvqz/c tightscf
| 18> %pal nprocs 16 end
| 19> %maxcore 3800
| 20> %base "QZ_04_PH"
| 21>
| 22> *xyzfile 0 3 04_PH.xyz
| 23>
| 24>
| 25>
| 26>                          ****END OF INPUT****
 Total Charge           Charge          ....    0
 Multiplicity           Mult            ....    3
 Number of Electrons    NEL             ....   16
MP2 TOTAL ENERGY:     -341.374373116 Eh
FINAL SINGLE POINT ENERGY      -341.374373115769
MP2 TOTAL ENERGY:     -341.406277103 Eh
FINAL SINGLE POINT ENERGY      -341.406277102559

CARTESIAN COORDINATES (ANGSTROEM)
---------------------------------
  P      1.789253    0.000000    0.000000
  H      3.210747    0.000000    0.000000

 Multiplicity           Mult            ....    3
 Number of Electrons    NEL             ....   16
 Basis Dimension        Dim             ....  130

ORBITAL ENERGIES
----------------
                 SPIN UP ORBITALS
  NO   OCC          E(Eh)            E(eV)
   0   1.0000     -79.969380     -2176.0775
   1   1.0000      -7.512445      -204.4240
   2   1.0000      -5.414158      -147.3267
   3   1.0000      -5.414158      -147.3267
   4   1.0000      -5.398652      -146.9048
   5   1.0000      -0.850904       -23.1543
   6   1.0000      -0.475988       -12.9523
   7   1.0000      -0.386366       -10.5136
   8   1.0000      -0.386366       -10.5136
   9   0.0000       0.028250         0.7687
  10   0.0000       0.064303         1.7498
  11   0.0000       0.070417         1.9161
  12   0.0000       0.070417         1.9161
  13   0.0000       0.124596         3.3904

                 SPIN DOWN ORBITALS
  NO   OCC          E(Eh)            E(eV)
   0   1.0000     -79.956019     -2175.7139
   1   1.0000      -7.496422      -203.9880
   2   1.0000      -5.392004      -146.7239
   3   1.0000      -5.377394      -146.3263
   4   1.0000      -5.377394      -146.3263
   5   1.0000      -0.703590       -19.1457
   6   1.0000      -0.435726       -11.8567
   7   0.0000       0.025142         0.6841
   8   0.0000       0.025142         0.6841
   9   0.0000       0.030596         0.8326
  10   0.0000       0.065985         1.7955
  11   0.0000       0.101216         2.7542

MULLIKEN ATOMIC CHARGES AND SPIN POPULATIONS
--------------------------------------------
   0 P :    0.098569    2.069288
   1 H :   -0.098569   -0.069288
Sum of atomic charges         :   -0.0000000

LOEWDIN ATOMIC CHARGES AND SPIN POPULATIONS
-------------------------------------------
   0 P :    0.919287    1.527697
   1 H :   -0.919287    0.472303

  Mayer bond orders larger than 0.100000
B(  0-P ,  1-H ) :   0.9259

MP2 TOTAL ENERGY:     -341.416242698 Eh
FINAL SINGLE POINT ENERGY      -341.416242698023

DIPOLE MOMENT
-------------
                                X             Y             Z
Electronic contribution:     -1.12626       0.00000       0.00000
Nuclear contribution   :      1.33161       0.00000       0.00000
                        -----------------------------------------
Total Dipole Moment    :      0.20535       0.00000       0.00000
                        -----------------------------------------
Magnitude (a.u.)       :      0.20535
Magnitude (Debye)      :      0.52195

Rotational constants in cm-1:     0.000000     8.545830     8.545830
Rotational constants in MHz :     0.000000 256197.549734 256197.549734

                             ****ORCA TERMINATED NORMALLY****
TOTAL RUN TIME: 0 days 0 hours 0 minutes 41 seconds 584 msec
