                         Program Version 5.0.3 -  RELEASE  -
|  1> ! ri-mp2 aug-cc-pvdz aug-cc-pvdz/c tightscf
|  2> %pal nprocs 16 end
|  3> %maxcore 3800
|  4> %base "DZ_03_P2"
|  5>
|  6> *xyzfile 0 1 03_P2.xyz
|  7>
|  8> $new_job
|  9> ! ri-mp2 aug-cc-pvtz aug-cc-pvtz/c tightscf
| 10> %pal nprocs 16 end
| 11> %maxcore 3800
| 12> %base "TZ_03_P2"
| 13>
| 14> *xyzfile 0 1 03_P2.xyz
| 15>
| 16> $new_job
| 17> ! ri-mp2 aug-cc-pvqz aug-cc-pvqz/c tightscf
| 18> %pal nprocs 16 end
| 19> %maxcore 3800
| 20> %base "QZ_03_P2"
| 21>
| 22> *xyzfile 0 1 03_P2.xyz
| 23>
| 24>
| 25>
| 26>                          ****END OF INPUT****
 Total Charge           Charge          ....    0
 Multiplicity           Mult            ....    1
 Number of Electrons    NEL             ....   30
MP2 TOTAL ENERGY:     -681.702118729 Eh
FINAL SINGLE POINT ENERGY      -681.702118728797
MP2 TOTAL ENERGY:     -681.772207790 Eh
FINAL SINGLE POINT ENERGY      -681.772207789899

CARTESIAN COORDINATES (ANGSTROEM)
---------------------------------
  P      1.570344    0.000000    0.000000
  P      3.429656    0.000000    0.000000

 Multiplicity           Mult            ....    1
 Number of Electrons    NEL             ....   30
 Basis Dimension        Dim             ....  168

ORBITAL ENERGIES
----------------

  NO   OCC          E(Eh)            E(eV)
   0   2.0000     -79.969196     -2176.0725
   1   2.0000     -79.969190     -2176.0723
   2   2.0000      -7.513645      -204.4567
   3   2.0000      -7.512817      -204.4341
   4   2.0000      -5.406092      -147.1072
   5   2.0000      -5.404743      -147.0705
   6   2.0000      -5.404743      -147.0705
   7   2.0000      -5.404429      -147.0620
   8   2.0000      -5.404429      -147.0620
   9   2.0000      -5.403244      -147.0297
  10   2.0000      -0.909284       -24.7429
  11   2.0000      -0.603011       -16.4088
  12   2.0000      -0.408570       -11.1177
  13   2.0000      -0.376345       -10.2409
  14   2.0000      -0.376345       -10.2409
  15   0.0000       0.018705         0.5090
  16   0.0000       0.018705         0.5090
  17   0.0000       0.040326         1.0973
  18   0.0000       0.060646         1.6503
  19   0.0000       0.068709         1.8697

MULLIKEN ATOMIC CHARGES
-----------------------
   0 P :    0.000000
   1 P :   -0.000000
Sum of atomic charges:    0.0000000

LOEWDIN ATOMIC CHARGES
----------------------
   0 P :    0.000000
   1 P :   -0.000000

  Mayer bond orders larger than 0.100000
B(  0-P ,  1-P ) :   2.9029

MP2 TOTAL ENERGY:     -681.797013965 Eh
FINAL SINGLE POINT ENERGY      -681.797013965443

DIPOLE MOMENT
-------------
                                X             Y             Z
Electronic contribution:     -0.00000       0.00000       0.00000
Nuclear contribution   :     -0.00000       0.00000       0.00000
                        -----------------------------------------
Total Dipole Moment    :     -0.00000       0.00000       0.00000
                        -----------------------------------------
Magnitude (a.u.)       :      0.00000
Magnitude (Debye)      :      0.00000

Rotational constants in cm-1:     0.000000     0.314866     0.314866
Rotational constants in MHz :     0.000000  9439.434102  9439.434102

                             ****ORCA TERMINATED NORMALLY****
TOTAL RUN TIME: 0 days 0 hours 0 minutes 40 seconds 684 msec
