                         Program Version 5.0.3 -  RELEASE  -
|  1> ! ri-mp2 aug-cc-pvdz aug-cc-pvdz/c tightscf
|  2> %pal nprocs 16 end
|  3> %maxcore 3800
|  4> %base "DZ_03_S2"
|  5>
|  6> *xyzfile 0 3 03_S2.xyz
|  7>
|  8> $new_job
|  9> ! ri-mp2 aug-cc-pvtz aug-cc-pvtz/c tightscf
| 10> %pal nprocs 16 end
| 11> %maxcore 3800
| 12> %base "TZ_03_S2"
| 13>
| 14> *xyzfile 0 3 03_S2.xyz
| 15>
| 16> $new_job
| 17> ! ri-mp2 aug-cc-pvqz aug-cc-pvqz/c tightscf
| 18> %pal nprocs 16 end
| 19> %maxcore 3800
| 20> %base "QZ_03_S2"
| 21>
| 22> *xyzfile 0 3 03_S2.xyz
| 23>
| 24>
| 25>
| 26>                          ****END OF INPUT****
 Total Charge           Charge          ....    0
 Multiplicity           Mult            ....    3
 Number of Electrons    NEL             ....   32
MP2 TOTAL ENERGY:     -795.317191055 Eh
FINAL SINGLE POINT ENERGY      -795.317191054983
MP2 TOTAL ENERGY:     -795.415225825 Eh
FINAL SINGLE POINT ENERGY      -795.415225824908

CARTESIAN COORDINATES (ANGSTROEM)
---------------------------------
  S      1.563073    0.000000    0.000000
  S      3.436927    0.000000    0.000000

 Multiplicity           Mult            ....    3
 Number of Electrons    NEL             ....   32
 Basis Dimension        Dim             ....  168

ORBITAL ENERGIES
----------------
                 SPIN UP ORBITALS
  NO   OCC          E(Eh)            E(eV)
   0   1.0000     -92.017711     -2503.9292
   1   1.0000     -92.017708     -2503.9291
   2   1.0000      -9.018336      -245.4014
   3   1.0000      -9.017949      -245.3909
   4   1.0000      -6.705430      -182.4640
   5   1.0000      -6.705430      -182.4640
   6   1.0000      -6.705356      -182.4620
   7   1.0000      -6.705356      -182.4620
   8   1.0000      -6.695217      -182.1861
   9   1.0000      -6.694106      -182.1559
  10   1.0000      -1.118333       -30.4314
  11   1.0000      -0.865878       -23.5617
  12   1.0000      -0.539048       -14.6683
  13   1.0000      -0.539048       -14.6683
  14   1.0000      -0.536451       -14.5976
  15   1.0000      -0.379231       -10.3194
  16   1.0000      -0.379231       -10.3194
  17   0.0000       0.043492         1.1835
  18   0.0000       0.071926         1.9572
  19   0.0000       0.078256         2.1295
  20   0.0000       0.078256         2.1295
  21   0.0000       0.096392         2.6230

                 SPIN DOWN ORBITALS
  NO   OCC          E(Eh)            E(eV)
   0   1.0000     -92.006470     -2503.6233
   1   1.0000     -92.006464     -2503.6232
   2   1.0000      -9.006076      -245.0678
   3   1.0000      -9.005578      -245.0542
   4   1.0000      -6.690112      -182.0472
   5   1.0000      -6.688948      -182.0155
   6   1.0000      -6.676966      -181.6895
   7   1.0000      -6.676966      -181.6895
   8   1.0000      -6.676848      -181.6863
   9   1.0000      -6.676848      -181.6863
  10   1.0000      -1.055346       -28.7174
  11   1.0000      -0.723017       -19.6743
  12   1.0000      -0.495858       -13.4930
  13   1.0000      -0.416840       -11.3428
  14   1.0000      -0.416840       -11.3428
  15   0.0000       0.007978         0.2171
  16   0.0000       0.007978         0.2171
  17   0.0000       0.045861         1.2479
  18   0.0000       0.073593         2.0026
  19   0.0000       0.080203         2.1824

MULLIKEN ATOMIC CHARGES AND SPIN POPULATIONS
--------------------------------------------
   0 S :    0.000000    1.000000
   1 S :   -0.000000    1.000000
Sum of atomic charges         :   -0.0000000

LOEWDIN ATOMIC CHARGES AND SPIN POPULATIONS
-------------------------------------------
   0 S :    0.000000    1.000000
   1 S :   -0.000000    1.000000

  Mayer bond orders larger than 0.100000
B(  0-S ,  1-S ) :   1.9439

MP2 TOTAL ENERGY:     -795.448041854 Eh
FINAL SINGLE POINT ENERGY      -795.448041853756

DIPOLE MOMENT
-------------
                                X             Y             Z
Electronic contribution:     -0.00000      -0.00000       0.00000
Nuclear contribution   :      0.00000       0.00000       0.00000
                        -----------------------------------------
Total Dipole Moment    :     -0.00000      -0.00000       0.00000
                        -----------------------------------------
Magnitude (a.u.)       :      0.00000
Magnitude (Debye)      :      0.00000

Rotational constants in cm-1:     0.000000     0.299497     0.299497
Rotational constants in MHz :     0.000000  8978.687135  8978.687135

                             ****ORCA TERMINATED NORMALLY****
TOTAL RUN TIME: 0 days 0 hours 0 minutes 46 seconds 51 msec
