                         Program Version 5.0.3 -  RELEASE  -
|  1> ! ri-mp2 aug-cc-pvdz aug-cc-pvdz/c tightscf
|  2> %pal nprocs 16 end
|  3> %maxcore 3800
|  4> %base "DZ_04_SH"
|  5>
|  6> *xyzfile 0 2 04_SH.xyz
|  7>
|  8> $new_job
|  9> ! ri-mp2 aug-cc-pvtz aug-cc-pvtz/c tightscf
| 10> %pal nprocs 16 end
| 11> %maxcore 3800
| 12> %base "TZ_04_SH"
| 13>
| 14> *xyzfile 0 2 04_SH.xyz
| 15>
| 16> $new_job
| 17> ! ri-mp2 aug-cc-pvqz aug-cc-pvqz/c tightscf
| 18> %pal nprocs 16 end
| 19> %maxcore 3800
| 20> %base "QZ_04_SH"
| 21>
| 22> *xyzfile 0 2 04_SH.xyz
| 23>
| 24>
| 25>
| 26>                          ****END OF INPUT****
 Total Charge           Charge          ....    0
 Multiplicity           Mult            ....    2
 Number of Electrons    NEL             ....   17
MP2 TOTAL ENERGY:     -398.212301613 Eh
FINAL SINGLE POINT ENERGY      -398.212301613011
MP2 TOTAL ENERGY:     -398.260260056 Eh
FINAL SINGLE POINT ENERGY      -398.260260056478

CARTESIAN COORDINATES (ANGSTROEM)
---------------------------------
  S      1.829956    0.000000    0.000000
  H      3.170044    0.000000    0.000000

 Multiplicity           Mult            ....    2
 Number of Electrons    NEL             ....   17
 Basis Dimension        Dim             ....  130

ORBITAL ENERGIES
----------------
                 SPIN UP ORBITALS
  NO   OCC          E(Eh)            E(eV)
   0   1.0000     -91.989516     -2503.1620
   1   1.0000      -8.991227      -244.6637
   2   1.0000      -6.687146      -181.9665
   3   1.0000      -6.668644      -181.4630
   4   1.0000      -6.667097      -181.4209
   5   1.0000      -0.988702       -26.9039
   6   1.0000      -0.552571       -15.0362
   7   1.0000      -0.471712       -12.8359
   8   1.0000      -0.401974       -10.9383
   9   0.0000       0.026461         0.7200
  10   0.0000       0.075844         2.0638
  11   0.0000       0.078454         2.1348
  12   0.0000       0.084859         2.3091
  13   0.0000       0.120986         3.2922

                 SPIN DOWN ORBITALS
  NO   OCC          E(Eh)            E(eV)
   0   1.0000     -91.980445     -2502.9151
   1   1.0000      -8.981246      -244.3921
   2   1.0000      -6.663812      -181.3315
   3   1.0000      -6.661877      -181.2789
   4   1.0000      -6.645929      -180.8449
   5   1.0000      -0.895515       -24.3682
   6   1.0000      -0.533476       -14.5166
   7   1.0000      -0.381072       -10.3695
   8   0.0000      -0.002944        -0.0801
   9   0.0000       0.027486         0.7479
  10   0.0000       0.076640         2.0855
  11   0.0000       0.085540         2.3277
  12   0.0000       0.098417         2.6781

MULLIKEN ATOMIC CHARGES AND SPIN POPULATIONS
--------------------------------------------
   0 S :   -0.097502    1.049261
   1 H :    0.097502   -0.049261
Sum of atomic charges         :   -0.0000000

LOEWDIN ATOMIC CHARGES AND SPIN POPULATIONS
-------------------------------------------
   0 S :    1.130647    0.764207
   1 H :   -1.130647    0.235793

  Mayer bond orders larger than 0.100000
B(  0-S ,  1-H ) :   0.9855

MP2 TOTAL ENERGY:     -398.275574748 Eh
FINAL SINGLE POINT ENERGY      -398.275574748280

DIPOLE MOMENT
-------------
                                X             Y             Z
Electronic contribution:     -0.88606       0.00000       0.00000
Nuclear contribution   :      1.22010       0.00000       0.00000
                        -----------------------------------------
Total Dipole Moment    :      0.33404       0.00000       0.00000
                        -----------------------------------------
Magnitude (a.u.)       :      0.33404
Magnitude (Debye)      :      0.84906

Rotational constants in cm-1:     0.000000     9.605382     9.605382
Rotational constants in MHz :     0.000000 287962.120520 287962.120520

                             ****ORCA TERMINATED NORMALLY****
TOTAL RUN TIME: 0 days 0 hours 1 minutes 1 seconds 828 msec
