                         Program Version 5.0.3 -  RELEASE  -
|  1> ! ri-mp2 aug-cc-pvdz aug-cc-pvdz/c tightscf
|  2> %pal nprocs 16 end
|  3> %maxcore 3800
|  4> %base "DZ_03_Si2"
|  5>
|  6> *xyzfile 0 3 03_Si2.xyz
|  7>
|  8> $new_job
|  9> ! ri-mp2 aug-cc-pvtz aug-cc-pvtz/c tightscf
| 10> %pal nprocs 16 end
| 11> %maxcore 3800
| 12> %base "TZ_03_Si2"
| 13>
| 14> *xyzfile 0 3 03_Si2.xyz
| 15>
| 16> $new_job
| 17> ! ri-mp2 aug-cc-pvqz aug-cc-pvqz/c tightscf
| 18> %pal nprocs 16 end
| 19> %maxcore 3800
| 20> %base "QZ_03_Si2"
| 21>
| 22> *xyzfile 0 3 03_Si2.xyz
| 23>
| 24>
| 25>
| 26>                          ****END OF INPUT****
 Total Charge           Charge          ....    0
 Multiplicity           Mult            ....    3
 Number of Electrons    NEL             ....   28
MP2 TOTAL ENERGY:     -577.872127213 Eh
FINAL SINGLE POINT ENERGY      -577.872127212611
MP2 TOTAL ENERGY:     -577.920451357 Eh
FINAL SINGLE POINT ENERGY      -577.920451356866

CARTESIAN COORDINATES (ANGSTROEM)
---------------------------------
  Si     1.520729    0.000000    0.000000
  Si     3.479271    0.000000    0.000000

 Multiplicity           Mult            ....    3
 Number of Electrons    NEL             ....   28
 Basis Dimension        Dim             ....  168

ORBITAL ENERGIES
----------------
                 SPIN UP ORBITALS
  NO   OCC          E(Eh)            E(eV)
   0   1.0000     -68.795368     -1872.0171
   1   1.0000     -68.795363     -1872.0170
   2   1.0000      -6.148202      -167.3011
   3   1.0000      -6.147184      -167.2734
   4   1.0000      -4.259407      -115.9044
   5   1.0000      -4.254998      -115.7844
   6   1.0000      -4.252286      -115.7106
   7   1.0000      -4.251763      -115.6963
   8   1.0000      -4.245580      -115.5281
   9   1.0000      -4.245083      -115.5146
  10   1.0000      -0.780407       -21.2359
  11   1.0000      -0.494537       -13.4570
  12   1.0000      -0.353173        -9.6103
  13   1.0000      -0.347527        -9.4567
  14   1.0000      -0.305896        -8.3238
  15   0.0000       0.023203         0.6314
  16   0.0000       0.029989         0.8160
  17   0.0000       0.036600         0.9959
  18   0.0000       0.043482         1.1832
  19   0.0000       0.048045         1.3074

                 SPIN DOWN ORBITALS
  NO   OCC          E(Eh)            E(eV)
   0   1.0000     -68.789919     -1871.8689
   1   1.0000     -68.789919     -1871.8688
   2   1.0000      -6.141470      -167.1179
   3   1.0000      -6.140758      -167.0985
   4   1.0000      -4.242623      -115.4476
   5   1.0000      -4.242172      -115.4354
   6   1.0000      -4.238062      -115.3235
   7   1.0000      -4.237630      -115.3118
   8   1.0000      -4.237609      -115.3112
   9   1.0000      -4.233539      -115.2005
  10   1.0000      -0.650555       -17.7025
  11   1.0000      -0.382196       -10.4001
  12   1.0000      -0.290445        -7.9034
  13   0.0000      -0.020672        -0.5625
  14   0.0000      -0.018718        -0.5094
  15   0.0000       0.030784         0.8377
  16   0.0000       0.043213         1.1759
  17   0.0000       0.048736         1.3262

MULLIKEN ATOMIC CHARGES AND SPIN POPULATIONS
--------------------------------------------
   0 Si:    0.000000    1.000000
   1 Si:   -0.000000    1.000000
Sum of atomic charges         :    0.0000000

LOEWDIN ATOMIC CHARGES AND SPIN POPULATIONS
-------------------------------------------
   0 Si:    0.000000    1.000000
   1 Si:   -0.000000    1.000000

  Mayer bond orders larger than 0.100000
B(  0-Si,  1-Si) :   2.2938

MP2 TOTAL ENERGY:     -577.936864668 Eh
FINAL SINGLE POINT ENERGY      -577.936864667918

DIPOLE MOMENT
-------------
                                X             Y             Z
Electronic contribution:     -0.00000      -0.00000      -0.00000
Nuclear contribution   :     -0.00000       0.00000       0.00000
                        -----------------------------------------
Total Dipole Moment    :     -0.00000      -0.00000      -0.00000
                        -----------------------------------------
Magnitude (a.u.)       :      0.00000
Magnitude (Debye)      :      0.00000

Rotational constants in cm-1:     0.000000     0.312947     0.312947
Rotational constants in MHz :     0.000000  9381.918778  9381.918778

                             ****ORCA TERMINATED NORMALLY****
TOTAL RUN TIME: 0 days 0 hours 0 minutes 49 seconds 433 msec
