                         Program Version 5.0.3 -  RELEASE  -
|  1> ! ri-mp2 aug-cc-pvdz aug-cc-pvdz/c tightscf
|  2> %pal nprocs 16 end
|  3> %maxcore 3800
|  4> %base "DZ_04_SiH"
|  5>
|  6> *xyzfile 0 2 04_SiH.xyz
|  7>
|  8> $new_job
|  9> ! ri-mp2 aug-cc-pvtz aug-cc-pvtz/c tightscf
| 10> %pal nprocs 16 end
| 11> %maxcore 3800
| 12> %base "TZ_04_SiH"
| 13>
| 14> *xyzfile 0 2 04_SiH.xyz
| 15>
| 16> $new_job
| 17> ! ri-mp2 aug-cc-pvqz aug-cc-pvqz/c tightscf
| 18> %pal nprocs 16 end
| 19> %maxcore 3800
| 20> %base "QZ_04_SiH"
| 21>
| 22> *xyzfile 0 2 04_SiH.xyz
| 23>
| 24>
| 25>
| 26>                          ****END OF INPUT****
 Total Charge           Charge          ....    0
 Multiplicity           Mult            ....    2
 Number of Electrons    NEL             ....   15
MP2 TOTAL ENERGY:     -289.498067840 Eh
FINAL SINGLE POINT ENERGY      -289.498067839803
MP2 TOTAL ENERGY:     -289.521198841 Eh
FINAL SINGLE POINT ENERGY      -289.521198841019

CARTESIAN COORDINATES (ANGSTROEM)
---------------------------------
  Si     1.737368    0.000000    0.000000
  H      3.262632    0.000000    0.000000

 Multiplicity           Mult            ....    2
 Number of Electrons    NEL             ....   15
 Basis Dimension        Dim             ....  130

ORBITAL ENERGIES
----------------
                 SPIN UP ORBITALS
  NO   OCC          E(Eh)            E(eV)
   0   1.0000     -68.808978     -1872.3875
   1   1.0000      -6.154374      -167.4690
   2   1.0000      -4.264123      -116.0327
   3   1.0000      -4.254728      -115.7770
   4   1.0000      -4.252286      -115.7106
   5   1.0000      -0.657047       -17.8792
   6   1.0000      -0.389145       -10.5892
   7   1.0000      -0.297553        -8.0968
   8   0.0000      -0.007621        -0.2074
   9   0.0000       0.031381         0.8539
  10   0.0000       0.046416         1.2630
  11   0.0000       0.054138         1.4732
  12   0.0000       0.062856         1.7104

                 SPIN DOWN ORBITALS
  NO   OCC          E(Eh)            E(eV)
   0   1.0000     -68.804361     -1872.2618
   1   1.0000      -6.148330      -167.3046
   2   1.0000      -4.252278      -115.7104
   3   1.0000      -4.250381      -115.6588
   4   1.0000      -4.238785      -115.3432
   5   1.0000      -0.602802       -16.4031
   6   1.0000      -0.366497        -9.9729
   7   0.0000       0.001715         0.0467
   8   0.0000       0.029407         0.8002
   9   0.0000       0.032904         0.8954
  10   0.0000       0.047015         1.2793
  11   0.0000       0.065994         1.7958

MULLIKEN ATOMIC CHARGES AND SPIN POPULATIONS
--------------------------------------------
   0 Si:    0.247304    1.006306
   1 H :   -0.247304   -0.006306
Sum of atomic charges         :   -0.0000000

LOEWDIN ATOMIC CHARGES AND SPIN POPULATIONS
-------------------------------------------
   0 Si:    0.709842    0.770620
   1 H :   -0.709842    0.229380

  Mayer bond orders larger than 0.100000
B(  0-Si,  1-H ) :   0.9139

MP2 TOTAL ENERGY:     -289.528679237 Eh
FINAL SINGLE POINT ENERGY      -289.528679237373

DIPOLE MOMENT
-------------
                                X             Y             Z
Electronic contribution:     -1.29448       0.00000       0.00000
Nuclear contribution   :      1.38440       0.00000       0.00000
                        -----------------------------------------
Total Dipole Moment    :      0.08992       0.00000       0.00000
                        -----------------------------------------
Magnitude (a.u.)       :      0.08992
Magnitude (Debye)      :      0.22856

Rotational constants in cm-1:     0.000000     7.446639     7.446639
Rotational constants in MHz :     0.000000 223244.618551 223244.618551

                             ****ORCA TERMINATED NORMALLY****
TOTAL RUN TIME: 0 days 0 hours 0 minutes 57 seconds 132 msec
