 Gaussian 16, Revision C.01,

 ----------------------------------------------------------------------
 #t hf aug-cc-pvdz symm=none int=(grid=ultrafine) guess=(read,tcheck) s
 table=(opt,rrhf)
 ----------------------------------------------------------------------
 -----
 title
 -----
 Symbolic Z-matrix:
 Charge =  0 Multiplicity = 1

 SCF Done:  E(RHF) =  -513.757362581     A.U. after   11 cycles
 Normal termination of Gaussian 16 at Sun Apr  6 07:22:31 2025.
 Gaussian 16:  ES64L-G16RevC.01  3-Jul-2019

 ----------------------------------------------------------------------
 #t hf aug-cc-pvdz iop(5/13=1,5/36=2,99/5=2) pseudo=read geom=check gue
 ss=(read,tcheck) scf=(maxcycle=1)
 ----------------------------------------------------------------------
 -----
 title
 -----
 Structure from the checkpoint file:  "1-1-3-3-tetrafluoropropane.chk"
 Charge =  0 Multiplicity = 1

                         Standard orientation:
 ---------------------------------------------------------------------
 Center     Atomic      Atomic             Coordinates (Angstroms)
 Number     Number       Type             X           Y           Z
 ---------------------------------------------------------------------
      1          6           0        0.448354   -0.545579    0.000000
      2          6           0       -0.285414   -0.171763    1.270135
      3          6           0       -0.285414   -0.171763   -1.270135
      4          9           0        0.361469   -0.731547    2.340045
      5          9           0       -0.285414    1.179129    1.461730
      6          9           0       -0.285414    1.179129   -1.461730
      7          9           0        0.361469   -0.731547   -2.340045
      8          1           0        0.581940   -1.627632    0.000000
      9          1           0        1.431669   -0.074796    0.000000
     10          1           0       -1.323885   -0.509706    1.300971
     11          1           0       -1.323885   -0.509706   -1.300971
 ---------------------------------------------------------------------

 SCF Done:  E(RHF) =  -515.662657966     A.U. after    2 cycles

 The electronic state is 1-A'.
 Alpha  occ. eigenvalues --  -29.29177 -29.29168 -29.28937 -29.28931 -11.55081
 Alpha  occ. eigenvalues --  -11.54945 -11.42250  -1.39263  -1.26764  -1.01686
 Alpha  occ. eigenvalues --   -0.83989  -0.79553  -0.79464  -0.73717  -0.67195
 Alpha  occ. eigenvalues --   -0.60922  -0.57259  -0.46163  -0.43483  -0.39569
 Alpha  occ. eigenvalues --   -0.38804  -0.35603  -0.31064  -0.29878  -0.29752
 Alpha  occ. eigenvalues --   -0.29516  -0.23527  -0.23483  -0.21229
 Alpha virt. eigenvalues --    0.03959   0.05351   0.05950   0.06342   0.10487
 Alpha virt. eigenvalues --    0.10946   0.11543   0.12848   0.13347   0.14568
 Alpha virt. eigenvalues --    0.15174   0.16176   0.17062   0.18916   0.22236

 Mulliken charges:
               1
     1  C   -4.532784
     2  C   -1.345561
     3  C   -1.345561
     4  F    0.338358
     5  F    0.351992
     6  F    0.351992
     7  F    0.338358
     8  H    1.480957
     9  H    1.313241
    10  H    1.524504
    11  H    1.524504
 Sum of Mulliken charges =  -0.00000

 Dipole moment (field-independent basis, Debye):
    X=              0.9280    Y=              1.4718    Z=             -0.0000  Tot=              1.7399

 Test job not archived.
 1\1\GINC-SE023\SP\RHF\Aug-CC-pVDZ\C3H4F4\OHZDE\06-Apr-2025\0\\#t hf au
 g-cc-pvdz iop(5/13=1,5/36=2,99/5=2) pseudo=read geom=check guess=(read
 ,tcheck) scf=(maxcycle=1)\\title\\0,1\C,0,0.448354,-0.545579,0.\C,0,-0
 .285414,-0.171763,1.270135\C,0,-0.285414,-0.171763,-1.270135\F,0,0.361
 469,-0.731547,2.340045\F,0,-0.285414,1.179129,1.46173\F,0,-0.285414,1.
 179129,-1.46173\F,0,0.361469,-0.731547,-2.340045\H,0,0.58194,-1.627632
 ,0.\H,0,1.431669,-0.074796,0.\H,0,-1.323885,-0.509706,1.300971\H,0,-1.
 323885,-0.509706,-1.300971\\Version=ES64L-G16RevC.01\State=1-A'\HF=-51

 Normal termination of Gaussian 16 at Sun Apr  6 07:23:10 2025.
