 Gaussian 16, Revision C.01,

 ----------------------------------------------------------------------
 #t hf aug-cc-pvdz symm=none int=(grid=ultrafine) guess=(read,tcheck) s
 table=(opt,rrhf)
 ----------------------------------------------------------------------
 -----
 title
 -----
 Symbolic Z-matrix:
 Charge =  0 Multiplicity = 1

 SCF Done:  E(RHF) =  -420.941009173     A.U. after   12 cycles

 1\1\GINC-SE047\Stability\RHF\Aug-CC-pVDZ\C5H12O3\OHZDE\06-Apr-2025\0\\
 #t hf aug-cc-pvdz symm=none int=(grid=ultrafine) guess=(read,tcheck) s
 table=(opt,rrhf)\\title\\0,1\C,0,0.396763,-0.84941,1.557707\C,0,-1.307
 595,1.844297,-0.284042\C,0,-1.397054,-1.675296,-0.631754\C,0,2.299456,
 0.07518,-0.646213\C,0,0.083784,-0.016254,0.319117\O,0,-0.932476,0.8648
 57,0.686795\O,0,-0.287293,-0.80478,-0.801289\O,0,1.175176,0.756275,-0.
 102867\H,0,1.120921,-1.627964,1.326124\H,0,0.801114,-0.194836,2.326325
 \H,0,-0.507613,-1.314379,1.943099\H,0,-0.521991,2.587274,-0.415187\H,0

 Normal termination of Gaussian 16 at Sun Apr  6 07:13:02 2025.
 Gaussian 16:  ES64L-G16RevC.01  3-Jul-2019

 ----------------------------------------------------------------------
 #t hf aug-cc-pvdz iop(5/13=1,5/36=2,99/5=2) pseudo=read geom=check gue
 ss=(read,tcheck) scf=(maxcycle=1)
 ----------------------------------------------------------------------
 -----
 title
 -----
 Structure from the checkpoint file:  "1-1-1-trimethoxyethane.chk"
 Charge =  0 Multiplicity = 1

                         Standard orientation:
 ---------------------------------------------------------------------
 Center     Atomic      Atomic             Coordinates (Angstroms)
 Number     Number       Type             X           Y           Z
 ---------------------------------------------------------------------
      1          6           0        0.396762   -0.849410    1.557707
      2          6           0       -1.307594    1.844298   -0.284042
      3          6           0       -1.397055   -1.675295   -0.631754
      4          6           0        2.299456    0.075179   -0.646213
      5          6           0        0.083784   -0.016254    0.319117
      6          8           0       -0.932476    0.864857    0.686795
      7          8           0       -0.287294   -0.804780   -0.801289
      8          8           0        1.175176    0.756274   -0.102867
      9          1           0        1.120920   -1.627965    1.326124
     10          1           0        0.801114   -0.194837    2.326325
     11          1           0       -0.507614   -1.314379    1.943099
     12          1           0       -0.521990    2.587274   -0.415187
     13          1           0       -2.202109    2.321103    0.109521
     14          1           0       -1.531942    1.383741   -1.247020
     15          1           0       -1.666307   -2.024171   -1.626421
     16          1           0       -2.250043   -1.156135   -0.190361
     17          1           0       -1.144458   -2.540689   -0.013310
     18          1           0        2.776750   -0.573023    0.093646
     19          1           0        3.004868    0.850808   -0.935557
     20          1           0        2.025435   -0.513637   -1.520874
 ---------------------------------------------------------------------

 SCF Done:  E(RHF) =  -422.857324214     A.U. after    2 cycles

 The electronic state is 1-A.
 Alpha  occ. eigenvalues --  -21.04190 -21.04067 -21.03993 -11.51198 -11.40634
 Alpha  occ. eigenvalues --  -11.40216 -11.39602 -11.37023  -1.86934  -1.69524
 Alpha  occ. eigenvalues --   -1.68880  -1.11262  -1.01306  -0.98017  -0.97004
 Alpha  occ. eigenvalues --   -0.77493  -0.66789  -0.65857  -0.64605  -0.61814
 Alpha  occ. eigenvalues --   -0.59984  -0.58164  -0.57129  -0.55505  -0.54244
 Alpha  occ. eigenvalues --   -0.51930  -0.48692  -0.43543  -0.37937  -0.35935
 Alpha  occ. eigenvalues --   -0.31436  -0.29975  -0.28991
 Alpha virt. eigenvalues --    0.04022   0.04794   0.04907   0.04940   0.05340
 Alpha virt. eigenvalues --    0.05955   0.06366   0.06661   0.07255   0.08948
 Alpha virt. eigenvalues --    0.09255   0.09505   0.11651   0.12880   0.13912

 Mulliken charges:
               1
     1  C   -4.739146
     2  C   -3.488595
     3  C   -3.362975
     4  C   -3.454610
     5  C   10.762727
     6  O   -3.856671
     7  O   -4.156653
     8  O   -4.128209
     9  H    1.368988
    10  H    1.246681
    11  H    1.309848
    12  H    1.399103
    13  H    1.254773
    14  H    1.402637
    15  H    1.338790
    16  H    1.399142
    17  H    1.496426
    18  H    1.459167
    19  H    1.294213
    20  H    1.454366
 Sum of Mulliken charges =  -0.00000

 Dipole moment (field-independent basis, Debye):
    X=              0.0105    Y=             -0.3320    Z=             -0.3449  Tot=              0.4789

 Test job not archived.
 1\1\GINC-SE047\SP\RHF\Aug-CC-pVDZ\C5H12O3\OHZDE\06-Apr-2025\0\\#t hf a
 ug-cc-pvdz iop(5/13=1,5/36=2,99/5=2) pseudo=read geom=check guess=(rea
 d,tcheck) scf=(maxcycle=1)\\title\\0,1\C,0,0.396763,-0.84941,1.557707\
 C,0,-1.307595,1.844297,-0.284042\C,0,-1.397054,-1.675296,-0.631754\C,0
 ,2.299456,0.07518,-0.646213\C,0,0.083784,-0.016254,0.319117\O,0,-0.932
 476,0.864857,0.686795\O,0,-0.287293,-0.80478,-0.801289\O,0,1.175176,0.
 756275,-0.102867\H,0,1.120921,-1.627964,1.326124\H,0,0.801114,-0.19483
 6,2.326325\H,0,-0.507613,-1.314379,1.943099\H,0,-0.521991,2.587274,-0.

 Normal termination of Gaussian 16 at Sun Apr  6 07:14:11 2025.
