 Gaussian 16, Revision C.01,

 ----------------------------------------------------------------------
 #t hf aug-cc-pvdz symm=none int=(grid=ultrafine) guess=(read,tcheck) s
 table=(opt,rrhf)
 ----------------------------------------------------------------------
 -----
 title
 -----
 Symbolic Z-matrix:
 Charge =  0 Multiplicity = 1

 SCF Done:  E(RHF) =  -766.243409450     A.U. after   14 cycles
 Normal termination of Gaussian 16 at Sun Apr  6 07:41:09 2025.
 Gaussian 16:  ES64L-G16RevC.01  3-Jul-2019

 ----------------------------------------------------------------------
 #t hf aug-cc-pvdz iop(5/13=1,5/36=2,99/5=2) pseudo=read geom=check gue
 ss=(read,tcheck) scf=(maxcycle=1)
 ----------------------------------------------------------------------
 -----
 title
 -----
 Structure from the checkpoint file:  "1-1-difluoro-2-isothiocyanatoethane.chk"
 Charge =  0 Multiplicity = 1

                         Standard orientation:
 ---------------------------------------------------------------------
 Center     Atomic      Atomic             Coordinates (Angstroms)
 Number     Number       Type             X           Y           Z
 ---------------------------------------------------------------------
      1         16           0        3.207011    0.103485   -0.057042
      2          9           0       -1.915460    1.328253   -0.160483
      3          9           0       -3.079188   -0.540242   -0.097326
      4          7           0        0.482209   -0.239691    0.285694
      5          6           0       -1.923576    0.054593    0.324835
      6          6           0       -0.750694   -0.732182   -0.236127
      7          6           0        1.650101   -0.112516    0.094338
      8          1           0       -1.934452    0.106448    1.414038
      9          1           0       -0.774486   -0.657000   -1.325535
     10          1           0       -0.881854   -1.778836    0.046326
 ---------------------------------------------------------------------

 SCF Done:  E(RHF) =  -767.915857530     A.U. after    2 cycles

 The electronic state is 1-A.
 Alpha  occ. eigenvalues --  -75.69872 -29.29949 -29.29572 -15.79987 -13.22874
 Alpha  occ. eigenvalues --  -13.01246 -13.01124 -11.55535 -11.55302 -11.46827
 Alpha  occ. eigenvalues --   -8.04146  -1.47173  -1.32076  -1.16911  -1.04003
 Alpha  occ. eigenvalues --   -0.83673  -0.79212  -0.71643  -0.68345  -0.64348
 Alpha  occ. eigenvalues --   -0.56310  -0.53411  -0.51820  -0.45249  -0.39577
 Alpha  occ. eigenvalues --   -0.32956  -0.31007  -0.28812  -0.27990  -0.26078
 Alpha  occ. eigenvalues --   -0.23233
 Alpha virt. eigenvalues --    0.03256   0.05067   0.05660   0.06177   0.08603
 Alpha virt. eigenvalues --    0.09439   0.10460   0.11189   0.11299   0.11736
 Alpha virt. eigenvalues --    0.13535   0.13757   0.14875   0.15873   0.17919

 Mulliken charges:
               1
     1  S    1.551141
     2  F    0.391449
     3  F    0.340850
     4  N   -3.087021
     5  C   -1.294095
     6  C   -3.120050
     7  C    0.799178
     8  H    1.572019
     9  H    1.391200
    10  H    1.455329
 Sum of Mulliken charges =   0.00000

 Dipole moment (field-independent basis, Debye):
    X=              0.1409    Y=              0.5219    Z=             -1.4240  Tot=              1.5231

 Test job not archived.
 1\1\GINC-SE041\SP\RHF\Aug-CC-pVDZ\C3H3F2N1S1\OHZDE\06-Apr-2025\0\\#t h
 f aug-cc-pvdz iop(5/13=1,5/36=2,99/5=2) pseudo=read geom=check guess=(
 read,tcheck) scf=(maxcycle=1)\\title\\0,1\S,0,3.207011,0.103485,-0.057
 042\F,0,-1.91546,1.328253,-0.160483\F,0,-3.079188,-0.540242,-0.097326\
 N,0,0.482209,-0.239691,0.285694\C,0,-1.923576,0.054593,0.324835\C,0,-0
 .750694,-0.732182,-0.236127\C,0,1.650101,-0.112516,0.094338\H,0,-1.934
 452,0.106448,1.414038\H,0,-0.774486,-0.657,-1.325535\H,0,-0.881854,-1.
 778836,0.046326\\Version=ES64L-G16RevC.01\State=1-A\HF=-767.9158575\RM

 Normal termination of Gaussian 16 at Sun Apr  6 07:41:34 2025.
