 Gaussian 16, Revision C.01,

 ----------------------------------------------------------------------
 #t hf aug-cc-pvdz symm=none int=(grid=ultrafine) guess=(read,tcheck) s
 table=(opt,rrhf)
 ----------------------------------------------------------------------
 -----
 title
 -----
 Symbolic Z-matrix:
 Charge =  0 Multiplicity = 1

 SCF Done:  E(RHF) =  -275.776214531     A.U. after   12 cycles
 Normal termination of Gaussian 16 at Sun Apr  6 07:43:31 2025.
 Gaussian 16:  ES64L-G16RevC.01  3-Jul-2019

 ----------------------------------------------------------------------
 #t hf aug-cc-pvdz iop(5/13=1,5/36=2,99/5=2) pseudo=read geom=check gue
 ss=(read,tcheck) scf=(maxcycle=1)
 ----------------------------------------------------------------------
 -----
 title
 -----
 Structure from the checkpoint file:  "1-1-difluoroethene.chk"
 Charge =  0 Multiplicity = 1

                         Standard orientation:
 ---------------------------------------------------------------------
 Center     Atomic      Atomic             Coordinates (Angstroms)
 Number     Number       Type             X           Y           Z
 ---------------------------------------------------------------------
      1          9           0        0.000000    1.080780   -0.696531
      2          9           0       -0.000000   -1.080780   -0.696531
      3          6           0        0.000000   -0.000000    0.067620
      4          6           0        0.000000   -0.000000    1.382761
      5          1           0        0.000000    0.934350    1.917633
      6          1           0       -0.000000   -0.934350    1.917633
 ---------------------------------------------------------------------

 SCF Done:  E(RHF) =  -276.815492963     A.U. after    2 cycles

 The electronic state is 1-A1.
 Alpha  occ. eigenvalues --  -29.32112 -29.32042 -11.54403 -11.40131  -1.32759
 Alpha  occ. eigenvalues --   -1.00037  -0.84351  -0.68464  -0.58930  -0.58227
 Alpha  occ. eigenvalues --   -0.46243  -0.40431  -0.35098  -0.31313  -0.26002
 Alpha  occ. eigenvalues --   -0.24558
 Alpha virt. eigenvalues --    0.04282   0.06000   0.10148   0.11124   0.11657
 Alpha virt. eigenvalues --    0.12385   0.13763   0.15093   0.19364   0.21252
 Alpha virt. eigenvalues --    0.22003   0.24172   0.26544   0.26569   0.27665

 Mulliken charges:
               1
     1  F    0.679762
     2  F    0.679762
     3  C   -1.552993
     4  C   -2.566504
     5  H    1.379987
     6  H    1.379987
 Sum of Mulliken charges =   0.00000

 Dipole moment (field-independent basis, Debye):
    X=             -0.0000    Y=              0.0000    Z=             -2.7223  Tot=              2.7223

 Test job not archived.
 1\1\GINC-SE042\SP\RHF\Aug-CC-pVDZ\C2H2F2\OHZDE\06-Apr-2025\0\\#t hf au
 g-cc-pvdz iop(5/13=1,5/36=2,99/5=2) pseudo=read geom=check guess=(read
 ,tcheck) scf=(maxcycle=1)\\title\\0,1\F,0,0.,1.08078,-0.696531\F,0,0.,
 -1.08078,-0.696531\C,0,0.,0.,0.06762\C,0,0.,0.,1.382761\H,0,0.,0.93435
 ,1.917633\H,0,0.,-0.93435,1.917633\\Version=ES64L-G16RevC.01\State=1-A
 1\HF=-276.815493\RMSD=3.939e-01\Dipole=0.,0.,-1.0710182\Quadrupole=-1.
 890791,2.0334387,-0.1426477,0.,0.,0.\PG=C02V [C2(C1C1),SGV(H2F2)]\\@

 Normal termination of Gaussian 16 at Sun Apr  6 07:44:54 2025.
