 Gaussian 16, Revision C.01,

 ----------------------------------------------------------------------
 #t hf aug-cc-pvdz symm=none int=(grid=ultrafine) guess=(read,tcheck) s
 table=(opt,rrhf)
 ----------------------------------------------------------------------
 -----
 title
 -----
 Symbolic Z-matrix:
 Charge =  0 Multiplicity = 1

 SCF Done:  E(RHF) =  -305.848176895     A.U. after   13 cycles
 Normal termination of Gaussian 16 at Sun Apr  6 07:49:41 2025.
 Gaussian 16:  ES64L-G16RevC.01  3-Jul-2019

 ----------------------------------------------------------------------
 #t hf aug-cc-pvdz iop(5/13=1,5/36=2,99/5=2) pseudo=read geom=check gue
 ss=(read,tcheck) scf=(maxcycle=1)
 ----------------------------------------------------------------------
 -----
 title
 -----
 Structure from the checkpoint file:  "1-1-dimethoxyethene.chk"
 Charge =  0 Multiplicity = 1

                         Standard orientation:
 ---------------------------------------------------------------------
 Center     Atomic      Atomic             Coordinates (Angstroms)
 Number     Number       Type             X           Y           Z
 ---------------------------------------------------------------------
      1          6           0       -0.000000   -0.000000    1.419313
      2          6           0       -0.000000   -0.000000    0.079174
      3          1           0        0.000000    0.919976    1.976204
      4          1           0       -0.000000   -0.919976    1.976204
      5          8           0        0.000000    1.079169   -0.727837
      6          8           0       -0.000000   -1.079169   -0.727837
      7          6           0        0.000000    2.361498   -0.117979
      8          6           0       -0.000000   -2.361498   -0.117979
      9          1           0        0.000000    3.078298   -0.933962
     10          1           0       -0.000000   -3.078298   -0.933962
     11          1           0       -0.891567    2.503674    0.496436
     12          1           0        0.891567    2.503674    0.496436
     13          1           0        0.891567   -2.503674    0.496436
     14          1           0       -0.891567   -2.503674    0.496436
 ---------------------------------------------------------------------

 SCF Done:  E(RHF) =  -307.237226428     A.U. after    2 cycles

 The electronic state is 1-A1.
 Alpha  occ. eigenvalues --  -21.07660 -21.07629 -11.50008 -11.41371 -11.41251
 Alpha  occ. eigenvalues --  -11.35539  -1.86363  -1.71468  -1.09411  -1.03760
 Alpha  occ. eigenvalues --   -0.97269  -0.75353  -0.68561  -0.63834  -0.63651
 Alpha  occ. eigenvalues --   -0.61255  -0.60167  -0.54857  -0.50410  -0.50024
 Alpha  occ. eigenvalues --   -0.42108  -0.39112  -0.32275  -0.27066
 Alpha virt. eigenvalues --    0.03338   0.05407   0.05550   0.05666   0.06183
 Alpha virt. eigenvalues --    0.06886   0.06886   0.09305   0.09739   0.11366
 Alpha virt. eigenvalues --    0.12322   0.13290   0.14703   0.15868   0.16295

 Mulliken charges:
               1
     1  C   -3.612798
     2  C    5.444486
     3  H    1.569499
     4  H    1.569499
     5  O   -3.485267
     6  O   -3.485267
     7  C   -3.065893
     8  C   -3.065893
     9  H    1.420007
    10  H    1.420007
    11  H    1.322905
    12  H    1.322905
    13  H    1.322905
    14  H    1.322905
 Sum of Mulliken charges =   0.00000

 Dipole moment (field-independent basis, Debye):
    X=             -0.0000    Y=              0.0000    Z=             -0.5536  Tot=              0.5536

 Test job not archived.
 1\1\GINC-SE041\SP\RHF\Aug-CC-pVDZ\C4H8O2\OHZDE\06-Apr-2025\0\\#t hf au
 g-cc-pvdz iop(5/13=1,5/36=2,99/5=2) pseudo=read geom=check guess=(read
 ,tcheck) scf=(maxcycle=1)\\title\\0,1\C,0,0.,0.,1.419313\C,0,0.,0.,0.0
 79174\H,0,0.,0.919976,1.976204\H,0,0.,-0.919976,1.976204\O,0,0.,1.0791
 69,-0.727837\O,0,0.,-1.079169,-0.727837\C,0,0.,2.361498,-0.117979\C,0,
 0.,-2.361498,-0.117979\H,0,0.,3.078298,-0.933962\H,0,0.,-3.078298,-0.9
 33962\H,0,-0.891567,2.503674,0.496436\H,0,0.891567,2.503674,0.496436\H
 ,0,0.891567,-2.503674,0.496436\H,0,-0.891567,-2.503674,0.496436\\Versi

 Normal termination of Gaussian 16 at Sun Apr  6 07:50:04 2025.
