 Gaussian 16, Revision C.01,

 ----------------------------------------------------------------------
 #t hf aug-cc-pvdz symm=none int=(grid=ultrafine) guess=(read,tcheck) s
 table=(opt,rrhf)
 ----------------------------------------------------------------------
 -----
 title
 -----
 Symbolic Z-matrix:
 Charge =  0 Multiplicity = 1

 SCF Done:  E(RHF) =  -413.671281676     A.U. after   12 cycles
 Normal termination of Gaussian 16 at Sun Apr  6 07:18:48 2025.
 Gaussian 16:  ES64L-G16RevC.01  3-Jul-2019

 ----------------------------------------------------------------------
 #t hf aug-cc-pvdz iop(5/13=1,5/36=2,99/5=2) pseudo=read geom=check gue
 ss=(read,tcheck) scf=(maxcycle=1)
 ----------------------------------------------------------------------
 -----
 title
 -----
 Structure from the checkpoint file:  "1-1-2-trifluoropropene.chk"
 Charge =  0 Multiplicity = 1

                         Standard orientation:
 ---------------------------------------------------------------------
 Center     Atomic      Atomic             Coordinates (Angstroms)
 Number     Number       Type             X           Y           Z
 ---------------------------------------------------------------------
      1          6           0       -0.035450   -0.681860    0.000000
      2          9           0        1.048577   -1.447157    0.000000
      3          9           0       -1.137563   -1.409159    0.000000
      4          6           0        0.000000    0.641679    0.000000
      5          9           0       -1.187405    1.293847    0.000000
      6          6           0        1.198490    1.512864    0.000000
      7          1           0        2.107235    0.915995    0.000000
      8          1           0        1.201017    2.155061    0.882809
      9          1           0        1.201017    2.155061   -0.882809
 ---------------------------------------------------------------------

 SCF Done:  E(RHF) =  -415.231456490     A.U. after    2 cycles

 The electronic state is 1-A'.
 Alpha  occ. eigenvalues --  -29.32611 -29.32315 -29.29498 -11.55627 -11.48348
 Alpha  occ. eigenvalues --  -11.40837  -1.37493  -1.16215  -0.99436  -0.85187
 Alpha  occ. eigenvalues --   -0.77027  -0.65209  -0.61093  -0.57273  -0.56746
 Alpha  occ. eigenvalues --   -0.46490  -0.42319  -0.39800  -0.39341  -0.34373
 Alpha  occ. eigenvalues --   -0.31870  -0.29740  -0.24122  -0.17986
 Alpha virt. eigenvalues --    0.03859   0.06202   0.06466   0.10167   0.10340
 Alpha virt. eigenvalues --    0.10609   0.12272   0.12813   0.13446   0.15165
 Alpha virt. eigenvalues --    0.16423   0.17500   0.17832   0.20003   0.21121

 Mulliken charges:
               1
     1  C   -0.807127
     2  F    0.699695
     3  F    0.803088
     4  C   -1.489273
     5  F    0.807401
     6  C   -3.635496
     7  H    1.313020
     8  H    1.154346
     9  H    1.154346
 Sum of Mulliken charges =   0.00000

 Dipole moment (field-independent basis, Debye):
    X=             -0.9648    Y=             -1.1803    Z=             -0.0000  Tot=              1.5244

 Test job not archived.
 1\1\GINC-SE046\SP\RHF\Aug-CC-pVDZ\C3H3F3\OHZDE\06-Apr-2025\0\\#t hf au
 g-cc-pvdz iop(5/13=1,5/36=2,99/5=2) pseudo=read geom=check guess=(read
 ,tcheck) scf=(maxcycle=1)\\title\\0,1\C,0,-0.03545,-0.68186,0.\F,0,1.0
 48578,-1.447157,0.\F,0,-1.137562,-1.409159,0.\C,0,0.,0.641679,0.\F,0,-
 1.187405,1.293847,0.\C,0,1.19849,1.512864,0.\H,0,2.107235,0.915995,0.\
 H,0,1.201017,2.155061,0.882809\H,0,1.201017,2.155061,-0.882809\\Versio
 n=ES64L-G16RevC.01\State=1-A'\HF=-415.2314565\RMSD=6.409e-01\Dipole=-0
 .3795873,-0.4643597,0.\Quadrupole=1.0484454,1.2550285,-2.3034739,-0.19

 Normal termination of Gaussian 16 at Sun Apr  6 07:19:52 2025.
