 Gaussian 16, Revision C.01,

 ----------------------------------------------------------------------
 #t hf aug-cc-pvdz symm=none int=(grid=ultrafine) guess=(read,tcheck) s
 table=(opt,rrhf)
 ----------------------------------------------------------------------
 -----
 title
 -----
 Symbolic Z-matrix:
 Charge =  0 Multiplicity = 1

 SCF Done:  E(RHF) =  -2030.86394318     A.U. after   13 cycles

 1\1\GINC-SE047\Stability\RHF\Aug-CC-pVDZ\C5H6Cl4\OHZDE\06-Apr-2025\0\\
 #t hf aug-cc-pvdz symm=none int=(grid=ultrafine) guess=(read,tcheck) s
 table=(opt,rrhf)\\title\\0,1\C,0,0.,0.,2.379326\C,0,-0.540152,1.120038
 ,1.453423\C,0,0.540152,-1.120038,1.453423\C,0,0.,0.780705,0.063279\C,0
 ,0.,-0.780705,0.063279\Cl,0,-0.918814,1.53037,-1.269894\Cl,0,1.722064,
 1.361119,-0.048861\Cl,0,-1.722064,-1.361119,-0.048861\Cl,0,0.918814,-1
 .53037,-1.269894\H,0,0.795834,0.369632,3.021692\H,0,-0.795834,-0.36963
 2,3.021692\H,0,-1.626332,1.099741,1.409111\H,0,-0.232881,2.118369,1.74

 Normal termination of Gaussian 16 at Sun Apr  6 07:13:07 2025.
 Gaussian 16:  ES64L-G16RevC.01  3-Jul-2019

 ----------------------------------------------------------------------
 #t hf aug-cc-pvdz iop(5/13=1,5/36=2,99/5=2) pseudo=read geom=check gue
 ss=(read,tcheck) scf=(maxcycle=1)
 ----------------------------------------------------------------------
 -----
 title
 -----
 Structure from the checkpoint file:  "1-1-2-2-tetrachlorocyclopentane.chk"
 Charge =  0 Multiplicity = 1

                         Standard orientation:
 ---------------------------------------------------------------------
 Center     Atomic      Atomic             Coordinates (Angstroms)
 Number     Number       Type             X           Y           Z
 ---------------------------------------------------------------------
      1          6           0       -0.000000   -0.000000    2.379326
      2          6           0       -0.540152    1.120038    1.453423
      3          6           0        0.540152   -1.120038    1.453423
      4          6           0       -0.000000    0.780705    0.063279
      5          6           0       -0.000000   -0.780705    0.063279
      6         17           0       -0.918814    1.530370   -1.269894
      7         17           0        1.722064    1.361119   -0.048861
      8         17           0       -1.722064   -1.361119   -0.048861
      9         17           0        0.918814   -1.530370   -1.269894
     10          1           0        0.795834    0.369632    3.021692
     11          1           0       -0.795834   -0.369632    3.021692
     12          1           0       -1.626332    1.099741    1.409111
     13          1           0       -0.232881    2.118369    1.749841
     14          1           0        1.626332   -1.099741    1.409111
     15          1           0        0.232881   -2.118369    1.749841
 ---------------------------------------------------------------------

 SCF Done:  E(RHF) =  -2032.82234501     A.U. after    2 cycles

 The electronic state is 1-A.
 Alpha  occ. eigenvalues --  -99.90308 -99.90301 -99.90199 -99.90188 -11.55615
 Alpha  occ. eigenvalues --  -11.54045 -11.47138 -11.42766 -11.38762 -10.47747
 Alpha  occ. eigenvalues --  -10.47724 -10.47496 -10.47449  -9.67758  -9.67652
 Alpha  occ. eigenvalues --   -9.67515  -9.67396  -9.66915  -9.66891  -9.66885
 Alpha  occ. eigenvalues --   -9.66825  -9.66712  -9.66688  -9.66620  -9.66610
 Alpha  occ. eigenvalues --   -1.49534  -1.36072  -1.29358  -1.29329  -1.25097
 Alpha  occ. eigenvalues --   -1.08483  -1.05192  -0.88113  -0.84752  -0.73701
 Alpha  occ. eigenvalues --   -0.73351  -0.69275  -0.65914  -0.61311  -0.59634
 Alpha  occ. eigenvalues --   -0.58396  -0.55347  -0.54880  -0.54050  -0.51984
 Alpha  occ. eigenvalues --   -0.51156  -0.49557  -0.49403  -0.48387  -0.47243
 Alpha  occ. eigenvalues --   -0.46850  -0.43664
 Alpha virt. eigenvalues --    0.03439   0.03907   0.04935   0.05337   0.05809
 Alpha virt. eigenvalues --    0.06230   0.06536   0.07412   0.08097   0.08223
 Alpha virt. eigenvalues --    0.08821   0.09655   0.12265   0.12284   0.13581

 Mulliken charges:
               1
     1  C   -2.007018
     2  C   -2.777618
     3  C   -2.777618
     4  C    0.320016
     5  C    0.320016
     6  Cl  -0.304580
     7  Cl  -0.094944
     8  Cl  -0.094944
     9  Cl  -0.304580
    10  H    1.289050
    11  H    1.289050
    12  H    1.279715
    13  H    1.291869
    14  H    1.279715
    15  H    1.291869
 Sum of Mulliken charges =   0.00000

 Dipole moment (field-independent basis, Debye):
    X=              0.0000    Y=              0.0000    Z=              3.5908  Tot=              3.5908

 Test job not archived.
 1\1\GINC-SE047\SP\RHF\Aug-CC-pVDZ\C5H6Cl4\OHZDE\06-Apr-2025\0\\#t hf a
 ug-cc-pvdz iop(5/13=1,5/36=2,99/5=2) pseudo=read geom=check guess=(rea
 d,tcheck) scf=(maxcycle=1)\\title\\0,1\C,0,0.,0.,2.379326\C,0,-0.54015
 2,1.120038,1.453423\C,0,0.540152,-1.120038,1.453423\C,0,0.,0.780705,0.
 063279\C,0,0.,-0.780705,0.063279\Cl,0,-0.918814,1.53037,-1.269894\Cl,0
 ,1.722064,1.361119,-0.048861\Cl,0,-1.722064,-1.361119,-0.048861\Cl,0,0
 .918814,-1.53037,-1.269894\H,0,0.795834,0.369632,3.021692\H,0,-0.79583
 4,-0.369632,3.021692\H,0,-1.626332,1.099741,1.409111\H,0,-0.232881,2.1

 Normal termination of Gaussian 16 at Sun Apr  6 07:14:07 2025.
