 Gaussian 16, Revision C.01,

 ----------------------------------------------------------------------
 #t hf aug-cc-pvdz symm=none int=(grid=ultrafine) guess=(read,tcheck) s
 table=(opt,rrhf)
 ----------------------------------------------------------------------
 -----
 title
 -----
 Symbolic Z-matrix:
 Charge =  0 Multiplicity = 1

 SCF Done:  E(RHF) =  -1953.96422480     A.U. after   12 cycles

 1\1\GINC-SE042\Stability\RHF\Aug-CC-pVDZ\C3H4Cl4\OHZDE\06-Apr-2025\0\\
 #t hf aug-cc-pvdz symm=none int=(grid=ultrafine) guess=(read,tcheck) s
 table=(opt,rrhf)\\title\\0,1\C,0,0.,0.,0.7318\C,0,0.,1.274009,-0.09780
 4\C,0,0.,-1.274009,-0.097804\Cl,0,0.132799,2.700697,0.986148\Cl,0,-1.4
 83724,1.397852,-1.115518\Cl,0,1.483724,-1.397852,-1.115518\Cl,0,-0.132
 799,-2.700697,0.986148\H,0,-0.881449,-0.008441,1.372394\H,0,0.881449,0
 .008441,1.372394\H,0,0.836615,1.32875,-0.78169\H,0,-0.836615,-1.32875,
 -0.78169\\Version=ES64L-G16RevC.01\HF=-1953.9642248\RMSD=7.584e-09\Dip

 Normal termination of Gaussian 16 at Sun Apr  6 07:21:35 2025.
 Gaussian 16:  ES64L-G16RevC.01  3-Jul-2019

 ----------------------------------------------------------------------
 #t hf aug-cc-pvdz iop(5/13=1,5/36=2,99/5=2) pseudo=read geom=check gue
 ss=(read,tcheck) scf=(maxcycle=1)
 ----------------------------------------------------------------------
 -----
 title
 -----
 Structure from the checkpoint file:  "1-1-3-3-tetrachloropropane.chk"
 Charge =  0 Multiplicity = 1

                         Standard orientation:
 ---------------------------------------------------------------------
 Center     Atomic      Atomic             Coordinates (Angstroms)
 Number     Number       Type             X           Y           Z
 ---------------------------------------------------------------------
      1          6           0       -0.000000    0.000000    0.731800
      2          6           0        0.000000    1.274009   -0.097804
      3          6           0       -0.000000   -1.274009   -0.097804
      4         17           0        0.132799    2.700697    0.986148
      5         17           0       -1.483724    1.397852   -1.115518
      6         17           0        1.483724   -1.397852   -1.115518
      7         17           0       -0.132799   -2.700697    0.986148
      8          1           0       -0.881449   -0.008441    1.372394
      9          1           0        0.881449    0.008441    1.372394
     10          1           0        0.836615    1.328750   -0.781690
     11          1           0       -0.836615   -1.328750   -0.781690
 ---------------------------------------------------------------------

 SCF Done:  E(RHF) =  -1955.52040870     A.U. after    2 cycles

 The electronic state is 1-A.
 Alpha  occ. eigenvalues --  -99.91082 -99.91071 -99.91052 -99.91049 -11.52865
 Alpha  occ. eigenvalues --  -11.52817 -11.44014 -10.48457 -10.48446 -10.48313
 Alpha  occ. eigenvalues --  -10.48295  -9.68459  -9.68298  -9.68251  -9.68211
 Alpha  occ. eigenvalues --   -9.67699  -9.67616  -9.67531  -9.67474  -9.67434
 Alpha  occ. eigenvalues --   -9.67418  -9.67398  -9.67389  -1.45596  -1.38323
 Alpha  occ. eigenvalues --   -1.29860  -1.29510  -1.17203  -1.00169  -0.90684
 Alpha  occ. eigenvalues --   -0.75081  -0.71336  -0.69030  -0.67446  -0.62840
 Alpha  occ. eigenvalues --   -0.59930  -0.56887  -0.54518  -0.53399  -0.52134
 Alpha  occ. eigenvalues --   -0.52123  -0.50646  -0.50125  -0.49678  -0.46630
 Alpha virt. eigenvalues --    0.01529   0.03882   0.04051   0.06080   0.06123
 Alpha virt. eigenvalues --    0.07008   0.07044   0.07772   0.09742   0.09839
 Alpha virt. eigenvalues --    0.11406   0.12568   0.13998   0.14390   0.15064

 Mulliken charges:
               1
     1  C   -0.473953
     2  C   -3.475631
     3  C   -3.475631
     4  Cl   0.189941
     5  Cl   0.172075
     6  Cl   0.172075
     7  Cl   0.189941
     8  H    1.491004
     9  H    1.491004
    10  H    1.859587
    11  H    1.859587
 Sum of Mulliken charges =  -0.00000

 Dipole moment (field-independent basis, Debye):
    X=             -0.0000    Y=              0.0000    Z=              0.2508  Tot=              0.2508

 Test job not archived.
 1\1\GINC-SE042\SP\RHF\Aug-CC-pVDZ\C3H4Cl4\OHZDE\06-Apr-2025\0\\#t hf a
 ug-cc-pvdz iop(5/13=1,5/36=2,99/5=2) pseudo=read geom=check guess=(rea
 d,tcheck) scf=(maxcycle=1)\\title\\0,1\C,0,0.,0.,0.7318\C,0,0.,1.27400
 9,-0.097804\C,0,0.,-1.274009,-0.097804\Cl,0,0.132799,2.700697,0.986148
 \Cl,0,-1.483724,1.397852,-1.115518\Cl,0,1.483724,-1.397852,-1.115518\C
 l,0,-0.132799,-2.700697,0.986148\H,0,-0.881449,-0.008441,1.372394\H,0,
 0.881449,0.008441,1.372394\H,0,0.836615,1.32875,-0.78169\H,0,-0.836615
 ,-1.32875,-0.78169\\Version=ES64L-G16RevC.01\State=1-A\HF=-1955.520408

 Normal termination of Gaussian 16 at Sun Apr  6 07:21:42 2025.
