 Gaussian 16, Revision C.01,

 ----------------------------------------------------------------------
 #t hf aug-cc-pvdz symm=none int=(grid=ultrafine) guess=(read,tcheck) s
 table=(opt,rrhf)
 ----------------------------------------------------------------------
 -----
 title
 -----
 Symbolic Z-matrix:
 Charge =  0 Multiplicity = 1

 SCF Done:  E(RHF) =  -195.153236864     A.U. after   11 cycles
 Normal termination of Gaussian 16 at Sun Apr  6 07:50:20 2025.
 Gaussian 16:  ES64L-G16RevC.01  3-Jul-2019

 ----------------------------------------------------------------------
 #t hf aug-cc-pvdz iop(5/13=1,5/36=2,99/5=2) pseudo=read geom=check gue
 ss=(read,tcheck) scf=(maxcycle=1)
 ----------------------------------------------------------------------
 -----
 title
 -----
 Structure from the checkpoint file:  "1-1-dimethylcyclopropane.chk"
 Charge =  0 Multiplicity = 1

                         Standard orientation:
 ---------------------------------------------------------------------
 Center     Atomic      Atomic             Coordinates (Angstroms)
 Number     Number       Type             X           Y           Z
 ---------------------------------------------------------------------
      1          6           0        0.000000    0.000000    0.149260
      2          6           0        0.755342   -0.000000   -1.153405
      3          6           0       -0.755342    0.000000   -1.153405
      4          6           0        0.000000    1.272527    0.969653
      5          6           0       -0.000000   -1.272527    0.969653
      6          1           0        1.261720    0.908062   -1.451789
      7          1           0        1.261720   -0.908062   -1.451789
      8          1           0       -1.261720   -0.908062   -1.451789
      9          1           0       -1.261720    0.908062   -1.451789
     10          1           0       -0.882277    1.324395    1.612690
     11          1           0       -0.882277   -1.324395    1.612690
     12          1           0        0.882277   -1.324395    1.612690
     13          1           0        0.882277    1.324395    1.612690
     14          1           0        0.000000    2.158152    0.332929
     15          1           0       -0.000000   -2.158152    0.332929
 ---------------------------------------------------------------------

 SCF Done:  E(RHF) =  -196.167074149     A.U. after    2 cycles

 The electronic state is 1-A1.
 Alpha  occ. eigenvalues --  -11.40878 -11.40524 -11.37794 -11.36817 -11.34481
 Alpha  occ. eigenvalues --   -1.33371  -1.05759  -1.00483  -0.85769  -0.77099
 Alpha  occ. eigenvalues --   -0.65520  -0.61048  -0.58662  -0.53738  -0.53428
 Alpha  occ. eigenvalues --   -0.52213  -0.49518  -0.43817  -0.37415  -0.35564
 Alpha virt. eigenvalues --    0.03891   0.05558   0.05741   0.05808   0.06009
 Alpha virt. eigenvalues --    0.06290   0.06366   0.06417   0.09166   0.09431
 Alpha virt. eigenvalues --    0.10029   0.12931   0.13607   0.14455   0.14933

 Mulliken charges:
               1
     1  C    1.275659
     2  C   -2.380311
     3  C   -2.380311
     4  C   -4.579785
     5  C   -4.579785
     6  H    1.313389
     7  H    1.313389
     8  H    1.313389
     9  H    1.313389
    10  H    1.195213
    11  H    1.195213
    12  H    1.195213
    13  H    1.195213
    14  H    1.305062
    15  H    1.305062
 Sum of Mulliken charges =   0.00000

 Dipole moment (field-independent basis, Debye):
    X=             -0.0000    Y=              0.0000    Z=              0.0416  Tot=              0.0416

 Test job not archived.
 1\1\GINC-SE023\SP\RHF\Aug-CC-pVDZ\C5H10\OHZDE\06-Apr-2025\0\\#t hf aug
 -cc-pvdz iop(5/13=1,5/36=2,99/5=2) pseudo=read geom=check guess=(read,
 tcheck) scf=(maxcycle=1)\\title\\0,1\C,0,0.,0.,0.14926\C,0,0.755342,0.
 ,-1.153405\C,0,-0.755342,0.,-1.153405\C,0,0.,1.272527,0.969653\C,0,0.,
 -1.272527,0.969653\H,0,1.26172,0.908062,-1.451789\H,0,1.26172,-0.90806
 2,-1.451789\H,0,-1.26172,-0.908062,-1.451789\H,0,-1.26172,0.908062,-1.
 451789\H,0,-0.882277,1.324395,1.61269\H,0,-0.882277,-1.324395,1.61269\
 H,0,0.882277,-1.324395,1.61269\H,0,0.882277,1.324395,1.61269\H,0,0.,2.

 Normal termination of Gaussian 16 at Sun Apr  6 07:51:13 2025.
