 Gaussian 16, Revision C.01,

 ----------------------------------------------------------------------
 #t hf aug-cc-pvdz symm=none int=(grid=ultrafine) guess=(read,tcheck) s
 table=(opt,rrhf)
 ----------------------------------------------------------------------
 -----
 title
 -----
 Symbolic Z-matrix:
 Charge =  0 Multiplicity = 1

 SCF Done:  E(RHF) =  -276.982402730     A.U. after   11 cycles
 Normal termination of Gaussian 16 at Sun Apr  6 07:43:31 2025.
 Gaussian 16:  ES64L-G16RevC.01  3-Jul-2019

 ----------------------------------------------------------------------
 #t hf aug-cc-pvdz iop(5/13=1,5/36=2,99/5=2) pseudo=read geom=check gue
 ss=(read,tcheck) scf=(maxcycle=1)
 ----------------------------------------------------------------------
 -----
 title
 -----
 Structure from the checkpoint file:  "1-1-difluoroethane.chk"
 Charge =  0 Multiplicity = 1

                         Standard orientation:
 ---------------------------------------------------------------------
 Center     Atomic      Atomic             Coordinates (Angstroms)
 Number     Number       Type             X           Y           Z
 ---------------------------------------------------------------------
      1          6           0        0.898943    1.042679   -0.000000
      2          6           0       -0.321603    0.166943    0.000000
      3          9           0       -0.321603   -0.652153    1.102135
      4          9           0       -0.321603   -0.652153   -1.102135
      5          1           0        1.793325    0.421274   -0.000000
      6          1           0        0.899762    1.674835   -0.886681
      7          1           0        0.899762    1.674835    0.886681
      8          1           0       -1.268028    0.710080    0.000000
 ---------------------------------------------------------------------

 SCF Done:  E(RHF) =  -278.052955492     A.U. after    2 cycles

 The electronic state is 1-A'.
 Alpha  occ. eigenvalues --  -29.27284 -29.27240 -11.52242 -11.39069  -1.31746
 Alpha  occ. eigenvalues --   -1.01318  -0.79314  -0.74441  -0.63565  -0.56177
 Alpha  occ. eigenvalues --   -0.55398  -0.43207  -0.37254  -0.30502  -0.28420
 Alpha  occ. eigenvalues --   -0.26121  -0.20932
 Alpha virt. eigenvalues --    0.04090   0.05237   0.06011   0.06712   0.11355
 Alpha virt. eigenvalues --    0.11892   0.12711   0.13819   0.15496   0.17326
 Alpha virt. eigenvalues --    0.17784   0.23401   0.24384   0.24835   0.27506

 Mulliken charges:
               1
     1  C   -4.088463
     2  C   -1.618288
     3  F    0.339372
     4  F    0.339372
     5  H    1.141872
     6  H    1.212425
     7  H    1.212425
     8  H    1.461287
 Sum of Mulliken charges =  -0.00000

 Dipole moment (field-independent basis, Debye):
    X=             -0.0119    Y=             -1.0961    Z=              0.0000  Tot=              1.0961

 Test job not archived.
 1\1\GINC-SE023\SP\RHF\Aug-CC-pVDZ\C2H4F2\OHZDE\06-Apr-2025\0\\#t hf au
 g-cc-pvdz iop(5/13=1,5/36=2,99/5=2) pseudo=read geom=check guess=(read
 ,tcheck) scf=(maxcycle=1)\\title\\0,1\C,0,0.898943,1.042679,0.\C,0,-0.
 321603,0.166943,0.\F,0,-0.321603,-0.652153,1.102135\F,0,-0.321603,-0.6
 52153,-1.102135\H,0,1.793325,0.421274,0.\H,0,0.899762,1.674835,-0.8866
 81\H,0,0.899762,1.674835,0.886681\H,0,-1.268028,0.71008,0.\\Version=ES
 64L-G16RevC.01\State=1-A'\HF=-278.0529555\RMSD=1.899e-01\Dipole=-0.004
 6909,-0.4312206,0.\Quadrupole=-0.1128694,-0.0674287,0.1802981,0.000466

 Normal termination of Gaussian 16 at Sun Apr  6 07:44:53 2025.
