 Gaussian 16, Revision C.01,

 ----------------------------------------------------------------------
 #t hf aug-cc-pvdz symm=none int=(grid=ultrafine) guess=(read,tcheck) s
 table=(opt,rrhf)
 ----------------------------------------------------------------------
 -----
 title
 -----
 Symbolic Z-matrix:
 Charge =  0 Multiplicity = 1

 SCF Done:  E(RHF) =  -1392.54454157     A.U. after   12 cycles

 1\1\GINC-SE023\Stability\RHF\Aug-CC-pVDZ\C2Cl2F4\OHZDE\06-Apr-2025\0\\
 #t hf aug-cc-pvdz symm=none int=(grid=ultrafine) guess=(read,tcheck) s
 table=(opt,rrhf)\\title\\0,1\C,0,0.396947,-0.334365,0.\C,0,-0.354044,1
 .033767,0.\F,0,1.717331,-0.069343,0.\Cl,0,-0.01232,-1.251697,1.466556\
 Cl,0,-0.01232,-1.251697,-1.466556\F,0,-1.674751,0.856796,0.\F,0,-0.012
 32,1.737455,1.082744\F,0,-0.01232,1.737455,-1.082744\\Version=ES64L-G1
 6RevC.01\HF=-1392.5445416\RMSD=7.298e-09\Dipole=-0.089333,-0.2902791,0
 .\Quadrupole=-1.2361903,0.1268773,1.109313,0.1715815,0.,0.\PG=Unknown\

 Normal termination of Gaussian 16 at Sun Apr  6 07:34:16 2025.
 Gaussian 16:  ES64L-G16RevC.01  3-Jul-2019

 ----------------------------------------------------------------------
 #t hf aug-cc-pvdz iop(5/13=1,5/36=2,99/5=2) pseudo=read geom=check gue
 ss=(read,tcheck) scf=(maxcycle=1)
 ----------------------------------------------------------------------
 -----
 title
 -----
 Structure from the checkpoint file:  "1-1-dichloro-tetrafluoroethane.chk"
 Charge =  0 Multiplicity = 1

                         Standard orientation:
 ---------------------------------------------------------------------
 Center     Atomic      Atomic             Coordinates (Angstroms)
 Number     Number       Type             X           Y           Z
 ---------------------------------------------------------------------
      1          6           0        0.396947   -0.334365    0.000000
      2          6           0       -0.354044    1.033767   -0.000000
      3          9           0        1.717331   -0.069343   -0.000000
      4         17           0       -0.012320   -1.251697    1.466556
      5         17           0       -0.012320   -1.251697   -1.466556
      6          9           0       -1.674751    0.856796   -0.000000
      7          9           0       -0.012320    1.737455    1.082744
      8          9           0       -0.012320    1.737455   -1.082744
 ---------------------------------------------------------------------

 SCF Done:  E(RHF) =  -1394.70886137     A.U. after    2 cycles

 The electronic state is 1-A'.
 Alpha  occ. eigenvalues --  -99.93873 -99.93862 -29.34199 -29.34160 -29.33941
 Alpha  occ. eigenvalues --  -29.33889 -11.64471 -11.58796 -10.51361 -10.51265
 Alpha  occ. eigenvalues --   -9.71258  -9.71093  -9.70345  -9.70314  -9.70253
 Alpha  occ. eigenvalues --   -9.70201  -1.53454  -1.39496  -1.34135  -1.14026
 Alpha  occ. eigenvalues --   -0.94383  -0.93582  -0.85909  -0.77263  -0.72246
 Alpha  occ. eigenvalues --   -0.58650  -0.57514  -0.56121  -0.53391  -0.49963
 Alpha  occ. eigenvalues --   -0.46214  -0.46086  -0.46010  -0.39817  -0.39290
 Alpha  occ. eigenvalues --   -0.38768  -0.33811  -0.31523  -0.28100  -0.26724
 Alpha  occ. eigenvalues --   -0.24007
 Alpha virt. eigenvalues --    0.02792   0.06866   0.07387   0.09974   0.10389
 Alpha virt. eigenvalues --    0.12140   0.12953   0.13031   0.13572   0.14411
 Alpha virt. eigenvalues --    0.15541   0.16091   0.18264   0.19487   0.19654

 Mulliken charges:
               1
     1  C   -3.070110
     2  C    0.422600
     3  F    0.944413
     4  Cl   0.039902
     5  Cl   0.039902
     6  F    0.457725
     7  F    0.582785
     8  F    0.582785
 Sum of Mulliken charges =   0.00000

 Dipole moment (field-independent basis, Debye):
    X=              2.2749    Y=              4.3706    Z=              0.0000  Tot=              4.9272

 Test job not archived.
 1\1\GINC-SE023\SP\RHF\Aug-CC-pVDZ\C2Cl2F4\OHZDE\06-Apr-2025\0\\#t hf a
 ug-cc-pvdz iop(5/13=1,5/36=2,99/5=2) pseudo=read geom=check guess=(rea
 d,tcheck) scf=(maxcycle=1)\\title\\0,1\C,0,0.396947,-0.334365,0.\C,0,-
 0.354044,1.033767,0.\F,0,1.717331,-0.069343,0.\Cl,0,-0.01232,-1.251697
 ,1.466556\Cl,0,-0.01232,-1.251697,-1.466556\F,0,-1.674751,0.856796,0.\
 F,0,-0.01232,1.737455,1.082744\F,0,-0.01232,1.737455,-1.082744\\Versio
 n=ES64L-G16RevC.01\State=1-A'\HF=-1394.7088614\RMSD=1.410e-01\Dipole=0
 .8950261,1.7195221,0.\Quadrupole=2.7357131,-0.93242,-1.8032931,-0.1166

 Normal termination of Gaussian 16 at Sun Apr  6 07:34:21 2025.
