 Gaussian 16, Revision C.01,

 ----------------------------------------------------------------------
 #t hf aug-cc-pvdz symm=none int=(grid=ultrafine) guess=(read,tcheck) s
 table=(opt,rrhf)
 ----------------------------------------------------------------------
 -----
 title
 -----
 Symbolic Z-matrix:
 Charge =  0 Multiplicity = 1

 SCF Done:  E(RHF) =  -717.554207036     A.U. after   12 cycles
 Normal termination of Gaussian 16 at Sun Apr  6 07:12:03 2025.
 Gaussian 16:  ES64L-G16RevC.01  3-Jul-2019

 ----------------------------------------------------------------------
 #t hf aug-cc-pvdz iop(5/13=1,5/36=2,99/5=2) pseudo=read geom=check gue
 ss=(read,tcheck) scf=(maxcycle=1)
 ----------------------------------------------------------------------
 -----
 title
 -----
 Structure from the checkpoint file:  "1-1-1-trifluoro-2-2-2-trimethoxyethane.chk"
 Charge =  0 Multiplicity = 1

                         Standard orientation:
 ---------------------------------------------------------------------
 Center     Atomic      Atomic             Coordinates (Angstroms)
 Number     Number       Type             X           Y           Z
 ---------------------------------------------------------------------
      1          6           0        0.258551    2.382485    0.824917
      2          6           0        2.419735   -0.329564   -1.144869
      3          6           0        0.651201   -1.608396    1.651249
      4          6           0        0.344674    0.105814   -0.045876
      5          6           0       -1.170238   -0.211734   -0.324776
      6          8           0        0.585596    1.459026   -0.221890
      7          8           0        1.018793   -0.603637   -1.020083
      8          8           0        0.713817   -0.233280    1.257402
      9          9           0       -1.581732    0.353568   -1.464232
     10          9           0       -1.943092    0.265656    0.672940
     11          9           0       -1.406608   -1.532927   -0.413131
     12          1           0       -0.817667    2.438539    0.985805
     13          1           0        0.620818    3.344736    0.473213
     14          1           0        0.757168    2.116247    1.753875
     15          1           0        2.924788   -0.411859   -0.181994
     16          1           0        2.583857    0.662860   -1.559989
     17          1           0        2.802661   -1.084795   -1.825432
     18          1           0        1.042908   -2.260936    0.872164
     19          1           0       -0.370180   -1.902674    1.893061
     20          1           0        1.269350   -1.687276    2.541803
 ---------------------------------------------------------------------

 SCF Done:  E(RHF) =  -720.415452413     A.U. after    2 cycles

 The electronic state is 1-A.
 Alpha  occ. eigenvalues --  -29.30472 -29.30401 -29.30237 -21.07036 -21.06738
 Alpha  occ. eigenvalues --  -21.06586 -11.61551 -11.52399 -11.42335 -11.41707
 Alpha  occ. eigenvalues --  -11.41453  -1.90147  -1.73072  -1.71995  -1.40190
 Alpha  occ. eigenvalues --   -1.07757  -1.00802  -0.99840  -0.89159  -0.88052
 Alpha  occ. eigenvalues --   -0.86311  -0.73836  -0.67436  -0.65957  -0.62394
 Alpha  occ. eigenvalues --   -0.61197  -0.60029  -0.58661  -0.56969  -0.55278
 Alpha  occ. eigenvalues --   -0.48437  -0.45759  -0.44131  -0.43354  -0.42813
 Alpha  occ. eigenvalues --   -0.40507  -0.37343  -0.36293  -0.34879  -0.33133
 Alpha  occ. eigenvalues --   -0.31529  -0.25522  -0.24316  -0.24226  -0.20582
 Alpha virt. eigenvalues --    0.03891   0.04679   0.04795   0.05235   0.05811
 Alpha virt. eigenvalues --    0.05992   0.07285   0.07634   0.08762   0.10694
 Alpha virt. eigenvalues --    0.11194   0.12629   0.13068   0.14217   0.14518

 Mulliken charges:
               1
     1  C   -3.694891
     2  C   -3.588884
     3  C   -3.522370
     4  C    9.780201
     5  C   -0.444086
     6  O   -4.107176
     7  O   -3.565447
     8  O   -4.233995
     9  F    0.350883
    10  F    0.278019
    11  F    0.304910
    12  H    1.417237
    13  H    1.297409
    14  H    1.471631
    15  H    1.384947
    16  H    1.393778
    17  H    1.308701
    18  H    1.407247
    19  H    1.404911
    20  H    1.356975
 Sum of Mulliken charges =  -0.00000

 Dipole moment (field-independent basis, Debye):
    X=             -0.4252    Y=             -0.2550    Z=              0.2559  Tot=              0.5579

 Test job not archived.
 1\1\GINC-SE223\SP\RHF\Aug-CC-pVDZ\C5H9F3O3\OHZDE\06-Apr-2025\0\\#t hf
 aug-cc-pvdz iop(5/13=1,5/36=2,99/5=2) pseudo=read geom=check guess=(re
 ad,tcheck) scf=(maxcycle=1)\\title\\0,1\C,0,0.25855,2.382485,0.824917\
 C,0,2.419735,-0.329563,-1.144869\C,0,0.651202,-1.608396,1.651249\C,0,0
 .344674,0.105814,-0.045876\C,0,-1.170238,-0.211734,-0.324776\O,0,0.585
 595,1.459026,-0.22189\O,0,1.018793,-0.603637,-1.020083\O,0,0.713817,-0
 .23328,1.257402\F,0,-1.581732,0.353567,-1.464232\F,0,-1.943092,0.26565
 5,0.67294\F,0,-1.406607,-1.532928,-0.413131\H,0,-0.817668,2.438539,0.9

 Normal termination of Gaussian 16 at Sun Apr  6 07:12:22 2025.
