 Gaussian 16, Revision C.01,

 ----------------------------------------------------------------------
 #t hf aug-cc-pvdz symm=none int=(grid=ultrafine) guess=(read,tcheck) s
 table=(opt,rrhf)
 ----------------------------------------------------------------------
 -----
 title
 -----
 Symbolic Z-matrix:
 Charge =  0 Multiplicity = 1

 SCF Done:  E(RHF) =  -375.866638507     A.U. after   11 cycles
 Normal termination of Gaussian 16 at Sun Apr  6 07:10:36 2025.
 Gaussian 16:  ES64L-G16RevC.01  3-Jul-2019

 ----------------------------------------------------------------------
 #t hf aug-cc-pvdz iop(5/13=1,5/36=2,99/5=2) pseudo=read geom=check gue
 ss=(read,tcheck) scf=(maxcycle=1)
 ----------------------------------------------------------------------
 -----
 title
 -----
 Structure from the checkpoint file:  "1-1-1-trifluoroethane.chk"
 Charge =  0 Multiplicity = 1

                         Standard orientation:
 ---------------------------------------------------------------------
 Center     Atomic      Atomic             Coordinates (Angstroms)
 Number     Number       Type             X           Y           Z
 ---------------------------------------------------------------------
      1          6           0       -1.478573    0.000000    0.000000
      2          6           0        0.023472    0.000000   -0.000000
      3          1           0       -1.838151   -1.026225    0.000000
      4          1           0       -1.838151    0.513112    0.888737
      5          1           0       -1.838151    0.513112   -0.888737
      6          9           0        0.527595    1.253973   -0.000000
      7          9           0        0.527595   -0.626987   -1.085973
      8          9           0        0.527595   -0.626987    1.085973
 ---------------------------------------------------------------------

 SCF Done:  E(RHF) =  -377.256022575     A.U. after    2 cycles

 The electronic state is 1-A'.
 Alpha  occ. eigenvalues --  -29.30187 -29.30187 -29.30117 -11.59547 -11.40818
 Alpha  occ. eigenvalues --   -1.42458  -1.06692  -0.87740  -0.87740  -0.70158
 Alpha  occ. eigenvalues --   -0.58744  -0.58744  -0.47545  -0.42969  -0.42969
 Alpha  occ. eigenvalues --   -0.35414  -0.35414  -0.30310  -0.24694  -0.24694
 Alpha  occ. eigenvalues --   -0.20807
 Alpha virt. eigenvalues --    0.04109   0.06016   0.06016   0.10408   0.10902
 Alpha virt. eigenvalues --    0.12725   0.12725   0.16519   0.16738   0.16738
 Alpha virt. eigenvalues --    0.22365   0.23696   0.23696   0.26494   0.26775

 Mulliken charges:
               1
     1  C   -4.301050
     2  C   -0.385106
     3  H    1.151740
     4  H    1.151740
     5  H    1.151740
     6  F    0.410313
     7  F    0.410311
     8  F    0.410311
 Sum of Mulliken charges =  -0.00000

 Dipole moment (field-independent basis, Debye):
    X=              0.9709    Y=              0.0000    Z=              0.0000  Tot=              0.9709

 Test job not archived.
 1\1\GINC-SE046\SP\RHF\Aug-CC-pVDZ\C2H3F3\OHZDE\06-Apr-2025\0\\#t hf au
 g-cc-pvdz iop(5/13=1,5/36=2,99/5=2) pseudo=read geom=check guess=(read
 ,tcheck) scf=(maxcycle=1)\\title\\0,1\C,0,0.,0.,1.478573\C,0,0.,0.,-0.
 023472\H,0,0.,-1.026225,1.838151\H,0,0.888737,0.513112,1.838151\H,0,-0
 .888737,0.513112,1.838151\F,0,0.,1.253973,-0.527595\F,0,-1.085973,-0.6
 26987,-0.527595\F,0,1.085973,-0.626987,-0.527595\\Version=ES64L-G16Rev
 C.01\State=1-A'\HF=-377.2560226\RMSD=1.912e-01\Dipole=0.,0.0000003,-0.
 3819732\Quadrupole=0.1082422,0.1082434,-0.2164857,0.,0.,-0.0000009\PG=

 Normal termination of Gaussian 16 at Sun Apr  6 07:11:49 2025.
