 Gaussian 16, Revision C.01,

 ----------------------------------------------------------------------
 #t hf aug-cc-pvdz symm=none int=(grid=ultrafine) guess=(read,tcheck) s
 table=(opt,rrhf)
 ----------------------------------------------------------------------
 -----
 title
 -----
 Symbolic Z-matrix:
 Charge =  0 Multiplicity = 1

 SCF Done:  E(RHF) =  -1455.99397285     A.U. after   12 cycles

 1\1\GINC-SE209\Stability\RHF\Aug-CC-pVDZ\C2H3Cl3\OHZDE\06-Apr-2025\0\\
 #t hf aug-cc-pvdz symm=none int=(grid=ultrafine) guess=(read,tcheck) s
 table=(opt,rrhf)\\title\\0,1\C,0,0.,0.,1.770041\C,0,0.,0.,0.257391\Cl,
 0,0.,1.68935,-0.363984\Cl,0,1.46302,-0.844675,-0.363984\Cl,0,-1.46302,
 -0.844675,-0.363984\H,0,0.,-1.025689,2.132856\H,0,0.888273,0.512844,2.
 132856\H,0,-0.888273,0.512844,2.132856\\Version=ES64L-G16RevC.01\HF=-1
 455.9939728\RMSD=4.196e-09\Dipole=0.,-0.0000002,0.8004392\Quadrupole=-
 0.9076984,-0.9077006,1.815399,0.,0.,-0.0000008\PG=Unknown\\@

 Normal termination of Gaussian 16 at Sun Apr  6 07:11:54 2025.
 Gaussian 16:  ES64L-G16RevC.01  3-Jul-2019

 ----------------------------------------------------------------------
 #t hf aug-cc-pvdz iop(5/13=1,5/36=2,99/5=2) pseudo=read geom=check gue
 ss=(read,tcheck) scf=(maxcycle=1)
 ----------------------------------------------------------------------
 -----
 title
 -----
 Structure from the checkpoint file:  "1-1-1-trichloroethane.chk"
 Charge =  0 Multiplicity = 1

                         Standard orientation:
 ---------------------------------------------------------------------
 Center     Atomic      Atomic             Coordinates (Angstroms)
 Number     Number       Type             X           Y           Z
 ---------------------------------------------------------------------
      1          6           0        0.000000    1.770041    0.000000
      2          6           0        0.000000    0.257391    0.000000
      3         17           0        1.689350   -0.363984    0.000000
      4         17           0       -0.844675   -0.363984    1.463020
      5         17           0       -0.844675   -0.363984   -1.463020
      6          1           0       -1.025689    2.132856    0.000000
      7          1           0        0.512844    2.132856    0.888273
      8          1           0        0.512844    2.132856   -0.888273
 ---------------------------------------------------------------------

 SCF Done:  E(RHF) =  -1457.12196873     A.U. after    2 cycles

 The electronic state is 1-A'.
 Alpha  occ. eigenvalues --  -99.91168 -99.91168 -99.91155 -11.56077 -11.41208
 Alpha  occ. eigenvalues --  -10.48725 -10.48400 -10.48400  -9.68463  -9.68463
 Alpha  occ. eigenvalues --   -9.68258  -9.67637  -9.67637  -9.67608  -9.67531
 Alpha  occ. eigenvalues --   -9.67444  -9.67444  -1.46054  -1.30025  -1.30025
 Alpha  occ. eigenvalues --   -1.12971  -0.91192  -0.71747  -0.71747  -0.67130
 Alpha  occ. eigenvalues --   -0.59037  -0.59037  -0.53466  -0.53466  -0.50595
 Alpha  occ. eigenvalues --   -0.50595  -0.49621  -0.48905
 Alpha virt. eigenvalues --    0.00600   0.03500   0.06344   0.06344   0.07078
 Alpha virt. eigenvalues --    0.07078   0.07829   0.11515   0.11610   0.11610
 Alpha virt. eigenvalues --    0.14288   0.14288   0.16068   0.16727   0.17580

 Mulliken charges:
               1
     1  C   -2.475474
     2  C   -1.992558
     3  Cl   0.242256
     4  Cl   0.242256
     5  Cl   0.242256
     6  H    1.247088
     7  H    1.247088
     8  H    1.247088
 Sum of Mulliken charges =  -0.00000

 Dipole moment (field-independent basis, Debye):
    X=             -0.0000    Y=              1.9887    Z=              0.0000  Tot=              1.9887

 Test job not archived.
 1\1\GINC-SE209\SP\RHF\Aug-CC-pVDZ\C2H3Cl3\OHZDE\06-Apr-2025\0\\#t hf a
 ug-cc-pvdz iop(5/13=1,5/36=2,99/5=2) pseudo=read geom=check guess=(rea
 d,tcheck) scf=(maxcycle=1)\\title\\0,1\C,0,0.,0.,1.770041\C,0,0.,0.,0.
 257391\Cl,0,0.,1.68935,-0.363984\Cl,0,1.46302,-0.844675,-0.363984\Cl,0
 ,-1.46302,-0.844675,-0.363984\H,0,0.,-1.025689,2.132856\H,0,0.888273,0
 .512844,2.132856\H,0,-0.888273,0.512844,2.132856\\Version=ES64L-G16Rev
 C.01\State=1-A'\HF=-1457.1219687\RMSD=1.434e-01\Dipole=0.,-0.0000001,0
 .7823988\Quadrupole=-0.6025432,-0.6025452,1.2050884,0.,0.,-0.0000005\P

 Normal termination of Gaussian 16 at Sun Apr  6 07:12:13 2025.
