 Gaussian 16, Revision C.01,

 ----------------------------------------------------------------------
 #t hf aug-cc-pvdz symm=none int=(grid=ultrafine) guess=(read,tcheck) s
 table=(opt,rrhf)
 ----------------------------------------------------------------------
 -----
 title
 -----
 Symbolic Z-matrix:
 Charge =  0 Multiplicity = 1

 SCF Done:  E(RHF) =  -997.084423537     A.U. after   12 cycles

 1\1\GINC-SE028\Stability\RHF\Aug-CC-pVDZ\C2H4Cl2\OHZDE\06-Apr-2025\0\\
 #t hf aug-cc-pvdz symm=none int=(grid=ultrafine) guess=(read,tcheck) s
 table=(opt,rrhf)\\title\\0,1\C,0,0.965471,1.453203,0.\C,0,-0.209585,0.
 507329,0.\Cl,0,-0.209585,-0.525034,1.4797\Cl,0,-0.209585,-0.525034,-1.
 4797\H,0,1.90327,0.90156,0.\H,0,0.925876,2.084439,-0.887319\H,0,0.9258
 76,2.084439,0.887319\H,0,-1.16445,1.017543,0.\\Version=ES64L-G16RevC.0
 1\HF=-997.0844235\RMSD=3.927e-09\Dipole=0.1229733,0.9283301,0.\Quadrup
 ole=0.6647456,1.3847096,-2.0494553,-0.0435575,0.,0.\PG=Unknown\\@

 Normal termination of Gaussian 16 at Sun Apr  6 07:35:32 2025.
 Gaussian 16:  ES64L-G16RevC.01  3-Jul-2019

 ----------------------------------------------------------------------
 #t hf aug-cc-pvdz iop(5/13=1,5/36=2,99/5=2) pseudo=read geom=check gue
 ss=(read,tcheck) scf=(maxcycle=1)
 ----------------------------------------------------------------------
 -----
 title
 -----
 Structure from the checkpoint file:  "1-1-dichloroethane.chk"
 Charge =  0 Multiplicity = 1

                         Standard orientation:
 ---------------------------------------------------------------------
 Center     Atomic      Atomic             Coordinates (Angstroms)
 Number     Number       Type             X           Y           Z
 ---------------------------------------------------------------------
      1          6           0        0.965471    1.453203   -0.000000
      2          6           0       -0.209585    0.507329    0.000000
      3         17           0       -0.209585   -0.525034    1.479700
      4         17           0       -0.209585   -0.525034   -1.479700
      5          1           0        1.903270    0.901560   -0.000000
      6          1           0        0.925876    2.084439   -0.887319
      7          1           0        0.925876    2.084439    0.887319
      8          1           0       -1.164450    1.017543    0.000000
 ---------------------------------------------------------------------

 SCF Done:  E(RHF) =  -997.975980070     A.U. after    2 cycles

 The electronic state is 1-A'.
 Alpha  occ. eigenvalues --  -99.89528 -99.89517 -11.50705 -11.40076 -10.46906
 Alpha  occ. eigenvalues --  -10.46765  -9.66748  -9.66651  -9.65989  -9.65953
 Alpha  occ. eigenvalues --   -9.65868  -9.65839  -1.40331  -1.27992  -1.12454
 Alpha  occ. eigenvalues --   -0.91392  -0.70444  -0.67350  -0.62676  -0.56166
 Alpha  occ. eigenvalues --   -0.55221  -0.51383  -0.49959  -0.48939  -0.47478
 Alpha virt. eigenvalues --    0.02851   0.04378   0.05889   0.06261   0.07117
 Alpha virt. eigenvalues --    0.07879   0.09700   0.11997   0.13217   0.13679
 Alpha virt. eigenvalues --    0.14879   0.15174   0.16516   0.17595   0.17988

 Mulliken charges:
               1
     1  C   -2.578539
     2  C   -3.600952
     3  Cl   0.257226
     4  Cl   0.257226
     5  H    1.322253
     6  H    1.229485
     7  H    1.229485
     8  H    1.883815
 Sum of Mulliken charges =   0.00000

 Dipole moment (field-independent basis, Debye):
    X=              0.3371    Y=              2.3367    Z=             -0.0000  Tot=              2.3609

 Test job not archived.
 1\1\GINC-SE028\SP\RHF\Aug-CC-pVDZ\C2H4Cl2\OHZDE\06-Apr-2025\0\\#t hf a
 ug-cc-pvdz iop(5/13=1,5/36=2,99/5=2) pseudo=read geom=check guess=(rea
 d,tcheck) scf=(maxcycle=1)\\title\\0,1\C,0,0.965471,1.453203,0.\C,0,-0
 .209585,0.507329,0.\Cl,0,-0.209585,-0.525034,1.4797\Cl,0,-0.209585,-0.
 525034,-1.4797\H,0,1.90327,0.90156,0.\H,0,0.925876,2.084439,-0.887319\
 H,0,0.925876,2.084439,0.887319\H,0,-1.16445,1.017543,0.\\Version=ES64L
 -G16RevC.01\State=1-A'\HF=-997.9759801\RMSD=1.542e-01\Dipole=0.1326244
 ,0.9193231,0.\Quadrupole=0.0030958,1.3762745,-1.3793703,0.0610315,0.,0

 Normal termination of Gaussian 16 at Sun Apr  6 07:36:39 2025.
