 Gaussian 16, Revision C.01,

 ----------------------------------------------------------------------
 #t hf aug-cc-pvdz symm=none int=(grid=ultrafine) guess=(read,tcheck) s
 table=(opt,rrhf)
 ----------------------------------------------------------------------
 -----
 title
 -----
 Symbolic Z-matrix:
 Charge =  0 Multiplicity = 1

 SCF Done:  E(RHF) =  -534.827154846     A.U. after   12 cycles

 1\1\GINC-SE150\Stability\RHF\Aug-CC-pVDZ\C6H14O4\OHZDE\06-Apr-2025\0\\
 #t hf aug-cc-pvdz symm=none int=(grid=ultrafine) guess=(read,tcheck) s
 table=(opt,rrhf)\\title\\0,1\C,0,-3.230761,-0.667661,0.267528\C,0,1.61
 3648,-1.548109,-1.362053\C,0,1.930118,0.02852,1.827269\C,0,-0.095597,2
 .218883,-0.923603\C,0,-0.975112,-0.563177,-0.37163\C,0,0.386263,0.0496
 56,-0.003455\O,0,-1.977896,-0.047508,0.468903\O,0,1.332271,-0.191322,-
 1.040678\O,0,0.777361,-0.532375,1.194775\O,0,0.352154,1.427453,0.17117
 5\H,0,-3.588767,-0.528974,-0.760344\H,0,-3.934183,-0.201346,0.95391\H,

 Normal termination of Gaussian 16 at Sun Apr  6 07:13:10 2025.
 Gaussian 16:  ES64L-G16RevC.01  3-Jul-2019

 ----------------------------------------------------------------------
 #t hf aug-cc-pvdz iop(5/13=1,5/36=2,99/5=2) pseudo=read geom=check gue
 ss=(read,tcheck) scf=(maxcycle=1)
 ----------------------------------------------------------------------
 -----
 title
 -----
 Structure from the checkpoint file:  "1-1-1-2-tetramethoxyethane.chk"
 Charge =  0 Multiplicity = 1

                         Standard orientation:
 ---------------------------------------------------------------------
 Center     Atomic      Atomic             Coordinates (Angstroms)
 Number     Number       Type             X           Y           Z
 ---------------------------------------------------------------------
      1          6           0       -3.230761   -0.667660    0.267528
      2          6           0        1.613648   -1.548109   -1.362053
      3          6           0        1.930118    0.028520    1.827269
      4          6           0       -0.095597    2.218883   -0.923603
      5          6           0       -0.975112   -0.563177   -0.371630
      6          6           0        0.386263    0.049656   -0.003455
      7          8           0       -1.977896   -0.047508    0.468903
      8          8           0        1.332271   -0.191322   -1.040678
      9          8           0        0.777361   -0.532375    1.194775
     10          8           0        0.352154    1.427453    0.171175
     11          1           0       -3.588767   -0.528973   -0.760344
     12          1           0       -3.934183   -0.201345    0.953910
     13          1           0       -3.183230   -1.742605    0.478392
     14          1           0        1.786633   -2.144110   -0.464434
     15          1           0        2.519368   -1.537660   -1.964779
     16          1           0        0.811054   -2.004198   -1.948597
     17          1           0        2.760884    0.121924    1.126655
     18          1           0        2.196807   -0.665495    2.620743
     19          1           0        1.704697    1.005239    2.252683
     20          1           0       -1.160540    2.065114   -1.111288
     21          1           0        0.478256    2.010258   -1.826711
     22          1           0        0.061973    3.253034   -0.626958
     23          1           0       -0.901685   -1.650429   -0.263497
     24          1           0       -1.193741   -0.339419   -1.423512
 ---------------------------------------------------------------------

 SCF Done:  E(RHF) =  -537.232360993     A.U. after    2 cycles

 The electronic state is 1-A.
 Alpha  occ. eigenvalues --  -21.04322 -21.04279 -21.04105 -21.04010 -11.52937
 Alpha  occ. eigenvalues --  -11.41815 -11.40864 -11.40367 -11.40004 -11.39245
 Alpha  occ. eigenvalues --   -1.87527  -1.74617  -1.69622  -1.69151  -1.09654
 Alpha  occ. eigenvalues --   -1.01649  -0.98149  -0.97714  -0.93444  -0.77938
 Alpha  occ. eigenvalues --   -0.68533  -0.67062  -0.65093  -0.63088  -0.61323
 Alpha  occ. eigenvalues --   -0.59916  -0.59031  -0.58107  -0.56930  -0.56367
 Alpha  occ. eigenvalues --   -0.53503  -0.53163  -0.48700  -0.43653  -0.40048
 Alpha  occ. eigenvalues --   -0.37235  -0.35813  -0.31715  -0.30018  -0.29526
 Alpha  occ. eigenvalues --   -0.28572
 Alpha virt. eigenvalues --    0.03986   0.04514   0.04538   0.04707   0.04871
 Alpha virt. eigenvalues --    0.05785   0.06297   0.06604   0.06875   0.08223
 Alpha virt. eigenvalues --    0.08698   0.08972   0.09122   0.09807   0.12568

 Mulliken charges:
               1
     1  C   -3.394339
     2  C   -3.503436
     3  C   -3.692132
     4  C   -3.554023
     5  C   -2.006728
     6  C   11.072196
     7  O   -3.263432
     8  O   -4.173419
     9  O   -3.990727
    10  O   -4.149420
    11  H    1.349933
    12  H    1.410445
    13  H    1.395114
    14  H    1.433936
    15  H    1.347212
    16  H    1.514011
    17  H    1.387428
    18  H    1.318970
    19  H    1.406672
    20  H    1.554521
    21  H    1.378068
    22  H    1.326290
    23  H    1.868138
    24  H    1.964722
 Sum of Mulliken charges =  -0.00000

 Dipole moment (field-independent basis, Debye):
    X=             -0.0949    Y=             -0.0979    Z=             -0.2269  Tot=              0.2647

 Test job not archived.
 1\1\GINC-SE150\SP\RHF\Aug-CC-pVDZ\C6H14O4\OHZDE\06-Apr-2025\0\\#t hf a
 ug-cc-pvdz iop(5/13=1,5/36=2,99/5=2) pseudo=read geom=check guess=(rea
 d,tcheck) scf=(maxcycle=1)\\title\\0,1\C,0,-3.230761,-0.667661,0.26752
 8\C,0,1.613648,-1.548109,-1.362053\C,0,1.930118,0.02852,1.827269\C,0,-
 0.095597,2.218883,-0.923603\C,0,-0.975112,-0.563177,-0.37163\C,0,0.386
 263,0.049656,-0.003455\O,0,-1.977896,-0.047508,0.468903\O,0,1.332271,-
 0.191322,-1.040678\O,0,0.777361,-0.532375,1.194775\O,0,0.352154,1.4274
 53,0.171175\H,0,-3.588767,-0.528974,-0.760344\H,0,-3.934183,-0.201346,

 Normal termination of Gaussian 16 at Sun Apr  6 07:14:17 2025.
