 Gaussian 16, Revision C.01,

 ----------------------------------------------------------------------
 #t hf aug-cc-pvdz symm=none int=(grid=ultrafine) guess=(read,tcheck) s
 table=(opt,rrhf)
 ----------------------------------------------------------------------
 -----
 title
 -----
 Symbolic Z-matrix:
 Charge =  0 Multiplicity = 1

 SCF Done:  E(RHF) =  -1495.03171242     A.U. after   13 cycles

 1\1\GINC-SE222\Stability\RHF\Aug-CC-pVDZ\C3H5Cl3\OHZDE\06-Apr-2025\0\\
 #t hf aug-cc-pvdz symm=none int=(grid=ultrafine) guess=(read,tcheck) s
 table=(opt,rrhf)\\title\\0,1\C,0,2.201897,-1.170837,0.\C,0,1.510358,0.
 188385,0.\C,0,-0.01435,0.15262,0.\Cl,0,-0.646271,1.840726,0.\Cl,0,-0.6
 46271,-0.685884,1.463336\Cl,0,-0.646271,-0.685884,-1.463336\H,0,1.9421
 56,-1.75156,-0.883333\H,0,3.281345,-1.02085,0.\H,0,1.942156,-1.75156,0
 .883333\H,0,1.803357,0.765336,-0.877934\H,0,1.803357,0.765336,0.877934
 \\Version=ES64L-G16RevC.01\HF=-1495.0317124\RMSD=3.215e-09\Dipole=0.88

 Normal termination of Gaussian 16 at Sun Apr  6 07:09:23 2025.
 Gaussian 16:  ES64L-G16RevC.01  3-Jul-2019

 ----------------------------------------------------------------------
 #t hf aug-cc-pvdz iop(5/13=1,5/36=2,99/5=2) pseudo=read geom=check gue
 ss=(read,tcheck) scf=(maxcycle=1)
 ----------------------------------------------------------------------
 -----
 title
 -----
 Structure from the checkpoint file:  "1-1-1-trichloropropane.chk"
 Charge =  0 Multiplicity = 1

                         Standard orientation:
 ---------------------------------------------------------------------
 Center     Atomic      Atomic             Coordinates (Angstroms)
 Number     Number       Type             X           Y           Z
 ---------------------------------------------------------------------
      1          6           0        2.201897   -1.170837   -0.000000
      2          6           0        1.510358    0.188385   -0.000000
      3          6           0       -0.014350    0.152620    0.000000
      4         17           0       -0.646271    1.840726    0.000000
      5         17           0       -0.646271   -0.685884    1.463336
      6         17           0       -0.646271   -0.685884   -1.463336
      7          1           0        1.942156   -1.751560   -0.883333
      8          1           0        3.281345   -1.020850   -0.000000
      9          1           0        1.942156   -1.751560    0.883333
     10          1           0        1.803357    0.765336   -0.877934
     11          1           0        1.803357    0.765336    0.877934
 ---------------------------------------------------------------------

 SCF Done:  E(RHF) =  -1496.36839489     A.U. after    2 cycles

 The electronic state is 1-A'.
 Alpha  occ. eigenvalues --  -99.90934 -99.90927 -99.90909 -11.56257 -11.43590
 Alpha  occ. eigenvalues --  -11.38130 -10.48484 -10.48176 -10.48143  -9.68267
 Alpha  occ. eigenvalues --   -9.68248  -9.68031  -9.67488  -9.67455  -9.67411
 Alpha  occ. eigenvalues --   -9.67348  -9.67248  -9.67218  -1.46113  -1.29937
 Alpha  occ. eigenvalues --   -1.29770  -1.18874  -1.00248  -0.87604  -0.72174
 Alpha  occ. eigenvalues --   -0.70846  -0.67152  -0.62513  -0.57568  -0.55493
 Alpha  occ. eigenvalues --   -0.54336  -0.51155  -0.50434  -0.50403  -0.50147
 Alpha  occ. eigenvalues --   -0.49066  -0.46925
 Alpha virt. eigenvalues --    0.00895   0.03512   0.06024   0.06045   0.06325
 Alpha virt. eigenvalues --    0.06727   0.07112   0.07979   0.08471   0.11000
 Alpha virt. eigenvalues --    0.11469   0.11562   0.14001   0.15065   0.15997

 Mulliken charges:
               1
     1  C   -3.164506
     2  C   -1.896502
     3  C   -1.829831
     4  Cl   0.128972
     5  Cl   0.199875
     6  Cl   0.199875
     7  H    1.202409
     8  H    1.136596
     9  H    1.202409
    10  H    1.410352
    11  H    1.410352
 Sum of Mulliken charges =  -0.00000

 Dipole moment (field-independent basis, Debye):
    X=              2.3244    Y=             -0.2227    Z=             -0.0000  Tot=              2.3350

 Test job not archived.
 1\1\GINC-SE222\SP\RHF\Aug-CC-pVDZ\C3H5Cl3\OHZDE\06-Apr-2025\0\\#t hf a
 ug-cc-pvdz iop(5/13=1,5/36=2,99/5=2) pseudo=read geom=check guess=(rea
 d,tcheck) scf=(maxcycle=1)\\title\\0,1\C,0,2.201897,-1.170837,0.\C,0,1
 .510358,0.188385,0.\C,0,-0.01435,0.15262,0.\Cl,0,-0.646271,1.840726,0.
 \Cl,0,-0.646271,-0.685884,1.463336\Cl,0,-0.646271,-0.685884,-1.463336\
 H,0,1.942156,-1.75156,-0.883333\H,0,3.281345,-1.02085,0.\H,0,1.942156,
 -1.75156,0.883333\H,0,1.803357,0.765336,-0.877934\H,0,1.803357,0.76533
 6,0.877934\\Version=ES64L-G16RevC.01\State=1-A'\HF=-1496.3683949\RMSD=

 Normal termination of Gaussian 16 at Sun Apr  6 07:10:00 2025.
