 Gaussian 16, Revision C.01,

 ----------------------------------------------------------------------
 #t hf aug-cc-pvdz symm=none int=(grid=ultrafine) guess=(read,tcheck) s
 table=(opt,rrhf)
 ----------------------------------------------------------------------
 -----
 title
 -----
 Symbolic Z-matrix:
 Charge =  0 Multiplicity = 1

 SCF Done:  E(RHF) =  -810.016854968     A.U. after   14 cycles
 Normal termination of Gaussian 16 at Sun Apr  6 07:47:46 2025.
 Gaussian 16:  ES64L-G16RevC.01  3-Jul-2019

 ----------------------------------------------------------------------
 #t hf aug-cc-pvdz iop(5/13=1,5/36=2,99/5=2) pseudo=read geom=check gue
 ss=(read,tcheck) scf=(maxcycle=1)
 ----------------------------------------------------------------------
 -----
 title
 -----
 Structure from the checkpoint file:  "1-1-diisocyanato-2-sulfanylethane.chk"
 Charge =  0 Multiplicity = 1

                         Standard orientation:
 ---------------------------------------------------------------------
 Center     Atomic      Atomic             Coordinates (Angstroms)
 Number     Number       Type             X           Y           Z
 ---------------------------------------------------------------------
      1         16           0       -1.960908   -0.984786   -0.704762
      2          8           0       -0.911149    2.680262   -0.504844
      3          8           0        3.424680   -0.179183   -0.597952
      4          7           0       -0.053917    1.049338    0.982459
      5          7           0        1.194387   -0.739778   -0.030324
      6          6           0        0.229652   -0.361475    0.989131
      7          6           0       -1.027868   -1.225362    0.844298
      8          6           0       -0.515341    1.815052    0.167561
      9          6           0        2.331372   -0.414621   -0.267512
     10          1           0       -1.018139   -1.475813   -1.529627
     11          1           0        0.662672   -0.584117    1.965684
     12          1           0       -1.719705   -0.969386    1.644141
     13          1           0       -0.748716   -2.271237    0.952542
 ---------------------------------------------------------------------

 SCF Done:  E(RHF) =  -812.010240310     A.U. after    2 cycles

 The electronic state is 1-A.
 Alpha  occ. eigenvalues --  -75.70453 -21.13908 -21.13103 -15.77986 -15.77428
 Alpha  occ. eigenvalues --  -13.15074 -13.11716 -13.06396 -11.60774 -11.59611
 Alpha  occ. eigenvalues --  -11.53427 -11.43580  -8.04359  -1.78568  -1.77812
 Alpha  occ. eigenvalues --   -1.49674  -1.35732  -1.22101  -1.07587  -0.93296
 Alpha  occ. eigenvalues --   -0.80890  -0.72733  -0.67212  -0.64431  -0.63878
 Alpha  occ. eigenvalues --   -0.61396  -0.59287  -0.58800  -0.57651  -0.55255
 Alpha  occ. eigenvalues --   -0.50919  -0.41525  -0.41035  -0.36113  -0.35865
 Alpha  occ. eigenvalues --   -0.33199  -0.26232
 Alpha virt. eigenvalues --    0.02564   0.04322   0.05098   0.05428   0.07773
 Alpha virt. eigenvalues --    0.08531   0.08916   0.09608   0.10409   0.11060
 Alpha virt. eigenvalues --    0.12105   0.12914   0.13045   0.13589   0.13775

 Mulliken charges:
               1
     1  S   -0.543365
     2  O   -2.656229
     3  O   -2.752647
     4  N   -2.572169
     5  N   -2.612218
     6  C    1.488576
     7  C   -3.728007
     8  C    3.681894
     9  C    3.828681
    10  H    1.078494
    11  H    1.909363
    12  H    1.532271
    13  H    1.345356
 Sum of Mulliken charges =   0.00000

 Dipole moment (field-independent basis, Debye):
    X=             -1.3349    Y=             -0.3414    Z=              0.2239  Tot=              1.3960

 Test job not archived.
 1\1\GINC-SE038\SP\RHF\Aug-CC-pVDZ\C4H4N2O2S1\OHZDE\06-Apr-2025\0\\#t h
 f aug-cc-pvdz iop(5/13=1,5/36=2,99/5=2) pseudo=read geom=check guess=(
 read,tcheck) scf=(maxcycle=1)\\title\\0,1\S,0,-1.960908,-0.984786,-0.7
 04762\O,0,-0.911149,2.680262,-0.504844\O,0,3.42468,-0.179183,-0.597952
 \N,0,-0.053917,1.049338,0.982459\N,0,1.194387,-0.739778,-0.030324\C,0,
 0.229652,-0.361475,0.989131\C,0,-1.027868,-1.225362,0.844298\C,0,-0.51
 5341,1.815052,0.167561\C,0,2.331372,-0.414621,-0.267512\H,0,-1.018139,
 -1.475813,-1.529627\H,0,0.662672,-0.584117,1.965684\H,0,-1.719705,-0.9

 Normal termination of Gaussian 16 at Sun Apr  6 07:48:20 2025.
