 Gaussian 16, Revision C.01,

 ----------------------------------------------------------------------
 #t hf aug-cc-pvdz symm=none int=(grid=ultrafine) guess=(read,tcheck) s
 table=(opt,rrhf)
 ----------------------------------------------------------------------
 -----
 title
 -----
 Symbolic Z-matrix:
 Charge =  0 Multiplicity = 1

 SCF Done:  E(RHF) =  -426.728492335     A.U. after   12 cycles
 Normal termination of Gaussian 16 at Sun Apr  6 07:38:32 2025.
 Gaussian 16:  ES64L-G16RevC.01  3-Jul-2019

 ----------------------------------------------------------------------
 #t hf aug-cc-pvdz iop(5/13=1,5/36=2,99/5=2) pseudo=read geom=check gue
 ss=(read,tcheck) scf=(maxcycle=1)
 ----------------------------------------------------------------------
 -----
 title
 -----
 Structure from the checkpoint file:  "1-1-difluoro-2-2-ethanediol.chk"
 Charge =  0 Multiplicity = 1

                         Standard orientation:
 ---------------------------------------------------------------------
 Center     Atomic      Atomic             Coordinates (Angstroms)
 Number     Number       Type             X           Y           Z
 ---------------------------------------------------------------------
      1          9           0        0.936726   -0.752395    1.002357
      2          9           0        1.646645    0.548458   -0.624816
      3          8           0       -1.587352   -0.834466   -0.382371
      4          8           0       -0.934596    1.174393    0.623606
      5          6           0       -0.691510    0.252835   -0.394390
      6          6           0        0.702183   -0.374100   -0.292984
      7          1           0       -0.754108    0.816515   -1.328274
      8          1           0        0.817745   -1.249022   -0.931294
      9          1           0       -2.484848   -0.486276   -0.414125
     10          1           0       -0.717580    0.762386    1.470180
 ---------------------------------------------------------------------

 SCF Done:  E(RHF) =  -428.371618739     A.U. after    2 cycles

 The electronic state is 1-A.
 Alpha  occ. eigenvalues --  -29.29036 -29.28876 -21.09891 -21.09622 -11.54397
 Alpha  occ. eigenvalues --  -11.46971  -1.81283  -1.67886  -1.29845  -0.95996
 Alpha  occ. eigenvalues --   -0.82427  -0.75713  -0.72028  -0.62982  -0.60465
 Alpha  occ. eigenvalues --   -0.53193  -0.46113  -0.42506  -0.39125  -0.38115
 Alpha  occ. eigenvalues --   -0.32990  -0.30768  -0.29831  -0.27303  -0.22491
 Alpha virt. eigenvalues --    0.04222   0.05626   0.05847   0.06363   0.10932
 Alpha virt. eigenvalues --    0.11520   0.12200   0.12489   0.14334   0.16371
 Alpha virt. eigenvalues --    0.17429   0.20220   0.21590   0.22291   0.23033

 Mulliken charges:
               1
     1  F    0.394329
     2  F    0.380081
     3  O   -2.772946
     4  O   -2.573712
     5  C    1.978435
     6  C   -1.935435
     7  H    1.639478
     8  H    1.604761
     9  H    0.685869
    10  H    0.599137
 Sum of Mulliken charges =  -0.00000

 Dipole moment (field-independent basis, Debye):
    X=              0.9138    Y=              0.3085    Z=              0.9055  Tot=              1.3230

 Test job not archived.
 1\1\GINC-SE042\SP\RHF\Aug-CC-pVDZ\C2H4F2O2\OHZDE\06-Apr-2025\0\\#t hf
 aug-cc-pvdz iop(5/13=1,5/36=2,99/5=2) pseudo=read geom=check guess=(re
 ad,tcheck) scf=(maxcycle=1)\\title\\0,1\F,0,0.936726,-0.752395,1.00235
 7\F,0,1.646645,0.548458,-0.624816\O,0,-1.587352,-0.834466,-0.382371\O,
 0,-0.934596,1.174393,0.623606\C,0,-0.69151,0.252835,-0.39439\C,0,0.702
 183,-0.3741,-0.292984\H,0,-0.754108,0.816515,-1.328274\H,0,0.817745,-1
 .249022,-0.931294\H,0,-2.484848,-0.486276,-0.414125\H,0,-0.71758,0.762
 386,1.47018\\Version=ES64L-G16RevC.01\State=1-A\HF=-428.3716187\RMSD=2

 Normal termination of Gaussian 16 at Sun Apr  6 07:38:56 2025.
