 Gaussian 16, Revision C.01,

 ----------------------------------------------------------------------
 #t hf aug-cc-pvdz symm=none int=(grid=ultrafine) guess=(read,tcheck) s
 table=(opt,rrhf)
 ----------------------------------------------------------------------
 -----
 title
 -----
 Symbolic Z-matrix:
 Charge =  0 Multiplicity = 1

 SCF Done:  E(RHF) =  -1095.94701297     A.U. after   12 cycles
 Normal termination of Gaussian 16 at Sun Apr  6 07:28:06 2025.
 Gaussian 16:  ES64L-G16RevC.01  3-Jul-2019

 ----------------------------------------------------------------------
 #t hf aug-cc-pvdz iop(5/13=1,5/36=2,99/5=2) pseudo=read geom=check gue
 ss=(read,tcheck) scf=(maxcycle=1)
 ----------------------------------------------------------------------
 -----
 title
 -----
 Structure from the checkpoint file:  "1-1-dichloro-1-fluoroethane.chk"
 Charge =  0 Multiplicity = 1

                         Standard orientation:
 ---------------------------------------------------------------------
 Center     Atomic      Atomic             Coordinates (Angstroms)
 Number     Number       Type             X           Y           Z
 ---------------------------------------------------------------------
      1          6           0        0.016027    0.345002   -0.000000
      2          6           0       -1.158543    1.289602   -0.000000
      3          9           0        1.179679    1.042816   -0.000000
      4         17           0        0.016027   -0.698667    1.468731
      5         17           0        0.016027   -0.698667   -1.468731
      6          1           0       -2.090468    0.731884    0.000000
      7          1           0       -1.108226    1.914914    0.889721
      8          1           0       -1.108226    1.914914   -0.889721
 ---------------------------------------------------------------------

 SCF Done:  E(RHF) =  -1097.16125192     A.U. after    2 cycles

 The electronic state is 1-A'.
 Alpha  occ. eigenvalues --  -99.90895 -99.90883 -29.30908 -11.57577 -11.41142
 Alpha  occ. eigenvalues --  -10.48356 -10.48232  -9.68228  -9.68073  -9.67372
 Alpha  occ. eigenvalues --   -9.67331  -9.67286  -9.67225  -1.44827  -1.30401
 Alpha  occ. eigenvalues --   -1.17560  -1.00192  -0.77712  -0.72493  -0.67865
 Alpha  occ. eigenvalues --   -0.58902  -0.58275  -0.54152  -0.52983  -0.50423
 Alpha  occ. eigenvalues --   -0.50338  -0.41553  -0.31522  -0.30187
 Alpha virt. eigenvalues --    0.03391   0.04724   0.06134   0.06655   0.08211
 Alpha virt. eigenvalues --    0.08579   0.11338   0.11558   0.13111   0.13916
 Alpha virt. eigenvalues --    0.14147   0.15867   0.16594   0.17628   0.17956

 Mulliken charges:
               1
     1  C   -1.618291
     2  C   -2.808502
     3  F    0.818377
     4  Cl  -0.049964
     5  Cl  -0.049964
     6  H    1.259343
     7  H    1.224502
     8  H    1.224502
 Sum of Mulliken charges =   0.00000

 Dipole moment (field-independent basis, Debye):
    X=              1.6037    Y=              3.9281    Z=             -0.0000  Tot=              4.2429

 Test job not archived.
 1\1\GINC-SE023\SP\RHF\Aug-CC-pVDZ\C2H3Cl2F1\OHZDE\06-Apr-2025\0\\#t hf
  aug-cc-pvdz iop(5/13=1,5/36=2,99/5=2) pseudo=read geom=check guess=(r
 ead,tcheck) scf=(maxcycle=1)\\title\\0,1\C,0,0.016027,0.345002,0.\C,0,
 -1.158543,1.289602,0.\F,0,1.179679,1.042816,0.\Cl,0,0.016027,-0.698667
 ,1.468731\Cl,0,0.016027,-0.698667,-1.468731\H,0,-2.090468,0.731884,0.\
 H,0,-1.108226,1.914914,0.889721\H,0,-1.108226,1.914914,-0.889721\\Vers
 ion=ES64L-G16RevC.01\State=1-A'\HF=-1097.1612519\RMSD=1.578e-01\Dipole
 =0.6309393,1.5454508,0.\Quadrupole=1.1402508,1.2999576,-2.4402085,0.94

 Normal termination of Gaussian 16 at Sun Apr  6 07:29:04 2025.
