 Gaussian 16, Revision C.01,

 ----------------------------------------------------------------------
 #t hf aug-cc-pvdz symm=none int=(grid=ultrafine) guess=(read,tcheck) s
 table=(opt,rrhf)
 ----------------------------------------------------------------------
 -----
 title
 -----
 Symbolic Z-matrix:
 Charge =  0 Multiplicity = 1

 SCF Done:  E(RHF) =  -474.719798148     A.U. after   12 cycles
 Normal termination of Gaussian 16 at Sun Apr  6 07:08:11 2025.
 Gaussian 16:  ES64L-G16RevC.01  3-Jul-2019

 ----------------------------------------------------------------------
 #t hf aug-cc-pvdz iop(5/13=1,5/36=2,99/5=2) pseudo=read geom=check gue
 ss=(read,tcheck) scf=(maxcycle=1)
 ----------------------------------------------------------------------
 -----
 title
 -----
 Structure from the checkpoint file:  "1-1-1-2-tetrafluoroethane.chk"
 Charge =  0 Multiplicity = 1

                         Standard orientation:
 ---------------------------------------------------------------------
 Center     Atomic      Atomic             Coordinates (Angstroms)
 Number     Number       Type             X           Y           Z
 ---------------------------------------------------------------------
      1          6           0        0.361772    0.190165    0.000000
      2          6           0       -1.157274    0.243325    0.000000
      3          9           0        0.843210    1.450981    0.000000
      4          9           0        0.843210   -0.436999    1.084078
      5          9           0        0.843210   -0.436999   -1.084078
      6          9           0       -1.667677   -1.036067    0.000000
      7          1           0       -1.492284    0.765414    0.895748
      8          1           0       -1.492284    0.765414   -0.895748
 ---------------------------------------------------------------------

 SCF Done:  E(RHF) =  -476.419504631     A.U. after    2 cycles

 The electronic state is 1-A'.
 Alpha  occ. eigenvalues --  -29.32274 -29.31892 -29.31843 -29.29041 -11.61237
 Alpha  occ. eigenvalues --  -11.48100  -1.45705  -1.16399  -0.90997  -0.90684
 Alpha  occ. eigenvalues --   -0.77407  -0.69360  -0.66733  -0.49174  -0.44812
 Alpha  occ. eigenvalues --   -0.44599  -0.42165  -0.37327  -0.36970  -0.34047
 Alpha  occ. eigenvalues --   -0.28244  -0.27635  -0.26540  -0.24711  -0.22366
 Alpha virt. eigenvalues --    0.04388   0.05488   0.10248   0.10825   0.12129
 Alpha virt. eigenvalues --    0.12494   0.13199   0.16616   0.17631   0.21361
 Alpha virt. eigenvalues --    0.22439   0.22689   0.24779   0.25833   0.28047

 Mulliken charges:
               1
     1  C   -0.669421
     2  C   -3.604021
     3  F    0.393269
     4  F    0.494950
     5  F    0.494950
     6  F    0.409658
     7  H    1.240307
     8  H    1.240307
 Sum of Mulliken charges =  -0.00000

 Dipole moment (field-independent basis, Debye):
    X=              0.5860    Y=             -1.2184    Z=             -0.0000  Tot=              1.3519

 Test job not archived.
 1\1\GINC-SE149\SP\RHF\Aug-CC-pVDZ\C2H2F4\OHZDE\06-Apr-2025\0\\#t hf au
 g-cc-pvdz iop(5/13=1,5/36=2,99/5=2) pseudo=read geom=check guess=(read
 ,tcheck) scf=(maxcycle=1)\\title\\0,1\C,0,0.361772,0.190165,0.\C,0,-1.
 157274,0.243325,0.\F,0,0.84321,1.450981,0.\F,0,0.84321,-0.436999,1.084
 078\F,0,0.84321,-0.436999,-1.084078\F,0,-1.667677,-1.036067,0.\H,0,-1.
 492284,0.765414,0.895748\H,0,-1.492284,0.765414,-0.895748\\Version=ES6
 4L-G16RevC.01\State=1-A'\HF=-476.4195046\RMSD=1.784e-01\Dipole=0.23053
 25,-0.4793373,0.\Quadrupole=0.3015817,-0.1932779,-0.1083039,0.8214339,

 Normal termination of Gaussian 16 at Sun Apr  6 07:09:13 2025.
