 Gaussian 16, Revision C.01,

 ----------------------------------------------------------------------
 #t hf aug-cc-pvdz symm=none int=(grid=ultrafine) guess=(read,tcheck) s
 table=(opt,rrhf)
 ----------------------------------------------------------------------
 -----
 title
 -----
 Symbolic Z-matrix:
 Charge =  0 Multiplicity = 1

 SCF Done:  E(RHF) =  -1752.58189045     A.U. after   12 cycles

 1\1\GINC-SE222\Stability\RHF\Aug-CC-pVDZ\C2Cl3F3\OHZDE\06-Apr-2025\0\\
 #t hf aug-cc-pvdz symm=none int=(grid=ultrafine) guess=(read,tcheck) s
 table=(opt,rrhf)\\title\\0,1\C,0,0.578488,0.148776,0.311897\C,0,-0.726
 971,-0.530081,-0.225129\F,0,0.477526,0.252431,1.648651\Cl,0,1.977285,-
 0.887503,-0.077159\Cl,0,0.78875,1.76724,-0.389497\Cl,0,-2.180351,0.394
 434,0.227356\F,0,-0.665283,-0.645666,-1.55547\F,0,-0.819545,-1.759329,
 0.300984\\Version=ES64L-G16RevC.01\HF=-1752.5818904\RMSD=9.483e-09\Dip
 ole=0.0516755,0.2053616,-0.081339\Quadrupole=1.3014889,0.3938928,-1.69

 Normal termination of Gaussian 16 at Sun Apr  6 07:14:30 2025.
 Gaussian 16:  ES64L-G16RevC.01  3-Jul-2019

 ----------------------------------------------------------------------
 #t hf aug-cc-pvdz iop(5/13=1,5/36=2,99/5=2) pseudo=read geom=check gue
 ss=(read,tcheck) scf=(maxcycle=1)
 ----------------------------------------------------------------------
 -----
 title
 -----
 Structure from the checkpoint file:  "1-1-2-trichloro-1-2-2-trifluoroethane.chk"
 Charge =  0 Multiplicity = 1

                         Standard orientation:
 ---------------------------------------------------------------------
 Center     Atomic      Atomic             Coordinates (Angstroms)
 Number     Number       Type             X           Y           Z
 ---------------------------------------------------------------------
      1          6           0        0.578488    0.148776    0.311897
      2          6           0       -0.726971   -0.530081   -0.225129
      3          9           0        0.477526    0.252431    1.648651
      4         17           0        1.977285   -0.887503   -0.077159
      5         17           0        0.788750    1.767240   -0.389497
      6         17           0       -2.180351    0.394434    0.227356
      7          9           0       -0.665283   -0.645666   -1.555470
      8          9           0       -0.819545   -1.759329    0.300984
 ---------------------------------------------------------------------

 SCF Done:  E(RHF) =  -1754.66343032     A.U. after    2 cycles

 The electronic state is 1-A.
 Alpha  occ. eigenvalues --  -99.93650 -99.93441 -99.93245 -29.34093 -29.34038
 Alpha  occ. eigenvalues --  -29.33793 -11.63476 -11.58608 -10.51116 -10.50876
 Alpha  occ. eigenvalues --  -10.50754  -9.70996  -9.70744  -9.70581  -9.70107
 Alpha  occ. eigenvalues --   -9.70069  -9.69892  -9.69807  -9.69690  -9.69648
 Alpha  occ. eigenvalues --   -1.52680  -1.41377  -1.33797  -1.25398  -1.12615
 Alpha  occ. eigenvalues --   -0.92125  -0.84483  -0.81471  -0.75679  -0.70625
 Alpha  occ. eigenvalues --   -0.58931  -0.57202  -0.56817  -0.55284  -0.54740
 Alpha  occ. eigenvalues --   -0.52809  -0.48380  -0.45298  -0.42927  -0.39006
 Alpha  occ. eigenvalues --   -0.37602  -0.34500  -0.33349  -0.29612  -0.25677
 Alpha virt. eigenvalues --    0.02143   0.04686   0.07139   0.07661   0.08387
 Alpha virt. eigenvalues --    0.10487   0.11209   0.12379   0.12915   0.13883
 Alpha virt. eigenvalues --    0.14629   0.15388   0.16160   0.17191   0.17581

 Mulliken charges:
               1
     1  C   -1.828323
     2  C   -0.216437
     3  F    0.906247
     4  Cl   0.027627
     5  Cl   0.044523
     6  Cl  -0.342786
     7  F    0.631648
     8  F    0.777502
 Sum of Mulliken charges =   0.00000

 Dipole moment (field-independent basis, Debye):
    X=             -0.3290    Y=             -3.7434    Z=              1.7434  Tot=              4.1426

 Test job not archived.
 1\1\GINC-SE222\SP\RHF\Aug-CC-pVDZ\C2Cl3F3\OHZDE\06-Apr-2025\0\\#t hf a
 ug-cc-pvdz iop(5/13=1,5/36=2,99/5=2) pseudo=read geom=check guess=(rea
 d,tcheck) scf=(maxcycle=1)\\title\\0,1\C,0,0.578488,0.148776,0.311897\
 C,0,-0.726971,-0.530081,-0.225129\F,0,0.477526,0.252431,1.648651\Cl,0,
 1.977285,-0.887503,-0.077159\Cl,0,0.78875,1.76724,-0.389497\Cl,0,-2.18
 0351,0.394434,0.227356\F,0,-0.665283,-0.645666,-1.55547\F,0,-0.819545,
 -1.759329,0.300984\\Version=ES64L-G16RevC.01\State=1-A\HF=-1754.663430
 3\RMSD=1.282e-01\Dipole=-0.1294395,-1.4727738,0.6859142\Quadrupole=-5.

 Normal termination of Gaussian 16 at Sun Apr  6 07:15:28 2025.
