 Gaussian 16, Revision C.01,

 ----------------------------------------------------------------------
 #t hf aug-cc-pvdz symm=none int=(grid=ultrafine) guess=(read,tcheck) s
 table=(opt,rrhf)
 ----------------------------------------------------------------------
 -----
 title
 -----
 Symbolic Z-matrix:
 Charge =  0 Multiplicity = 1

 SCF Done:  E(RHF) =  -426.633851795     A.U. after   13 cycles
 Normal termination of Gaussian 16 at Sun Apr  6 07:37:57 2025.
 Gaussian 16:  ES64L-G16RevC.01  3-Jul-2019

 ----------------------------------------------------------------------
 #t hf aug-cc-pvdz iop(5/13=1,5/36=2,99/5=2) pseudo=read geom=check gue
 ss=(read,tcheck) scf=(maxcycle=1)
 ----------------------------------------------------------------------
 -----
 title
 -----
 Structure from the checkpoint file:  "1-1-difluoro-1-hydroperoxyethane.chk"
 Charge =  0 Multiplicity = 1

                         Standard orientation:
 ---------------------------------------------------------------------
 Center     Atomic      Atomic             Coordinates (Angstroms)
 Number     Number       Type             X           Y           Z
 ---------------------------------------------------------------------
      1          9           0       -0.357644   -0.471312    1.292576
      2          9           0       -1.367380   -0.721561   -0.632011
      3          8           0        0.767788   -0.495627   -0.659306
      4          8           0        1.909998    0.165753   -0.077280
      5          6           0       -0.382758   -0.035679   -0.006307
      6          6           0       -0.624405    1.447497   -0.059329
      7          1           0        2.203516   -0.500296    0.562031
      8          1           0       -0.689198    1.760727   -1.098748
      9          1           0       -1.559522    1.670655    0.449572
     10          1           0        0.191108    1.972855    0.428559
 ---------------------------------------------------------------------

 SCF Done:  E(RHF) =  -428.283549413     A.U. after    2 cycles

 The electronic state is 1-A.
 Alpha  occ. eigenvalues --  -29.29582 -29.29027 -21.14852 -21.12752 -11.57820
 Alpha  occ. eigenvalues --  -11.39881  -1.99517  -1.52320  -1.24354  -1.02713
 Alpha  occ. eigenvalues --   -0.86131  -0.72151  -0.68822  -0.62373  -0.57690
 Alpha  occ. eigenvalues --   -0.54898  -0.49937  -0.45966  -0.38792  -0.38409
 Alpha  occ. eigenvalues --   -0.35495  -0.31665  -0.29317  -0.27220  -0.22366
 Alpha virt. eigenvalues --    0.04276   0.05485   0.06307   0.06464   0.10709
 Alpha virt. eigenvalues --    0.11221   0.12152   0.14335   0.15765   0.16665
 Alpha virt. eigenvalues --    0.17137   0.18051   0.20074   0.22253   0.23212

 Mulliken charges:
               1
     1  F    0.368113
     2  F    0.554127
     3  O   -1.982899
     4  O   -1.083696
     5  C    1.917331
     6  C   -4.226360
     7  H    0.816970
     8  H    1.163575
     9  H    1.142829
    10  H    1.330010
 Sum of Mulliken charges =  -0.00000

 Dipole moment (field-independent basis, Debye):
    X=             -1.2621    Y=             -1.0163    Z=              1.3539  Tot=              2.1116

 Test job not archived.
 1\1\GINC-SE023\SP\RHF\Aug-CC-pVDZ\C2H4F2O2\OHZDE\06-Apr-2025\0\\#t hf
 aug-cc-pvdz iop(5/13=1,5/36=2,99/5=2) pseudo=read geom=check guess=(re
 ad,tcheck) scf=(maxcycle=1)\\title\\0,1\F,0,-0.357644,-0.471312,1.2925
 76\F,0,-1.36738,-0.721561,-0.632011\O,0,0.767788,-0.495627,-0.659306\O
 ,0,1.909998,0.165753,-0.07728\C,0,-0.382758,-0.035679,-0.006307\C,0,-0
 .624405,1.447497,-0.059329\H,0,2.203516,-0.500296,0.562031\H,0,-0.6891
 98,1.760727,-1.098748\H,0,-1.559522,1.670655,0.449572\H,0,0.191108,1.9
 72855,0.428559\\Version=ES64L-G16RevC.01\State=1-A\HF=-428.2835494\RMS

 Normal termination of Gaussian 16 at Sun Apr  6 07:38:25 2025.
