 Gaussian 16, Revision C.01,

 ----------------------------------------------------------------------
 #t hf aug-cc-pvdz symm=none int=(grid=ultrafine) guess=(read,tcheck) s
 table=(opt,rrhf)
 ----------------------------------------------------------------------
 -----
 title
 -----
 Symbolic Z-matrix:
 Charge =  0 Multiplicity = 1

 SCF Done:  E(RHF) =  -1057.75178775     A.U. after   15 cycles
 Normal termination of Gaussian 16 at Sun Apr  6 07:53:38 2025.
 Gaussian 16:  ES64L-G16RevC.01  3-Jul-2019

 ----------------------------------------------------------------------
 #t hf aug-cc-pvdz iop(5/13=1,5/36=2,99/5=2) pseudo=read geom=check gue
 ss=(read,tcheck) scf=(maxcycle=1)
 ----------------------------------------------------------------------
 -----
 title
 -----
 Structure from the checkpoint file:  "1-1-dithiocyanatoethane.chk"
 Charge =  0 Multiplicity = 1

                         Standard orientation:
 ---------------------------------------------------------------------
 Center     Atomic      Atomic             Coordinates (Angstroms)
 Number     Number       Type             X           Y           Z
 ---------------------------------------------------------------------
      1         16           0       -0.941719   -0.587939    0.768936
      2         16           0        1.669768    0.756964    0.287950
      3          7           0       -3.415090   -0.760915   -0.639976
      4          7           0        2.817085   -1.701635   -0.585142
      5          6           0       -0.056728    0.618916   -0.342704
      6          6           0       -2.408367   -0.687899   -0.075952
      7          6           0        2.320508   -0.717745   -0.238832
      8          6           0       -0.677159    2.004219   -0.337138
      9          1           0       -0.021035    0.185721   -1.337080
     10          1           0       -1.717428    1.940023   -0.652532
     11          1           0       -0.647908    2.449729    0.656902
     12          1           0       -0.145903    2.653030   -1.033882
 ---------------------------------------------------------------------

 SCF Done:  E(RHF) =  -1059.39294584     A.U. after    2 cycles

 The electronic state is 1-A.
 Alpha  occ. eigenvalues --  -75.77606 -75.76613 -15.79147 -15.78761 -13.26318
 Alpha  occ. eigenvalues --  -13.24241 -13.19800 -13.18226 -13.11587 -13.11294
 Alpha  occ. eigenvalues --  -11.50992 -11.46317 -11.45946 -11.42730  -8.11771
 Alpha  occ. eigenvalues --   -8.10737  -1.39133  -1.34036  -1.28965  -1.17804
 Alpha  occ. eigenvalues --   -1.11787  -0.91875  -0.74110  -0.70368  -0.64158
 Alpha  occ. eigenvalues --   -0.61383  -0.58988  -0.55005  -0.52964  -0.51576
 Alpha  occ. eigenvalues --   -0.51325  -0.50812  -0.50463  -0.43573  -0.40365
 Alpha  occ. eigenvalues --   -0.29108  -0.28664
 Alpha virt. eigenvalues --    0.01823   0.04549   0.04693   0.05473   0.05710
 Alpha virt. eigenvalues --    0.06617   0.07943   0.08974   0.10191   0.10519
 Alpha virt. eigenvalues --    0.11621   0.12034   0.12489   0.13212   0.13767

 Mulliken charges:
               1
     1  S    1.679631
     2  S    1.688008
     3  N   -1.952559
     4  N   -2.004715
     5  C   -2.324743
     6  C    0.568094
     7  C    0.662700
     8  C   -3.978532
     9  H    1.827402
    10  H    1.228837
    11  H    1.366260
    12  H    1.239616
 Sum of Mulliken charges =  -0.00000

 Dipole moment (field-independent basis, Debye):
    X=              2.1694    Y=              4.2587    Z=              2.9081  Tot=              5.5947

 Test job not archived.
 1\1\GINC-SE050\SP\RHF\Aug-CC-pVDZ\C4H4N2S2\OHZDE\06-Apr-2025\0\\#t hf
 aug-cc-pvdz iop(5/13=1,5/36=2,99/5=2) pseudo=read geom=check guess=(re
 ad,tcheck) scf=(maxcycle=1)\\title\\0,1\S,0,-0.941719,-0.587939,0.7689
 36\S,0,1.669768,0.756964,0.28795\N,0,-3.41509,-0.760915,-0.639976\N,0,
 2.817085,-1.701635,-0.585142\C,0,-0.056728,0.618916,-0.342704\C,0,-2.4
 08367,-0.687899,-0.075952\C,0,2.320508,-0.717745,-0.238832\C,0,-0.6771
 59,2.004219,-0.337138\H,0,-0.021035,0.185721,-1.33708\H,0,-1.717428,1.
 940023,-0.652532\H,0,-0.647908,2.449729,0.656902\H,0,-0.145903,2.65303

 Normal termination of Gaussian 16 at Sun Apr  6 07:54:25 2025.
