 Gaussian 16, Revision C.01,

 ----------------------------------------------------------------------
 #t hf aug-cc-pvdz symm=none int=(grid=ultrafine) guess=(read,tcheck) s
 table=(opt,rrhf)
 ----------------------------------------------------------------------
 -----
 title
 -----
 Symbolic Z-matrix:
 Charge =  0 Multiplicity = 1

 SCF Done:  E(RHF) =  -710.272757041     A.U. after   13 cycles
 Normal termination of Gaussian 16 at Sun Apr  6 07:14:20 2025.
 Gaussian 16:  ES64L-G16RevC.01  3-Jul-2019

 ----------------------------------------------------------------------
 #t hf aug-cc-pvdz iop(5/13=1,5/36=2,99/5=2) pseudo=read geom=check gue
 ss=(read,tcheck) scf=(maxcycle=1)
 ----------------------------------------------------------------------
 -----
 title
 -----
 Structure from the checkpoint file:  "1-1-2-3-3-3-hexafluoroprop-1-ene.chk"
 Charge =  0 Multiplicity = 1

                         Standard orientation:
 ---------------------------------------------------------------------
 Center     Atomic      Atomic             Coordinates (Angstroms)
 Number     Number       Type             X           Y           Z
 ---------------------------------------------------------------------
      1          6           0        0.245890   -0.471484   -0.000001
      2          6           0        1.412981    0.161547    0.000001
      3          6           0       -1.126370    0.134384   -0.000001
      4          9           0        0.234429   -1.812633    0.000002
      5          9           0        2.559922   -0.475620    0.000002
      6          9           0        1.575610    1.460961   -0.000000
      7          9           0       -1.821022   -0.263524    1.082021
      8          9           0       -1.082861    1.471534   -0.000098
      9          9           0       -1.821079   -0.263683   -1.081926
 ---------------------------------------------------------------------

 SCF Done:  E(RHF) =  -712.786244390     A.U. after    2 cycles

 The electronic state is 1-A.
 Alpha  occ. eigenvalues --  -29.36469 -29.36240 -29.33665 -29.33246 -29.32938
 Alpha  occ. eigenvalues --  -29.32899 -11.64577 -11.61140 -11.51287  -1.49717
 Alpha  occ. eigenvalues --   -1.36452  -1.13592  -0.95209  -0.91560  -0.90467
 Alpha  occ. eigenvalues --   -0.81415  -0.76487  -0.66173  -0.52134  -0.49238
 Alpha  occ. eigenvalues --   -0.46937  -0.46845  -0.45791  -0.45356  -0.44759
 Alpha  occ. eigenvalues --   -0.38792  -0.37561  -0.36510  -0.35484  -0.35263
 Alpha  occ. eigenvalues --   -0.30437  -0.29618  -0.27429  -0.23781  -0.23741
 Alpha  occ. eigenvalues --   -0.20770
 Alpha virt. eigenvalues --    0.09427   0.09511   0.09759   0.11754   0.12356
 Alpha virt. eigenvalues --    0.12380   0.13436   0.13508   0.13601   0.15403
 Alpha virt. eigenvalues --    0.19070   0.19300   0.22047   0.22833   0.23002

 Mulliken charges:
               1
     1  C   -2.645990
     2  C   -1.088743
     3  C   -0.688269
     4  F    0.935193
     5  F    0.808851
     6  F    0.908777
     7  F    0.489742
     8  F    0.790699
     9  F    0.489739
 Sum of Mulliken charges =   0.00000

 Dipole moment (field-independent basis, Debye):
    X=              1.0198    Y=              0.2693    Z=              0.0000  Tot=              1.0547

 Test job not archived.
 1\1\GINC-SE200\SP\RHF\Aug-CC-pVDZ\C3F6\OHZDE\06-Apr-2025\0\\#t hf aug-
 cc-pvdz iop(5/13=1,5/36=2,99/5=2) pseudo=read geom=check guess=(read,t
 check) scf=(maxcycle=1)\\title\\0,1\C,0,0.24589,-0.471484,-0.000001\C,
 0,1.412981,0.161547,0.000001\C,0,-1.12637,0.134384,-0.000001\F,0,0.234
 429,-1.812633,0.000002\F,0,2.559922,-0.47562,0.000002\F,0,1.57561,1.46
 0961,0.\F,0,-1.821022,-0.263524,1.082021\F,0,-1.082861,1.471534,-0.000
 098\F,0,-1.821079,-0.263683,-1.081926\\Version=ES64L-G16RevC.01\State=
 1-A\HF=-712.7862444\RMSD=5.898e-01\Dipole=0.4012152,0.1059405,0.000000

 Normal termination of Gaussian 16 at Sun Apr  6 07:15:29 2025.
