 Gaussian 16, Revision C.01,

 ----------------------------------------------------------------------
 #t hf aug-cc-pvdz symm=none int=(grid=ultrafine) guess=(read,tcheck) s
 table=(opt,rrhf)
 ----------------------------------------------------------------------
 -----
 title
 -----
 Symbolic Z-matrix:
 Charge =  0 Multiplicity = 1

 SCF Done:  E(RHF) =  -532.600886362     A.U. after   13 cycles

 1\1\GINC-SE042\Stability\RHF\Aug-CC-pVDZ\C6H10O4\OHZDE\06-Apr-2025\0\\
 #t hf aug-cc-pvdz symm=none int=(grid=ultrafine) guess=(read,tcheck) s
 table=(opt,rrhf)\\title\\0,1\C,0,1.958541,-0.478093,0.193954\C,0,-1.98
 5911,-0.370129,0.044281\C,0,3.315328,-0.651679,-0.427177\C,0,-2.70637,
 -1.4062,-0.772082\C,0,-0.282027,2.350782,-0.151313\C,0,0.025654,0.9063
 81,0.152375\O,0,1.466249,-1.1927,1.024364\O,0,-2.348571,0.063105,1.107
 404\O,0,1.336474,0.624435,-0.316945\O,0,-0.84702,0.027067,-0.577278\H,
 0,3.20635,-0.834642,-1.496483\H,0,3.901786,0.259171,-0.311364\H,0,3.82

 Normal termination of Gaussian 16 at Sun Apr  6 07:27:09 2025.
 Gaussian 16:  ES64L-G16RevC.01  3-Jul-2019

 ----------------------------------------------------------------------
 #t hf aug-cc-pvdz iop(5/13=1,5/36=2,99/5=2) pseudo=read geom=check gue
 ss=(read,tcheck) scf=(maxcycle=1)
 ----------------------------------------------------------------------
 -----
 title
 -----
 Structure from the checkpoint file:  "1-1-diacetoxyethane.chk"
 Charge =  0 Multiplicity = 1

                         Standard orientation:
 ---------------------------------------------------------------------
 Center     Atomic      Atomic             Coordinates (Angstroms)
 Number     Number       Type             X           Y           Z
 ---------------------------------------------------------------------
      1          6           0        1.958541   -0.478093    0.193954
      2          6           0       -1.985911   -0.370129    0.044281
      3          6           0        3.315328   -0.651679   -0.427177
      4          6           0       -2.706370   -1.406200   -0.772082
      5          6           0       -0.282027    2.350782   -0.151313
      6          6           0        0.025654    0.906381    0.152375
      7          8           0        1.466249   -1.192700    1.024364
      8          8           0       -2.348571    0.063105    1.107404
      9          8           0        1.336474    0.624435   -0.316945
     10          8           0       -0.847020    0.027067   -0.577278
     11          1           0        3.206350   -0.834642   -1.496483
     12          1           0        3.901786    0.259171   -0.311364
     13          1           0        3.823877   -1.488732    0.040209
     14          1           0       -2.793777   -1.084287   -1.808678
     15          1           0       -2.130275   -2.332268   -0.762710
     16          1           0       -3.688403   -1.585106   -0.345883
     17          1           0        0.418059    2.997677    0.375816
     18          1           0       -1.291702    2.583448    0.181303
     19          1           0       -0.200399    2.536528   -1.221464
     20          1           0       -0.053858    0.666591    1.208658
 ---------------------------------------------------------------------

 SCF Done:  E(RHF) =  -534.931309957     A.U. after    2 cycles

 The electronic state is 1-A.
 Alpha  occ. eigenvalues --  -21.09635 -21.09033 -21.05717 -21.05040 -11.53347
 Alpha  occ. eigenvalues --  -11.52948 -11.49918 -11.40053 -11.39526 -11.38513
 Alpha  occ. eigenvalues --   -1.89539  -1.80740  -1.68502  -1.64814  -1.16160
 Alpha  occ. eigenvalues --   -1.10984  -1.08831  -0.91790  -0.79032  -0.77467
 Alpha  occ. eigenvalues --   -0.68708  -0.64929  -0.63041  -0.61942  -0.61040
 Alpha  occ. eigenvalues --   -0.59186  -0.57969  -0.56913  -0.54545  -0.52813
 Alpha  occ. eigenvalues --   -0.50895  -0.48914  -0.47047  -0.42760  -0.41454
 Alpha  occ. eigenvalues --   -0.34425  -0.32642  -0.30166  -0.29115
 Alpha virt. eigenvalues --    0.03329   0.04578   0.04992   0.05321   0.05632
 Alpha virt. eigenvalues --    0.05994   0.06501   0.07075   0.07510   0.08635
 Alpha virt. eigenvalues --    0.09962   0.11308   0.11968   0.12743   0.13323

 Mulliken charges:
               1
     1  C    5.561093
     2  C    5.895347
     3  C   -4.744996
     4  C   -4.677556
     5  C   -4.233986
     6  C    2.321290
     7  O   -3.103836
     8  O   -3.114582
     9  O   -3.847751
    10  O   -3.738447
    11  H    1.296259
    12  H    1.336773
    13  H    1.242674
    14  H    1.361893
    15  H    1.284314
    16  H    1.240218
    17  H    1.291024
    18  H    1.174757
    19  H    1.411785
    20  H    2.043730
 Sum of Mulliken charges =   0.00000

 Dipole moment (field-independent basis, Debye):
    X=              0.9266    Y=              0.4347    Z=             -1.7715  Tot=              2.0459

 Test job not archived.
 1\1\GINC-SE042\SP\RHF\Aug-CC-pVDZ\C6H10O4\OHZDE\06-Apr-2025\0\\#t hf a
 ug-cc-pvdz iop(5/13=1,5/36=2,99/5=2) pseudo=read geom=check guess=(rea
 d,tcheck) scf=(maxcycle=1)\\title\\0,1\C,0,1.958541,-0.478093,0.193954
 \C,0,-1.985911,-0.370129,0.044281\C,0,3.315328,-0.651679,-0.427177\C,0
 ,-2.70637,-1.4062,-0.772082\C,0,-0.282027,2.350782,-0.151313\C,0,0.025
 654,0.906381,0.152375\O,0,1.466249,-1.1927,1.024364\O,0,-2.348571,0.06
 3105,1.107404\O,0,1.336474,0.624435,-0.316945\O,0,-0.84702,0.027067,-0
 .577278\H,0,3.20635,-0.834642,-1.496483\H,0,3.901786,0.259171,-0.31136

 Normal termination of Gaussian 16 at Sun Apr  6 07:28:10 2025.
