 Gaussian 16, Revision C.01,

 ----------------------------------------------------------------------
 #t hf aug-cc-pvdz symm=none int=(grid=ultrafine) guess=(read,tcheck) s
 table=(opt,rrhf)
 ----------------------------------------------------------------------
 -----
 title
 -----
 Symbolic Z-matrix:
 Charge =  0 Multiplicity = 1

 SCF Done:  E(RHF) =  -1056.55323492     A.U. after   16 cycles
 Normal termination of Gaussian 16 at Sun Apr  6 07:53:32 2025.
 Gaussian 16:  ES64L-G16RevC.01  3-Jul-2019

 ----------------------------------------------------------------------
 #t hf aug-cc-pvdz iop(5/13=1,5/36=2,99/5=2) pseudo=read geom=check gue
 ss=(read,tcheck) scf=(maxcycle=1)
 ----------------------------------------------------------------------
 -----
 title
 -----
 Structure from the checkpoint file:  "1-1-dithiocyanatoethene.chk"
 Charge =  0 Multiplicity = 1

                         Standard orientation:
 ---------------------------------------------------------------------
 Center     Atomic      Atomic             Coordinates (Angstroms)
 Number     Number       Type             X           Y           Z
 ---------------------------------------------------------------------
      1         16           0        0.913405   -0.731150   -0.602876
      2         16           0       -1.659560    0.749648   -0.498267
      3          7           0        3.513666   -0.356225    0.501355
      4          7           0       -2.753361   -1.506382    0.868888
      5          6           0        0.061580    0.725895    0.003060
      6          6           0        2.453147   -0.497661    0.065289
      7          6           0       -2.270244   -0.603474    0.334802
      8          6           0        0.589938    1.764744    0.634480
      9          1           0        1.649607    1.825737    0.840445
     10          1           0       -0.039790    2.579515    0.960377
 ---------------------------------------------------------------------

 SCF Done:  E(RHF) =  -1058.15729173     A.U. after    2 cycles

 The electronic state is 1-A.
 Alpha  occ. eigenvalues --  -75.78410 -75.78114 -15.79674 -15.79262 -13.27413
 Alpha  occ. eigenvalues --  -13.25735 -13.22862 -13.19070 -13.12617 -13.10864
 Alpha  occ. eigenvalues --  -11.50826 -11.46693 -11.46332 -11.44913  -8.12633
 Alpha  occ. eigenvalues --   -8.12304  -1.39729  -1.34548  -1.29217  -1.18928
 Alpha  occ. eigenvalues --   -1.11395  -0.86208  -0.72562  -0.69634  -0.65203
 Alpha  occ. eigenvalues --   -0.58609  -0.55200  -0.53003  -0.52243  -0.52000
 Alpha  occ. eigenvalues --   -0.51146  -0.46446  -0.45627  -0.40723  -0.29589
 Alpha  occ. eigenvalues --   -0.28332
 Alpha virt. eigenvalues --    0.01430   0.04860   0.05340   0.05935   0.06356
 Alpha virt. eigenvalues --    0.06736   0.08111   0.09143   0.10343   0.11291
 Alpha virt. eigenvalues --    0.11932   0.12470   0.13371   0.13551   0.13977

 Mulliken charges:
               1
     1  S    1.955506
     2  S    1.439484
     3  N   -2.000324
     4  N   -2.098143
     5  C   -1.122722
     6  C    0.613726
     7  C    1.053130
     8  C   -3.086105
     9  H    1.671275
    10  H    1.574172
 Sum of Mulliken charges =   0.00000

 Dipole moment (field-independent basis, Debye):
    X=             -2.0771    Y=              2.8433    Z=             -3.3155  Tot=              4.8364

 Test job not archived.
 1\1\GINC-SE028\SP\RHF\Aug-CC-pVDZ\C4H2N2S2\OHZDE\06-Apr-2025\0\\#t hf
 aug-cc-pvdz iop(5/13=1,5/36=2,99/5=2) pseudo=read geom=check guess=(re
 ad,tcheck) scf=(maxcycle=1)\\title\\0,1\S,0,0.913405,-0.73115,-0.60287
 6\S,0,-1.65956,0.749648,-0.498267\N,0,3.513666,-0.356225,0.501355\N,0,
 -2.753361,-1.506382,0.868888\C,0,0.06158,0.725895,0.00306\C,0,2.453147
 ,-0.497661,0.065289\C,0,-2.270244,-0.603474,0.334802\C,0,0.589938,1.76
 4744,0.63448\H,0,1.649607,1.825737,0.840445\H,0,-0.03979,2.579515,0.96
 0377\\Version=ES64L-G16RevC.01\State=1-A\HF=-1058.1572917\RMSD=3.607e-

 Normal termination of Gaussian 16 at Sun Apr  6 07:54:23 2025.
