 Gaussian 16, Revision C.01,

 ----------------------------------------------------------------------
 #t hf aug-cc-pvdz symm=none int=(grid=ultrafine) guess=(read,tcheck) s
 table=(opt,rrhf)
 ----------------------------------------------------------------------
 -----
 title
 -----
 Symbolic Z-matrix:
 Charge =  0 Multiplicity = 1

 SCF Done:  E(RHF) =  -189.260201139     A.U. after   12 cycles
 Normal termination of Gaussian 16 at Sun Apr  6 07:52:12 2025.
 Gaussian 16:  ES64L-G16RevC.01  3-Jul-2019

 ----------------------------------------------------------------------
 #t hf aug-cc-pvdz iop(5/13=1,5/36=2,99/5=2) pseudo=read geom=check gue
 ss=(read,tcheck) scf=(maxcycle=1)
 ----------------------------------------------------------------------
 -----
 title
 -----
 Structure from the checkpoint file:  "1-1-dimethylhydrazine.chk"
 Charge =  0 Multiplicity = 1

                         Standard orientation:
 ---------------------------------------------------------------------
 Center     Atomic      Atomic             Coordinates (Angstroms)
 Number     Number       Type             X           Y           Z
 ---------------------------------------------------------------------
      1          6           0        0.327267   -0.588904    1.198224
      2          7           0        0.327267    0.236816   -0.000000
      3          7           0       -0.931112    0.994972    0.000000
      4          1           0       -0.869402    1.616300    0.803103
      5          1           0       -0.869402    1.616300   -0.803103
      6          1           0        0.334815    0.048085    2.083911
      7          1           0       -0.549984   -1.250736    1.251362
      8          1           0        1.234428   -1.191485    1.209716
      9          6           0        0.327267   -0.588904   -1.198224
     10          1           0        0.334815    0.048085   -2.083911
     11          1           0       -0.549984   -1.250736   -1.251362
     12          1           0        1.234428   -1.191485   -1.209716
 ---------------------------------------------------------------------

 SCF Done:  E(RHF) =  -190.198865752     A.U. after    2 cycles

 The electronic state is 1-A'.
 Alpha  occ. eigenvalues --  -15.74445 -15.72139 -11.37912 -11.37065  -1.48027
 Alpha  occ. eigenvalues --   -1.16797  -1.03272  -0.85094  -0.66361  -0.65241
 Alpha  occ. eigenvalues --   -0.62385  -0.54892  -0.52797  -0.48370  -0.48237
 Alpha  occ. eigenvalues --   -0.45105  -0.28248
 Alpha virt. eigenvalues --    0.03990   0.05435   0.05633   0.06610   0.06741
 Alpha virt. eigenvalues --    0.07010   0.07547   0.09378   0.11519   0.14434
 Alpha virt. eigenvalues --    0.14879   0.15913   0.17415   0.17537   0.17922

 Mulliken charges:
               1
     1  C   -3.193971
     2  N   -1.176697
     3  N   -1.624219
     4  H    0.665975
     5  H    0.665975
     6  H    1.306508
     7  H    1.329788
     8  H    1.292158
     9  C   -3.193971
    10  H    1.306508
    11  H    1.329788
    12  H    1.292158
 Sum of Mulliken charges =  -0.00000

 Dipole moment (field-independent basis, Debye):
    X=              0.4490    Y=              0.4181    Z=              0.0000  Tot=              0.6135

 Test job not archived.
 1\1\GINC-SE042\SP\RHF\Aug-CC-pVDZ\C2H8N2\OHZDE\06-Apr-2025\0\\#t hf au
 g-cc-pvdz iop(5/13=1,5/36=2,99/5=2) pseudo=read geom=check guess=(read
 ,tcheck) scf=(maxcycle=1)\\title\\0,1\C,0,0.327267,-0.588904,1.198224\
 N,0,0.327267,0.236816,0.\N,0,-0.931112,0.994972,0.\H,0,-0.869402,1.616
 3,0.803103\H,0,-0.869402,1.6163,-0.803103\H,0,0.334815,0.048085,2.0839
 11\H,0,-0.549984,-1.250736,1.251362\H,0,1.234428,-1.191485,1.209716\C,
 0,0.327267,-0.588904,-1.198224\H,0,0.334815,0.048085,-2.083911\H,0,-0.
 549984,-1.250736,-1.251362\H,0,1.234428,-1.191485,-1.209716\\Version=E

 Normal termination of Gaussian 16 at Sun Apr  6 07:53:12 2025.
