 Gaussian 16, Revision C.01,

 ----------------------------------------------------------------------
 #t hf aug-cc-pvdz symm=none int=(grid=ultrafine) guess=(read,tcheck) s
 table=(opt,rrhf)
 ----------------------------------------------------------------------
 -----
 title
 -----
 Symbolic Z-matrix:
 Charge =  0 Multiplicity = 1

 SCF Done:  E(RHF) =  -1239.60287809     A.U. after   15 cycles
 Normal termination of Gaussian 16 at Sun Apr  6 07:29:57 2025.
 Gaussian 16:  ES64L-G16RevC.01  3-Jul-2019

 ----------------------------------------------------------------------
 #t hf aug-cc-pvdz iop(5/13=1,5/36=2,99/5=2) pseudo=read geom=check gue
 ss=(read,tcheck) scf=(maxcycle=1)
 ----------------------------------------------------------------------
 -----
 title
 -----
 Structure from the checkpoint file:  "1-1-dichloro-1-nitropropane.chk"
 Charge =  0 Multiplicity = 1

                         Standard orientation:
 ---------------------------------------------------------------------
 Center     Atomic      Atomic             Coordinates (Angstroms)
 Number     Number       Type             X           Y           Z
 ---------------------------------------------------------------------
      1         17           0        0.249784   -0.974350    1.469255
      2         17           0        0.249795   -0.974958   -1.468853
      3          8           0       -2.276486   -0.317705    0.000014
      4          8           0       -1.578642    1.732450   -0.000305
      5          7           0       -1.417338    0.529360   -0.000112
      6          6           0        1.046188    1.203382   -0.000248
      7          6           0        0.088165    0.027254   -0.000009
      8          6           0        2.523780    0.818478   -0.000164
      9          1           0        0.809962    1.806954    0.875296
     10          1           0        0.809968    1.806595   -0.876042
     11          1           0        3.125160    1.726672   -0.000357
     12          1           0        2.787839    0.239740   -0.883469
     13          1           0        2.787837    0.240117    0.883389
 ---------------------------------------------------------------------

 SCF Done:  E(RHF) =  -1241.53848115     A.U. after    2 cycles

 The electronic state is 1-A.
 Alpha  occ. eigenvalues --  -99.92975 -99.92968 -21.11817 -21.11629 -16.01702
 Alpha  occ. eigenvalues --  -11.59255 -11.44821 -11.39356 -10.50428 -10.50259
 Alpha  occ. eigenvalues --   -9.70425  -9.70231  -9.69548  -9.69507  -9.69443
 Alpha  occ. eigenvalues --   -9.69352  -2.02198  -1.71889  -1.45060  -1.32399
 Alpha  occ. eigenvalues --   -1.21266  -1.11153  -0.95160  -0.85157  -0.75555
 Alpha  occ. eigenvalues --   -0.75095  -0.68551  -0.67199  -0.61926  -0.60636
 Alpha  occ. eigenvalues --   -0.58313  -0.55647  -0.54261  -0.52745  -0.52527
 Alpha  occ. eigenvalues --   -0.51456  -0.50077  -0.37130  -0.33226  -0.33069
 Alpha virt. eigenvalues --    0.02458   0.03528   0.04789   0.05774   0.06066
 Alpha virt. eigenvalues --    0.06221   0.07888   0.08952   0.09770   0.10377
 Alpha virt. eigenvalues --    0.11575   0.13209   0.15024   0.15237   0.16057

 Mulliken charges:
               1
     1  Cl   0.100698
     2  Cl   0.100700
     3  O   -2.957355
     4  O   -2.584945
     5  N    4.138414
     6  C   -2.390363
     7  C    0.450140
     8  C   -3.259965
     9  H    1.458173
    10  H    1.458148
    11  H    1.096716
    12  H    1.194825
    13  H    1.194816
 Sum of Mulliken charges =   0.00000

 Dipole moment (field-independent basis, Debye):
    X=              1.7137    Y=              1.5080    Z=             -0.0003  Tot=              2.2827

 Test job not archived.
 1\1\GINC-SE104\SP\RHF\Aug-CC-pVDZ\C3H5Cl2N1O2\OHZDE\06-Apr-2025\0\\#t
 hf aug-cc-pvdz iop(5/13=1,5/36=2,99/5=2) pseudo=read geom=check guess=
 (read,tcheck) scf=(maxcycle=1)\\title\\0,1\Cl,0,0.249784,-0.97435,1.46
 9255\Cl,0,0.249795,-0.974958,-1.468853\O,0,-2.276486,-0.317705,0.00001
 4\O,0,-1.578642,1.73245,-0.000305\N,0,-1.417338,0.52936,-0.000112\C,0,
 1.046188,1.203382,-0.000248\C,0,0.088165,0.027254,-0.000009\C,0,2.5237
 8,0.818478,-0.000164\H,0,0.809962,1.806954,0.875296\H,0,0.809968,1.806
 595,-0.876042\H,0,3.12516,1.726672,-0.000357\H,0,2.787839,0.23974,-0.8

 Normal termination of Gaussian 16 at Sun Apr  6 07:30:30 2025.
