 Gaussian 16, Revision C.01,

 ----------------------------------------------------------------------
 #t hf aug-cc-pvdz symm=none int=(grid=ultrafine) guess=(read,tcheck) s
 table=(opt,rrhf)
 ----------------------------------------------------------------------
 -----
 title
 -----
 Symbolic Z-matrix:
 Charge =  0 Multiplicity = 1

 SCF Done:  E(RHF) =  -1456.00004835     A.U. after   12 cycles

 1\1\GINC-SE042\Stability\RHF\Aug-CC-pVDZ\C2H3Cl3\OHZDE\06-Apr-2025\0\\
 #t hf aug-cc-pvdz symm=none int=(grid=ultrafine) guess=(read,tcheck) s
 table=(opt,rrhf)\\title\\0,1\C,0,1.056688,-0.825383,0.\C,0,0.623146,0.
 625677,0.\Cl,0,-0.291928,-2.006932,0.\Cl,0,-0.291928,1.061629,1.479874
 \Cl,0,-0.291928,1.061629,-1.479874\H,0,1.650902,-1.016853,-0.889604\H,
 0,1.650902,-1.016853,0.889604\H,0,1.507532,1.254404,0.\\Version=ES64L-
 G16RevC.01\HF=-1456.0000484\RMSD=6.257e-09\Dipole=1.1887889,0.0993363,
 0.\Quadrupole=3.3579642,-2.3251431,-1.0328211,-0.1746405,0.,0.\PG=Unkn

 Normal termination of Gaussian 16 at Sun Apr  6 07:15:34 2025.
 Gaussian 16:  ES64L-G16RevC.01  3-Jul-2019

 ----------------------------------------------------------------------
 #t hf aug-cc-pvdz iop(5/13=1,5/36=2,99/5=2) pseudo=read geom=check gue
 ss=(read,tcheck) scf=(maxcycle=1)
 ----------------------------------------------------------------------
 -----
 title
 -----
 Structure from the checkpoint file:  "1-1-2-trichloroethane.chk"
 Charge =  0 Multiplicity = 1

                         Standard orientation:
 ---------------------------------------------------------------------
 Center     Atomic      Atomic             Coordinates (Angstroms)
 Number     Number       Type             X           Y           Z
 ---------------------------------------------------------------------
      1          6           0        1.056688   -0.825383    0.000000
      2          6           0        0.623146    0.625677    0.000000
      3         17           0       -0.291928   -2.006932    0.000000
      4         17           0       -0.291928    1.061629    1.479874
      5         17           0       -0.291928    1.061629   -1.479874
      6          1           0        1.650902   -1.016853   -0.889604
      7          1           0        1.650902   -1.016853    0.889604
      8          1           0        1.507532    1.254404    0.000000
 ---------------------------------------------------------------------

 SCF Done:  E(RHF) =  -1457.11918345     A.U. after    2 cycles

 The electronic state is 1-A'.
 Alpha  occ. eigenvalues --  -99.90601 -99.90589 -99.89383 -11.52753 -11.46302
 Alpha  occ. eigenvalues --  -10.47987 -10.47867 -10.46689  -9.67826  -9.67745
 Alpha  occ. eigenvalues --   -9.67055  -9.67017  -9.66939  -9.66910  -9.66513
 Alpha  occ. eigenvalues --   -9.65782  -9.65745  -1.43220  -1.32364  -1.29295
 Alpha  occ. eigenvalues --   -1.10744  -0.92387  -0.73126  -0.71657  -0.66405
 Alpha  occ. eigenvalues --   -0.60542  -0.59418  -0.53497  -0.53059  -0.50098
 Alpha  occ. eigenvalues --   -0.49693  -0.48975  -0.48100
 Alpha virt. eigenvalues --    0.02245   0.03836   0.05707   0.06011   0.07381
 Alpha virt. eigenvalues --    0.07704   0.09029   0.11852   0.12611   0.12824
 Alpha virt. eigenvalues --    0.13213   0.14584   0.14969   0.16351   0.16969

 Mulliken charges:
               1
     1  C   -2.772763
     2  C   -2.892173
     3  Cl   0.171606
     4  Cl   0.251766
     5  Cl   0.251766
     6  H    1.588982
     7  H    1.588982
     8  H    1.811833
 Sum of Mulliken charges =   0.00000

 Dipole moment (field-independent basis, Debye):
    X=              2.8985    Y=              0.2314    Z=              0.0000  Tot=              2.9077

 Test job not archived.
 1\1\GINC-SE042\SP\RHF\Aug-CC-pVDZ\C2H3Cl3\OHZDE\06-Apr-2025\0\\#t hf a
 ug-cc-pvdz iop(5/13=1,5/36=2,99/5=2) pseudo=read geom=check guess=(rea
 d,tcheck) scf=(maxcycle=1)\\title\\0,1\C,0,1.056688,-0.825383,0.\C,0,0
 .623146,0.625677,0.\Cl,0,-0.291928,-2.006932,0.\Cl,0,-0.291928,1.06162
 9,1.479874\Cl,0,-0.291928,1.061629,-1.479874\H,0,1.650902,-1.016853,-0
 .889604\H,0,1.650902,-1.016853,0.889604\H,0,1.507532,1.254404,0.\\Vers
 ion=ES64L-G16RevC.01\State=1-A'\HF=-1457.1191834\RMSD=1.526e-01\Dipole
 =1.1403483,0.0910234,0.\Quadrupole=3.0719412,-2.3944139,-0.6775273,-0.

 Normal termination of Gaussian 16 at Sun Apr  6 07:16:34 2025.
