 Gaussian 16, Revision C.01,

 ----------------------------------------------------------------------
 #t hf aug-cc-pvdz symm=none int=(grid=ultrafine) guess=(read,tcheck) s
 table=(opt,rrhf)
 ----------------------------------------------------------------------
 -----
 title
 -----
 Symbolic Z-matrix:
 Charge =  0 Multiplicity = 1

 SCF Done:  E(RHF) =  -995.883036168     A.U. after   12 cycles

 1\1\GINC-SE041\Stability\RHF\Aug-CC-pVDZ\C2H2Cl2\OHZDE\06-Apr-2025\0\\
 #t hf aug-cc-pvdz symm=none int=(grid=ultrafine) guess=(read,tcheck) s
 table=(opt,rrhf)\\title\\0,1\C,0,0.,0.,1.747016\C,0,0.,0.,0.425505\H,0
 ,0.,0.930182,2.293878\H,0,0.,-0.930182,2.293878\Cl,0,0.,1.459069,-0.51
 832\Cl,0,0.,-1.459069,-0.51832\\Version=ES64L-G16RevC.01\HF=-995.88303
 62\RMSD=9.164e-09\Dipole=0.,0.,0.6659725\Quadrupole=-1.9648544,-0.2097
 053,2.1745597,0.,0.,0.\PG=Unknown\\@
 The archive entry for this job was punched.

 Normal termination of Gaussian 16 at Sun Apr  6 07:36:42 2025.
 Gaussian 16:  ES64L-G16RevC.01  3-Jul-2019

 ----------------------------------------------------------------------
 #t hf aug-cc-pvdz iop(5/13=1,5/36=2,99/5=2) pseudo=read geom=check gue
 ss=(read,tcheck) scf=(maxcycle=1)
 ----------------------------------------------------------------------
 -----
 title
 -----
 Structure from the checkpoint file:  "1-1-dichloroethene.chk"
 Charge =  0 Multiplicity = 1

                         Standard orientation:
 ---------------------------------------------------------------------
 Center     Atomic      Atomic             Coordinates (Angstroms)
 Number     Number       Type             X           Y           Z
 ---------------------------------------------------------------------
      1          6           0        0.000000   -0.000000    1.747016
      2          6           0        0.000000   -0.000000    0.425505
      3          1           0        0.000000    0.930182    2.293878
      4          1           0       -0.000000   -0.930182    2.293878
      5         17           0        0.000000    1.459069   -0.518320
      6         17           0       -0.000000   -1.459069   -0.518320
 ---------------------------------------------------------------------

 SCF Done:  E(RHF) =  -996.742679645     A.U. after    2 cycles

 The electronic state is 1-A1.
 Alpha  occ. eigenvalues --  -99.91511 -99.91505 -11.49875 -11.41203 -10.49063
 Alpha  occ. eigenvalues --  -10.48773  -9.68879  -9.68667  -9.67958  -9.67871
 Alpha  occ. eigenvalues --   -9.67834  -9.67789  -1.42634  -1.30300  -1.11779
 Alpha  occ. eigenvalues --   -0.85469  -0.70815  -0.66050  -0.61452  -0.56238
 Alpha  occ. eigenvalues --   -0.53321  -0.53037  -0.50790  -0.38310
 Alpha virt. eigenvalues --    0.03178   0.04745   0.06112   0.07736   0.07783
 Alpha virt. eigenvalues --    0.07902   0.11901   0.13711   0.14345   0.14355
 Alpha virt. eigenvalues --    0.15400   0.16345   0.16850   0.18479   0.18939

 Mulliken charges:
               1
     1  C   -1.270743
     2  C   -1.263725
     3  H    1.495537
     4  H    1.495537
     5  Cl  -0.228302
     6  Cl  -0.228302
 Sum of Mulliken charges =  -0.00000

 Dipole moment (field-independent basis, Debye):
    X=             -0.0000    Y=              0.0000    Z=              2.0576  Tot=              2.0576

 Test job not archived.
 1\1\GINC-SE041\SP\RHF\Aug-CC-pVDZ\C2H2Cl2\OHZDE\06-Apr-2025\0\\#t hf a
 ug-cc-pvdz iop(5/13=1,5/36=2,99/5=2) pseudo=read geom=check guess=(rea
 d,tcheck) scf=(maxcycle=1)\\title\\0,1\C,0,0.,0.,1.747016\C,0,0.,0.,0.
 425505\H,0,0.,0.930182,2.293878\H,0,0.,-0.930182,2.293878\Cl,0,0.,1.45
 9069,-0.51832\Cl,0,0.,-1.459069,-0.51832\\Version=ES64L-G16RevC.01\Sta
 te=1-A1\HF=-996.7426796\RMSD=2.577e-01\Dipole=0.,0.,0.8095152\Quadrupo
 le=-2.7968549,0.2626335,2.5342213,0.,0.,0.\PG=C02V [C2(C1C1),SGV(H2Cl2
 )]\\@

 Normal termination of Gaussian 16 at Sun Apr  6 07:37:31 2025.
