 Gaussian 16, Revision C.01,

 ----------------------------------------------------------------------
 #t hf aug-cc-pvdz symm=none int=(grid=ultrafine) guess=(read,tcheck) s
 table=(opt,rrhf)
 ----------------------------------------------------------------------
 -----
 title
 -----
 Symbolic Z-matrix:
 Charge =  0 Multiplicity = 1

 SCF Done:  E(RHF) =  -228.295066913     A.U. after   12 cycles

 1\1\GINC-SE150\Stability\RHF\Aug-CC-pVDZ\C3H10N2\OHZDE\06-Apr-2025\0\\
 #t hf aug-cc-pvdz symm=none int=(grid=ultrafine) guess=(read,tcheck) s
 table=(opt,rrhf)\\title\\0,1\C,0,1.979205,-0.084993,-0.208488\C,0,-1.5
 23606,-0.931315,-0.078157\C,0,-0.762496,1.356133,0.045941\N,0,0.728676
 ,-0.487073,0.41836\N,0,-0.413231,-0.017131,-0.292792\H,0,2.801931,-0.4
 42661,0.411618\H,0,2.096531,0.998915,-0.34016\H,0,2.053124,-0.556251,-
 1.187265\H,0,-1.22329,-1.932786,-0.375989\H,0,-2.371774,-0.616432,-0.6
 8676\H,0,-1.848711,-0.963839,0.974835\H,0,-1.044241,1.465794,1.107744\

 Normal termination of Gaussian 16 at Sun Apr  6 07:20:05 2025.
 Gaussian 16:  ES64L-G16RevC.01  3-Jul-2019

 ----------------------------------------------------------------------
 #t hf aug-cc-pvdz iop(5/13=1,5/36=2,99/5=2) pseudo=read geom=check gue
 ss=(read,tcheck) scf=(maxcycle=1)
 ----------------------------------------------------------------------
 -----
 title
 -----
 Structure from the checkpoint file:  "1-1-2-trimethylhydrazine.chk"
 Charge =  0 Multiplicity = 1

                         Standard orientation:
 ---------------------------------------------------------------------
 Center     Atomic      Atomic             Coordinates (Angstroms)
 Number     Number       Type             X           Y           Z
 ---------------------------------------------------------------------
      1          6           0        1.979205   -0.084993   -0.208488
      2          6           0       -1.523606   -0.931315   -0.078157
      3          6           0       -0.762496    1.356133    0.045941
      4          7           0        0.728676   -0.487073    0.418360
      5          7           0       -0.413231   -0.017131   -0.292792
      6          1           0        2.801931   -0.442661    0.411618
      7          1           0        2.096531    0.998915   -0.340160
      8          1           0        2.053124   -0.556251   -1.187265
      9          1           0       -1.223290   -1.932786   -0.375989
     10          1           0       -2.371774   -0.616432   -0.686760
     11          1           0       -1.848711   -0.963839    0.974835
     12          1           0       -1.044241    1.465794    1.107744
     13          1           0       -1.603731    1.682831   -0.565341
     14          1           0        0.077866    2.017471   -0.159362
     15          1           0        0.695565   -0.162564    1.385928
 ---------------------------------------------------------------------

 SCF Done:  E(RHF) =  -229.444748223     A.U. after    2 cycles

 The electronic state is 1-A.
 Alpha  occ. eigenvalues --  -15.72627 -15.71618 -11.37992 -11.37388 -11.36855
 Alpha  occ. eigenvalues --   -1.50305  -1.22006  -1.03315  -0.95714  -0.84466
 Alpha  occ. eigenvalues --   -0.66867  -0.63648  -0.62384  -0.58457  -0.55157
 Alpha  occ. eigenvalues --   -0.54196  -0.52056  -0.49393  -0.46914  -0.33248
 Alpha  occ. eigenvalues --   -0.31935
 Alpha virt. eigenvalues --    0.04122   0.05126   0.05742   0.05911   0.06427
 Alpha virt. eigenvalues --    0.06853   0.07140   0.07266   0.07971   0.09141
 Alpha virt. eigenvalues --    0.12721   0.13007   0.13851   0.15216   0.15786

 Mulliken charges:
               1
     1  C   -3.139431
     2  C   -3.305402
     3  C   -3.393820
     4  N   -1.581481
     5  N   -1.496800
     6  H    1.254630
     7  H    1.395220
     8  H    1.377285
     9  H    1.369351
    10  H    1.390738
    11  H    1.376802
    12  H    1.324913
    13  H    1.288716
    14  H    1.463286
    15  H    0.675993
 Sum of Mulliken charges =  -0.00000

 Dipole moment (field-independent basis, Debye):
    X=             -0.0701    Y=              0.7452    Z=              0.4737  Tot=              0.8858

 Test job not archived.
 1\1\GINC-SE150\SP\RHF\Aug-CC-pVDZ\C3H10N2\OHZDE\06-Apr-2025\0\\#t hf a
 ug-cc-pvdz iop(5/13=1,5/36=2,99/5=2) pseudo=read geom=check guess=(rea
 d,tcheck) scf=(maxcycle=1)\\title\\0,1\C,0,1.979205,-0.084993,-0.20848
 8\C,0,-1.523606,-0.931315,-0.078157\C,0,-0.762496,1.356133,0.045941\N,
 0,0.728676,-0.487073,0.41836\N,0,-0.413231,-0.017131,-0.292792\H,0,2.8
 01931,-0.442661,0.411618\H,0,2.096531,0.998915,-0.34016\H,0,2.053124,-
 0.556251,-1.187265\H,0,-1.22329,-1.932786,-0.375989\H,0,-2.371774,-0.6
 16432,-0.68676\H,0,-1.848711,-0.963839,0.974835\H,0,-1.044241,1.465794

 Normal termination of Gaussian 16 at Sun Apr  6 07:21:16 2025.
