 Gaussian 16, Revision C.01,

 ----------------------------------------------------------------------
 #t hf aug-cc-pvdz symm=none int=(grid=ultrafine) guess=(read,tcheck) s
 table=(opt,rrhf)
 ----------------------------------------------------------------------
 -----
 title
 -----
 Symbolic Z-matrix:
 Charge =  0 Multiplicity = 1

 SCF Done:  E(RHF) =  -933.636002707     A.U. after   12 cycles
 Normal termination of Gaussian 16 at Sun Apr  6 07:10:15 2025.
 Gaussian 16:  ES64L-G16RevC.01  3-Jul-2019

 ----------------------------------------------------------------------
 #t hf aug-cc-pvdz iop(5/13=1,5/36=2,99/5=2) pseudo=read geom=check gue
 ss=(read,tcheck) scf=(maxcycle=1)
 ----------------------------------------------------------------------
 -----
 title
 -----
 Structure from the checkpoint file:  "1-1-1-2-tetrafluorochloroethane.chk"
 Charge =  0 Multiplicity = 1

                         Standard orientation:
 ---------------------------------------------------------------------
 Center     Atomic      Atomic             Coordinates (Angstroms)
 Number     Number       Type             X           Y           Z
 ---------------------------------------------------------------------
      1          6           0        0.451706    0.483657   -0.467135
      2          6           0       -0.861674   -0.168523   -0.001224
      3          1           0        0.454491    0.558887   -1.551837
      4          9           0        0.530176    1.727520    0.073771
      5         17           0        1.858333   -0.488147    0.023923
      6          9           0       -0.920875   -0.298900    1.324534
      7          9           0       -1.892087    0.597920   -0.396345
      8          9           0       -1.004585   -1.376672   -0.562482
 ---------------------------------------------------------------------

 SCF Done:  E(RHF) =  -935.563036731     A.U. after    2 cycles

 The electronic state is 1-A.
 Alpha  occ. eigenvalues --  -99.92500 -29.33465 -29.33207 -29.33140 -29.32031
 Alpha  occ. eigenvalues --  -11.63045 -11.54027 -10.49914  -9.69757  -9.68941
 Alpha  occ. eigenvalues --   -9.68874  -1.49756  -1.35906  -1.14820  -0.93448
 Alpha  occ. eigenvalues --   -0.92101  -0.82075  -0.75312  -0.69279  -0.55467
 Alpha  occ. eigenvalues --   -0.54134  -0.49671  -0.45917  -0.45295  -0.44424
 Alpha  occ. eigenvalues --   -0.38940  -0.38361  -0.36696  -0.31868  -0.29582
 Alpha  occ. eigenvalues --   -0.27750  -0.25895  -0.23448
 Alpha virt. eigenvalues --    0.04552   0.06294   0.09650   0.10434   0.11465
 Alpha virt. eigenvalues --    0.12350   0.12861   0.13516   0.14878   0.15803
 Alpha virt. eigenvalues --    0.16754   0.20543   0.21457   0.23160   0.23346

 Mulliken charges:
               1
     1  C   -3.626803
     2  C   -0.101791
     3  H    1.655117
     4  F    0.662012
     5  Cl  -0.101512
     6  F    0.556244
     7  F    0.504603
     8  F    0.452130
 Sum of Mulliken charges =  -0.00000

 Dipole moment (field-independent basis, Debye):
    X=             -3.0050    Y=              2.2401    Z=              0.7037  Tot=              3.8135

 Test job not archived.
 1\1\GINC-SE042\SP\RHF\Aug-CC-pVDZ\C2H1Cl1F4\OHZDE\06-Apr-2025\0\\#t hf
  aug-cc-pvdz iop(5/13=1,5/36=2,99/5=2) pseudo=read geom=check guess=(r
 ead,tcheck) scf=(maxcycle=1)\\title\\0,1\C,0,0.451706,0.483657,-0.4671
 35\C,0,-0.861674,-0.168523,-0.001224\H,0,0.454491,0.558887,-1.551837\F
 ,0,0.530176,1.72752,0.073771\Cl,0,1.858333,-0.488147,0.023923\F,0,-0.9
 20875,-0.2989,1.324534\F,0,-1.892087,0.59792,-0.396345\F,0,-1.004585,-
 1.376672,-0.562482\\Version=ES64L-G16RevC.01\State=1-A\HF=-935.5630367
 \RMSD=1.570e-01\Dipole=-1.182246,0.8813286,0.2768445\Quadrupole=-1.665

 Normal termination of Gaussian 16 at Sun Apr  6 07:10:34 2025.
