 Gaussian 16, Revision C.01,

 ----------------------------------------------------------------------
 #t hf aug-cc-pvdz symm=none int=(grid=ultrafine) guess=(read,tcheck) s
 table=(opt,rrhf)
 ----------------------------------------------------------------------
 -----
 title
 -----
 Symbolic Z-matrix:
 Charge =  0 Multiplicity = 1

 SCF Done:  E(RHF) =  -414.905860289     A.U. after   11 cycles
 Normal termination of Gaussian 16 at Sun Apr  6 07:10:40 2025.
 Gaussian 16:  ES64L-G16RevC.01  3-Jul-2019

 ----------------------------------------------------------------------
 #t hf aug-cc-pvdz iop(5/13=1,5/36=2,99/5=2) pseudo=read geom=check gue
 ss=(read,tcheck) scf=(maxcycle=1)
 ----------------------------------------------------------------------
 -----
 title
 -----
 Structure from the checkpoint file:  "1-1-1-trifluoropropane.chk"
 Charge =  0 Multiplicity = 1

                         Standard orientation:
 ---------------------------------------------------------------------
 Center     Atomic      Atomic             Coordinates (Angstroms)
 Number     Number       Type             X           Y           Z
 ---------------------------------------------------------------------
      1          6           0       -1.755788   -1.135628    0.000000
      2          6           0       -1.135780    0.259439    0.000000
      3          6           0        0.373557    0.244819    0.000000
      4          9           0        0.879802   -0.382880    1.085643
      5          9           0        0.879802    1.498257    0.000000
      6          9           0        0.879802   -0.382880   -1.085643
      7          1           0       -1.459013   -1.700292    0.882744
      8          1           0       -2.842020   -1.057015    0.000000
      9          1           0       -1.459013   -1.700292   -0.882744
     10          1           0       -1.443277    0.826675    0.878962
     11          1           0       -1.443277    0.826675   -0.878962
 ---------------------------------------------------------------------

 SCF Done:  E(RHF) =  -416.495926908     A.U. after    2 cycles

 The electronic state is 1-A'.
 Alpha  occ. eigenvalues --  -29.29922 -29.29919 -29.29847 -11.59765 -11.42865
 Alpha  occ. eigenvalues --  -11.38264  -1.42806  -1.15338  -0.95087  -0.87621
 Alpha  occ. eigenvalues --   -0.86309  -0.70201  -0.63038  -0.55751  -0.52508
 Alpha  occ. eigenvalues --   -0.51907  -0.47095  -0.42786  -0.42431  -0.35221
 Alpha  occ. eigenvalues --   -0.35038  -0.29422  -0.24500  -0.24452  -0.20564
 Alpha virt. eigenvalues --    0.03916   0.05707   0.05998   0.06303   0.06701
 Alpha virt. eigenvalues --    0.10617   0.10938   0.12569   0.12814   0.14174
 Alpha virt. eigenvalues --    0.15971   0.16815   0.17538   0.18284   0.19324

 Mulliken charges:
               1
     1  C   -3.567365
     2  C   -4.187708
     3  C    0.269383
     4  F    0.350233
     5  F    0.428043
     6  F    0.350233
     7  H    1.271072
     8  H    1.093050
     9  H    1.271072
    10  H    1.360993
    11  H    1.360993
 Sum of Mulliken charges =  -0.00000

 Dipole moment (field-independent basis, Debye):
    X=              0.8464    Y=             -0.1694    Z=             -0.0000  Tot=              0.8632

 Test job not archived.
 1\1\GINC-SE046\SP\RHF\Aug-CC-pVDZ\C3H5F3\OHZDE\06-Apr-2025\0\\#t hf au
 g-cc-pvdz iop(5/13=1,5/36=2,99/5=2) pseudo=read geom=check guess=(read
 ,tcheck) scf=(maxcycle=1)\\title\\0,1\C,0,-1.755788,-1.135628,0.\C,0,-
 1.13578,0.259439,0.\C,0,0.373557,0.244819,0.\F,0,0.879802,-0.38288,1.0
 85643\F,0,0.879802,1.498257,0.\F,0,0.879802,-0.38288,-1.085643\H,0,-1.
 459013,-1.700292,0.882744\H,0,-2.84202,-1.057015,0.\H,0,-1.459013,-1.7
 00292,-0.882744\H,0,-1.443277,0.826675,0.878962\H,0,-1.443277,0.826675
 ,-0.878962\\Version=ES64L-G16RevC.01\State=1-A'\HF=-416.4959269\RMSD=2

 Normal termination of Gaussian 16 at Sun Apr  6 07:11:50 2025.
