 Gaussian 16, Revision C.01,

 ----------------------------------------------------------------------
 #t hf aug-cc-pvdz symm=none int=(grid=ultrafine) guess=(read,tcheck) s
 table=(opt,rrhf)
 ----------------------------------------------------------------------
 -----
 title
 -----
 Symbolic Z-matrix:
 Charge =  0 Multiplicity = 1

 SCF Done:  E(RHF) =  -192.714784050     A.U. after   10 cycles
 Normal termination of Gaussian 16 at Sun Apr  6 07:08:20 2025.
 Gaussian 16:  ES64L-G16RevC.01  3-Jul-2019

 ----------------------------------------------------------------------
 #t hf aug-cc-pvdz iop(5/13=1,5/36=2,99/5=2) pseudo=read geom=check gue
 ss=(read,tcheck) scf=(maxcycle=1)
 ----------------------------------------------------------------------
 -----
 title
 -----
 Structure from the checkpoint file:  "1-1-1-propellane.chk"
 Charge =  0 Multiplicity = 1

                         Standard orientation:
 ---------------------------------------------------------------------
 Center     Atomic      Atomic             Coordinates (Angstroms)
 Number     Number       Type             X           Y           Z
 ---------------------------------------------------------------------
      1          6           0       -0.000000   -0.000000    1.297147
      2          6           0       -0.783698    0.000000    0.000000
      3          6           0        0.783698   -0.000000    0.000000
      4          6           0       -0.000000    1.123362   -0.648574
      5          6           0       -0.000000   -1.123362   -0.648574
      6          1           0        0.000000   -0.913369    1.877008
      7          1           0        0.000000    0.913369    1.877008
      8          1           0       -0.000000    2.082221   -0.147503
      9          1           0       -0.000000    1.168852   -1.729505
     10          1           0       -0.000000   -2.082221   -0.147503
     11          1           0       -0.000000   -1.168852   -1.729505
 ---------------------------------------------------------------------

 SCF Done:  E(RHF) =  -193.681267878     A.U. after    2 cycles

 The electronic state is 1-A1.
 Alpha  occ. eigenvalues --  -11.45717 -11.45277 -11.45277 -11.39209 -11.38085
 Alpha  occ. eigenvalues --   -1.49346  -1.00187  -1.00187  -0.82303  -0.74515
 Alpha  occ. eigenvalues --   -0.65730  -0.65730  -0.53089  -0.48298  -0.48298
 Alpha  occ. eigenvalues --   -0.41618  -0.41618  -0.36817
 Alpha virt. eigenvalues --    0.04050   0.05543   0.05543   0.06362   0.06362
 Alpha virt. eigenvalues --    0.08762   0.09369   0.09764   0.12663   0.12663
 Alpha virt. eigenvalues --    0.13725   0.13954   0.14249   0.14249   0.15519

 Mulliken charges:
               1
     1  C   -2.642028
     2  C   -0.323248
     3  C   -0.323248
     4  C   -2.642028
     5  C   -2.642028
     6  H    1.428763
     7  H    1.428763
     8  H    1.428764
     9  H    1.428763
    10  H    1.428764
    11  H    1.428763
 Sum of Mulliken charges =   0.00000

 Dipole moment (field-independent basis, Debye):
    X=             -0.0000    Y=             -0.0000    Z=             -0.0000  Tot=              0.0000

 Test job not archived.
 1\1\GINC-SE208\SP\RHF\Aug-CC-pVDZ\C5H6\OHZDE\06-Apr-2025\0\\#t hf aug-
 cc-pvdz iop(5/13=1,5/36=2,99/5=2) pseudo=read geom=check guess=(read,t
 check) scf=(maxcycle=1)\\title\\0,1\C,0,0.,1.297147,0.\C,0,0.,0.,0.783
 698\C,0,0.,0.,-0.783698\C,0,-1.123362,-0.648574,0.\C,0,1.123362,-0.648
 574,0.\H,0,0.913369,1.877008,0.\H,0,-0.913369,1.877008,0.\H,0,-2.08222
 1,-0.147503,0.\H,0,-1.168852,-1.729505,0.\H,0,2.082221,-0.147503,0.\H,
 0,1.168852,-1.729505,0.\\Version=ES64L-G16RevC.01\State=1-A1\HF=-193.6
 812679\RMSD=7.106e-01\Dipole=0.,-0.0000003,0.\Quadrupole=2.2054186,2.2

 Normal termination of Gaussian 16 at Sun Apr  6 07:09:11 2025.
