 Gaussian 16, Revision C.01,

 ----------------------------------------------------------------------
 #t hf aug-cc-pvdz symm=none int=(grid=ultrafine) guess=(read,tcheck) s
 table=(opt,rrhf)
 ----------------------------------------------------------------------
 -----
 title
 -----
 Symbolic Z-matrix:
 Charge =  0 Multiplicity = 1

 SCF Done:  E(RHF) =  -307.026867825     A.U. after   11 cycles

 1\1\GINC-SE028\Stability\RHF\Aug-CC-pVDZ\C4H10O2\OHZDE\06-Apr-2025\0\\
 #t hf aug-cc-pvdz symm=none int=(grid=ultrafine) guess=(read,tcheck) s
 table=(opt,rrhf)\\title\\0,1\O,0,-0.475052,-0.494394,1.113221\O,0,-0.4
 75052,-0.494394,-1.113221\C,0,-0.475052,0.274157,2.299349\C,0,-0.47505
 2,0.274157,-2.299349\C,0,0.108864,0.139234,0.\C,0,1.624653,-0.011059,0
 .\H,0,0.536031,0.457395,2.678474\H,0,0.536031,0.457395,-2.678474\H,0,-
 1.025623,-0.297309,3.043115\H,0,-1.025623,-0.297309,-3.043115\H,0,-0.9
 74551,1.238607,2.149797\H,0,-0.974551,1.238607,-2.149797\H,0,-0.175109

 Normal termination of Gaussian 16 at Sun Apr  6 07:47:33 2025.
 Gaussian 16:  ES64L-G16RevC.01  3-Jul-2019

 ----------------------------------------------------------------------
 #t hf aug-cc-pvdz iop(5/13=1,5/36=2,99/5=2) pseudo=read geom=check gue
 ss=(read,tcheck) scf=(maxcycle=1)
 ----------------------------------------------------------------------
 -----
 title
 -----
 Structure from the checkpoint file:  "1-1-dimethoxyethane.chk"
 Charge =  0 Multiplicity = 1

                         Standard orientation:
 ---------------------------------------------------------------------
 Center     Atomic      Atomic             Coordinates (Angstroms)
 Number     Number       Type             X           Y           Z
 ---------------------------------------------------------------------
      1          8           0       -0.475052   -0.494394    1.113221
      2          8           0       -0.475052   -0.494394   -1.113221
      3          6           0       -0.475052    0.274157    2.299349
      4          6           0       -0.475052    0.274157   -2.299349
      5          6           0        0.108864    0.139234    0.000000
      6          6           0        1.624653   -0.011059    0.000000
      7          1           0        0.536031    0.457395    2.678474
      8          1           0        0.536031    0.457395   -2.678474
      9          1           0       -1.025623   -0.297309    3.043115
     10          1           0       -1.025623   -0.297309   -3.043115
     11          1           0       -0.974551    1.238607    2.149797
     12          1           0       -0.974551    1.238607   -2.149797
     13          1           0       -0.175109    1.205677   -0.000000
     14          1           0        1.876897   -1.070780    0.000000
     15          1           0        2.063428    0.459549   -0.880282
     16          1           0        2.063428    0.459549    0.880282
 ---------------------------------------------------------------------

 SCF Done:  E(RHF) =  -308.444812569     A.U. after    2 cycles

 The electronic state is 1-A'.
 Alpha  occ. eigenvalues --  -21.03964 -21.03907 -11.46940 -11.40532 -11.40338
 Alpha  occ. eigenvalues --  -11.36675  -1.81604  -1.68253  -1.10875  -1.01319
 Alpha  occ. eigenvalues --   -0.95628  -0.84041  -0.66505  -0.64790  -0.61623
 Alpha  occ. eigenvalues --   -0.60704  -0.58637  -0.55627  -0.54927  -0.51514
 Alpha  occ. eigenvalues --   -0.47562  -0.39639  -0.36758  -0.29788  -0.29235
 Alpha virt. eigenvalues --    0.03814   0.05156   0.05314   0.05447   0.05580
 Alpha virt. eigenvalues --    0.06556   0.06888   0.07494   0.07983   0.09712
 Alpha virt. eigenvalues --    0.11370   0.12940   0.13716   0.14985   0.15416

 Mulliken charges:
               1
     1  O   -3.216797
     2  O   -3.216797
     3  C   -3.104462
     4  C   -3.104462
     5  C    2.352786
     6  C   -3.593249
     7  H    1.381907
     8  H    1.381907
     9  H    1.258601
    10  H    1.258601
    11  H    1.273752
    12  H    1.273752
    13  H    2.159031
    14  H    1.340373
    15  H    1.277528
    16  H    1.277528
 Sum of Mulliken charges =   0.00000

 Dipole moment (field-independent basis, Debye):
    X=              0.0090    Y=              0.7647    Z=             -0.0000  Tot=              0.7648

 Test job not archived.
 1\1\GINC-SE028\SP\RHF\Aug-CC-pVDZ\C4H10O2\OHZDE\06-Apr-2025\0\\#t hf a
 ug-cc-pvdz iop(5/13=1,5/36=2,99/5=2) pseudo=read geom=check guess=(rea
 d,tcheck) scf=(maxcycle=1)\\title\\0,1\O,0,-0.475052,-0.494394,1.11322
 1\O,0,-0.475052,-0.494394,-1.113221\C,0,-0.475052,0.274157,2.299349\C,
 0,-0.475052,0.274157,-2.299349\C,0,0.108864,0.139234,0.\C,0,1.624653,-
 0.011059,0.\H,0,0.536031,0.457395,2.678474\H,0,0.536031,0.457395,-2.67
 8474\H,0,-1.025623,-0.297309,3.043115\H,0,-1.025623,-0.297309,-3.04311
 5\H,0,-0.974551,1.238607,2.149797\H,0,-0.974551,1.238607,-2.149797\H,0

 Normal termination of Gaussian 16 at Sun Apr  6 07:48:18 2025.
