 Gaussian 16, Revision C.01,

 ----------------------------------------------------------------------
 #t hf aug-cc-pvdz symm=none int=(grid=ultrafine) guess=(read,tcheck) s
 table=(opt,rrhf)
 ----------------------------------------------------------------------
 -----
 title
 -----
 Symbolic Z-matrix:
 Charge =  0 Multiplicity = 1

 SCF Done:  E(RHF) =  -1293.68979987     A.U. after   12 cycles
 Normal termination of Gaussian 16 at Sun Apr  6 07:32:11 2025.
 Gaussian 16:  ES64L-G16RevC.01  3-Jul-2019

 ----------------------------------------------------------------------
 #t hf aug-cc-pvdz iop(5/13=1,5/36=2,99/5=2) pseudo=read geom=check gue
 ss=(read,tcheck) scf=(maxcycle=1)
 ----------------------------------------------------------------------
 -----
 title
 -----
 Structure from the checkpoint file:  "1-1-dichloro-2-2-2-trifluoroethane.chk"
 Charge =  0 Multiplicity = 1

                         Standard orientation:
 ---------------------------------------------------------------------
 Center     Atomic      Atomic             Coordinates (Angstroms)
 Number     Number       Type             X           Y           Z
 ---------------------------------------------------------------------
      1          6           0        0.566910   -0.338873   -0.000000
      2          6           0       -0.170872    1.010509    0.000000
      3          1           0        1.633086   -0.144099   -0.000000
      4         17           0        0.182082   -1.256529    1.476575
      5         17           0        0.182082   -1.256529   -1.476575
      6          9           0       -1.497512    0.873510    0.000000
      7          9           0        0.182082    1.720816    1.083344
      8          9           0        0.182082    1.720816   -1.083344
 ---------------------------------------------------------------------

 SCF Done:  E(RHF) =  -1295.53373397     A.U. after    2 cycles

 The electronic state is 1-A'.
 Alpha  occ. eigenvalues --  -99.92619 -99.92610 -29.33030 -29.33027 -29.32957
 Alpha  occ. eigenvalues --  -11.62861 -11.52745 -10.50024 -10.49897  -9.69889
 Alpha  occ. eigenvalues --   -9.69779  -9.69070  -9.69027  -9.68939  -9.68919
 Alpha  occ. eigenvalues --   -1.50238  -1.36631  -1.31721  -1.04426  -0.92142
 Alpha  occ. eigenvalues --   -0.91560  -0.78723  -0.70461  -0.66366  -0.56360
 Alpha  occ. eigenvalues --   -0.55486  -0.52616  -0.52086  -0.49049  -0.45399
 Alpha  occ. eigenvalues --   -0.44897  -0.38475  -0.38167  -0.34170  -0.27737
 Alpha  occ. eigenvalues --   -0.27235  -0.23288
 Alpha virt. eigenvalues --    0.03499   0.04445   0.06877   0.08701   0.10396
 Alpha virt. eigenvalues --    0.12036   0.12044   0.13160   0.13409   0.14229
 Alpha virt. eigenvalues --    0.15620   0.15878   0.17014   0.17171   0.18915

 Mulliken charges:
               1
     1  C   -4.771597
     2  C    0.760155
     3  H    1.858252
     4  Cl   0.335059
     5  Cl   0.335059
     6  F    0.505590
     7  F    0.488741
     8  F    0.488741
 Sum of Mulliken charges =  -0.00000

 Dipole moment (field-independent basis, Debye):
    X=             -0.4355    Y=              3.5108    Z=             -0.0000  Tot=              3.5377

 Test job not archived.
 1\1\GINC-SE050\SP\RHF\Aug-CC-pVDZ\C2H1Cl2F3\OHZDE\06-Apr-2025\0\\#t hf
  aug-cc-pvdz iop(5/13=1,5/36=2,99/5=2) pseudo=read geom=check guess=(r
 ead,tcheck) scf=(maxcycle=1)\\title\\0,1\C,0,0.56691,-0.338873,0.\C,0,
 -0.170872,1.010509,0.\H,0,1.633086,-0.144099,0.\Cl,0,0.182082,-1.25652
 9,1.476575\Cl,0,0.182082,-1.256529,-1.476575\F,0,-1.497512,0.87351,0.\
 F,0,0.182082,1.720816,1.083344\F,0,0.182082,1.720816,-1.083344\\Versio
 n=ES64L-G16RevC.01\State=1-A'\HF=-1295.533734\RMSD=1.518e-01\Dipole=-0
 .1713564,1.3812624,0.\Quadrupole=0.1041066,0.3895156,-0.4936221,0.0627

 Normal termination of Gaussian 16 at Sun Apr  6 07:32:48 2025.
