 Gaussian 16, Revision C.01,

 ----------------------------------------------------------------------
 #t hf aug-cc-pvdz symm=none int=(grid=ultrafine) guess=(read,tcheck) s
 table=(opt,rrhf)
 ----------------------------------------------------------------------
 -----
 title
 -----
 Symbolic Z-matrix:
 Charge =  0 Multiplicity = 1

 SCF Done:  E(RHF) =  -374.622839270     A.U. after   12 cycles
 Normal termination of Gaussian 16 at Sun Apr  6 07:18:47 2025.
 Gaussian 16:  ES64L-G16RevC.01  3-Jul-2019

 ----------------------------------------------------------------------
 #t hf aug-cc-pvdz iop(5/13=1,5/36=2,99/5=2) pseudo=read geom=check gue
 ss=(read,tcheck) scf=(maxcycle=1)
 ----------------------------------------------------------------------
 -----
 title
 -----
 Structure from the checkpoint file:  "1-1-2-trifluoroethene.chk"
 Charge =  0 Multiplicity = 1

                         Standard orientation:
 ---------------------------------------------------------------------
 Center     Atomic      Atomic             Coordinates (Angstroms)
 Number     Number       Type             X           Y           Z
 ---------------------------------------------------------------------
      1          6           0        0.000000    0.430631    0.000000
      2          6           0       -0.704353   -0.686847    0.000000
      3          9           0        1.314791    0.500587    0.000000
      4          9           0       -0.554822    1.630861    0.000000
      5          9           0       -0.092517   -1.882156    0.000000
      6          1           0       -1.780948   -0.706341    0.000000
 ---------------------------------------------------------------------

 SCF Done:  E(RHF) =  -375.978941558     A.U. after    2 cycles

 The electronic state is 1-A'.
 Alpha  occ. eigenvalues --  -29.33651 -29.33528 -29.30738 -11.56237 -11.47272
 Alpha  occ. eigenvalues --   -1.36619  -1.09760  -0.87713  -0.78249  -0.67563
 Alpha  occ. eigenvalues --   -0.63070  -0.47686  -0.43238  -0.41639  -0.41404
 Alpha  occ. eigenvalues --   -0.35278  -0.32808  -0.30336  -0.25815  -0.18688
 Alpha virt. eigenvalues --    0.04664   0.09830   0.10531   0.11490   0.11766
 Alpha virt. eigenvalues --    0.12783   0.14179   0.15181   0.19622   0.22074
 Alpha virt. eigenvalues --    0.24318   0.24718   0.26373   0.27725   0.31440

 Mulliken charges:
               1
     1  C   -1.833467
     2  C   -1.880027
     3  F    0.838544
     4  F    0.652388
     5  F    0.756073
     6  H    1.466489
 Sum of Mulliken charges =   0.00000

 Dipole moment (field-independent basis, Debye):
    X=              1.6637    Y=              0.5603    Z=              0.0000  Tot=              1.7555

 Test job not archived.
 1\1\GINC-SE046\SP\RHF\Aug-CC-pVDZ\C2H1F3\OHZDE\06-Apr-2025\0\\#t hf au
 g-cc-pvdz iop(5/13=1,5/36=2,99/5=2) pseudo=read geom=check guess=(read
 ,tcheck) scf=(maxcycle=1)\\title\\0,1\C,0,0.,0.430631,0.\C,0,-0.704353
 ,-0.686847,0.\F,0,1.314791,0.500587,0.\F,0,-0.554822,1.630861,0.\F,0,-
 0.092517,-1.882156,0.\H,0,-1.780948,-0.706341,0.\\Version=ES64L-G16Rev
 C.01\State=1-A'\HF=-375.9789416\RMSD=5.061e-01\Dipole=0.6545593,0.2204
 527,0.\Quadrupole=0.5501574,1.9820079,-2.5321654,-0.1586334,0.,0.\PG=C
 S [SG(C2H1F3)]\\@

 Normal termination of Gaussian 16 at Sun Apr  6 07:19:45 2025.
