 Gaussian 16, Revision C.01,

 ----------------------------------------------------------------------
 #t hf aug-cc-pvdz symm=none int=(grid=ultrafine) guess=(read,tcheck) s
 table=(opt,rrhf)
 ----------------------------------------------------------------------
 -----
 title
 -----
 Symbolic Z-matrix:
 Charge =  0 Multiplicity = 1

 SCF Done:  E(RHF) =  -443.599496310     A.U. after   14 cycles
 Normal termination of Gaussian 16 at Sun Apr  6 07:40:19 2025.
 Gaussian 16:  ES64L-G16RevC.01  3-Jul-2019

 ----------------------------------------------------------------------
 #t hf aug-cc-pvdz iop(5/13=1,5/36=2,99/5=2) pseudo=read geom=check gue
 ss=(read,tcheck) scf=(maxcycle=1)
 ----------------------------------------------------------------------
 -----
 title
 -----
 Structure from the checkpoint file:  "1-1-difluoro-2-isocyanatoethane.chk"
 Charge =  0 Multiplicity = 1

                         Standard orientation:
 ---------------------------------------------------------------------
 Center     Atomic      Atomic             Coordinates (Angstroms)
 Number     Number       Type             X           Y           Z
 ---------------------------------------------------------------------
      1          9           0        0.892126   -1.165198   -0.729105
      2          9           0        1.581051   -0.215516    1.129974
      3          8           0       -2.608785   -0.637675    0.169502
      4          7           0       -0.853328    0.946099    0.096004
      5          6           0        1.403870   -0.009908   -0.206195
      6          6           0        0.452351    1.146753   -0.457655
      7          6           0       -1.702891    0.095842    0.092826
      8          1           0        2.382805    0.162893   -0.658127
      9          1           0        0.888228    2.041357   -0.014086
     10          1           0        0.393969    1.304768   -1.537510
 ---------------------------------------------------------------------

 SCF Done:  E(RHF) =  -445.336546659     A.U. after    2 cycles

 The electronic state is 1-A.
 Alpha  occ. eigenvalues --  -29.29677 -29.29435 -21.12075 -15.77269 -11.58681
 Alpha  occ. eigenvalues --  -11.55100 -11.45986  -1.76819  -1.44642  -1.29738
 Alpha  occ. eigenvalues --   -1.04651  -0.82798  -0.79054  -0.72578  -0.66712
 Alpha  occ. eigenvalues --   -0.64522  -0.60907  -0.57590  -0.55742  -0.45159
 Alpha  occ. eigenvalues --   -0.39478  -0.37431  -0.34799  -0.31536  -0.30479
 Alpha  occ. eigenvalues --   -0.28135  -0.23052
 Alpha virt. eigenvalues --    0.03446   0.04992   0.05420   0.08422   0.10346
 Alpha virt. eigenvalues --    0.10839   0.11020   0.11258   0.12510   0.14107
 Alpha virt. eigenvalues --    0.14331   0.14484   0.16376   0.18035   0.20254

 Mulliken charges:
               1
     1  F    0.371981
     2  F    0.303751
     3  O   -2.543880
     4  N   -2.203117
     5  C   -1.408133
     6  C   -2.630187
     7  C    3.733335
     8  H    1.567367
     9  H    1.398908
    10  H    1.409974
 Sum of Mulliken charges =  -0.00000

 Dipole moment (field-independent basis, Debye):
    X=              0.9753    Y=             -1.5835    Z=              0.0104  Tot=              1.8598

 Test job not archived.
 1\1\GINC-SE028\SP\RHF\Aug-CC-pVDZ\C3H3F2N1O1\OHZDE\06-Apr-2025\0\\#t h
 f aug-cc-pvdz iop(5/13=1,5/36=2,99/5=2) pseudo=read geom=check guess=(
 read,tcheck) scf=(maxcycle=1)\\title\\0,1\F,0,0.892126,-1.165198,-0.72
 9105\F,0,1.581051,-0.215516,1.129974\O,0,-2.608785,-0.637675,0.169502\
 N,0,-0.853328,0.946099,0.096004\C,0,1.40387,-0.009908,-0.206195\C,0,0.
 452351,1.146753,-0.457655\C,0,-1.702891,0.095842,0.092826\H,0,2.382805
 ,0.162893,-0.658127\H,0,0.888228,2.041357,-0.014086\H,0,0.393969,1.304
 768,-1.53751\\Version=ES64L-G16RevC.01\State=1-A\HF=-445.3365467\RMSD=

 Normal termination of Gaussian 16 at Sun Apr  6 07:40:58 2025.
