 Gaussian 16, Revision C.01,

 ----------------------------------------------------------------------
 #t hf aug-cc-pvdz symm=none int=(grid=ultrafine) guess=(read,tcheck) s
 table=(opt,rrhf)
 ----------------------------------------------------------------------
 -----
 title
 -----
 Symbolic Z-matrix:
 Charge =  0 Multiplicity = 1

 SCF Done:  E(RHF) =  -413.673911988     A.U. after   13 cycles
 Normal termination of Gaussian 16 at Sun Apr  6 07:24:14 2025.
 Gaussian 16:  ES64L-G16RevC.01  3-Jul-2019

 ----------------------------------------------------------------------
 #t hf aug-cc-pvdz iop(5/13=1,5/36=2,99/5=2) pseudo=read geom=check gue
 ss=(read,tcheck) scf=(maxcycle=1)
 ----------------------------------------------------------------------
 -----
 title
 -----
 Structure from the checkpoint file:  "1-1-3-trifluoropropene.chk"
 Charge =  0 Multiplicity = 1

                         Standard orientation:
 ---------------------------------------------------------------------
 Center     Atomic      Atomic             Coordinates (Angstroms)
 Number     Number       Type             X           Y           Z
 ---------------------------------------------------------------------
      1          6           0       -0.000000    0.862132    0.000000
      2          9           0       -1.305149    0.683741    0.000000
      3          9           0        0.270153    2.162974    0.000000
      4          6           0        0.934721   -0.068353    0.000000
      5          1           0        1.955306    0.288216    0.000000
      6          6           0        0.754530   -1.551413    0.000000
      7          9           0       -0.579844   -1.931007    0.000000
      8          1           0        1.221377   -1.991895    0.885372
      9          1           0        1.221377   -1.991895   -0.885372
 ---------------------------------------------------------------------

 SCF Done:  E(RHF) =  -415.232615314     A.U. after    2 cycles

 The electronic state is 1-A'.
 Alpha  occ. eigenvalues --  -29.31939 -29.31852 -29.26199 -11.56087 -11.48044
 Alpha  occ. eigenvalues --  -11.41550  -1.35339  -1.18923  -0.96885  -0.84428
 Alpha  occ. eigenvalues --   -0.73575  -0.66939  -0.63141  -0.59054  -0.58189
 Alpha  occ. eigenvalues --   -0.46243  -0.40593  -0.38594  -0.35347  -0.31342
 Alpha  occ. eigenvalues --   -0.27220  -0.26166  -0.24525  -0.21805
 Alpha virt. eigenvalues --    0.03644   0.05731   0.05738   0.10051   0.11009
 Alpha virt. eigenvalues --    0.11019   0.11999   0.12700   0.13234   0.15061
 Alpha virt. eigenvalues --    0.15544   0.17803   0.18317   0.20229   0.20844

 Mulliken charges:
               1
     1  C   -0.945044
     2  F    0.925001
     3  F    0.587188
     4  C   -2.629618
     5  H    1.445491
     6  C   -2.369536
     7  F    0.453528
     8  H    1.266495
     9  H    1.266495
 Sum of Mulliken charges =   0.00000

 Dipole moment (field-independent basis, Debye):
    X=             -3.0102    Y=              1.5195    Z=             -0.0000  Tot=              3.3720

 Test job not archived.
 1\1\GINC-SE050\SP\RHF\Aug-CC-pVDZ\C3H3F3\OHZDE\06-Apr-2025\0\\#t hf au
 g-cc-pvdz iop(5/13=1,5/36=2,99/5=2) pseudo=read geom=check guess=(read
 ,tcheck) scf=(maxcycle=1)\\title\\0,1\C,0,0.,0.862132,0.\F,0,-1.305149
 ,0.683741,0.\F,0,0.270153,2.162974,0.\C,0,0.934721,-0.068353,0.\H,0,1.
 955306,0.288216,0.\C,0,0.75453,-1.551413,0.\F,0,-0.579844,-1.931007,0.
 \H,0,1.221377,-1.991895,0.885372\H,0,1.221377,-1.991895,-0.885372\\Ver
 sion=ES64L-G16RevC.01\State=1-A'\HF=-415.2326153\RMSD=7.900e-01\Dipole
 =-1.1843181,0.5977979,0.\Quadrupole=-0.0616963,2.2912011,-2.2295048,0.

 Normal termination of Gaussian 16 at Sun Apr  6 07:25:14 2025.
