 Gaussian 16, Revision C.01,

 ----------------------------------------------------------------------
 #t hf aug-cc-pvdz symm=none int=(grid=ultrafine) guess=(read,tcheck) s
 table=(opt,rrhf)
 ----------------------------------------------------------------------
 -----
 title
 -----
 Symbolic Z-matrix:
 Charge =  0 Multiplicity = 1

 SCF Done:  E(RHF) =  -411.201127199     A.U. after   15 cycles
 Normal termination of Gaussian 16 at Sun Apr  6 07:55:40 2025.
 Gaussian 16:  ES64L-G16RevC.01  3-Jul-2019

 ----------------------------------------------------------------------
 #t hf aug-cc-pvdz iop(5/13=1,5/36=2,99/5=2) pseudo=read geom=check gue
 ss=(read,tcheck) scf=(maxcycle=1)
 ----------------------------------------------------------------------
 -----
 title
 -----
 Structure from the checkpoint file:  "1-1-ethenediyl_dicyanate.chk"
 Charge =  0 Multiplicity = 1

                         Standard orientation:
 ---------------------------------------------------------------------
 Center     Atomic      Atomic             Coordinates (Angstroms)
 Number     Number       Type             X           Y           Z
 ---------------------------------------------------------------------
      1          8           0        1.086627   -0.768894   -0.000019
      2          8           0       -1.086627   -0.768894   -0.000018
      3          7           0        3.344570    0.172429    0.000005
      4          7           0       -3.344570    0.172429    0.000011
      5          6           0        0.000000    0.087074   -0.000001
      6          6           0        2.270510   -0.244533   -0.000005
      7          6           0       -2.270510   -0.244533   -0.000002
      8          6           0        0.000000    1.401601    0.000027
      9          1           0       -0.931172    1.945319    0.000038
     10          1           0        0.931172    1.945319    0.000038
 ---------------------------------------------------------------------

 SCF Done:  E(RHF) =  -412.923381493     A.U. after    2 cycles

 The electronic state is 1-A.
 Alpha  occ. eigenvalues --  -21.21679 -21.21653 -15.79508 -15.79483 -11.58672
 Alpha  occ. eigenvalues --  -11.53087 -11.51796 -11.44527  -1.99035  -1.85918
 Alpha  occ. eigenvalues --   -1.33533  -1.31845  -1.18417  -0.97707  -0.79116
 Alpha  occ. eigenvalues --   -0.75861  -0.70094  -0.68736  -0.60787  -0.60264
 Alpha  occ. eigenvalues --   -0.59009  -0.56406  -0.54962  -0.50352  -0.45539
 Alpha  occ. eigenvalues --   -0.44379  -0.39371  -0.34888
 Alpha virt. eigenvalues --    0.02567   0.06515   0.06886   0.07261   0.08326
 Alpha virt. eigenvalues --    0.09510   0.09943   0.10087   0.10272   0.11889
 Alpha virt. eigenvalues --    0.12171   0.12796   0.13451   0.13497   0.14966

 Mulliken charges:
               1
     1  O   -3.107245
     2  O   -3.107245
     3  N   -2.801125
     4  N   -2.801125
     5  C    4.412744
     6  C    3.781053
     7  C    3.781053
     8  C   -3.213730
     9  H    1.527810
    10  H    1.527810
 Sum of Mulliken charges =  -0.00000

 Dipole moment (field-independent basis, Debye):
    X=             -0.0000    Y=             -0.7299    Z=             -0.0000  Tot=              0.7299

 Test job not archived.
 1\1\GINC-SE038\SP\RHF\Aug-CC-pVDZ\C4H2N2O2\OHZDE\06-Apr-2025\0\\#t hf
 aug-cc-pvdz iop(5/13=1,5/36=2,99/5=2) pseudo=read geom=check guess=(re
 ad,tcheck) scf=(maxcycle=1)\\title\\0,1\O,0,1.086627,-0.768894,-0.0000
 19\O,0,-1.086627,-0.768894,-0.000018\N,0,3.34457,0.172429,0.000005\N,0
 ,-3.34457,0.172429,0.000011\C,0,0.,0.087074,-0.000001\C,0,2.27051,-0.2
 44533,-0.000005\C,0,-2.27051,-0.244533,-0.000002\C,0,0.,1.401601,0.000
 027\H,0,-0.931172,1.945319,0.000038\H,0,0.931172,1.945319,0.000038\\Ve
 rsion=ES64L-G16RevC.01\State=1-A\HF=-412.9233815\RMSD=3.613e-01\Dipole

 Normal termination of Gaussian 16 at Sun Apr  6 07:56:29 2025.
