 Gaussian 16, Revision C.01,

 ----------------------------------------------------------------------
 #t hf aug-cc-pvdz symm=none int=(grid=ultrafine) guess=(read,tcheck) s
 table=(opt,rrhf)
 ----------------------------------------------------------------------
 -----
 title
 -----
 Symbolic Z-matrix:
 Charge =  0 Multiplicity = 1

 SCF Done:  E(RHF) =  -1219.81157813     A.U. after   15 cycles
 Normal termination of Gaussian 16 at Sun Apr  6 07:33:35 2025.
 Gaussian 16:  ES64L-G16RevC.01  3-Jul-2019

 ----------------------------------------------------------------------
 #t hf aug-cc-pvdz iop(5/13=1,5/36=2,99/5=2) pseudo=read geom=check gue
 ss=(read,tcheck) scf=(maxcycle=1)
 ----------------------------------------------------------------------
 -----
 title
 -----
 Structure from the checkpoint file:  "1-1-dichloro-3-3-dimethylurea.chk"
 Charge =  0 Multiplicity = 1

                         Standard orientation:
 ---------------------------------------------------------------------
 Center     Atomic      Atomic             Coordinates (Angstroms)
 Number     Number       Type             X           Y           Z
 ---------------------------------------------------------------------
      1         17           0       -2.158879   -0.834991    0.460362
      2         17           0       -0.993288    1.532997   -0.682534
      3          8           0        0.277220   -1.678178   -0.719199
      4          7           0       -0.722342    0.149580    0.402406
      5          7           0        1.607764   -0.059256    0.184479
      6          6           0        0.425703   -0.637266   -0.128512
      7          6           0        2.825179   -0.632336   -0.375066
      8          6           0        1.787743    1.109351    1.035518
      9          1           0        3.457133   -1.029550    0.422266
     10          1           0        2.565217   -1.434482   -1.056315
     11          1           0        3.383450    0.138196   -0.910345
     12          1           0        2.037010    1.992083    0.442264
     13          1           0        2.608475    0.914416    1.727449
     14          1           0        0.888095    1.307890    1.605352
 ---------------------------------------------------------------------

 SCF Done:  E(RHF) =  -1221.68159570     A.U. after    2 cycles

 The electronic state is 1-A.
 Alpha  occ. eigenvalues --  -99.93802 -99.92608 -21.04743 -15.84158 -15.76980
 Alpha  occ. eigenvalues --  -11.52909 -11.41730 -11.40732 -10.50872 -10.49774
 Alpha  occ. eigenvalues --   -9.70783  -9.70039  -9.69803  -9.69636  -9.68731
 Alpha  occ. eigenvalues --   -9.68605  -1.74718  -1.51919  -1.44476  -1.31424
 Alpha  occ. eigenvalues --   -1.16170  -1.06643  -0.99628  -0.79270  -0.72744
 Alpha  occ. eigenvalues --   -0.70664  -0.67441  -0.65568  -0.61436  -0.59339
 Alpha  occ. eigenvalues --   -0.57325  -0.55592  -0.53970  -0.52482  -0.51761
 Alpha  occ. eigenvalues --   -0.50616  -0.49807  -0.41381  -0.32311  -0.31281
 Alpha virt. eigenvalues --    0.00280   0.03169   0.05017   0.05417   0.05832
 Alpha virt. eigenvalues --    0.06194   0.07143   0.07611   0.08518   0.09606
 Alpha virt. eigenvalues --    0.11213   0.12494   0.13442   0.14127   0.14421

 Mulliken charges:
               1
     1  Cl   0.375836
     2  Cl   0.296757
     3  O   -2.882761
     4  N   -1.481022
     5  N   -2.843991
     6  C    5.058347
     7  C   -3.578861
     8  C   -3.392228
     9  H    1.351022
    10  H    1.367437
    11  H    1.414553
    12  H    1.389441
    13  H    1.494339
    14  H    1.431131
 Sum of Mulliken charges =  -0.00000

 Dipole moment (field-independent basis, Debye):
    X=              3.2688    Y=              0.6708    Z=              0.7885  Tot=              3.4288

 Test job not archived.
 1\1\GINC-SE042\SP\RHF\Aug-CC-pVDZ\C3H6Cl2N2O1\OHZDE\06-Apr-2025\0\\#t
 hf aug-cc-pvdz iop(5/13=1,5/36=2,99/5=2) pseudo=read geom=check guess=
 (read,tcheck) scf=(maxcycle=1)\\title\\0,1\Cl,0,-2.158879,-0.834991,0.
 460362\Cl,0,-0.993288,1.532997,-0.682534\O,0,0.27722,-1.678178,-0.7191
 99\N,0,-0.722342,0.14958,0.402406\N,0,1.607764,-0.059256,0.184479\C,0,
 0.425703,-0.637266,-0.128512\C,0,2.825179,-0.632336,-0.375066\C,0,1.78
 7743,1.109351,1.035518\H,0,3.457133,-1.02955,0.422266\H,0,2.565217,-1.
 434482,-1.056315\H,0,3.38345,0.138196,-0.910345\H,0,2.03701,1.992083,0

 Normal termination of Gaussian 16 at Sun Apr  6 07:34:08 2025.
