 Gaussian 16, Revision C.01,

 ----------------------------------------------------------------------
 #t hf aug-cc-pvdz symm=none int=(grid=ultrafine) guess=(read,tcheck) s
 table=(opt,rrhf)
 ----------------------------------------------------------------------
 -----
 title
 -----
 Symbolic Z-matrix:
 Charge =  0 Multiplicity = 1

 SCF Done:  E(RHF) =  -559.233399239     A.U. after   15 cycles
 Normal termination of Gaussian 16 at Sun Apr  6 07:24:23 2025.
 Gaussian 16:  ES64L-G16RevC.01  3-Jul-2019

 ----------------------------------------------------------------------
 #t hf aug-cc-pvdz iop(5/13=1,5/36=2,99/5=2) pseudo=read geom=check gue
 ss=(read,tcheck) scf=(maxcycle=1)
 ----------------------------------------------------------------------
 -----
 title
 -----
 Structure from the checkpoint file:  "1-1-3-4-oxadiazol-2-yl-3H-imidazol-2-one.chk"
 Charge =  0 Multiplicity = 1

                         Standard orientation:
 ---------------------------------------------------------------------
 Center     Atomic      Atomic             Coordinates (Angstroms)
 Number     Number       Type             X           Y           Z
 ---------------------------------------------------------------------
      1          6           0       -0.749149   -2.765389    0.000000
      2          6           0       -0.579479   -0.671889    0.000000
      3          6           0        0.123559    2.779879    0.000000
      4          6           0       -0.748568    1.763546    0.000000
      5          6           0        1.389116    0.865788    0.000000
      6          7           0       -1.948842   -2.317880    0.000000
      7          7           0       -1.848213   -0.922014    0.000000
      8          7           0        1.407751    2.245729    0.000000
      9          7           0        0.000000    0.571384    0.000000
     10          8           0        2.321679    0.097408    0.000000
     11          8           0        0.193548   -1.775534    0.000000
     12          1           0       -0.403540   -3.783062    0.000000
     13          1           0       -0.057518    3.838204    0.000000
     14          1           0       -1.820876    1.742621    0.000000
     15          1           0        2.272372    2.755109    0.000000
 ---------------------------------------------------------------------

 SCF Done:  E(RHF) =  -561.651304940     A.U. after    2 cycles

 The electronic state is 1-A'.
 Alpha  occ. eigenvalues --  -21.15619 -21.04340 -15.81330 -15.80653 -15.77141
 Alpha  occ. eigenvalues --  -15.75580 -11.53750 -11.53049 -11.49604 -11.46348
 Alpha  occ. eigenvalues --  -11.42553  -1.92385  -1.74115  -1.57230  -1.48713
 Alpha  occ. eigenvalues --   -1.38391  -1.19694  -1.10655  -0.94951  -0.91039
 Alpha  occ. eigenvalues --   -0.85274  -0.78638  -0.74317  -0.70870  -0.70165
 Alpha  occ. eigenvalues --   -0.63904  -0.63524  -0.60795  -0.57295  -0.54276
 Alpha  occ. eigenvalues --   -0.51794  -0.48963  -0.44936  -0.41801  -0.41091
 Alpha  occ. eigenvalues --   -0.40828  -0.35766  -0.31569  -0.25955
 Alpha virt. eigenvalues --    0.02750   0.04871   0.04958   0.05679   0.09244
 Alpha virt. eigenvalues --    0.09617   0.10034   0.10704   0.10865   0.10905
 Alpha virt. eigenvalues --    0.10989   0.12185   0.13293   0.13303   0.14587

 Mulliken charges:
               1
     1  C    0.802771
     2  C    4.899540
     3  C    0.354537
     4  C   -0.465216
     5  C    4.527014
     6  N   -2.022655
     7  N   -1.711131
     8  N   -3.291130
     9  N   -2.036979
    10  O   -3.138274
    11  O   -3.203990
    12  H    1.751507
    13  H    1.252344
    14  H    1.444990
    15  H    0.836673
 Sum of Mulliken charges =   0.00000

 Dipole moment (field-independent basis, Debye):
    X=              2.1912    Y=              2.7016    Z=              0.0000  Tot=              3.4785

 Test job not archived.
 1\1\GINC-SE101\SP\RHF\Aug-CC-pVDZ\C5H4N4O2\OHZDE\06-Apr-2025\0\\#t hf
 aug-cc-pvdz iop(5/13=1,5/36=2,99/5=2) pseudo=read geom=check guess=(re
 ad,tcheck) scf=(maxcycle=1)\\title\\0,1\C,0,-0.749149,-2.765389,0.\C,0
 ,-0.579479,-0.671889,0.\C,0,0.123559,2.779879,0.\C,0,-0.748568,1.76354
 6,0.\C,0,1.389116,0.865788,0.\N,0,-1.948842,-2.31788,0.\N,0,-1.848213,
 -0.922014,0.\N,0,1.407751,2.245729,0.\N,0,0.,0.571384,0.\O,0,2.321679,
 0.097408,0.\O,0,0.193548,-1.775534,0.\H,0,-0.40354,-3.783062,0.\H,0,-0
 .057518,3.838204,0.\H,0,-1.820876,1.742621,0.\H,0,2.272372,2.755109,0.

 Normal termination of Gaussian 16 at Sun Apr  6 07:25:19 2025.
