 Gaussian 16, Revision C.01,

 ----------------------------------------------------------------------
 #t hf aug-cc-pvdz symm=none int=(grid=ultrafine) guess=(read,tcheck) s
 table=(opt,rrhf)
 ----------------------------------------------------------------------
 -----
 title
 -----
 Symbolic Z-matrix:
 Charge =  0 Multiplicity = 1

 SCF Done:  E(RHF) =  -507.425402708     A.U. after   16 cycles
 Normal termination of Gaussian 16 at Sun Apr  6 07:58:19 2025.
 Gaussian 16:  ES64L-G16RevC.01  3-Jul-2019

 ----------------------------------------------------------------------
 #t hf aug-cc-pvdz iop(5/13=1,5/36=2,99/5=2) pseudo=read geom=check gue
 ss=(read,tcheck) scf=(maxcycle=1)
 ----------------------------------------------------------------------
 -----
 title
 -----
 Structure from the checkpoint file:  "1-1H-pyrrol-2-yl-3H-imidazol-2-one.chk"
 Charge =  0 Multiplicity = 1

                         Standard orientation:
 ---------------------------------------------------------------------
 Center     Atomic      Atomic             Coordinates (Angstroms)
 Number     Number       Type             X           Y           Z
 ---------------------------------------------------------------------
      1          6           0        2.000783   -2.375333   -0.000000
      2          6           0        1.952841   -0.953690   -0.000000
      3          6           0        0.709392   -2.839143    0.000000
      4          6           0        0.619213   -0.612080   -0.000000
      5          6           0       -0.282242    2.841230   -0.000000
      6          6           0        0.654875    1.876810   -0.000000
      7          6           0       -1.378739    0.841614    0.000000
      8          7           0       -0.129515   -1.752458    0.000000
      9          7           0       -1.520850    2.212219    0.000000
     10          7           0        0.000000    0.643566   -0.000000
     11          8           0       -2.261036   -0.010039    0.000000
     12          1           0        2.889351   -2.982383   -0.000000
     13          1           0        2.791003   -0.279563   -0.000000
     14          1           0        0.317417   -3.839971    0.000000
     15          1           0       -0.176176    3.909258   -0.000000
     16          1           0        1.724825    1.950503   -0.000000
     17          1           0       -1.139214   -1.728251    0.000000
     18          1           0       -2.423096    2.650993    0.000000
 ---------------------------------------------------------------------

 SCF Done:  E(RHF) =  -509.725403948     A.U. after    2 cycles

 The electronic state is 1-A'.
 Alpha  occ. eigenvalues --  -21.02874 -15.79845 -15.79389 -15.77404 -11.52226
 Alpha  occ. eigenvalues --  -11.49204 -11.48798 -11.43350 -11.41629 -11.39942
 Alpha  occ. eigenvalues --  -11.35086  -1.73317  -1.57049  -1.49750  -1.34345
 Alpha  occ. eigenvalues --   -1.13496  -1.10413  -1.03938  -0.89205  -0.87807
 Alpha  occ. eigenvalues --   -0.80785  -0.78358  -0.73415  -0.69613  -0.66673
 Alpha  occ. eigenvalues --   -0.61943  -0.59580  -0.56941  -0.56854  -0.54796
 Alpha  occ. eigenvalues --   -0.51623  -0.50091  -0.48994  -0.44936  -0.43703
 Alpha  occ. eigenvalues --   -0.32538  -0.31142  -0.29427  -0.23133
 Alpha virt. eigenvalues --    0.03056   0.04692   0.05015   0.05677   0.06086
 Alpha virt. eigenvalues --    0.07266   0.08288   0.09702   0.10070   0.10846
 Alpha virt. eigenvalues --    0.11268   0.11665   0.11953   0.13283   0.13706

 Mulliken charges:
               1
     1  C   -0.798781
     2  C   -2.627557
     3  C   -1.124846
     4  C    5.265435
     5  C   -0.060629
     6  C   -0.792873
     7  C    4.837047
     8  N   -3.974205
     9  N   -3.358307
    10  N   -3.040228
    11  O   -3.256057
    12  H    1.395730
    13  H    1.556793
    14  H    1.391945
    15  H    1.210923
    16  H    1.618467
    17  H    0.909582
    18  H    0.847564
 Sum of Mulliken charges =   0.00000

 Dipole moment (field-independent basis, Debye):
    X=             -0.4538    Y=              2.7699    Z=             -0.0000  Tot=              2.8068

 Test job not archived.
 1\1\GINC-SE041\SP\RHF\Aug-CC-pVDZ\C7H7N3O1\OHZDE\06-Apr-2025\0\\#t hf
 aug-cc-pvdz iop(5/13=1,5/36=2,99/5=2) pseudo=read geom=check guess=(re
 ad,tcheck) scf=(maxcycle=1)\\title\\0,1\C,0,2.000783,-2.375333,0.\C,0,
 1.952841,-0.95369,0.\C,0,0.709392,-2.839143,0.\C,0,0.619213,-0.61208,0
 .\C,0,-0.282242,2.84123,0.\C,0,0.654875,1.87681,0.\C,0,-1.378739,0.841
 614,0.\N,0,-0.129515,-1.752458,0.\N,0,-1.52085,2.212219,0.\N,0,0.,0.64
 3566,0.\O,0,-2.261036,-0.010039,0.\H,0,2.889351,-2.982383,0.\H,0,2.791
 003,-0.279563,0.\H,0,0.317417,-3.839971,0.\H,0,-0.176176,3.909258,0.\H

 Normal termination of Gaussian 16 at Sun Apr  6 07:58:31 2025.
