 Gaussian 16, Revision C.01,

 ----------------------------------------------------------------------
 #t hf aug-cc-pvdz symm=none int=(grid=ultrafine) guess=(read,tcheck) s
 table=(opt,rrhf)
 ----------------------------------------------------------------------
 -----
 title
 -----
 Symbolic Z-matrix:
 Charge =  0 Multiplicity = 1

 SCF Done:  E(RHF) =  -276.569142688     A.U. after   15 cycles
 Normal termination of Gaussian 16 at Sun Apr  6 07:56:53 2025.
 Gaussian 16:  ES64L-G16RevC.01  3-Jul-2019

 ----------------------------------------------------------------------
 #t hf aug-cc-pvdz iop(5/13=1,5/36=2,99/5=2) pseudo=read geom=check gue
 ss=(read,tcheck) scf=(maxcycle=1)
 ----------------------------------------------------------------------
 -----
 title
 -----
 Structure from the checkpoint file:  "1-2-3-5-oxatriazole.chk"
 Charge =  0 Multiplicity = 1

                         Standard orientation:
 ---------------------------------------------------------------------
 Center     Atomic      Atomic             Coordinates (Angstroms)
 Number     Number       Type             X           Y           Z
 ---------------------------------------------------------------------
      1          8           0       -0.672368   -0.891320   -0.000000
      2          7           0        0.733709   -0.902550    0.000000
      3          7           0        1.120509    0.284725    0.000000
      4          6           0       -0.000000    1.089677   -0.000000
      5          7           0       -1.090635    0.393352   -0.000000
      6          1           0        0.033864    2.163813   -0.000000
 ---------------------------------------------------------------------

 SCF Done:  E(RHF) =  -277.746332929     A.U. after    2 cycles

 The electronic state is 1-A'.
 Alpha  occ. eigenvalues --  -21.17780 -15.88224 -15.83856 -15.82900 -11.46420
 Alpha  occ. eigenvalues --   -2.00449  -1.51754  -1.34289  -0.95111  -0.88380
 Alpha  occ. eigenvalues --   -0.76495  -0.69529  -0.58165  -0.52349  -0.46354
 Alpha  occ. eigenvalues --   -0.45944  -0.41924  -0.39659
 Alpha virt. eigenvalues --    0.03571   0.09380   0.09667   0.09717   0.12130
 Alpha virt. eigenvalues --    0.13438   0.13992   0.15004   0.16796   0.17820
 Alpha virt. eigenvalues --    0.18390   0.19759   0.20472   0.20527   0.23759

 Mulliken charges:
               1
     1  O   -2.356938
     2  N    0.400141
     3  N   -0.687112
     4  C    1.360880
     5  N   -0.281023
     6  H    1.564052
 Sum of Mulliken charges =  -0.00000

 Dipole moment (field-independent basis, Debye):
    X=             -0.7659    Y=              1.1771    Z=             -0.0000  Tot=              1.4043

 Test job not archived.
 1\1\GINC-SE044\SP\RHF\Aug-CC-pVDZ\C1H1N3O1\OHZDE\06-Apr-2025\0\\#t hf
 aug-cc-pvdz iop(5/13=1,5/36=2,99/5=2) pseudo=read geom=check guess=(re
 ad,tcheck) scf=(maxcycle=1)\\title\\0,1\O,0,-0.672368,-0.89132,0.\N,0,
 0.733709,-0.90255,0.\N,0,1.120509,0.284725,0.\C,0,0.,1.089677,0.\N,0,-
 1.090635,0.393352,0.\H,0,0.033864,2.163813,0.\\Version=ES64L-G16RevC.0
 1\State=1-A'\HF=-277.7463329\RMSD=8.877e-02\Dipole=-0.3013259,0.463094
 ,0.\Quadrupole=-3.0472883,2.4167362,0.6305522,0.8740762,0.,0.\PG=CS [S
 G(C1H1N3O1)]\\@

 Normal termination of Gaussian 16 at Sun Apr  6 07:56:56 2025.
