 Gaussian 16, Revision C.01,

 ----------------------------------------------------------------------
 #t hf aug-cc-pvdz symm=none int=(grid=ultrafine) guess=(read,tcheck) s
 table=(opt,rrhf)
 ----------------------------------------------------------------------
 -----
 title
 -----
 Symbolic Z-matrix:
 Charge =  0 Multiplicity = 1

 SCF Done:  E(RHF) =  -642.111555783     A.U. after   16 cycles
 Normal termination of Gaussian 16 at Sun Apr  6 07:57:23 2025.
 Gaussian 16:  ES64L-G16RevC.01  3-Jul-2019

 ----------------------------------------------------------------------
 #t hf aug-cc-pvdz iop(5/13=1,5/36=2,99/5=2) pseudo=read geom=check gue
 ss=(read,tcheck) scf=(maxcycle=1)
 ----------------------------------------------------------------------
 -----
 title
 -----
 Structure from the checkpoint file:  "1-2-thiazole-1-oxide.chk"
 Charge =  0 Multiplicity = 1

                         Standard orientation:
 ---------------------------------------------------------------------
 Center     Atomic      Atomic             Coordinates (Angstroms)
 Number     Number       Type             X           Y           Z
 ---------------------------------------------------------------------
      1          6           0       -1.612388    0.682359    0.140260
      2          6           0       -1.488887   -0.779323    0.122520
      3          6           0       -0.420753    1.265282   -0.005680
      4          7           0       -0.318061   -1.288315   -0.012961
      5          8           0        1.964766    0.007832    0.533864
      6         16           0        0.794812   -0.007586   -0.382382
      7          1           0       -2.559721    1.190971    0.248025
      8          1           0       -2.350133   -1.435001    0.211100
      9          1           0       -0.166681    2.311049   -0.063797
 ---------------------------------------------------------------------

 SCF Done:  E(RHF) =  -643.444137991     A.U. after    2 cycles

 The electronic state is 1-A.
 Alpha  occ. eigenvalues --  -75.81857 -21.02635 -15.77479 -13.37916 -13.23573
 Alpha  occ. eigenvalues --  -13.20347 -11.50133 -11.47665 -11.42920  -8.16265
 Alpha  occ. eigenvalues --   -1.71339  -1.46079  -1.18600  -1.07745  -0.85674
 Alpha  occ. eigenvalues --   -0.82216  -0.74478  -0.59372  -0.57721  -0.56242
 Alpha  occ. eigenvalues --   -0.49713  -0.43689  -0.40382  -0.38987  -0.34723
 Alpha  occ. eigenvalues --   -0.27012
 Alpha virt. eigenvalues --    0.02110   0.04208   0.04675   0.04961   0.08400
 Alpha virt. eigenvalues --    0.09715   0.10551   0.11458   0.12009   0.12741
 Alpha virt. eigenvalues --    0.13515   0.13927   0.14640   0.15252   0.15485

 Mulliken charges:
               1
     1  C   -0.511642
     2  C   -0.166124
     3  C   -2.262953
     4  N   -3.043818
     5  O   -2.365920
     6  S    4.243481
     7  H    1.339364
     8  H    1.510155
     9  H    1.257457
 Sum of Mulliken charges =   0.00000

 Dipole moment (field-independent basis, Debye):
    X=             -2.3923    Y=              1.6345    Z=             -0.8677  Tot=              3.0245

 Test job not archived.
 1\1\GINC-SE249\SP\RHF\Aug-CC-pVDZ\C3H3N1O1S1\OHZDE\06-Apr-2025\0\\#t h
 f aug-cc-pvdz iop(5/13=1,5/36=2,99/5=2) pseudo=read geom=check guess=(
 read,tcheck) scf=(maxcycle=1)\\title\\0,1\C,0,-1.612388,0.682359,0.140
 26\C,0,-1.488887,-0.779323,0.12252\C,0,-0.420753,1.265282,-0.00568\N,0
 ,-0.318061,-1.288315,-0.012961\O,0,1.964766,0.007831,0.533864\S,0,0.79
 4812,-0.007586,-0.382382\H,0,-2.559721,1.190971,0.248025\H,0,-2.350133
 ,-1.435001,0.2111\H,0,-0.166681,2.311049,-0.063797\\Version=ES64L-G16R
 evC.01\State=1-A\HF=-643.444138\RMSD=7.811e-01\Dipole=-0.9412,0.643081

 Normal termination of Gaussian 16 at Sun Apr  6 07:57:33 2025.
