 Gaussian 16, Revision C.01,

 ----------------------------------------------------------------------
 #t hf aug-cc-pvdz symm=none int=(grid=ultrafine) guess=(read,tcheck) s
 table=(opt,rrhf)
 ----------------------------------------------------------------------
 -----
 title
 -----
 Symbolic Z-matrix:
 Charge =  0 Multiplicity = 1

 SCF Done:  E(RHF) =  -505.466420921     A.U. after   13 cycles
 Normal termination of Gaussian 16 at Sun Apr  6 07:57:39 2025.
 Gaussian 16:  ES64L-G16RevC.01  3-Jul-2019

 ----------------------------------------------------------------------
 #t hf aug-cc-pvdz iop(5/13=1,5/36=2,99/5=2) pseudo=read geom=check gue
 ss=(read,tcheck) scf=(maxcycle=1)
 ----------------------------------------------------------------------
 -----
 title
 -----
 Structure from the checkpoint file:  "1-2-3-triazine-1-3-52H-4H-triol.chk"
 Charge =  0 Multiplicity = 1

                         Standard orientation:
 ---------------------------------------------------------------------
 Center     Atomic      Atomic             Coordinates (Angstroms)
 Number     Number       Type             X           Y           Z
 ---------------------------------------------------------------------
      1          8           0        0.569866    2.594177    0.155646
      2          8           0       -2.539724   -0.757188    0.081104
      3          8           0        2.008162   -1.846814    0.105094
      4          7           0        0.242250    1.348825   -0.423189
      5          7           0       -1.244556   -0.381909   -0.375129
      6          7           0       -0.961122    0.888967    0.212235
      7          6           0        1.064962   -0.864266    0.012715
      8          6           0        1.310784    0.421168   -0.255557
      9          6           0       -0.329933   -1.403054    0.142311
     10          1           0        0.854266    2.424315    1.072480
     11          1           0       -3.127778   -0.379899   -0.584305
     12          1           0        2.891391   -1.470121    0.025779
     13          1           0       -0.747835    0.743908    1.215313
     14          1           0        2.292038    0.814417   -0.479160
     15          1           0       -0.568579   -1.662973    1.182597
     16          1           0       -0.430809   -2.305324   -0.461686
 ---------------------------------------------------------------------

 SCF Done:  E(RHF) =  -507.673863362     A.U. after    2 cycles

 The electronic state is 1-A.
 Alpha  occ. eigenvalues --  -21.12058 -21.10459 -21.10061 -15.79418 -15.78951
 Alpha  occ. eigenvalues --  -15.77393 -11.50733 -11.44308 -11.40507  -1.82663
 Alpha  occ. eigenvalues --   -1.79637  -1.76576  -1.48704  -1.23821  -1.20338
 Alpha  occ. eigenvalues --   -0.97011  -0.96154  -0.80904  -0.71983  -0.69086
 Alpha  occ. eigenvalues --   -0.68373  -0.65760  -0.62710  -0.58253  -0.56754
 Alpha  occ. eigenvalues --   -0.51139  -0.49910  -0.48498  -0.45876  -0.41810
 Alpha  occ. eigenvalues --   -0.39243  -0.35480  -0.34900  -0.31156  -0.27243
 Alpha virt. eigenvalues --    0.03425   0.05070   0.05686   0.06112   0.06216
 Alpha virt. eigenvalues --    0.06523   0.07833   0.09875   0.10812   0.13144
 Alpha virt. eigenvalues --    0.13562   0.13820   0.14182   0.15237   0.15656

 Mulliken charges:
               1
     1  O   -2.516059
     2  O   -2.417799
     3  O   -4.047379
     4  N    0.203517
     5  N    0.777578
     6  N   -0.723040
     7  C    5.462782
     8  C   -1.572239
     9  C   -2.656803
    10  H    0.747235
    11  H    0.753315
    12  H    0.925570
    13  H    0.709985
    14  H    1.601324
    15  H    1.383025
    16  H    1.368989
 Sum of Mulliken charges =   0.00000

 Dipole moment (field-independent basis, Debye):
    X=              1.1258    Y=             -1.3318    Z=              0.9417  Tot=              1.9819

 Test job not archived.
 1\1\GINC-SE200\SP\RHF\Aug-CC-pVDZ\C3H7N3O3\OHZDE\06-Apr-2025\0\\#t hf
 aug-cc-pvdz iop(5/13=1,5/36=2,99/5=2) pseudo=read geom=check guess=(re
 ad,tcheck) scf=(maxcycle=1)\\title\\0,1\O,0,0.569873,2.594176,0.155646
 \O,0,-2.539726,-0.757181,0.081104\O,0,2.008157,-1.846819,0.105094\N,0,
 0.242253,1.348825,-0.423189\N,0,-1.244557,-0.381906,-0.375129\N,0,-0.9
 6112,0.88897,0.212235\C,0,1.06496,-0.864269,0.012715\C,0,1.310785,0.42
 1165,-0.255557\C,0,-0.329937,-1.403053,0.142311\H,0,0.854272,2.424313,
 1.07248\H,0,-3.127779,-0.379891,-0.584305\H,0,2.891387,-1.470128,0.025

 Normal termination of Gaussian 16 at Sun Apr  6 07:57:48 2025.
