 Gaussian 16, Revision C.01,

 ----------------------------------------------------------------------
 #t hf aug-cc-pvdz symm=none int=(grid=ultrafine) guess=(read,tcheck) s
 table=(opt,rrhf)
 ----------------------------------------------------------------------
 -----
 title
 -----
 Symbolic Z-matrix:
 Charge =  0 Multiplicity = 1

 SCF Done:  E(RHF) =  -267.386097044     A.U. after   12 cycles

 1\1\GINC-SE047\Stability\RHF\Aug-CC-pVDZ\C4H12N2\OHZDE\06-Apr-2025\0\\
 #t hf aug-cc-pvdz symm=none int=(grid=ultrafine) guess=(read,tcheck) s
 table=(opt,rrhf)\\title\\0,1\N,0,1.990811,-0.622856,-0.62942\H,0,1.931
 431,0.145537,-1.286847\H,0,2.964238,-0.880555,-0.536839\C,0,-2.421072,
 -0.350244,-0.096681\H,0,-3.045807,-1.165912,-0.462671\H,0,-2.766459,-0
 .095407,0.908123\H,0,-2.614499,0.507889,-0.743569\N,0,0.014105,1.50679
 8,-0.32852\H,0,0.497986,2.259825,0.14627\H,0,-0.921393,1.837328,-0.524
 861\C,0,-0.946476,-0.754688,-0.096316\H,0,-0.829081,-1.675676,0.479986

 Normal termination of Gaussian 16 at Sun Apr  6 07:57:51 2025.
 Gaussian 16:  ES64L-G16RevC.01  3-Jul-2019

 ----------------------------------------------------------------------
 #t hf aug-cc-pvdz iop(5/13=1,5/36=2,99/5=2) pseudo=read geom=check gue
 ss=(read,tcheck) scf=(maxcycle=1)
 ----------------------------------------------------------------------
 -----
 title
 -----
 Structure from the checkpoint file:  "1-2-butanediamine.chk"
 Charge =  0 Multiplicity = 1

                         Standard orientation:
 ---------------------------------------------------------------------
 Center     Atomic      Atomic             Coordinates (Angstroms)
 Number     Number       Type             X           Y           Z
 ---------------------------------------------------------------------
      1          7           0        1.990811   -0.622856   -0.629420
      2          1           0        1.931431    0.145537   -1.286847
      3          1           0        2.964238   -0.880555   -0.536839
      4          6           0       -2.421072   -0.350244   -0.096681
      5          1           0       -3.045807   -1.165912   -0.462671
      6          1           0       -2.766459   -0.095407    0.908123
      7          1           0       -2.614499    0.507889   -0.743569
      8          7           0        0.014105    1.506798   -0.328520
      9          1           0        0.497986    2.259825    0.146270
     10          1           0       -0.921393    1.837328   -0.524861
     11          6           0       -0.946476   -0.754688   -0.096316
     12          1           0       -0.829081   -1.675676    0.479986
     13          1           0       -0.616481   -0.980777   -1.110214
     14          6           0        1.427116   -0.214502    0.656216
     15          1           0        2.012213    0.572109    1.158562
     16          1           0        1.424096   -1.077830    1.325625
     17          6           0       -0.009887    0.295010    0.507813
     18          1           0       -0.368749    0.512414    1.525817
 ---------------------------------------------------------------------

 SCF Done:  E(RHF) =  -268.735312467     A.U. after    2 cycles

 The electronic state is 1-A.
 Alpha  occ. eigenvalues --  -15.72230 -15.71264 -11.43334 -11.41384 -11.37720
 Alpha  occ. eigenvalues --  -11.34365  -1.38376  -1.27237  -1.14521  -1.01497
 Alpha  occ. eigenvalues --   -0.89829  -0.79608  -0.68252  -0.66358  -0.61303
 Alpha  occ. eigenvalues --   -0.59488  -0.56532  -0.55416  -0.51290  -0.49133
 Alpha  occ. eigenvalues --   -0.46576  -0.43857  -0.41616  -0.35138  -0.33403
 Alpha virt. eigenvalues --    0.04173   0.05131   0.05399   0.05555   0.05919
 Alpha virt. eigenvalues --    0.05969   0.06453   0.07202   0.07801   0.08786
 Alpha virt. eigenvalues --    0.09193   0.09575   0.12716   0.13824   0.14194

 Mulliken charges:
               1
     1  N   -2.306753
     2  H    0.634647
     3  H    0.578692
     4  C   -3.901922
     5  H    1.094480
     6  H    1.255407
     7  H    1.350761
     8  N   -2.833321
     9  H    0.542799
    10  H    0.640106
    11  C   -2.806360
    12  H    1.420817
    13  H    1.530471
    14  C   -1.767010
    15  H    1.293461
    16  H    1.415243
    17  C    0.143493
    18  H    1.714988
 Sum of Mulliken charges =  -0.00000

 Dipole moment (field-independent basis, Debye):
    X=              0.0949    Y=              0.9693    Z=              0.8807  Tot=              1.3131

 Test job not archived.
 1\1\GINC-SE047\SP\RHF\Aug-CC-pVDZ\C4H12N2\OHZDE\06-Apr-2025\0\\#t hf a
 ug-cc-pvdz iop(5/13=1,5/36=2,99/5=2) pseudo=read geom=check guess=(rea
 d,tcheck) scf=(maxcycle=1)\\title\\0,1\N,0,1.990811,-0.622856,-0.62942
 \H,0,1.931431,0.145537,-1.286847\H,0,2.964238,-0.880555,-0.536839\C,0,
 -2.421072,-0.350244,-0.096681\H,0,-3.045807,-1.165912,-0.462671\H,0,-2
 .766459,-0.095407,0.908123\H,0,-2.614499,0.507889,-0.743569\N,0,0.0141
 05,1.506798,-0.32852\H,0,0.497986,2.259825,0.14627\H,0,-0.921393,1.837
 328,-0.524861\C,0,-0.946476,-0.754688,-0.096316\H,0,-0.829081,-1.67567

 Normal termination of Gaussian 16 at Sun Apr  6 07:57:58 2025.
