 Gaussian 16, Revision C.01,

 ----------------------------------------------------------------------
 #t hf aug-cc-pvdz symm=none int=(grid=ultrafine) guess=(read,tcheck) s
 table=(opt,rrhf)
 ----------------------------------------------------------------------
 -----
 title
 -----
 Symbolic Z-matrix:
 Charge =  0 Multiplicity = 1

 SCF Done:  E(RHF) =  -385.726069225     A.U. after   15 cycles
 Normal termination of Gaussian 16 at Sun Apr  6 07:58:52 2025.
 Gaussian 16:  ES64L-G16RevC.01  3-Jul-2019

 ----------------------------------------------------------------------
 #t hf aug-cc-pvdz iop(5/13=1,5/36=2,99/5=2) pseudo=read geom=check gue
 ss=(read,tcheck) scf=(maxcycle=1)
 ----------------------------------------------------------------------
 -----
 title
 -----
 Structure from the checkpoint file:  "1-2-3-4-tetrahydronaphthalene.chk"
 Charge =  0 Multiplicity = 1

                         Standard orientation:
 ---------------------------------------------------------------------
 Center     Atomic      Atomic             Coordinates (Angstroms)
 Number     Number       Type             X           Y           Z
 ---------------------------------------------------------------------
      1          6           0        0.001554    0.695598    2.566237
      2          6           0       -0.001554   -0.695598    2.566237
      3          6           0        0.001554    1.377725    1.359666
      4          6           0       -0.001554   -1.377725    1.359666
      5          6           0       -0.000611    0.700261    0.137630
      6          6           0        0.000611   -0.700261    0.137630
      7          6           0       -0.033424    1.492200   -1.154152
      8          6           0        0.033424   -1.492200   -1.154152
      9          6           0        0.363799    0.671723   -2.381520
     10          6           0       -0.363799   -0.671723   -2.381520
     11          1           0        0.004381    1.242851    3.499649
     12          1           0       -0.004381   -1.242851    3.499649
     13          1           0        0.004118    2.461556    1.357812
     14          1           0       -0.004118   -2.461556    1.357812
     15          1           0       -1.048027    1.879885   -1.300277
     16          1           0        0.609583    2.369836   -1.057795
     17          1           0        1.048027   -1.879885   -1.300277
     18          1           0       -0.609583   -2.369836   -1.057795
     19          1           0        0.142317    1.233423   -3.290989
     20          1           0        1.444186    0.496649   -2.375566
     21          1           0       -0.142317   -1.233423   -3.290989
     22          1           0       -1.444186   -0.496649   -2.375566
 ---------------------------------------------------------------------

 SCF Done:  E(RHF) =  -387.635981669     A.U. after    2 cycles

 The electronic state is 1-A.
 Alpha  occ. eigenvalues --  -11.50602 -11.44683 -11.43508 -11.42953 -11.41203
 Alpha  occ. eigenvalues --  -11.40365 -11.39809 -11.39335 -11.36191 -11.34367
 Alpha  occ. eigenvalues --   -1.37880  -1.22863  -1.13829  -1.07760  -1.03799
 Alpha  occ. eigenvalues --   -0.91268  -0.86702  -0.84588  -0.77442  -0.68565
 Alpha  occ. eigenvalues --   -0.64852  -0.63627  -0.61214  -0.59349  -0.55132
 Alpha  occ. eigenvalues --   -0.54936  -0.53296  -0.50164  -0.50158  -0.46271
 Alpha  occ. eigenvalues --   -0.45554  -0.44575  -0.39787  -0.38361  -0.31475
 Alpha  occ. eigenvalues --   -0.30485
 Alpha virt. eigenvalues --    0.03804   0.04711   0.05023   0.05340   0.05629
 Alpha virt. eigenvalues --    0.05878   0.06496   0.06664   0.06754   0.07361
 Alpha virt. eigenvalues --    0.08176   0.09298   0.10840   0.11905   0.12315

 Mulliken charges:
               1
     1  C   -3.397854
     2  C   -3.397854
     3  C   -2.222643
     4  C   -2.222643
     5  C    5.739055
     6  C    5.739055
     7  C   -4.590430
     8  C   -4.590430
     9  C   -3.610208
    10  C   -3.610208
    11  H    1.535485
    12  H    1.535485
    13  H    1.842202
    14  H    1.842202
    15  H    1.032405
    16  H    0.999553
    17  H    1.032405
    18  H    0.999553
    19  H    1.222717
    20  H    1.449716
    21  H    1.222717
    22  H    1.449716
 Sum of Mulliken charges =   0.00000

 Dipole moment (field-independent basis, Debye):
    X=              0.0000    Y=              0.0000    Z=             -0.6253  Tot=              0.6253

 Test job not archived.
 1\1\GINC-SE042\SP\RHF\Aug-CC-pVDZ\C10H12\OHZDE\06-Apr-2025\0\\#t hf au
 g-cc-pvdz iop(5/13=1,5/36=2,99/5=2) pseudo=read geom=check guess=(read
 ,tcheck) scf=(maxcycle=1)\\title\\0,1\C,0,0.001554,0.695598,2.566237\C
 ,0,-0.001554,-0.695598,2.566237\C,0,0.001554,1.377725,1.359666\C,0,-0.
 001554,-1.377725,1.359666\C,0,-0.000611,0.700261,0.13763\C,0,0.000611,
 -0.700261,0.13763\C,0,-0.033424,1.4922,-1.154152\C,0,0.033424,-1.4922,
 -1.154152\C,0,0.363799,0.671723,-2.38152\C,0,-0.363799,-0.671723,-2.38
 152\H,0,0.004381,1.242851,3.499649\H,0,-0.004381,-1.242851,3.499649\H,

 Normal termination of Gaussian 16 at Sun Apr  6 07:59:02 2025.
