 Gaussian 16, Revision C.01,

 ----------------------------------------------------------------------
 #t hf aug-cc-pvdz symm=none int=(grid=ultrafine) guess=(read,tcheck) s
 table=(opt,rrhf)
 ----------------------------------------------------------------------
 -----
 title
 -----
 Symbolic Z-matrix:
 Charge =  0 Multiplicity = 1

 SCF Done:  E(RHF) =  -294.609744829     A.U. after   13 cycles
 Normal termination of Gaussian 16 at Sun Apr  6 07:56:48 2025.
 Gaussian 16:  ES64L-G16RevC.01  3-Jul-2019

 ----------------------------------------------------------------------
 #t hf aug-cc-pvdz iop(5/13=1,5/36=2,99/5=2) pseudo=read geom=check gue
 ss=(read,tcheck) scf=(maxcycle=1)
 ----------------------------------------------------------------------
 -----
 title
 -----
 Structure from the checkpoint file:  "1-2-3-4-tetrazine.chk"
 Charge =  0 Multiplicity = 1

                         Standard orientation:
 ---------------------------------------------------------------------
 Center     Atomic      Atomic             Coordinates (Angstroms)
 Number     Number       Type             X           Y           Z
 ---------------------------------------------------------------------
      1          7           0        0.000000    1.355099   -0.047558
      2          7           0        0.000000    0.655407   -1.178699
      3          7           0       -0.000000   -0.655407   -1.178699
      4          7           0       -0.000000   -1.355099   -0.047558
      5          6           0        0.000000   -0.693285    1.096489
      6          6           0        0.000000    0.693285    1.096489
      7          1           0        0.000000   -1.283068    2.004868
      8          1           0        0.000000    1.283068    2.004868
 ---------------------------------------------------------------------

 SCF Done:  E(RHF) =  -295.913410267     A.U. after    2 cycles

 The electronic state is 1-A1.
 Alpha  occ. eigenvalues --  -15.83373 -15.82863 -15.81911 -15.81673 -11.51456
 Alpha  occ. eigenvalues --  -11.45504  -1.68997  -1.44290  -1.32260  -1.01339
 Alpha  occ. eigenvalues --   -1.01233  -0.76713  -0.71941  -0.67774  -0.65200
 Alpha  occ. eigenvalues --   -0.56420  -0.50575  -0.46286  -0.43224  -0.40399
 Alpha  occ. eigenvalues --   -0.36401
 Alpha virt. eigenvalues --    0.02586   0.04671   0.06898   0.07355   0.09237
 Alpha virt. eigenvalues --    0.11041   0.11180   0.12567   0.12689   0.13752
 Alpha virt. eigenvalues --    0.14241   0.15390   0.16705   0.18910   0.19595

 Mulliken charges:
               1
     1  N   -1.944140
     2  N   -0.113048
     3  N   -0.113048
     4  N   -1.944140
     5  C    0.614018
     6  C    0.614018
     7  H    1.443170
     8  H    1.443170
 Sum of Mulliken charges =   0.00000

 Dipole moment (field-independent basis, Debye):
    X=              0.0000    Y=              0.0000    Z=              3.9358  Tot=              3.9358

 Test job not archived.
 1\1\GINC-SE038\SP\RHF\Aug-CC-pVDZ\C2H2N4\OHZDE\06-Apr-2025\0\\#t hf au
 g-cc-pvdz iop(5/13=1,5/36=2,99/5=2) pseudo=read geom=check guess=(read
 ,tcheck) scf=(maxcycle=1)\\title\\0,1\N,0,0.,1.355099,-0.047558\N,0,0.
 ,0.655407,-1.178699\N,0,0.,-0.655407,-1.178699\N,0,0.,-1.355099,-0.047
 558\C,0,0.,-0.693285,1.096489\C,0,0.,0.693285,1.096489\H,0,0.,-1.28306
 8,2.004868\H,0,0.,1.283068,2.004868\\Version=ES64L-G16RevC.01\State=1-
 A1\HF=-295.9134103\RMSD=5.471e-01\Dipole=0.,0.,1.548466\Quadrupole=1.1
 826718,-2.9415142,1.7588424,0.,0.,0.\PG=C02V [SGV(C2H2N4)]\\@

 Normal termination of Gaussian 16 at Sun Apr  6 07:56:51 2025.
