 Gaussian 16, Revision C.01,

 ----------------------------------------------------------------------
 #t hf aug-cc-pvdz symm=none int=(grid=ultrafine) guess=(read,tcheck) s
 table=(opt,rrhf)
 ----------------------------------------------------------------------
 -----
 title
 -----
 Symbolic Z-matrix:
 Charge =  0 Multiplicity = 1

 SCF Done:  E(RHF) =  -529.611007207     A.U. after   17 cycles
 Normal termination of Gaussian 16 at Sun Apr  6 07:58:07 2025.
 Gaussian 16:  ES64L-G16RevC.01  3-Jul-2019

 ----------------------------------------------------------------------
 #t hf aug-cc-pvdz iop(5/13=1,5/36=2,99/5=2) pseudo=read geom=check gue
 ss=(read,tcheck) scf=(maxcycle=1)
 ----------------------------------------------------------------------
 -----
 title
 -----
 Structure from the checkpoint file:  "1-2-fluoroethyl-1-nitrosourea.chk"
 Charge =  0 Multiplicity = 1

                         Standard orientation:
 ---------------------------------------------------------------------
 Center     Atomic      Atomic             Coordinates (Angstroms)
 Number     Number       Type             X           Y           Z
 ---------------------------------------------------------------------
      1          9           0        2.238616   -0.469672   -1.083891
      2          8           0       -0.514809   -2.003549    0.451487
      3          8           0       -1.632764    1.813980   -0.275594
      4          7           0       -0.198773    0.275717    0.380007
      5          7           0       -0.548484    1.562718    0.217650
      6          7           0       -2.134520   -0.747839   -0.527734
      7          6           0       -0.963461   -0.934369    0.104720
      8          6           0        1.144957    0.122000    0.957118
      9          6           0        2.245900    0.443632   -0.031865
     10          1           0       -2.462917    0.183522   -0.731508
     11          1           0       -2.687718   -1.568038   -0.704569
     12          1           0        1.225249   -0.904699    1.298472
     13          1           0        1.231055    0.793777    1.810409
     14          1           0        2.119544    1.439137   -0.458411
     15          1           0        3.215888    0.378152    0.464183
 ---------------------------------------------------------------------

 SCF Done:  E(RHF) =  -531.843768413     A.U. after    2 cycles

 The electronic state is 1-A.
 Alpha  occ. eigenvalues --  -29.25812 -21.11498 -21.04478 -15.91517 -15.81072
 Alpha  occ. eigenvalues --  -15.79133 -11.54259 -11.48993 -11.42467  -1.89445
 Alpha  occ. eigenvalues --   -1.74395  -1.49160  -1.36646  -1.21978  -1.03782
 Alpha  occ. eigenvalues --   -0.98169  -0.80712  -0.74924  -0.72583  -0.69853
 Alpha  occ. eigenvalues --   -0.67700  -0.66484  -0.61553  -0.58231  -0.55611
 Alpha  occ. eigenvalues --   -0.54540  -0.52986  -0.50993  -0.38823  -0.35927
 Alpha  occ. eigenvalues --   -0.33916  -0.32748  -0.29930  -0.25981  -0.25186
 Alpha virt. eigenvalues --    0.03865   0.04887   0.05615   0.06009   0.06814
 Alpha virt. eigenvalues --    0.07247   0.10150   0.11207   0.11743   0.12386
 Alpha virt. eigenvalues --    0.12671   0.13168   0.14393   0.14695   0.15628

 Mulliken charges:
               1
     1  F    0.206953
     2  O   -2.851978
     3  O   -2.311790
     4  N   -0.600493
     5  N    1.048190
     6  N   -2.819464
     7  C    5.454230
     8  C   -3.107914
     9  C   -2.377287
    10  H    0.860744
    11  H    0.611832
    12  H    1.605638
    13  H    1.431348
    14  H    1.550016
    15  H    1.299974
 Sum of Mulliken charges =  -0.00000

 Dipole moment (field-independent basis, Debye):
    X=             -0.5733    Y=             -0.9168    Z=             -1.2861  Tot=              1.6802

 Test job not archived.
 1\1\GINC-SE010\SP\RHF\Aug-CC-pVDZ\C3H6F1N3O2\OHZDE\06-Apr-2025\0\\#t h
 f aug-cc-pvdz iop(5/13=1,5/36=2,99/5=2) pseudo=read geom=check guess=(
 read,tcheck) scf=(maxcycle=1)\\title\\0,1\F,0,2.238616,-0.469672,-1.08
 3891\O,0,-0.514809,-2.003549,0.451487\O,0,-1.632764,1.81398,-0.275594\
 N,0,-0.198773,0.275717,0.380007\N,0,-0.548484,1.562718,0.21765\N,0,-2.
 13452,-0.747839,-0.527734\C,0,-0.963461,-0.934369,0.10472\C,0,1.144957
 ,0.122,0.957118\C,0,2.2459,0.443632,-0.031865\H,0,-2.462917,0.183522,-
 0.731508\H,0,-2.687718,-1.568038,-0.704569\H,0,1.225249,-0.904699,1.29

 Normal termination of Gaussian 16 at Sun Apr  6 07:58:13 2025.
