 Gaussian 16, Revision C.01,

 ----------------------------------------------------------------------
 #t hf aug-cc-pvdz symm=none int=(grid=ultrafine) guess=(read,tcheck) s
 table=(opt,rrhf)
 ----------------------------------------------------------------------
 -----
 title
 -----
 Symbolic Z-matrix:
 Charge =  0 Multiplicity = 1

 SCF Done:  E(RHF) =  -278.649069003     A.U. after   13 cycles
 Normal termination of Gaussian 16 at Sun Apr  6 07:56:53 2025.
 Gaussian 16:  ES64L-G16RevC.01  3-Jul-2019

 ----------------------------------------------------------------------
 #t hf aug-cc-pvdz iop(5/13=1,5/36=2,99/5=2) pseudo=read geom=check gue
 ss=(read,tcheck) scf=(maxcycle=1)
 ----------------------------------------------------------------------
 -----
 title
 -----
 Structure from the checkpoint file:  "1-2-3-triazine.chk"
 Charge =  0 Multiplicity = 1

                         Standard orientation:
 ---------------------------------------------------------------------
 Center     Atomic      Atomic             Coordinates (Angstroms)
 Number     Number       Type             X           Y           Z
 ---------------------------------------------------------------------
      1          7           0        0.000000    1.151590    0.730933
      2          7           0        0.000000    0.000000    1.376561
      3          7           0       -0.000000   -1.151590    0.730933
      4          6           0        0.000000   -1.164165   -0.603698
      5          6           0        0.000000   -0.000000   -1.346005
      6          6           0        0.000000    1.164165   -0.603698
      7          1           0        0.000000   -2.145712   -1.060908
      8          1           0        0.000000   -0.000000   -2.426768
      9          1           0        0.000000    2.145712   -1.060908
 ---------------------------------------------------------------------

 SCF Done:  E(RHF) =  -279.909977150     A.U. after    2 cycles

 The electronic state is 1-A1.
 Alpha  occ. eigenvalues --  -15.81919 -15.78658 -15.78527 -11.49792 -11.47468
 Alpha  occ. eigenvalues --  -11.42281  -1.63254  -1.33920  -1.24877  -0.97690
 Alpha  occ. eigenvalues --   -0.95313  -0.76273  -0.67922  -0.65658  -0.61582
 Alpha  occ. eigenvalues --   -0.59054  -0.53858  -0.42001  -0.40699  -0.37482
 Alpha  occ. eigenvalues --   -0.37283
 Alpha virt. eigenvalues --    0.02567   0.04768   0.05016   0.08246   0.08357
 Alpha virt. eigenvalues --    0.10244   0.10257   0.11946   0.11969   0.13407
 Alpha virt. eigenvalues --    0.13596   0.14866   0.14887   0.15081   0.15762

 Mulliken charges:
               1
     1  N   -1.922282
     2  N   -0.338670
     3  N   -1.922282
     4  C   -0.102417
     5  C   -0.002276
     6  C   -0.102417
     7  H    1.504397
     8  H    1.381550
     9  H    1.504397
 Sum of Mulliken charges =  -0.00000

 Dipole moment (field-independent basis, Debye):
    X=              0.0000    Y=             -0.0000    Z=             -4.2983  Tot=              4.2983

 Test job not archived.
 1\1\GINC-SE212\SP\RHF\Aug-CC-pVDZ\C3H3N3\OHZDE\06-Apr-2025\0\\#t hf au
 g-cc-pvdz iop(5/13=1,5/36=2,99/5=2) pseudo=read geom=check guess=(read
 ,tcheck) scf=(maxcycle=1)\\title\\0,1\N,0,0.,1.15159,0.730933\N,0,0.,0
 .,1.376561\N,0,0.,-1.15159,0.730933\C,0,0.,-1.164165,-0.603698\C,0,0.,
 0.,-1.346005\C,0,0.,1.164165,-0.603698\H,0,0.,-2.145712,-1.060908\H,0,
 0.,0.,-2.426768\H,0,0.,2.145712,-1.060908\\Version=ES64L-G16RevC.01\St
 ate=1-A1\HF=-279.9099772\RMSD=7.792e-01\Dipole=0.,0.,-1.6910724\Quadru
 pole=-0.0700513,0.5131035,-0.4430522,0.,0.,0.\PG=C02V [C2(H1C1N1),SGV(

 Normal termination of Gaussian 16 at Sun Apr  6 07:56:56 2025.
