 Gaussian 16, Revision C.01,

 ----------------------------------------------------------------------
 #t hf aug-cc-pvdz symm=none int=(grid=ultrafine) guess=(read,tcheck) s
 table=(opt,rrhf)
 ----------------------------------------------------------------------
 -----
 title
 -----
 Symbolic Z-matrix:
 Charge =  0 Multiplicity = 1

 SCF Done:  E(RHF) =  -228.348803375     A.U. after   13 cycles

 1\1\GINC-SE046\Stability\RHF\Aug-CC-pVDZ\C3H10N2\OHZDE\06-Apr-2025\0\\
 #t hf aug-cc-pvdz symm=none int=(grid=ultrafine) guess=(read,tcheck) s
 table=(opt,rrhf)\\title\\0,1\N,0,0.515491,1.391494,-0.213362\H,0,-0.25
 848,1.947494,0.128733\H,0,1.36414,1.866364,0.068915\N,0,-2.061342,-0.1
 2769,0.037236\H,0,-2.181732,0.757797,-0.436282\H,0,-2.220834,0.015135,
 1.026891\C,0,-0.749795,-0.71169,-0.229148\H,0,-0.747392,-1.729706,0.16
 841\H,0,-0.63564,-0.788418,-1.312659\C,0,1.758237,-0.700957,-0.022941\
 H,0,1.744056,-1.722779,0.358287\H,0,1.887491,-0.735988,-1.105935\H,0,2

 Normal termination of Gaussian 16 at Sun Apr  6 07:57:33 2025.
 Gaussian 16:  ES64L-G16RevC.01  3-Jul-2019

 ----------------------------------------------------------------------
 #t hf aug-cc-pvdz iop(5/13=1,5/36=2,99/5=2) pseudo=read geom=check gue
 ss=(read,tcheck) scf=(maxcycle=1)
 ----------------------------------------------------------------------
 -----
 title
 -----
 Structure from the checkpoint file:  "1-2-diaminopropane.chk"
 Charge =  0 Multiplicity = 1

                         Standard orientation:
 ---------------------------------------------------------------------
 Center     Atomic      Atomic             Coordinates (Angstroms)
 Number     Number       Type             X           Y           Z
 ---------------------------------------------------------------------
      1          7           0        0.515491    1.391494   -0.213362
      2          1           0       -0.258480    1.947494    0.128733
      3          1           0        1.364140    1.866364    0.068915
      4          7           0       -2.061342   -0.127690    0.037236
      5          1           0       -2.181732    0.757797   -0.436282
      6          1           0       -2.220834    0.015135    1.026891
      7          6           0       -0.749795   -0.711690   -0.229148
      8          1           0       -0.747392   -1.729706    0.168410
      9          1           0       -0.635640   -0.788418   -1.312659
     10          6           0        1.758237   -0.700957   -0.022941
     11          1           0        1.744056   -1.722779    0.358287
     12          1           0        1.887491   -0.735988   -1.105935
     13          1           0        2.629221   -0.200050    0.404284
     14          6           0        0.469629    0.030604    0.335268
     15          1           0        0.371697    0.035781    1.433164
 ---------------------------------------------------------------------

 SCF Done:  E(RHF) =  -229.492365770     A.U. after    2 cycles

 The electronic state is 1-A.
 Alpha  occ. eigenvalues --  -15.72511 -15.72419 -11.43097 -11.39892 -11.35341
 Alpha  occ. eigenvalues --   -1.38225  -1.27791  -1.09409  -0.95913  -0.82035
 Alpha  occ. eigenvalues --   -0.68650  -0.65620  -0.62239  -0.59044  -0.52732
 Alpha  occ. eigenvalues --   -0.51651  -0.49268  -0.48336  -0.45797  -0.35865
 Alpha  occ. eigenvalues --   -0.32486
 Alpha virt. eigenvalues --    0.04073   0.05089   0.05542   0.05860   0.06229
 Alpha virt. eigenvalues --    0.06535   0.06746   0.07067   0.09127   0.09567
 Alpha virt. eigenvalues --    0.12008   0.13677   0.14422   0.14598   0.15690

 Mulliken charges:
               1
     1  N   -2.628303
     2  H    0.547129
     3  H    0.586587
     4  N   -2.561033
     5  H    0.543660
     6  H    0.613021
     7  C   -1.227317
     8  H    1.357452
     9  H    1.494517
    10  C   -3.236093
    11  H    1.216106
    12  H    1.217592
    13  H    1.157174
    14  C   -0.739482
    15  H    1.658991
 Sum of Mulliken charges =  -0.00000

 Dipole moment (field-independent basis, Debye):
    X=              0.6783    Y=              0.8669    Z=              1.3353  Tot=              1.7305

 Test job not archived.
 1\1\GINC-SE046\SP\RHF\Aug-CC-pVDZ\C3H10N2\OHZDE\06-Apr-2025\0\\#t hf a
 ug-cc-pvdz iop(5/13=1,5/36=2,99/5=2) pseudo=read geom=check guess=(rea
 d,tcheck) scf=(maxcycle=1)\\title\\0,1\N,0,0.515491,1.391494,-0.213362
 \H,0,-0.25848,1.947494,0.128733\H,0,1.36414,1.866364,0.068915\N,0,-2.0
 61342,-0.12769,0.037236\H,0,-2.181732,0.757797,-0.436282\H,0,-2.220834
 ,0.015135,1.026891\C,0,-0.749795,-0.71169,-0.229148\H,0,-0.747392,-1.7
 29706,0.16841\H,0,-0.63564,-0.788418,-1.312659\C,0,1.758237,-0.700957,
 -0.022941\H,0,1.744056,-1.722779,0.358287\H,0,1.887491,-0.735988,-1.10

 Normal termination of Gaussian 16 at Sun Apr  6 07:57:37 2025.
