 Gaussian 16, Revision C.01,

 ----------------------------------------------------------------------
 #t hf aug-cc-pvdz symm=none int=(grid=ultrafine) guess=(read,tcheck) s
 table=(opt,rrhf)
 ----------------------------------------------------------------------
 -----
 title
 -----
 Symbolic Z-matrix:
 Charge =  0 Multiplicity = 1

 SCF Done:  E(RHF) =  -1075.16949446     A.U. after   13 cycles

 1\1\GINC-SE085\Stability\RHF\Aug-CC-pVDZ\C4H8Cl2\OHZDE\06-Apr-2025\0\\
 #t hf aug-cc-pvdz symm=none int=(grid=ultrafine) guess=(read,tcheck) s
 table=(opt,rrhf)\\title\\0,1\H,0,0.81997,0.970836,1.504408\H,0,-1.1665
 48,-1.746969,-0.177938\H,0,-0.984908,-0.88052,1.362012\C,0,-1.009069,-
 0.777888,0.281092\H,0,0.177283,0.021144,-1.322049\Cl,0,1.582703,-1.367
 58,-0.036028\C,0,0.252711,-0.117091,-0.245865\C,0,0.632489,1.180766,0.
 448756\H,0,2.728827,1.294378,-0.120432\H,0,2.019134,2.837293,0.35229\H
 ,0,1.638622,2.14094,-1.219876\C,0,1.825906,1.901249,-0.171533\H,0,-0.2

 Normal termination of Gaussian 16 at Sun Apr  6 07:57:44 2025.
 Gaussian 16:  ES64L-G16RevC.01  3-Jul-2019

 ----------------------------------------------------------------------
 #t hf aug-cc-pvdz iop(5/13=1,5/36=2,99/5=2) pseudo=read geom=check gue
 ss=(read,tcheck) scf=(maxcycle=1)
 ----------------------------------------------------------------------
 -----
 title
 -----
 Structure from the checkpoint file:  "1-2-dichlorobutane.chk"
 Charge =  0 Multiplicity = 1

                         Standard orientation:
 ---------------------------------------------------------------------
 Center     Atomic      Atomic             Coordinates (Angstroms)
 Number     Number       Type             X           Y           Z
 ---------------------------------------------------------------------
      1          1           0        0.819970    0.970836    1.504408
      2          1           0       -1.166548   -1.746969   -0.177938
      3          1           0       -0.984908   -0.880520    1.362012
      4          6           0       -1.009069   -0.777888    0.281092
      5          1           0        0.177283    0.021144   -1.322049
      6         17           0        1.582703   -1.367580   -0.036028
      7          6           0        0.252711   -0.117091   -0.245865
      8          6           0        0.632489    1.180766    0.448756
      9          1           0        2.728827    1.294378   -0.120432
     10          1           0        2.019134    2.837293    0.352290
     11          1           0        1.638622    2.140940   -1.219876
     12          6           0        1.825906    1.901249   -0.171533
     13          1           0       -0.246766    1.827735    0.407093
     14         17           0       -2.476694    0.215400   -0.120455
 ---------------------------------------------------------------------

 SCF Done:  E(RHF) =  -1076.47109911     A.U. after    2 cycles

 The electronic state is 1-A.
 Alpha  occ. eigenvalues --  -99.88812 -99.88297 -11.48759 -11.45286 -11.41290
 Alpha  occ. eigenvalues --  -11.36997 -10.46063 -10.45557  -9.65986  -9.65511
 Alpha  occ. eigenvalues --   -9.65342  -9.65211  -9.64891  -9.64713  -1.39234
 Alpha  occ. eigenvalues --   -1.30100  -1.18973  -1.07701  -0.94510  -0.85428
 Alpha  occ. eigenvalues --   -0.69598  -0.66862  -0.64606  -0.61617  -0.58388
 Alpha  occ. eigenvalues --   -0.55057  -0.51984  -0.50943  -0.50370  -0.49342
 Alpha  occ. eigenvalues --   -0.48279  -0.46512  -0.44440
 Alpha virt. eigenvalues --    0.03778   0.04737   0.05906   0.06215   0.06304
 Alpha virt. eigenvalues --    0.06424   0.06789   0.07012   0.08333   0.09555
 Alpha virt. eigenvalues --    0.11082   0.11638   0.12601   0.13106   0.14662

 Mulliken charges:
               1
     1  H    1.442836
     2  H    1.542005
     3  H    1.657405
     4  C   -3.703808
     5  H    1.866136
     6  Cl   0.007834
     7  C   -1.763359
     8  C   -2.555337
     9  H    1.350429
    10  H    1.127835
    11  H    1.243057
    12  C   -3.697036
    13  H    1.424697
    14  Cl   0.057306
 Sum of Mulliken charges =   0.00000

 Dipole moment (field-independent basis, Debye):
    X=              0.3038    Y=              0.8765    Z=              0.3018  Tot=              0.9755

 Test job not archived.
 1\1\GINC-SE085\SP\RHF\Aug-CC-pVDZ\C4H8Cl2\OHZDE\06-Apr-2025\0\\#t hf a
 ug-cc-pvdz iop(5/13=1,5/36=2,99/5=2) pseudo=read geom=check guess=(rea
 d,tcheck) scf=(maxcycle=1)\\title\\0,1\H,0,0.81997,0.970836,1.504408\H
 ,0,-1.166548,-1.746969,-0.177938\H,0,-0.984908,-0.88052,1.362012\C,0,-
 1.009069,-0.777888,0.281092\H,0,0.177283,0.021144,-1.322049\Cl,0,1.582
 703,-1.36758,-0.036028\C,0,0.252711,-0.117091,-0.245865\C,0,0.632489,1
 .180766,0.448756\H,0,2.728827,1.294378,-0.120432\H,0,2.019134,2.837293
 ,0.35229\H,0,1.638622,2.14094,-1.219876\C,0,1.825906,1.901249,-0.17153

 Normal termination of Gaussian 16 at Sun Apr  6 07:57:54 2025.
