 Gaussian 16, Revision C.01,

 ----------------------------------------------------------------------
 #t hf aug-cc-pvdz symm=none int=(grid=ultrafine) guess=(read,tcheck) s
 table=(opt,rrhf)
 ----------------------------------------------------------------------
 -----
 title
 -----
 Symbolic Z-matrix:
 Charge =  0 Multiplicity = 1

 SCF Done:  E(RHF) =  -385.109672643     A.U. after   11 cycles

 1\1\GINC-SE108\Stability\RHF\Aug-CC-pVDZ\C6H14O2\OHZDE\06-Apr-2025\0\\
 #t hf aug-cc-pvdz symm=none int=(grid=ultrafine) guess=(read,tcheck) s
 table=(opt,rrhf)\\title\\0,1\C,0,-0.185454,3.476467,1.177678\C,0,0.185
 454,-3.476467,1.177678\C,0,0.448568,2.723875,0.026404\C,0,-0.448568,-2
 .723875,0.026404\C,0,0.330721,0.678899,-1.157349\C,0,-0.330721,-0.6788
 99,-1.157349\O,0,-0.185454,1.462479,-0.100569\O,0,0.185454,-1.462479,-
 0.100569\H,0,0.289479,4.45091,1.299148\H,0,-1.249152,3.631512,0.997075
 \H,0,-0.073398,2.919207,2.107537\H,0,-0.289479,-4.45091,1.299148\H,0,1

 Normal termination of Gaussian 16 at Sun Apr  6 07:58:29 2025.
 Gaussian 16:  ES64L-G16RevC.01  3-Jul-2019

 ----------------------------------------------------------------------
 #t hf aug-cc-pvdz iop(5/13=1,5/36=2,99/5=2) pseudo=read geom=check gue
 ss=(read,tcheck) scf=(maxcycle=1)
 ----------------------------------------------------------------------
 -----
 title
 -----
 Structure from the checkpoint file:  "1-2-diethoxyethane.chk"
 Charge =  0 Multiplicity = 1

                         Standard orientation:
 ---------------------------------------------------------------------
 Center     Atomic      Atomic             Coordinates (Angstroms)
 Number     Number       Type             X           Y           Z
 ---------------------------------------------------------------------
      1          6           0       -0.185454    3.476467    1.177678
      2          6           0        0.185454   -3.476467    1.177678
      3          6           0        0.448568    2.723875    0.026404
      4          6           0       -0.448568   -2.723875    0.026404
      5          6           0        0.330721    0.678899   -1.157349
      6          6           0       -0.330721   -0.678899   -1.157349
      7          8           0       -0.185454    1.462479   -0.100569
      8          8           0        0.185454   -1.462479   -0.100569
      9          1           0        0.289479    4.450910    1.299148
     10          1           0       -1.249152    3.631512    0.997075
     11          1           0       -0.073398    2.919207    2.107537
     12          1           0       -0.289479   -4.450910    1.299148
     13          1           0        1.249152   -3.631512    0.997075
     14          1           0        0.073398   -2.919207    2.107537
     15          1           0        1.523271    2.581941    0.202423
     16          1           0        0.343221    3.289948   -0.909829
     17          1           0       -1.523271   -2.581941    0.202423
     18          1           0       -0.343221   -3.289948   -0.909829
     19          1           0        0.140113    1.170529   -2.121857
     20          1           0        1.415919    0.554537   -1.050343
     21          1           0       -0.140113   -1.170529   -2.121857
     22          1           0       -1.415919   -0.554537   -1.050343
 ---------------------------------------------------------------------

 SCF Done:  E(RHF) =  -386.933208193     A.U. after    2 cycles

 The electronic state is 1-A.
 Alpha  occ. eigenvalues --  -21.03208 -21.03207 -11.46383 -11.42457 -11.42027
 Alpha  occ. eigenvalues --  -11.38665 -11.35794 -11.35536  -1.76743  -1.72278
 Alpha  occ. eigenvalues --   -1.15072  -1.11106  -1.03950  -0.88515  -0.86370
 Alpha  occ. eigenvalues --   -0.84575  -0.66538  -0.65867  -0.61953  -0.61565
 Alpha  occ. eigenvalues --   -0.60361  -0.57366  -0.55946  -0.51901  -0.50762
 Alpha  occ. eigenvalues --   -0.49789  -0.48669  -0.47601  -0.42495  -0.38202
 Alpha  occ. eigenvalues --   -0.37165  -0.30260  -0.28063
 Alpha virt. eigenvalues --    0.04269   0.04965   0.05030   0.05476   0.05567
 Alpha virt. eigenvalues --    0.05772   0.06496   0.06546   0.06678   0.07195
 Alpha virt. eigenvalues --    0.07319   0.08624   0.10216   0.10304   0.11427

 Mulliken charges:
               1
     1  C   -4.255500
     2  C   -4.255500
     3  C   -1.364900
     4  C   -1.364900
     5  C   -1.259758
     6  C   -1.259758
     7  O   -3.154052
     8  O   -3.154052
     9  H    1.107832
    10  H    1.295391
    11  H    1.298912
    12  H    1.107832
    13  H    1.295391
    14  H    1.298912
    15  H    1.549105
    16  H    1.562230
    17  H    1.549105
    18  H    1.562230
    19  H    1.457113
    20  H    1.763627
    21  H    1.457113
    22  H    1.763627
 Sum of Mulliken charges =  -0.00000

 Dipole moment (field-independent basis, Debye):
    X=              0.0000    Y=             -0.0000    Z=             -0.1985  Tot=              0.1985

 Test job not archived.
 1\1\GINC-SE108\SP\RHF\Aug-CC-pVDZ\C6H14O2\OHZDE\06-Apr-2025\0\\#t hf a
 ug-cc-pvdz iop(5/13=1,5/36=2,99/5=2) pseudo=read geom=check guess=(rea
 d,tcheck) scf=(maxcycle=1)\\title\\0,1\C,0,-0.185454,3.476467,1.177678
 \C,0,0.185454,-3.476467,1.177678\C,0,0.448568,2.723875,0.026404\C,0,-0
 .448568,-2.723875,0.026404\C,0,0.330721,0.678899,-1.157349\C,0,-0.3307
 21,-0.678899,-1.157349\O,0,-0.185454,1.462479,-0.100569\O,0,0.185454,-
 1.462479,-0.100569\H,0,0.289479,4.45091,1.299148\H,0,-1.249152,3.63151
 2,0.997075\H,0,-0.073398,2.919207,2.107537\H,0,-0.289479,-4.45091,1.29

 Normal termination of Gaussian 16 at Sun Apr  6 07:58:35 2025.
