 Gaussian 16, Revision C.01,

 ----------------------------------------------------------------------
 #t hf aug-cc-pvdz symm=none int=(grid=ultrafine) guess=(read,tcheck) s
 table=(opt,rrhf)
 ----------------------------------------------------------------------
 -----
 title
 -----
 Symbolic Z-matrix:
 Charge =  0 Multiplicity = 1

 SCF Done:  E(RHF) =  -336.361285896     A.U. after   16 cycles
 Normal termination of Gaussian 16 at Sun Apr  6 07:57:25 2025.
 Gaussian 16:  ES64L-G16RevC.01  3-Jul-2019

 ----------------------------------------------------------------------
 #t hf aug-cc-pvdz iop(5/13=1,5/36=2,99/5=2) pseudo=read geom=check gue
 ss=(read,tcheck) scf=(maxcycle=1)
 ----------------------------------------------------------------------
 -----
 title
 -----
 Structure from the checkpoint file:  "1-2-oxazole-4-carbonitrile.chk"
 Charge =  0 Multiplicity = 1

                         Standard orientation:
 ---------------------------------------------------------------------
 Center     Atomic      Atomic             Coordinates (Angstroms)
 Number     Number       Type             X           Y           Z
 ---------------------------------------------------------------------
      1          8           0        0.710722   -1.733894    0.000000
      2          7           0       -0.691137   -1.797404    0.000000
      3          7           0       -0.085069    2.920338    0.000000
      4          6           0        0.000000    0.355924    0.000000
      5          6           0        1.091283   -0.460386    0.000000
      6          6           0       -1.094603   -0.562112    0.000000
      7          6           0       -0.038720    1.769277    0.000000
      8          1           0        2.149576   -0.263839    0.000000
      9          1           0       -2.149674   -0.341769    0.000000
 ---------------------------------------------------------------------

 SCF Done:  E(RHF) =  -337.830774750     A.U. after    2 cycles

 The electronic state is 1-A'.
 Alpha  occ. eigenvalues --  -21.16759 -15.81521 -15.78137 -11.53215 -11.50472
 Alpha  occ. eigenvalues --  -11.46986 -11.44681  -1.93575  -1.35588  -1.30480
 Alpha  occ. eigenvalues --   -1.20416  -0.92168  -0.87487  -0.82258  -0.65026
 Alpha  occ. eigenvalues --   -0.64079  -0.60887  -0.54223  -0.50688  -0.49704
 Alpha  occ. eigenvalues --   -0.47189  -0.43493  -0.40706  -0.35882
 Alpha virt. eigenvalues --    0.02586   0.05497   0.07629   0.08522   0.08719
 Alpha virt. eigenvalues --    0.09637   0.09936   0.10967   0.12744   0.12963
 Alpha virt. eigenvalues --    0.13226   0.13746   0.14905   0.15485   0.16661

 Mulliken charges:
               1
     1  O   -3.002956
     2  N   -0.972570
     3  N   -2.563834
     4  C    2.605980
     5  C   -0.003474
     6  C   -1.106816
     7  C    2.487062
     8  H    1.256948
     9  H    1.299660
 Sum of Mulliken charges =   0.00000

 Dipole moment (field-independent basis, Debye):
    X=              1.0101    Y=             -2.0979    Z=              0.0000  Tot=              2.3284

 Test job not archived.
 1\1\GINC-SE012\SP\RHF\Aug-CC-pVDZ\C4H2N2O1\OHZDE\06-Apr-2025\0\\#t hf
 aug-cc-pvdz iop(5/13=1,5/36=2,99/5=2) pseudo=read geom=check guess=(re
 ad,tcheck) scf=(maxcycle=1)\\title\\0,1\O,0,0.710722,-1.733894,0.\N,0,
 -0.691138,-1.797404,0.\N,0,-0.085068,2.920338,0.\C,0,0.,0.355924,0.\C,
 0,1.091283,-0.460386,0.\C,0,-1.094603,-0.562112,0.\C,0,-0.03872,1.7692
 77,0.\H,0,2.149576,-0.26384,0.\H,0,-2.149674,-0.341769,0.\\Version=ES6
 4L-G16RevC.01\State=1-A'\HF=-337.8307747\RMSD=1.075e+00\Dipole=0.39739
 ,-0.8253609,0.\Quadrupole=7.137025,-8.7196402,1.5826152,-1.1995548,0.,

 Normal termination of Gaussian 16 at Sun Apr  6 07:57:34 2025.
