 Gaussian 16, Revision C.01,

 ----------------------------------------------------------------------
 #t hf aug-cc-pvdz symm=none int=(grid=ultrafine) guess=(read,tcheck) s
 table=(opt,rrhf)
 ----------------------------------------------------------------------
 -----
 title
 -----
 Symbolic Z-matrix:
 Charge =  0 Multiplicity = 1

 SCF Done:  E(RHF) =  -377.330351355     A.U. after   13 cycles
 Normal termination of Gaussian 16 at Sun Apr  6 07:57:23 2025.
 Gaussian 16:  ES64L-G16RevC.01  3-Jul-2019

 ----------------------------------------------------------------------
 #t hf aug-cc-pvdz iop(5/13=1,5/36=2,99/5=2) pseudo=read geom=check gue
 ss=(read,tcheck) scf=(maxcycle=1)
 ----------------------------------------------------------------------
 -----
 title
 -----
 Structure from the checkpoint file:  "1-2-4-5-tetraoxane.chk"
 Charge =  0 Multiplicity = 1

                         Standard orientation:
 ---------------------------------------------------------------------
 Center     Atomic      Atomic             Coordinates (Angstroms)
 Number     Number       Type             X           Y           Z
 ---------------------------------------------------------------------
      1          8           0        0.667290    1.027732   -0.440985
      2          8           0        1.225661    0.020424    0.440386
      3          8           0       -1.225661   -0.020424    0.440386
      4          8           0       -0.667290   -1.027732   -0.440985
      5          6           0       -0.667290    1.205624    0.000454
      6          6           0        0.667290   -1.205624    0.000454
      7          1           0       -0.743907    1.858599    0.874591
      8          1           0       -1.180482    1.619002   -0.872517
      9          1           0        1.180482   -1.619002   -0.872517
     10          1           0        0.743907   -1.858599    0.874591
 ---------------------------------------------------------------------

 SCF Done:  E(RHF) =  -378.886398634     A.U. after    2 cycles

 The electronic state is 1-A.
 Alpha  occ. eigenvalues --  -21.11862 -21.11802 -21.11600 -21.11553 -11.46885
 Alpha  occ. eigenvalues --  -11.46541  -2.05009  -1.91167  -1.56806  -1.42316
 Alpha  occ. eigenvalues --   -0.99413  -0.87081  -0.72533  -0.72122  -0.70095
 Alpha  occ. eigenvalues --   -0.58136  -0.56957  -0.51199  -0.45195  -0.40989
 Alpha  occ. eigenvalues --   -0.39437  -0.33967  -0.32020  -0.29857
 Alpha virt. eigenvalues --    0.03914   0.04591   0.05996   0.06574   0.08577
 Alpha virt. eigenvalues --    0.10085   0.10919   0.13692   0.15055   0.16574
 Alpha virt. eigenvalues --    0.16576   0.17132   0.18717   0.19361   0.20623

 Mulliken charges:
               1
     1  O   -1.547816
     2  O   -1.547543
     3  O   -1.547543
     4  O   -1.547816
     5  C    0.083197
     6  C    0.083197
     7  H    1.506124
     8  H    1.506038
     9  H    1.506038
    10  H    1.506124
 Sum of Mulliken charges =  -0.00000

 Dipole moment (field-independent basis, Debye):
    X=              0.0000    Y=              0.0000    Z=              0.0007  Tot=              0.0007

 Test job not archived.
 1\1\GINC-SE023\SP\RHF\Aug-CC-pVDZ\C2H4O4\OHZDE\06-Apr-2025\0\\#t hf au
 g-cc-pvdz iop(5/13=1,5/36=2,99/5=2) pseudo=read geom=check guess=(read
 ,tcheck) scf=(maxcycle=1)\\title\\0,1\O,0,0.66729,1.027732,-0.440985\O
 ,0,1.225661,0.020424,0.440386\O,0,-1.225661,-0.020424,0.440386\O,0,-0.
 66729,-1.027732,-0.440985\C,0,-0.66729,1.205624,0.000454\C,0,0.66729,-
 1.205624,0.000454\H,0,-0.743907,1.858599,0.874591\H,0,-1.180482,1.6190
 02,-0.872517\H,0,1.180482,-1.619002,-0.872517\H,0,0.743907,-1.858599,0
 .874591\\Version=ES64L-G16RevC.01\State=1-A\HF=-378.8863986\RMSD=5.222

 Normal termination of Gaussian 16 at Sun Apr  6 07:57:33 2025.
