 Gaussian 16, Revision C.01,

 ----------------------------------------------------------------------
 #t hf aug-cc-pvdz symm=none int=(grid=ultrafine) guess=(read,tcheck) s
 table=(opt,rrhf)
 ----------------------------------------------------------------------
 -----
 title
 -----
 Symbolic Z-matrix:
 Charge =  0 Multiplicity = 1

 SCF Done:  E(RHF) =  -193.956813990     A.U. after   13 cycles
 Normal termination of Gaussian 16 at Sun Apr  6 07:57:29 2025.
 Gaussian 16:  ES64L-G16RevC.01  3-Jul-2019

 ----------------------------------------------------------------------
 #t hf aug-cc-pvdz iop(5/13=1,5/36=2,99/5=2) pseudo=read geom=check gue
 ss=(read,tcheck) scf=(maxcycle=1)
 ----------------------------------------------------------------------
 -----
 title
 -----
 Structure from the checkpoint file:  "1-2-pentadiene.chk"
 Charge =  0 Multiplicity = 1

                         Standard orientation:
 ---------------------------------------------------------------------
 Center     Atomic      Atomic             Coordinates (Angstroms)
 Number     Number       Type             X           Y           Z
 ---------------------------------------------------------------------
      1          6           0       -1.396817    0.429335    0.000000
      2          6           0       -1.472698   -1.093148    0.000000
      3          6           0        0.000000    1.004651    0.000000
      4          6           0        1.112304    0.327742    0.000000
      5          6           0        2.229478   -0.340821    0.000000
      6          1           0       -1.928062    0.827718    0.870383
      7          1           0       -1.928062    0.827718   -0.870383
      8          1           0       -0.983848   -1.513104   -0.879616
      9          1           0       -2.511270   -1.424852    0.000000
     10          1           0       -0.983848   -1.513104    0.879616
     11          1           0        0.069668    2.089604    0.000000
     12          1           0        2.715910   -0.630267   -0.924292
     13          1           0        2.715910   -0.630267    0.924292
 ---------------------------------------------------------------------

 SCF Done:  E(RHF) =  -194.936455091     A.U. after    2 cycles

 The electronic state is 1-A'.
 Alpha  occ. eigenvalues --  -11.44185 -11.41671 -11.39729 -11.38580 -11.35854
 Alpha  occ. eigenvalues --   -1.24546  -1.11389  -0.99264  -0.87611  -0.70077
 Alpha  occ. eigenvalues --   -0.62657  -0.61866  -0.59342  -0.57310  -0.48948
 Alpha  occ. eigenvalues --   -0.48520  -0.47515  -0.34734  -0.33897
 Alpha virt. eigenvalues --    0.03342   0.05410   0.05708   0.05836   0.05992
 Alpha virt. eigenvalues --    0.06784   0.07199   0.07529   0.09655   0.11529
 Alpha virt. eigenvalues --    0.12221   0.13917   0.14159   0.14347   0.14936

 Mulliken charges:
               1
     1  C   -3.344135
     2  C   -3.794560
     3  C   -0.880000
     4  C    2.685675
     5  C   -4.599784
     6  H    1.293631
     7  H    1.293631
     8  H    1.268815
     9  H    1.141275
    10  H    1.268815
    11  H    1.185504
    12  H    1.240567
    13  H    1.240567
 Sum of Mulliken charges =  -0.00000

 Dipole moment (field-independent basis, Debye):
    X=             -0.4586    Y=              0.0336    Z=              0.0000  Tot=              0.4599

 Test job not archived.
 1\1\GINC-SE013\SP\RHF\Aug-CC-pVDZ\C5H8\OHZDE\06-Apr-2025\0\\#t hf aug-
 cc-pvdz iop(5/13=1,5/36=2,99/5=2) pseudo=read geom=check guess=(read,t
 check) scf=(maxcycle=1)\\title\\0,1\C,0,-1.396817,0.429335,0.\C,0,-1.4
 72698,-1.093148,0.\C,0,0.,1.004651,0.\C,0,1.112304,0.327742,0.\C,0,2.2
 29478,-0.340821,0.\H,0,-1.928062,0.827718,0.870383\H,0,-1.928062,0.827
 718,-0.870383\H,0,-0.983848,-1.513104,-0.879616\H,0,-2.51127,-1.424852
 ,0.\H,0,-0.983848,-1.513104,0.879616\H,0,0.069668,2.089604,0.\H,0,2.71
 591,-0.630267,-0.924292\H,0,2.71591,-0.630267,0.924292\\Version=ES64L-

 Normal termination of Gaussian 16 at Sun Apr  6 07:57:33 2025.
