 Gaussian 16, Revision C.01,

 ----------------------------------------------------------------------
 #t hf aug-cc-pvdz symm=none int=(grid=ultrafine) guess=(read,tcheck) s
 table=(opt,rrhf)
 ----------------------------------------------------------------------
 -----
 title
 -----
 Symbolic Z-matrix:
 Charge =  0 Multiplicity = 1

 SCF Done:  E(RHF) =  -294.650424409     A.U. after   14 cycles
 Normal termination of Gaussian 16 at Sun Apr  6 07:56:50 2025.
 Gaussian 16:  ES64L-G16RevC.01  3-Jul-2019

 ----------------------------------------------------------------------
 #t hf aug-cc-pvdz iop(5/13=1,5/36=2,99/5=2) pseudo=read geom=check gue
 ss=(read,tcheck) scf=(maxcycle=1)
 ----------------------------------------------------------------------
 -----
 title
 -----
 Structure from the checkpoint file:  "1-2-3-5-tetrazine.chk"
 Charge =  0 Multiplicity = 1

                         Standard orientation:
 ---------------------------------------------------------------------
 Center     Atomic      Atomic             Coordinates (Angstroms)
 Number     Number       Type             X           Y           Z
 ---------------------------------------------------------------------
      1          7           0        0.000000    1.144299   -0.704266
      2          7           0       -0.000000    0.000000   -1.359116
      3          7           0       -0.000000   -1.144299   -0.704266
      4          6           0        0.000000   -1.104612    0.629854
      5          7           0        0.000000   -0.000000    1.362678
      6          6           0        0.000000    1.104612    0.629854
      7          1           0        0.000000   -2.061100    1.138272
      8          1           0        0.000000    2.061100    1.138272
 ---------------------------------------------------------------------

 SCF Done:  E(RHF) =  -295.945174045     A.U. after    2 cycles

 The electronic state is 1-A1.
 Alpha  occ. eigenvalues --  -15.85184 -15.80066 -15.79909 -15.79440 -11.49049
 Alpha  occ. eigenvalues --  -11.47568  -1.67623  -1.42050  -1.36496  -1.03409
 Alpha  occ. eigenvalues --   -0.99546  -0.78197  -0.72124  -0.65454  -0.61736
 Alpha  occ. eigenvalues --   -0.60036  -0.50714  -0.46422  -0.43870  -0.40168
 Alpha  occ. eigenvalues --   -0.36532
 Alpha virt. eigenvalues --    0.03268   0.04987   0.07491   0.07790   0.09915
 Alpha virt. eigenvalues --    0.10057   0.10118   0.10153   0.14010   0.14476
 Alpha virt. eigenvalues --    0.15076   0.15771   0.16254   0.18149   0.18904

 Mulliken charges:
               1
     1  N   -1.704657
     2  N    0.047730
     3  N   -1.704657
     4  C    1.325588
     5  N   -2.542596
     6  C    1.325588
     7  H    1.626503
     8  H    1.626503
 Sum of Mulliken charges =   0.00000

 Dipole moment (field-independent basis, Debye):
    X=              0.0000    Y=             -0.0000    Z=              2.2791  Tot=              2.2791

 Test job not archived.
 1\1\GINC-SE050\SP\RHF\Aug-CC-pVDZ\C2H2N4\OHZDE\06-Apr-2025\0\\#t hf au
 g-cc-pvdz iop(5/13=1,5/36=2,99/5=2) pseudo=read geom=check guess=(read
 ,tcheck) scf=(maxcycle=1)\\title\\0,1\N,0,0.,1.144299,-0.704266\N,0,0.
 ,0.,-1.359116\N,0,0.,-1.144299,-0.704266\C,0,0.,-1.104612,0.629854\N,0
 ,0.,0.,1.362678\C,0,0.,1.104612,0.629854\H,0,0.,-2.0611,1.138272\H,0,0
 .,2.0611,1.138272\\Version=ES64L-G16RevC.01\State=1-A1\HF=-295.945174\
 RMSD=9.347e-02\Dipole=0.,0.,0.8966723\Quadrupole=1.4508904,2.0447356,-
 3.495626,0.,0.,0.\PG=C02V [C2(N1N1),SGV(C2H2N2)]\\@

 Normal termination of Gaussian 16 at Sun Apr  6 07:56:54 2025.
