 Gaussian 16, Revision C.01,

 ----------------------------------------------------------------------
 #t hf aug-cc-pvdz symm=none int=(grid=ultrafine) guess=(read,tcheck) s
 table=(opt,rrhf)
 ----------------------------------------------------------------------
 -----
 title
 -----
 Symbolic Z-matrix:
 Charge =  0 Multiplicity = 1

 SCF Done:  E(RHF) =  -997.086369292     A.U. after   11 cycles

 1\1\GINC-SE086\Stability\RHF\Aug-CC-pVDZ\C2H4Cl2\OHZDE\06-Apr-2025\0\\
 #t hf aug-cc-pvdz symm=none int=(grid=ultrafine) guess=(read,tcheck) s
 table=(opt,rrhf)\\title\\0,1\C,0,-0.299342,0.692073,0.892875\C,0,0.299
 342,-0.692073,0.892875\Cl,0,0.299342,1.715125,-0.46931\Cl,0,-0.299342,
 -1.715125,-0.46931\H,0,-1.381552,0.661641,0.812196\H,0,-0.016551,1.207
 148,1.808816\H,0,0.016551,-1.207148,1.808816\H,0,1.381552,-0.661641,0.
 812196\\Version=ES64L-G16RevC.01\HF=-997.0863693\RMSD=9.014e-09\Dipole
 =0.,0.,1.2247135\Quadrupole=0.8176572,-3.4010969,2.5834397,-1.1008203,

 Normal termination of Gaussian 16 at Sun Apr  6 07:57:18 2025.
 Gaussian 16:  ES64L-G16RevC.01  3-Jul-2019

 ----------------------------------------------------------------------
 #t hf aug-cc-pvdz iop(5/13=1,5/36=2,99/5=2) pseudo=read geom=check gue
 ss=(read,tcheck) scf=(maxcycle=1)
 ----------------------------------------------------------------------
 -----
 title
 -----
 Structure from the checkpoint file:  "1-2-dichloroethane.chk"
 Charge =  0 Multiplicity = 1

                         Standard orientation:
 ---------------------------------------------------------------------
 Center     Atomic      Atomic             Coordinates (Angstroms)
 Number     Number       Type             X           Y           Z
 ---------------------------------------------------------------------
      1          6           0       -0.299342    0.692073    0.892875
      2          6           0        0.299342   -0.692073    0.892875
      3         17           0        0.299342    1.715125   -0.469310
      4         17           0       -0.299342   -1.715125   -0.469310
      5          1           0       -1.381552    0.661641    0.812196
      6          1           0       -0.016551    1.207148    1.808816
      7          1           0        0.016551   -1.207148    1.808816
      8          1           0        1.381552   -0.661641    0.812196
 ---------------------------------------------------------------------

 SCF Done:  E(RHF) =  -997.974004039     A.U. after    2 cycles

 The electronic state is 1-A.
 Alpha  occ. eigenvalues --  -99.88544 -99.88540 -11.47977 -11.43702 -10.45824
 Alpha  occ. eigenvalues --  -10.45820  -9.65692  -9.65638  -9.64992  -9.64937
 Alpha  occ. eigenvalues --   -9.64903  -9.64867  -1.37663  -1.29925  -1.10910
 Alpha  occ. eigenvalues --   -0.91688  -0.69653  -0.68675  -0.62017  -0.57767
 Alpha  occ. eigenvalues --   -0.56410  -0.50759  -0.48733  -0.47829  -0.46907
 Alpha virt. eigenvalues --    0.02561   0.05201   0.05852   0.06447   0.06941
 Alpha virt. eigenvalues --    0.07891   0.10971   0.12673   0.12683   0.12935
 Alpha virt. eigenvalues --    0.13976   0.16753   0.16936   0.17626   0.18104

 Mulliken charges:
               1
     1  C   -3.314174
     2  C   -3.314174
     3  Cl   0.132003
     4  Cl   0.132003
     5  H    1.649744
     6  H    1.532427
     7  H    1.532427
     8  H    1.649744
 Sum of Mulliken charges =  -0.00000

 Dipole moment (field-independent basis, Debye):
    X=             -0.0000    Y=              0.0000    Z=              3.1055  Tot=              3.1055

 Test job not archived.
 1\1\GINC-SE086\SP\RHF\Aug-CC-pVDZ\C2H4Cl2\OHZDE\06-Apr-2025\0\\#t hf a
 ug-cc-pvdz iop(5/13=1,5/36=2,99/5=2) pseudo=read geom=check guess=(rea
 d,tcheck) scf=(maxcycle=1)\\title\\0,1\C,0,-0.299342,0.692073,0.892875
 \C,0,0.299342,-0.692073,0.892875\Cl,0,0.299342,1.715125,-0.46931\Cl,0,
 -0.299342,-1.715125,-0.46931\H,0,-1.381552,0.661641,0.812196\H,0,-0.01
 6551,1.207148,1.808816\H,0,0.016551,-1.207148,1.808816\H,0,1.381552,-0
 .661641,0.812196\\Version=ES64L-G16RevC.01\State=1-A\HF=-997.974004\RM
 SD=1.517e-01\Dipole=0.,0.,1.2218174\Quadrupole=0.3275467,-3.1969387,2.

 Normal termination of Gaussian 16 at Sun Apr  6 07:57:32 2025.
