 Gaussian 16, Revision C.01,

 ----------------------------------------------------------------------
 #t hf aug-cc-pvdz symm=none int=(grid=ultrafine) guess=(read,tcheck) s
 table=(opt,rrhf)
 ----------------------------------------------------------------------
 -----
 title
 -----
 Symbolic Z-matrix:
 Charge =  0 Multiplicity = 1

 SCF Done:  E(RHF) =  -626.160187006     A.U. after   14 cycles
 Normal termination of Gaussian 16 at Sun Apr  6 07:57:06 2025.
 Gaussian 16:  ES64L-G16RevC.01  3-Jul-2019

 ----------------------------------------------------------------------
 #t hf aug-cc-pvdz iop(5/13=1,5/36=2,99/5=2) pseudo=read geom=check gue
 ss=(read,tcheck) scf=(maxcycle=1)
 ----------------------------------------------------------------------
 -----
 title
 -----
 Structure from the checkpoint file:  "1-2-3-4-tetrafluorobenzene.chk"
 Charge =  0 Multiplicity = 1

                         Standard orientation:
 ---------------------------------------------------------------------
 Center     Atomic      Atomic             Coordinates (Angstroms)
 Number     Number       Type             X           Y           Z
 ---------------------------------------------------------------------
      1          6           0        0.000000    1.377987   -0.525257
      2          6           0        0.000000    0.695340   -1.726214
      3          6           0       -0.000000   -0.695340   -1.726214
      4          6           0       -0.000000   -1.377987   -0.525257
      5          6           0        0.000000   -0.694285    0.684098
      6          6           0        0.000000    0.694285    0.684098
      7          9           0        0.000000    2.719143   -0.501822
      8          1           0        0.000000    1.255360   -2.649366
      9          1           0       -0.000000   -1.255360   -2.649366
     10          9           0       -0.000000   -2.719143   -0.501822
     11          9           0        0.000000   -1.357117    1.841111
     12          9           0        0.000000    1.357117    1.841111
 ---------------------------------------------------------------------

 SCF Done:  E(RHF) =  -628.550708613     A.U. after    2 cycles

 The electronic state is 1-A1.
 Alpha  occ. eigenvalues --  -29.32019 -29.31951 -29.31325 -29.31310 -11.59378
 Alpha  occ. eigenvalues --  -11.52666 -11.51453 -11.48437 -11.47731 -11.42444
 Alpha  occ. eigenvalues --   -1.45962  -1.26084  -1.22544  -1.03812  -1.03235
 Alpha  occ. eigenvalues --   -0.87476  -0.82945  -0.73547  -0.73092  -0.68907
 Alpha  occ. eigenvalues --   -0.65183  -0.57822  -0.57158  -0.53577  -0.48202
 Alpha  occ. eigenvalues --   -0.42912  -0.42852  -0.41928  -0.41412  -0.37722
 Alpha  occ. eigenvalues --   -0.34131  -0.31173  -0.30342  -0.29606  -0.28400
 Alpha  occ. eigenvalues --   -0.22749  -0.20256
 Alpha virt. eigenvalues --    0.03637   0.05402   0.09520   0.10340   0.10455
 Alpha virt. eigenvalues --    0.11433   0.11650   0.11660   0.11872   0.13370
 Alpha virt. eigenvalues --    0.13382   0.13562   0.13958   0.14338   0.15068

 Mulliken charges:
               1
     1  C    0.546073
     2  C   -3.294595
     3  C   -3.294595
     4  C    0.546073
     5  C   -0.956966
     6  C   -0.956966
     7  F    0.874555
     8  H    1.628600
     9  H    1.628600
    10  F    0.874555
    11  F    1.202333
    12  F    1.202333
 Sum of Mulliken charges =  -0.00000

 Dipole moment (field-independent basis, Debye):
    X=             -0.0000    Y=              0.0000    Z=              3.5491  Tot=              3.5491

 Test job not archived.
 1\1\GINC-SE028\SP\RHF\Aug-CC-pVDZ\C6H2F4\OHZDE\06-Apr-2025\0\\#t hf au
 g-cc-pvdz iop(5/13=1,5/36=2,99/5=2) pseudo=read geom=check guess=(read
 ,tcheck) scf=(maxcycle=1)\\title\\0,1\C,0,0.,1.377987,-0.525257\C,0,0.
 ,0.69534,-1.726214\C,0,0.,-0.69534,-1.726214\C,0,0.,-1.377987,-0.52525
 7\C,0,0.,-0.694285,0.684098\C,0,0.,0.694285,0.684098\F,0,0.,2.719143,-
 0.501822\H,0,0.,1.25536,-2.649366\H,0,0.,-1.25536,-2.649366\F,0,0.,-2.
 719143,-0.501822\F,0,0.,-1.357117,1.841111\F,0,0.,1.357117,1.841111\\V
 ersion=ES64L-G16RevC.01\State=1-A1\HF=-628.5507086\RMSD=1.501e+00\Dipo

 Normal termination of Gaussian 16 at Sun Apr  6 07:57:11 2025.
