 Gaussian 16, Revision C.01,

 ----------------------------------------------------------------------
 #t hf aug-cc-pvdz symm=none int=(grid=ultrafine) guess=(read,tcheck) s
 table=(opt,rrhf)
 ----------------------------------------------------------------------
 -----
 title
 -----
 Symbolic Z-matrix:
 Charge =  0 Multiplicity = 1

 SCF Done:  E(RHF) =  -249.032291319     A.U. after   12 cycles
 Normal termination of Gaussian 16 at Sun Apr  6 07:57:13 2025.
 Gaussian 16:  ES64L-G16RevC.01  3-Jul-2019

 ----------------------------------------------------------------------
 #t hf aug-cc-pvdz iop(5/13=1,5/36=2,99/5=2) pseudo=read geom=check gue
 ss=(read,tcheck) scf=(maxcycle=1)
 ----------------------------------------------------------------------
 -----
 title
 -----
 Structure from the checkpoint file:  "1-2-3-6-tetrahydropyridine.chk"
 Charge =  0 Multiplicity = 1

                         Standard orientation:
 ---------------------------------------------------------------------
 Center     Atomic      Atomic             Coordinates (Angstroms)
 Number     Number       Type             X           Y           Z
 ---------------------------------------------------------------------
      1          1           0       -1.470271    2.051300    0.139796
      2          6           0       -0.812779    1.192330    0.058323
      3          1           0        0.914317    2.364351   -0.092773
      4          6           0        0.501406    1.362711   -0.053276
      5          1           0        2.325124    0.404709    0.529666
      6          1           0        1.868711    0.112199   -1.129780
      7          6           0        1.463386    0.206961   -0.115255
      8          1           0        0.675255   -1.115005    1.396505
      9          1           0        1.389092   -1.962725    0.036134
     10          6           0        0.779659   -1.100064    0.308149
     11          1           0       -2.309570   -0.197467   -0.590760
     12          1           0       -1.867638   -0.356259    1.088810
     13          6           0       -1.454743   -0.170688    0.089051
     14          1           0       -0.487677   -1.340668   -1.269513
     15          7           0       -0.556988   -1.272562   -0.261434
 ---------------------------------------------------------------------

 SCF Done:  E(RHF) =  -250.264346305     A.U. after    2 cycles

 The electronic state is 1-A.
 Alpha  occ. eigenvalues --  -15.70872 -11.44531 -11.42033 -11.40485 -11.38172
 Alpha  occ. eigenvalues --  -11.35137  -1.40857  -1.17106  -1.10980  -0.91452
 Alpha  occ. eigenvalues --   -0.89089  -0.74039  -0.68831  -0.62457  -0.60464
 Alpha  occ. eigenvalues --   -0.54720  -0.54119  -0.52027  -0.49886  -0.46639
 Alpha  occ. eigenvalues --   -0.43104  -0.33163  -0.30505
 Alpha virt. eigenvalues --    0.03712   0.05436   0.05647   0.05858   0.05905
 Alpha virt. eigenvalues --    0.06367   0.06599   0.07035   0.07858   0.12082
 Alpha virt. eigenvalues --    0.12593   0.13032   0.13563   0.14208   0.14542

 Mulliken charges:
               1
     1  H    1.450333
     2  C   -0.359033
     3  H    1.408715
     4  C    0.225011
     5  H    1.168500
     6  H    1.190878
     7  C   -3.093238
     8  H    1.582772
     9  H    1.243808
    10  C   -2.685332
    11  H    1.150481
    12  H    1.127651
    13  C   -2.965128
    14  H    0.545514
    15  N   -1.990931
 Sum of Mulliken charges =   0.00000

 Dipole moment (field-independent basis, Debye):
    X=              0.3643    Y=              0.4283    Z=             -0.4224  Tot=              0.7033

 Test job not archived.
 1\1\GINC-SE136\SP\RHF\Aug-CC-pVDZ\C5H9N1\OHZDE\06-Apr-2025\0\\#t hf au
 g-cc-pvdz iop(5/13=1,5/36=2,99/5=2) pseudo=read geom=check guess=(read
 ,tcheck) scf=(maxcycle=1)\\title\\0,1\H,0,-1.47027,2.0513,0.139796\C,0
 ,-0.812779,1.19233,0.058323\H,0,0.914318,2.364351,-0.092773\C,0,0.5014
 06,1.362711,-0.053276\H,0,2.325124,0.404708,0.529666\H,0,1.868711,0.11
 2198,-1.12978\C,0,1.463386,0.206961,-0.115255\H,0,0.675255,-1.115005,1
 .396505\H,0,1.389091,-1.962725,0.036134\C,0,0.779659,-1.100064,0.30814
 9\H,0,-2.30957,-0.197466,-0.59076\H,0,-1.867638,-0.356258,1.08881\C,0,

 Normal termination of Gaussian 16 at Sun Apr  6 07:57:18 2025.
