 Gaussian 16, Revision C.01,

 ----------------------------------------------------------------------
 #t hf aug-cc-pvdz symm=none int=(grid=ultrafine) guess=(read,tcheck) s
 table=(opt,rrhf)
 ----------------------------------------------------------------------
 -----
 title
 -----
 Symbolic Z-matrix:
 Charge =  0 Multiplicity = 1

 SCF Done:  E(RHF) =  -531.954613913     A.U. after   18 cycles

 1\1\GINC-SE012\Stability\RHF\Aug-CC-pVDZ\C10H6O2\OHZDE\06-Apr-2025\0\\
 #t hf aug-cc-pvdz symm=none int=(grid=ultrafine) guess=(read,tcheck) s
 table=(opt,rrhf)\\title\\0,1\O,0,1.361068,-2.102147,0.\C,0,1.045295,-0
 .93588,-0.000003\C,0,-0.368855,-0.479577,0.000039\C,0,-0.663338,0.8979
 64,0.000004\C,0,-1.998519,1.302976,-0.000021\C,0,-3.022439,0.362805,-0
 .000027\C,0,-2.725364,-0.995943,-0.000004\C,0,-1.400135,-1.413451,0.00
 0019\C,0,0.412017,1.881771,0.000016\C,0,1.715208,1.558479,0.000033\C,0
 ,2.154699,0.161657,0.000003\O,0,3.320597,-0.165604,-0.000046\H,0,-2.23

 Normal termination of Gaussian 16 at Sun Apr  6 07:59:32 2025.
 Gaussian 16:  ES64L-G16RevC.01  3-Jul-2019

 ----------------------------------------------------------------------
 #t hf aug-cc-pvdz iop(5/13=1,5/36=2,99/5=2) pseudo=read geom=check gue
 ss=(read,tcheck) scf=(maxcycle=1)
 ----------------------------------------------------------------------
 -----
 title
 -----
 Structure from the checkpoint file:  "1-2-naphthalenedione.chk"
 Charge =  0 Multiplicity = 1

                         Standard orientation:
 ---------------------------------------------------------------------
 Center     Atomic      Atomic             Coordinates (Angstroms)
 Number     Number       Type             X           Y           Z
 ---------------------------------------------------------------------
      1          8           0        1.361068   -2.102147   -0.000000
      2          6           0        1.045295   -0.935880   -0.000003
      3          6           0       -0.368855   -0.479577    0.000039
      4          6           0       -0.663338    0.897964    0.000004
      5          6           0       -1.998519    1.302976   -0.000021
      6          6           0       -3.022439    0.362805   -0.000027
      7          6           0       -2.725364   -0.995943   -0.000004
      8          6           0       -1.400135   -1.413451    0.000019
      9          6           0        0.412017    1.881771    0.000016
     10          6           0        1.715208    1.558479    0.000033
     11          6           0        2.154699    0.161657    0.000003
     12          8           0        3.320597   -0.165604   -0.000046
     13          1           0       -2.234107    2.359259   -0.000035
     14          1           0       -4.052746    0.691593   -0.000046
     15          1           0       -3.523054   -1.725709   -0.000000
     16          1           0       -1.145325   -2.463972    0.000055
     17          1           0        0.118437    2.925051    0.000016
     18          1           0        2.492067    2.310977    0.000032
 ---------------------------------------------------------------------

 SCF Done:  E(RHF) =  -534.329992907     A.U. after    2 cycles

 The electronic state is 1-A.
 Alpha  occ. eigenvalues --  -21.07575 -21.07322 -11.55903 -11.53512 -11.49673
 Alpha  occ. eigenvalues --  -11.48859 -11.47336 -11.46095 -11.44506 -11.44196
 Alpha  occ. eigenvalues --  -11.42773 -11.39537  -1.75065  -1.69381  -1.39885
 Alpha  occ. eigenvalues --   -1.23874  -1.14364  -1.10297  -1.01404  -0.91847
 Alpha  occ. eigenvalues --   -0.88245  -0.85145  -0.74192  -0.72544  -0.66830
 Alpha  occ. eigenvalues --   -0.64129  -0.63221  -0.58126  -0.58052  -0.57498
 Alpha  occ. eigenvalues --   -0.52855  -0.51791  -0.51356  -0.46871  -0.46333
 Alpha  occ. eigenvalues --   -0.45841  -0.40956  -0.34584  -0.33194  -0.30783
 Alpha  occ. eigenvalues --   -0.27846
 Alpha virt. eigenvalues --    0.02559   0.04118   0.04155   0.04462   0.05745
 Alpha virt. eigenvalues --    0.06382   0.07704   0.08478   0.08604   0.09453
 Alpha virt. eigenvalues --    0.09910   0.11202   0.12153   0.12369   0.12479

 Mulliken charges:
               1
     1  O   -4.420970
     2  C    2.347961
     3  C    2.132147
     4  C    9.036446
     5  C   -3.709899
     6  C   -2.865085
     7  C   -2.495876
     8  C   -3.616911
     9  C    0.888968
    10  C   -4.427070
    11  C    1.420691
    12  O   -3.983142
    13  H    1.681029
    14  H    1.542701
    15  H    1.506677
    16  H    1.766908
    17  H    1.677825
    18  H    1.517601
 Sum of Mulliken charges =   0.00000

 Dipole moment (field-independent basis, Debye):
    X=             -3.0300    Y=              1.4432    Z=              0.0000  Tot=              3.3562

 Test job not archived.
 1\1\GINC-SE012\SP\RHF\Aug-CC-pVDZ\C10H6O2\OHZDE\06-Apr-2025\0\\#t hf a
 ug-cc-pvdz iop(5/13=1,5/36=2,99/5=2) pseudo=read geom=check guess=(rea
 d,tcheck) scf=(maxcycle=1)\\title\\0,1\O,0,1.361068,-2.102147,0.\C,0,1
 .045295,-0.93588,-0.000003\C,0,-0.368855,-0.479577,0.000039\C,0,-0.663
 338,0.897964,0.000004\C,0,-1.998519,1.302976,-0.000021\C,0,-3.022439,0
 .362805,-0.000027\C,0,-2.725364,-0.995943,-0.000004\C,0,-1.400135,-1.4
 13451,0.000019\C,0,0.412017,1.881771,0.000016\C,0,1.715208,1.558479,0.
 000033\C,0,2.154699,0.161657,0.000003\O,0,3.320597,-0.165604,-0.000046

 Normal termination of Gaussian 16 at Sun Apr  6 07:59:44 2025.
