 Gaussian 16, Revision C.01,

 ----------------------------------------------------------------------
 #t hf aug-cc-pvdz symm=none int=(grid=ultrafine) guess=(read,tcheck) s
 table=(opt,rrhf)
 ----------------------------------------------------------------------
 -----
 title
 -----
 Symbolic Z-matrix:
 Charge =  0 Multiplicity = 1

 SCF Done:  E(RHF) =  -353.494529225     A.U. after   17 cycles
 Normal termination of Gaussian 16 at Sun Apr  6 07:57:43 2025.
 Gaussian 16:  ES64L-G16RevC.01  3-Jul-2019

 ----------------------------------------------------------------------
 #t hf aug-cc-pvdz iop(5/13=1,5/36=2,99/5=2) pseudo=read geom=check gue
 ss=(read,tcheck) scf=(maxcycle=1)
 ----------------------------------------------------------------------
 -----
 title
 -----
 Structure from the checkpoint file:  "1-2-dihydro-3H-1-2-4-triazol-3-ylidenemethanone.chk"
 Charge =  0 Multiplicity = 1

                         Standard orientation:
 ---------------------------------------------------------------------
 Center     Atomic      Atomic             Coordinates (Angstroms)
 Number     Number       Type             X           Y           Z
 ---------------------------------------------------------------------
      1          8           0        2.804747    0.017257   -0.101685
      2          7           0       -0.501813   -1.172528    0.046451
      3          7           0       -0.518237    1.148566    0.064488
      4          7           0       -1.829526   -0.691292   -0.149633
      5          6           0        0.336696    0.001975    0.169153
      6          6           0       -1.784183    0.580024   -0.127805
      7          6           0        1.635206    0.015429   -0.087720
      8          1           0       -0.507329   -1.788898    0.852503
      9          1           0       -0.455507    1.869545    0.772931
     10          1           0       -2.654421    1.203511   -0.262863
 ---------------------------------------------------------------------

 SCF Done:  E(RHF) =  -355.032771190     A.U. after    2 cycles

 The electronic state is 1-A.
 Alpha  occ. eigenvalues --  -21.13739 -15.78777 -15.77573 -15.76265 -11.53850
 Alpha  occ. eigenvalues --  -11.46474 -11.44953  -1.76768  -1.60797  -1.34039
 Alpha  occ. eigenvalues --   -1.22583  -1.01363  -0.85631  -0.81224  -0.67906
 Alpha  occ. eigenvalues --   -0.64863  -0.63570  -0.57675  -0.56929  -0.53849
 Alpha  occ. eigenvalues --   -0.49429  -0.42121  -0.41597  -0.37968  -0.23237
 Alpha virt. eigenvalues --    0.02984   0.05193   0.05689   0.08127   0.09632
 Alpha virt. eigenvalues --    0.10181   0.10425   0.11855   0.12096   0.13057
 Alpha virt. eigenvalues --    0.13389   0.13924   0.15251   0.16584   0.17378

 Mulliken charges:
               1
     1  O   -2.608458
     2  N   -1.762207
     3  N   -2.698012
     4  N   -1.761527
     5  C    2.362792
     6  C    1.320682
     7  C    2.288632
     8  H    0.685685
     9  H    0.643421
    10  H    1.528993
 Sum of Mulliken charges =  -0.00000

 Dipole moment (field-independent basis, Debye):
    X=              0.3939    Y=              1.8634    Z=              1.5912  Tot=              2.4818

 Test job not archived.
 1\1\GINC-SE167\SP\RHF\Aug-CC-pVDZ\C3H3N3O1\OHZDE\06-Apr-2025\0\\#t hf
 aug-cc-pvdz iop(5/13=1,5/36=2,99/5=2) pseudo=read geom=check guess=(re
 ad,tcheck) scf=(maxcycle=1)\\title\\0,1\O,0,2.804747,0.017257,-0.10168
 5\N,0,-0.501813,-1.172528,0.046451\N,0,-0.518237,1.148566,0.064488\N,0
 ,-1.829526,-0.691292,-0.149633\C,0,0.336696,0.001975,0.169153\C,0,-1.7
 84183,0.580024,-0.127805\C,0,1.635206,0.015429,-0.08772\H,0,-0.507329,
 -1.788898,0.852503\H,0,-0.455507,1.869545,0.772931\H,0,-2.654421,1.203
 511,-0.262863\\Version=ES64L-G16RevC.01\State=1-A\HF=-355.0327712\RMSD

 Normal termination of Gaussian 16 at Sun Apr  6 07:57:53 2025.
