 Gaussian 16, Revision C.01,

 ----------------------------------------------------------------------
 #t hf aug-cc-pvdz symm=none int=(grid=ultrafine) guess=(read,tcheck) s
 table=(opt,rrhf)
 ----------------------------------------------------------------------
 -----
 title
 -----
 Symbolic Z-matrix:
 Charge =  0 Multiplicity = 1

 SCF Done:  E(RHF) =  -260.583392929     A.U. after   13 cycles
 Normal termination of Gaussian 16 at Sun Apr  6 07:57:18 2025.
 Gaussian 16:  ES64L-G16RevC.01  3-Jul-2019

 ----------------------------------------------------------------------
 #t hf aug-cc-pvdz iop(5/13=1,5/36=2,99/5=2) pseudo=read geom=check gue
 ss=(read,tcheck) scf=(maxcycle=1)
 ----------------------------------------------------------------------
 -----
 title
 -----
 Structure from the checkpoint file:  "1-2-5-oxadiazole.chk"
 Charge =  0 Multiplicity = 1

                         Standard orientation:
 ---------------------------------------------------------------------
 Center     Atomic      Atomic             Coordinates (Angstroms)
 Number     Number       Type             X           Y           Z
 ---------------------------------------------------------------------
      1          8           0        0.000000   -0.000000    1.125015
      2          7           0        0.000000    1.129079    0.352670
      3          6           0        0.000000    0.709443   -0.877819
      4          6           0       -0.000000   -0.709443   -0.877819
      5          7           0       -0.000000   -1.129079    0.352670
      6          1           0        0.000000    1.401671   -1.701840
      7          1           0       -0.000000   -1.401671   -1.701840
 ---------------------------------------------------------------------

 SCF Done:  E(RHF) =  -261.719823969     A.U. after    2 cycles

 The electronic state is 1-A1.
 Alpha  occ. eigenvalues --  -21.15423 -15.82090 -15.81591 -11.48604 -11.42655
 Alpha  occ. eigenvalues --   -1.96792  -1.32223  -1.30307  -0.88466  -0.85490
 Alpha  occ. eigenvalues --   -0.75811  -0.64695  -0.60039  -0.49250  -0.46062
 Alpha  occ. eigenvalues --   -0.42542  -0.41758  -0.36408
 Alpha virt. eigenvalues --    0.03071   0.04688   0.09186   0.10294   0.11041
 Alpha virt. eigenvalues --    0.11491   0.11810   0.13877   0.14456   0.15267
 Alpha virt. eigenvalues --    0.15792   0.18320   0.19470   0.19765   0.21519

 Mulliken charges:
               1
     1  O   -2.256970
     2  N   -0.727039
     3  C    0.527024
     4  C    0.527024
     5  N   -0.727039
     6  H    1.328500
     7  H    1.328500
 Sum of Mulliken charges =  -0.00000

 Dipole moment (field-independent basis, Debye):
    X=             -0.0000    Y=             -0.0000    Z=             -2.0955  Tot=              2.0955

 Test job not archived.
 1\1\GINC-SE165\SP\RHF\Aug-CC-pVDZ\C2H2N2O1\OHZDE\06-Apr-2025\0\\#t hf
 aug-cc-pvdz iop(5/13=1,5/36=2,99/5=2) pseudo=read geom=check guess=(re
 ad,tcheck) scf=(maxcycle=1)\\title\\0,1\O,0,0.,0.,1.125015\N,0,0.,1.12
 9079,0.35267\C,0,0.,0.709443,-0.877819\C,0,0.,-0.709443,-0.877819\N,0,
 0.,-1.129079,0.35267\H,0,0.,1.401671,-1.70184\H,0,0.,-1.401671,-1.7018
 4\\Version=ES64L-G16RevC.01\State=1-A1\HF=-261.719824\RMSD=5.662e-01\D
 ipole=0.,0.,-0.8244245\Quadrupole=-0.6269583,-1.7020129,2.3289712,0.,0
 .,0.\PG=C02V [C2(O1),SGV(C2H2N2)]\\@

 Normal termination of Gaussian 16 at Sun Apr  6 07:57:32 2025.
