 Gaussian 16, Revision C.01,

 ----------------------------------------------------------------------
 #t hf aug-cc-pvdz symm=none int=(grid=ultrafine) guess=(read,tcheck) s
 table=(opt,rrhf)
 ----------------------------------------------------------------------
 -----
 title
 -----
 Symbolic Z-matrix:
 Charge =  0 Multiplicity = 1

 SCF Done:  E(RHF) =  -276.964303918     A.U. after   11 cycles
 Normal termination of Gaussian 16 at Sun Apr  6 07:57:18 2025.
 Gaussian 16:  ES64L-G16RevC.01  3-Jul-2019

 ----------------------------------------------------------------------
 #t hf aug-cc-pvdz iop(5/13=1,5/36=2,99/5=2) pseudo=read geom=check gue
 ss=(read,tcheck) scf=(maxcycle=1)
 ----------------------------------------------------------------------
 -----
 title
 -----
 Structure from the checkpoint file:  "1-2-difluoroethane.chk"
 Charge =  0 Multiplicity = 1

                         Standard orientation:
 ---------------------------------------------------------------------
 Center     Atomic      Atomic             Coordinates (Angstroms)
 Number     Number       Type             X           Y           Z
 ---------------------------------------------------------------------
      1          6           0        0.425915    0.627157    0.000000
      2          6           0       -0.425915   -0.627157    0.000000
      3          9           0       -0.425915    1.731378    0.000000
      4          9           0        0.425915   -1.731378    0.000000
      5          1           0        1.051850    0.677105    0.891207
      6          1           0        1.051850    0.677105   -0.891207
      7          1           0       -1.051850   -0.677105    0.891207
      8          1           0       -1.051850   -0.677105   -0.891207
 ---------------------------------------------------------------------

 SCF Done:  E(RHF) =  -278.034278665     A.U. after    2 cycles

 The electronic state is 1-AG.
 Alpha  occ. eigenvalues --  -29.26473 -29.26464 -11.48153 -11.43244  -1.28047
 Alpha  occ. eigenvalues --   -1.03404  -0.73915  -0.70975  -0.64755  -0.59979
 Alpha  occ. eigenvalues --   -0.58041  -0.39025  -0.38049  -0.28595  -0.27552
 Alpha  occ. eigenvalues --   -0.24996  -0.22647
 Alpha virt. eigenvalues --    0.04940   0.05177   0.05566   0.06765   0.11675
 Alpha virt. eigenvalues --    0.12690   0.12722   0.14227   0.15206   0.16237
 Alpha virt. eigenvalues --    0.17476   0.20779   0.24001   0.25604   0.27969

 Mulliken charges:
               1
     1  C   -2.944829
     2  C   -2.944829
     3  F    0.248975
     4  F    0.248975
     5  H    1.347927
     6  H    1.347927
     7  H    1.347927
     8  H    1.347927
 Sum of Mulliken charges =  -0.00000

 Dipole moment (field-independent basis, Debye):
    X=             -0.0000    Y=              0.0000    Z=             -0.0000  Tot=              0.0000

 Test job not archived.
 1\1\GINC-SE170\SP\RHF\Aug-CC-pVDZ\C2H4F2\OHZDE\06-Apr-2025\0\\#t hf au
 g-cc-pvdz iop(5/13=1,5/36=2,99/5=2) pseudo=read geom=check guess=(read
 ,tcheck) scf=(maxcycle=1)\\title\\0,1\C,0,0.425915,0.627157,0.\C,0,-0.
 425915,-0.627157,0.\F,0,-0.425915,1.731378,0.\F,0,0.425915,-1.731378,0
 .\H,0,1.05185,0.677105,0.891207\H,0,1.05185,0.677105,-0.891207\H,0,-1.
 05185,-0.677105,0.891207\H,0,-1.05185,-0.677105,-0.891207\\Version=ES6
 4L-G16RevC.01\State=1-AG\HF=-278.0342787\RMSD=1.790e-01\Dipole=0.,0.,0
 .\Quadrupole=-0.7522936,0.6645656,0.087728,0.0547388,0.,0.\PG=C02H [SG

 Normal termination of Gaussian 16 at Sun Apr  6 07:57:32 2025.
