 Gaussian 16, Revision C.01,

 ----------------------------------------------------------------------
 #t hf aug-cc-pvdz symm=none int=(grid=ultrafine) guess=(read,tcheck) s
 table=(opt,rrhf)
 ----------------------------------------------------------------------
 -----
 title
 -----
 Symbolic Z-matrix:
 Charge =  0 Multiplicity = 1

 SCF Done:  E(RHF) =  -154.918293186     A.U. after   13 cycles
 Normal termination of Gaussian 16 at Sun Apr  6 07:57:19 2025.
 Gaussian 16:  ES64L-G16RevC.01  3-Jul-2019

 ----------------------------------------------------------------------
 #t hf aug-cc-pvdz iop(5/13=1,5/36=2,99/5=2) pseudo=read geom=check gue
 ss=(read,tcheck) scf=(maxcycle=1)
 ----------------------------------------------------------------------
 -----
 title
 -----
 Structure from the checkpoint file:  "1-2-butadiene.chk"
 Charge =  0 Multiplicity = 1

                         Standard orientation:
 ---------------------------------------------------------------------
 Center     Atomic      Atomic             Coordinates (Angstroms)
 Number     Number       Type             X           Y           Z
 ---------------------------------------------------------------------
      1          6           0       -0.676877    1.824455    0.000000
      2          6           0        0.000000    0.712806    0.000000
      3          6           0        0.674729   -0.400337    0.000000
      4          6           0        0.070788   -1.779546    0.000000
      5          1           0       -0.970419    2.308430    0.924346
      6          1           0       -0.970419    2.308430   -0.924346
      7          1           0        1.759891   -0.339248    0.000000
      8          1           0       -1.016629   -1.735258    0.000000
      9          1           0        0.392869   -2.343309   -0.878652
     10          1           0        0.392869   -2.343309    0.878652
 ---------------------------------------------------------------------

 SCF Done:  E(RHF) =  -155.692509655     A.U. after    2 cycles

 The electronic state is 1-A'.
 Alpha  occ. eigenvalues --  -11.42193 -11.41398 -11.39348 -11.37233  -1.22006
 Alpha  occ. eigenvalues --   -1.07243  -0.92569  -0.71324  -0.61909  -0.60157
 Alpha  occ. eigenvalues --   -0.56280  -0.54204  -0.51312  -0.34980  -0.33947
 Alpha virt. eigenvalues --    0.03141   0.05314   0.05979   0.06124   0.06718
 Alpha virt. eigenvalues --    0.06889   0.09773   0.11253   0.11848   0.11979
 Alpha virt. eigenvalues --    0.12754   0.15202   0.15594   0.17294   0.18313

 Mulliken charges:
               1
     1  C   -4.145965
     2  C    2.576215
     3  C   -1.578231
     4  C   -4.234952
     5  H    1.253849
     6  H    1.253849
     7  H    1.249725
     8  H    1.269060
     9  H    1.178224
    10  H    1.178224
 Sum of Mulliken charges =   0.00000

 Dipole moment (field-independent basis, Debye):
    X=              0.0819    Y=             -0.3783    Z=              0.0000  Tot=              0.3871

 Test job not archived.
 1\1\GINC-SE209\SP\RHF\Aug-CC-pVDZ\C4H6\OHZDE\06-Apr-2025\0\\#t hf aug-
 cc-pvdz iop(5/13=1,5/36=2,99/5=2) pseudo=read geom=check guess=(read,t
 check) scf=(maxcycle=1)\\title\\0,1\C,0,-0.676877,1.824455,0.\C,0,0.,0
 .712806,0.\C,0,0.674729,-0.400337,0.\C,0,0.070788,-1.779546,0.\H,0,-0.
 970419,2.30843,0.924346\H,0,-0.970419,2.30843,-0.924346\H,0,1.759891,-
 0.339248,0.\H,0,-1.016629,-1.735258,0.\H,0,0.392869,-2.343309,-0.87865
 2\H,0,0.392869,-2.343309,0.878652\\Version=ES64L-G16RevC.01\State=1-A'
 \HF=-155.6925097\RMSD=7.310e-01\Dipole=0.032231,-0.1488496,0.\Quadrupo

 Normal termination of Gaussian 16 at Sun Apr  6 07:57:33 2025.
