 Gaussian 16, Revision C.01,

 ----------------------------------------------------------------------
 #t hf aug-cc-pvdz symm=none int=(grid=ultrafine) guess=(read,tcheck) s
 table=(opt,rrhf)
 ----------------------------------------------------------------------
 -----
 title
 -----
 Symbolic Z-matrix:
 Charge =  0 Multiplicity = 1

 SCF Done:  E(RHF) =  -1146.72338554     A.U. after   14 cycles
 Normal termination of Gaussian 16 at Sun Apr  6 07:57:29 2025.
 Gaussian 16:  ES64L-G16RevC.01  3-Jul-2019

 ----------------------------------------------------------------------
 #t hf aug-cc-pvdz iop(5/13=1,5/36=2,99/5=2) pseudo=read geom=check gue
 ss=(read,tcheck) scf=(maxcycle=1)
 ----------------------------------------------------------------------
 -----
 title
 -----
 Structure from the checkpoint file:  "1-2-dichloroethyl_hydroperoxide.chk"
 Charge =  0 Multiplicity = 1

                         Standard orientation:
 ---------------------------------------------------------------------
 Center     Atomic      Atomic             Coordinates (Angstroms)
 Number     Number       Type             X           Y           Z
 ---------------------------------------------------------------------
      1         17           0       -0.802776    1.542890   -0.140419
      2         17           0        2.113305   -0.235887   -0.445398
      3          8           0       -0.818187   -1.131783   -0.204327
      4          8           0       -2.257807   -1.225852   -0.211671
      5          6           0       -0.450958   -0.091853    0.628640
      6          6           0        1.015455   -0.237799    0.975858
      7          1           0       -1.051458   -0.091718    1.536612
      8          1           0        1.314562    0.581471    1.620958
      9          1           0        1.157889   -1.186487    1.487459
     10          1           0       -2.479028   -0.683324   -0.985157
 ---------------------------------------------------------------------

 SCF Done:  E(RHF) =  -1148.19030160     A.U. after    2 cycles

 The electronic state is 1-A.
 Alpha  occ. eigenvalues --  -99.89258 -99.89151 -21.14641 -21.13456 -11.52412
 Alpha  occ. eigenvalues --  -11.45764 -10.46545 -10.46439  -9.66439  -9.66295
 Alpha  occ. eigenvalues --   -9.65759  -9.65662  -9.65557  -9.65501  -1.98692
 Alpha  occ. eigenvalues --   -1.49939  -1.34647  -1.30155  -1.09551  -0.90315
 Alpha  occ. eigenvalues --   -0.73684  -0.69853  -0.66574  -0.62173  -0.59218
 Alpha  occ. eigenvalues --   -0.57025  -0.52515  -0.50521  -0.49375  -0.48675
 Alpha  occ. eigenvalues --   -0.45011  -0.36330  -0.35465
 Alpha virt. eigenvalues --    0.03276   0.05042   0.05523   0.06256   0.06910
 Alpha virt. eigenvalues --    0.07800   0.10598   0.11918   0.12903   0.13059
 Alpha virt. eigenvalues --    0.14145   0.15372   0.15437   0.16295   0.17129

 Mulliken charges:
               1
     1  Cl   0.057337
     2  Cl   0.117066
     3  O   -1.752440
     4  O   -0.785327
     5  C   -0.309656
     6  C   -3.207572
     7  H    1.814757
     8  H    1.587296
     9  H    1.595477
    10  H    0.883062
 Sum of Mulliken charges =  -0.00000

 Dipole moment (field-independent basis, Debye):
    X=             -1.1554    Y=             -1.6663    Z=              1.9131  Tot=              2.7877

 Test job not archived.
 1\1\GINC-SE086\SP\RHF\Aug-CC-pVDZ\C2H4Cl2O2\OHZDE\06-Apr-2025\0\\#t hf
  aug-cc-pvdz iop(5/13=1,5/36=2,99/5=2) pseudo=read geom=check guess=(r
 ead,tcheck) scf=(maxcycle=1)\\title\\0,1\Cl,0,-0.802776,1.54289,-0.140
 419\Cl,0,2.113305,-0.235887,-0.445398\O,0,-0.818187,-1.131783,-0.20432
 7\O,0,-2.257807,-1.225852,-0.211671\C,0,-0.450958,-0.091853,0.62864\C,
 0,1.015455,-0.237799,0.975858\H,0,-1.051458,-0.091718,1.536612\H,0,1.3
 14562,0.581471,1.620958\H,0,1.157889,-1.186487,1.487459\H,0,-2.479028,
 -0.683324,-0.985157\\Version=ES64L-G16RevC.01\State=1-A\HF=-1148.19030

 Normal termination of Gaussian 16 at Sun Apr  6 07:57:34 2025.
