 Gaussian 16, Revision C.01,

 ----------------------------------------------------------------------
 #t hf aug-cc-pvdz symm=none int=(grid=ultrafine) guess=(read,tcheck) s
 table=(opt,rrhf)
 ----------------------------------------------------------------------
 -----
 title
 -----
 Symbolic Z-matrix:
 Charge =  0 Multiplicity = 1

 SCF Done:  E(RHF) =  -189.260416146     A.U. after   11 cycles
 Normal termination of Gaussian 16 at Sun Apr  6 07:57:21 2025.
 Gaussian 16:  ES64L-G16RevC.01  3-Jul-2019

 ----------------------------------------------------------------------
 #t hf aug-cc-pvdz iop(5/13=1,5/36=2,99/5=2) pseudo=read geom=check gue
 ss=(read,tcheck) scf=(maxcycle=1)
 ----------------------------------------------------------------------
 -----
 title
 -----
 Structure from the checkpoint file:  "1-2-dimethylhydrazine.chk"
 Charge =  0 Multiplicity = 1

                         Standard orientation:
 ---------------------------------------------------------------------
 Center     Atomic      Atomic             Coordinates (Angstroms)
 Number     Number       Type             X           Y           Z
 ---------------------------------------------------------------------
      1          6           0        0.414691    1.407380    0.525760
      2          7           0        0.414691    0.576813   -0.674955
      3          7           0       -0.414691   -0.576813   -0.674955
      4          6           0       -0.414691   -1.407380    0.525760
      5          1           0       -1.350955   -0.279245   -0.913971
      6          1           0       -0.587418    1.808180    0.689219
      7          1           0        0.736630    0.902508    1.444977
      8          1           0        1.084191    2.249794    0.349899
      9          1           0        1.350955    0.279245   -0.913971
     10          1           0       -1.084191   -2.249794    0.349899
     11          1           0       -0.736630   -0.902508    1.444977
     12          1           0        0.587418   -1.808180    0.689219
 ---------------------------------------------------------------------

 SCF Done:  E(RHF) =  -190.203026759     A.U. after    2 cycles

 The electronic state is 1-A.
 Alpha  occ. eigenvalues --  -15.73025 -15.72516 -11.37786 -11.37476  -1.47188
 Alpha  occ. eigenvalues --   -1.18617  -0.99352  -0.89045  -0.65453  -0.65253
 Alpha  occ. eigenvalues --   -0.59295  -0.57242  -0.54575  -0.52697  -0.48829
 Alpha  occ. eigenvalues --   -0.34149  -0.32322
 Alpha virt. eigenvalues --    0.03688   0.05126   0.05663   0.06071   0.06886
 Alpha virt. eigenvalues --    0.07021   0.07419   0.08580   0.11557   0.12799
 Alpha virt. eigenvalues --    0.14641   0.15903   0.16117   0.17641   0.18527

 Mulliken charges:
               1
     1  C   -3.132822
     2  N   -1.555538
     3  N   -1.555538
     4  C   -3.132822
     5  H    0.739937
     6  H    1.315911
     7  H    1.375402
     8  H    1.257110
     9  H    0.739937
    10  H    1.257110
    11  H    1.375402
    12  H    1.315911
 Sum of Mulliken charges =  -0.00000

 Dipole moment (field-independent basis, Debye):
    X=              0.0000    Y=              0.0000    Z=              1.0730  Tot=              1.0730

 Test job not archived.
 1\1\GINC-SE168\SP\RHF\Aug-CC-pVDZ\C2H8N2\OHZDE\06-Apr-2025\0\\#t hf au
 g-cc-pvdz iop(5/13=1,5/36=2,99/5=2) pseudo=read geom=check guess=(read
 ,tcheck) scf=(maxcycle=1)\\title\\0,1\C,0,0.414691,1.40738,0.52576\N,0
 ,0.414691,0.576813,-0.674955\N,0,-0.414691,-0.576813,-0.674955\C,0,-0.
 414691,-1.40738,0.52576\H,0,-1.350955,-0.279245,-0.913971\H,0,-0.58741
 8,1.80818,0.689219\H,0,0.73663,0.902508,1.444977\H,0,1.084191,2.249794
 ,0.349899\H,0,1.350955,0.279245,-0.913971\H,0,-1.084191,-2.249794,0.34
 9899\H,0,-0.73663,-0.902508,1.444977\H,0,0.587418,-1.80818,0.689219\\V

 Normal termination of Gaussian 16 at Sun Apr  6 07:57:33 2025.
