 Gaussian 16, Revision C.01,

 ----------------------------------------------------------------------
 #t hf aug-cc-pvdz symm=none int=(grid=ultrafine) guess=(read,tcheck) s
 table=(opt,rrhf)
 ----------------------------------------------------------------------
 -----
 title
 -----
 Symbolic Z-matrix:
 Charge =  0 Multiplicity = 1

 SCF Done:  E(RHF) =  -583.330891672     A.U. after   15 cycles
 Normal termination of Gaussian 16 at Sun Apr  6 07:57:20 2025.
 Gaussian 16:  ES64L-G16RevC.01  3-Jul-2019

 ----------------------------------------------------------------------
 #t hf aug-cc-pvdz iop(5/13=1,5/36=2,99/5=2) pseudo=read geom=check gue
 ss=(read,tcheck) scf=(maxcycle=1)
 ----------------------------------------------------------------------
 -----
 title
 -----
 Structure from the checkpoint file:  "1-2-4-thiadiazole.chk"
 Charge =  0 Multiplicity = 1

                         Standard orientation:
 ---------------------------------------------------------------------
 Center     Atomic      Atomic             Coordinates (Angstroms)
 Number     Number       Type             X           Y           Z
 ---------------------------------------------------------------------
      1          6           0       -0.690377   -1.160681    0.000000
      2          6           0        1.195972   -0.095042    0.000000
      3          7           0        0.670277   -1.287237    0.000000
      4          7           0       -1.238357    0.028231    0.000000
      5         16           0        0.000000    1.143132    0.000000
      6          1           0       -1.314687   -2.042848    0.000000
      7          1           0        2.257676    0.100119    0.000000
 ---------------------------------------------------------------------

 SCF Done:  E(RHF) =  -584.391294602     A.U. after    2 cycles

 The electronic state is 1-A'.
 Alpha  occ. eigenvalues --  -75.74941 -15.76735 -15.76131 -13.22348 -13.18156
 Alpha  occ. eigenvalues --  -13.06277 -11.46462 -11.44057  -8.09532  -1.55673
 Alpha  occ. eigenvalues --   -1.29386  -1.14907  -0.87441  -0.82051  -0.70384
 Alpha  occ. eigenvalues --   -0.59450  -0.59255  -0.47764  -0.41909  -0.40196
 Alpha  occ. eigenvalues --   -0.36922  -0.30279
 Alpha virt. eigenvalues --    0.02955   0.04858   0.06984   0.08892   0.08957
 Alpha virt. eigenvalues --    0.10898   0.10904   0.11086   0.13039   0.14577
 Alpha virt. eigenvalues --    0.15582   0.16611   0.17221   0.18769   0.19460

 Mulliken charges:
               1
     1  C    1.522050
     2  C   -1.321425
     3  N   -2.687046
     4  N   -2.700723
     5  S    2.206468
     6  H    1.591299
     7  H    1.389377
 Sum of Mulliken charges =  -0.00000

 Dipole moment (field-independent basis, Debye):
    X=              0.7459    Y=              2.9877    Z=              0.0000  Tot=              3.0795

 Test job not archived.
 1\1\GINC-SE050\SP\RHF\Aug-CC-pVDZ\C2H2N2S1\OHZDE\06-Apr-2025\0\\#t hf
 aug-cc-pvdz iop(5/13=1,5/36=2,99/5=2) pseudo=read geom=check guess=(re
 ad,tcheck) scf=(maxcycle=1)\\title\\0,1\C,0,-0.690377,-1.160681,0.\C,0
 ,1.195972,-0.095042,0.\N,0,0.670277,-1.287237,0.\N,0,-1.238357,0.02823
 1,0.\S,0,0.,1.143132,0.\H,0,-1.314687,-2.042848,0.\H,0,2.257676,0.1001
 19,0.\\Version=ES64L-G16RevC.01\State=1-A'\HF=-584.3912946\RMSD=1.110e
 -01\Dipole=0.2934747,1.1754712,0.\Quadrupole=-0.2627673,1.7253877,-1.4
 626204,3.0348019,0.,0.\PG=CS [SG(C2H2N2S1)]\\@

 Normal termination of Gaussian 16 at Sun Apr  6 07:57:34 2025.
