 Gaussian 16, Revision C.01,

 ----------------------------------------------------------------------
 #t hf aug-cc-pvdz symm=none int=(grid=ultrafine) guess=(read,tcheck) s
 table=(opt,rrhf)
 ----------------------------------------------------------------------
 -----
 title
 -----
 Symbolic Z-matrix:
 Charge =  0 Multiplicity = 1

 SCF Done:  E(RHF) =  -527.306028677     A.U. after   14 cycles
 Normal termination of Gaussian 16 at Sun Apr  6 07:57:06 2025.
 Gaussian 16:  ES64L-G16RevC.01  3-Jul-2019

 ----------------------------------------------------------------------
 #t hf aug-cc-pvdz iop(5/13=1,5/36=2,99/5=2) pseudo=read geom=check gue
 ss=(read,tcheck) scf=(maxcycle=1)
 ----------------------------------------------------------------------
 -----
 title
 -----
 Structure from the checkpoint file:  "1-2-3-trifluorobenzene.chk"
 Charge =  0 Multiplicity = 1

                         Standard orientation:
 ---------------------------------------------------------------------
 Center     Atomic      Atomic             Coordinates (Angstroms)
 Number     Number       Type             X           Y           Z
 ---------------------------------------------------------------------
      1          6           0       -0.000000    0.000000   -2.055605
      2          6           0        0.000000    1.208669   -1.369465
      3          6           0        0.000000    1.195102    0.013528
      4          6           0        0.000000   -0.000000    0.720519
      5          6           0       -0.000000   -1.195102    0.013528
      6          6           0       -0.000000   -1.208669   -1.369465
      7          9           0        0.000000   -2.344755    0.704591
      8          9           0        0.000000   -0.000000    2.056059
      9          9           0        0.000000    2.344755    0.704591
     10          1           0       -0.000000    0.000000   -3.135818
     11          1           0        0.000000    2.157806   -1.884800
     12          1           0       -0.000000   -2.157806   -1.884800
 ---------------------------------------------------------------------

 SCF Done:  E(RHF) =  -529.379668958     A.U. after    2 cycles

 The electronic state is 1-A1.
 Alpha  occ. eigenvalues --  -29.30832 -29.30682 -29.30671 -11.57628 -11.51246
 Alpha  occ. eigenvalues --  -11.48379 -11.47212 -11.43990 -11.40833  -1.43518
 Alpha  occ. eigenvalues --   -1.22081  -1.19657  -1.00800  -0.97376  -0.85134
 Alpha  occ. eigenvalues --   -0.77484  -0.71057  -0.67204  -0.66180  -0.62695
 Alpha  occ. eigenvalues --   -0.54490  -0.52875  -0.49208  -0.44537  -0.41786
 Alpha  occ. eigenvalues --   -0.41409  -0.40683  -0.35675  -0.29763  -0.29645
 Alpha  occ. eigenvalues --   -0.27623  -0.24331  -0.21374
 Alpha virt. eigenvalues --    0.03490   0.05264   0.05312   0.10757   0.10949
 Alpha virt. eigenvalues --    0.11018   0.11418   0.11646   0.11908   0.13209
 Alpha virt. eigenvalues --    0.13417   0.14087   0.14129   0.14325   0.14635

 Mulliken charges:
               1
     1  C    0.727530
     2  C   -4.965388
     3  C    2.171417
     4  C   -2.789315
     5  C    2.171417
     6  C   -4.965388
     7  F    0.847203
     8  F    1.284627
     9  F    0.847203
    10  H    1.423119
    11  H    1.623788
    12  H    1.623788
 Sum of Mulliken charges =  -0.00000

 Dipole moment (field-independent basis, Debye):
    X=              0.0000    Y=              0.0000    Z=              3.8188  Tot=              3.8188

 Test job not archived.
 1\1\GINC-SE222\SP\RHF\Aug-CC-pVDZ\C6H3F3\OHZDE\06-Apr-2025\0\\#t hf au
 g-cc-pvdz iop(5/13=1,5/36=2,99/5=2) pseudo=read geom=check guess=(read
 ,tcheck) scf=(maxcycle=1)\\title\\0,1\C,0,0.,0.,-2.055605\C,0,0.,1.208
 669,-1.369465\C,0,0.,1.195102,0.013528\C,0,0.,0.,0.720519\C,0,0.,-1.19
 5102,0.013528\C,0,0.,-1.208669,-1.369465\F,0,0.,-2.344755,0.704591\F,0
 ,0.,0.,2.056059\F,0,0.,2.344755,0.704591\H,0,0.,0.,-3.135818\H,0,0.,2.
 157806,-1.8848\H,0,0.,-2.157806,-1.8848\\Version=ES64L-G16RevC.01\Stat
 e=1-A1\HF=-529.379669\RMSD=1.573e+00\Dipole=0.,0.,1.5024148\Quadrupole

 Normal termination of Gaussian 16 at Sun Apr  6 07:57:11 2025.
