 Gaussian 16, Revision C.01,

 ----------------------------------------------------------------------
 #t hf aug-cc-pvdz symm=none int=(grid=ultrafine) guess=(read,tcheck) s
 table=(opt,rrhf)
 ----------------------------------------------------------------------
 -----
 title
 -----
 Symbolic Z-matrix:
 Charge =  0 Multiplicity = 1

 SCF Done:  E(RHF) =  -642.093149691     A.U. after   17 cycles
 Normal termination of Gaussian 16 at Sun Apr  6 07:57:40 2025.
 Gaussian 16:  ES64L-G16RevC.01  3-Jul-2019

 ----------------------------------------------------------------------
 #t hf aug-cc-pvdz iop(5/13=1,5/36=2,99/5=2) pseudo=read geom=check gue
 ss=(read,tcheck) scf=(maxcycle=1)
 ----------------------------------------------------------------------
 -----
 title
 -----
 Structure from the checkpoint file:  "1-2-6-oxathiazine.chk"
 Charge =  0 Multiplicity = 1

                         Standard orientation:
 ---------------------------------------------------------------------
 Center     Atomic      Atomic             Coordinates (Angstroms)
 Number     Number       Type             X           Y           Z
 ---------------------------------------------------------------------
      1         16           0       -1.333869   -0.074841   -0.191279
      2          8           0       -0.280808   -1.189269    0.481817
      3          7           0        1.033450   -1.218918   -0.164297
      4          6           0       -0.367982    1.345481    0.076452
      5          6           0        1.577197   -0.062059   -0.172578
      6          6           0        0.965100    1.208069    0.174489
      7          1           0       -0.880250    2.298065    0.110510
      8          1           0        2.586562   -0.065980   -0.571412
      9          1           0        1.602013    2.063015    0.346729
 ---------------------------------------------------------------------

 SCF Done:  E(RHF) =  -643.404779686     A.U. after    2 cycles

 The electronic state is 1-A.
 Alpha  occ. eigenvalues --  -75.74833 -21.09373 -15.79531 -13.20662 -13.17497
 Alpha  occ. eigenvalues --  -13.07808 -11.47478 -11.46469 -11.41123  -8.08848
 Alpha  occ. eigenvalues --   -1.81147  -1.31626  -1.24701  -1.02060  -0.92037
 Alpha  occ. eigenvalues --   -0.75075  -0.70419  -0.61596  -0.59619  -0.56406
 Alpha  occ. eigenvalues --   -0.48220  -0.44116  -0.42413  -0.35351  -0.34786
 Alpha  occ. eigenvalues --   -0.22796
 Alpha virt. eigenvalues --    0.02700   0.04376   0.05190   0.06711   0.08103
 Alpha virt. eigenvalues --    0.09902   0.11594   0.11803   0.12590   0.13278
 Alpha virt. eigenvalues --    0.13821   0.14180   0.14847   0.15385   0.16340

 Mulliken charges:
               1
     1  S    1.958089
     2  O   -2.054303
     3  N   -1.162651
     4  C   -2.073770
     5  C   -0.153647
     6  C   -0.716276
     7  H    1.336537
     8  H    1.408981
     9  H    1.457041
 Sum of Mulliken charges =  -0.00000

 Dipole moment (field-independent basis, Debye):
    X=             -1.3784    Y=              1.7531    Z=             -0.1794  Tot=              2.2373

 Test job not archived.
 1\1\GINC-SE222\SP\RHF\Aug-CC-pVDZ\C3H3N1O1S1\OHZDE\06-Apr-2025\0\\#t h
 f aug-cc-pvdz iop(5/13=1,5/36=2,99/5=2) pseudo=read geom=check guess=(
 read,tcheck) scf=(maxcycle=1)\\title\\0,1\S,0,-1.333869,-0.074841,-0.1
 91279\O,0,-0.280808,-1.189269,0.481817\N,0,1.03345,-1.218918,-0.164297
 \C,0,-0.367982,1.345481,0.076452\C,0,1.577197,-0.062059,-0.172578\C,0,
 0.9651,1.208069,0.174489\H,0,-0.88025,2.298065,0.11051\H,0,2.586562,-0
 .06598,-0.571412\H,0,1.602013,2.063015,0.346729\\Version=ES64L-G16RevC
 .01\State=1-A\HF=-643.4047797\RMSD=6.740e-01\Dipole=-0.542305,0.689703

 Normal termination of Gaussian 16 at Sun Apr  6 07:57:45 2025.
