 Gaussian 16, Revision C.01,

 ----------------------------------------------------------------------
 #t hf aug-cc-pvdz symm=none int=(grid=ultrafine) guess=(read,tcheck) s
 table=(opt,rrhf)
 ----------------------------------------------------------------------
 -----
 title
 -----
 Symbolic Z-matrix:
 Charge =  0 Multiplicity = 1

 SCF Done:  E(RHF) =  -226.544873333     A.U. after   13 cycles
 Normal termination of Gaussian 16 at Sun Apr  6 07:57:19 2025.
 Gaussian 16:  ES64L-G16RevC.01  3-Jul-2019

 ----------------------------------------------------------------------
 #t hf aug-cc-pvdz iop(5/13=1,5/36=2,99/5=2) pseudo=read geom=check gue
 ss=(read,tcheck) scf=(maxcycle=1)
 ----------------------------------------------------------------------
 -----
 title
 -----
 Structure from the checkpoint file:  "1-2-acetylenediol.chk"
 Charge =  0 Multiplicity = 1

                         Standard orientation:
 ---------------------------------------------------------------------
 Center     Atomic      Atomic             Coordinates (Angstroms)
 Number     Number       Type             X           Y           Z
 ---------------------------------------------------------------------
      1          8           0       -1.911245    0.085603   -0.071095
      2          8           0        1.911245   -0.085603   -0.071094
      3          6           0       -0.597007   -0.013624    0.006112
      4          6           0        0.597007    0.013624    0.006111
      5          1           0       -2.328814   -0.541074    0.532088
      6          1           0        2.328813    0.541078    0.532085
 ---------------------------------------------------------------------

 SCF Done:  E(RHF) =  -227.491391616     A.U. after    2 cycles

 The electronic state is 1-A.
 Alpha  occ. eigenvalues --  -21.14375 -21.14143 -11.43717 -11.42223  -1.78326
 Alpha  occ. eigenvalues --   -1.76332  -1.04744  -0.74978  -0.68028  -0.57767
 Alpha  occ. eigenvalues --   -0.55548  -0.48582  -0.48576  -0.29923  -0.29514
 Alpha virt. eigenvalues --    0.02762   0.04918   0.10287   0.11230   0.12768
 Alpha virt. eigenvalues --    0.13112   0.13365   0.14288   0.16550   0.20562
 Alpha virt. eigenvalues --    0.22798   0.23594   0.24165   0.24326   0.24737

 Mulliken charges:
               1
     1  O   -3.203183
     2  O   -3.203184
     3  C    2.324443
     4  C    2.324444
     5  H    0.878741
     6  H    0.878740
 Sum of Mulliken charges =  -0.00000

 Dipole moment (field-independent basis, Debye):
    X=             -0.0000    Y=              0.0000    Z=              1.0667  Tot=              1.0667

 Test job not archived.
 1\1\GINC-SE208\SP\RHF\Aug-CC-pVDZ\C2H2O2\OHZDE\06-Apr-2025\0\\#t hf au
 g-cc-pvdz iop(5/13=1,5/36=2,99/5=2) pseudo=read geom=check guess=(read
 ,tcheck) scf=(maxcycle=1)\\title\\0,1\O,0,-1.911245,0.085603,-0.071095
 \O,0,1.911245,-0.085603,-0.071094\C,0,-0.597007,-0.013624,0.006112\C,0
 ,0.597007,0.013624,0.006111\H,0,-2.328814,-0.541074,0.532088\H,0,2.328
 813,0.541078,0.532085\\Version=ES64L-G16RevC.01\State=1-A\HF=-227.4913
 916\RMSD=5.668e-01\Dipole=-0.0000002,0.000002,0.4196742\Quadrupole=3.0
 431586,-1.4785439,-1.5646147,2.9217837,-0.0000088,0.0000005\PG=C01 [X(

 Normal termination of Gaussian 16 at Sun Apr  6 07:57:32 2025.
