 Gaussian 16, Revision C.01,

 ----------------------------------------------------------------------
 #t hf aug-cc-pvdz symm=none int=(grid=ultrafine) guess=(read,tcheck) s
 table=(opt,rrhf)
 ----------------------------------------------------------------------
 -----
 title
 -----
 Symbolic Z-matrix:
 Charge =  0 Multiplicity = 1

 SCF Done:  E(RHF) =  -964.854160221     A.U. after   15 cycles
 Normal termination of Gaussian 16 at Sun Apr  6 07:57:41 2025.
 Gaussian 16:  ES64L-G16RevC.01  3-Jul-2019

 ----------------------------------------------------------------------
 #t hf aug-cc-pvdz iop(5/13=1,5/36=2,99/5=2) pseudo=read geom=check gue
 ss=(read,tcheck) scf=(maxcycle=1)
 ----------------------------------------------------------------------
 -----
 title
 -----
 Structure from the checkpoint file:  "1-2-thiazole-32H-thione.chk"
 Charge =  0 Multiplicity = 1

                         Standard orientation:
 ---------------------------------------------------------------------
 Center     Atomic      Atomic             Coordinates (Angstroms)
 Number     Number       Type             X           Y           Z
 ---------------------------------------------------------------------
      1         16           0       -1.852923   -0.547135    0.000003
      2         16           0        2.341496   -0.118506    0.000003
      3          7           0       -0.197443   -0.956196   -0.000012
      4          6           0        0.689320    0.084870   -0.000004
      5          6           0       -0.074363    1.311044   -0.000004
      6          6           0       -1.409363    1.123574    0.000003
      7          1           0        0.409589    2.273247   -0.000007
      8          1           0        0.109128   -1.916200    0.000016
      9          1           0       -2.187332    1.869648    0.000005
 ---------------------------------------------------------------------

 SCF Done:  E(RHF) =  -966.083121930     A.U. after    2 cycles

 The electronic state is 1-A.
 Alpha  occ. eigenvalues --  -75.76790 -75.63287 -15.81546 -13.24455 -13.20588
 Alpha  occ. eigenvalues --  -13.12814 -13.08551 -12.97643 -12.94135 -11.51024
 Alpha  occ. eigenvalues --  -11.48790 -11.42164  -8.11103  -7.97351  -1.53003
 Alpha  occ. eigenvalues --   -1.21213  -1.18333  -1.02820  -0.89279  -0.82241
 Alpha  occ. eigenvalues --   -0.69140  -0.60940  -0.59706  -0.57088  -0.47409
 Alpha  occ. eigenvalues --   -0.42523  -0.41756  -0.34312  -0.21029  -0.20042
 Alpha virt. eigenvalues --    0.02110   0.03535   0.04900   0.06757   0.08064
 Alpha virt. eigenvalues --    0.08458   0.09355   0.10495   0.11568   0.12111
 Alpha virt. eigenvalues --    0.13232   0.13512   0.14009   0.14397   0.16226

 Mulliken charges:
               1
     1  S    1.891898
     2  S    0.923156
     3  N   -2.827595
     4  C   -0.119123
     5  C   -1.489742
     6  C   -1.946138
     7  H    1.582505
     8  H    0.630104
     9  H    1.354935
 Sum of Mulliken charges =  -0.00000

 Dipole moment (field-independent basis, Debye):
    X=             -4.4428    Y=             -1.3207    Z=              0.0000  Tot=              4.6349

 Test job not archived.
 1\1\GINC-SE047\SP\RHF\Aug-CC-pVDZ\C3H3N1S2\OHZDE\06-Apr-2025\0\\#t hf
 aug-cc-pvdz iop(5/13=1,5/36=2,99/5=2) pseudo=read geom=check guess=(re
 ad,tcheck) scf=(maxcycle=1)\\title\\0,1\S,0,-1.852923,-0.547135,0.0000
 03\S,0,2.341496,-0.118506,0.000003\N,0,-0.197443,-0.956196,-0.000012\C
 ,0,0.68932,0.08487,-0.000004\C,0,-0.074363,1.311044,-0.000004\C,0,-1.4
 09363,1.123574,0.000003\H,0,0.409589,2.273247,-0.000007\H,0,0.109128,-
 1.9162,0.000016\H,0,-2.187332,1.869648,0.000005\\Version=ES64L-G16RevC
 .01\State=1-A\HF=-966.0831219\RMSD=1.076e+00\Dipole=-1.7479149,-0.5195

 Normal termination of Gaussian 16 at Sun Apr  6 07:57:45 2025.
