 Gaussian 16, Revision C.01,

 ----------------------------------------------------------------------
 #t hf aug-cc-pvdz symm=none int=(grid=ultrafine) guess=(read,tcheck) s
 table=(opt,rrhf)
 ----------------------------------------------------------------------
 -----
 title
 -----
 Symbolic Z-matrix:
 Charge =  0 Multiplicity = 1

 SCF Done:  E(RHF) =  -230.602117174     A.U. after   12 cycles
 Normal termination of Gaussian 16 at Sun Apr  6 07:56:54 2025.
 Gaussian 16:  ES64L-G16RevC.01  3-Jul-2019

 ----------------------------------------------------------------------
 #t hf aug-cc-pvdz iop(5/13=1,5/36=2,99/5=2) pseudo=read geom=check gue
 ss=(read,tcheck) scf=(maxcycle=1)
 ----------------------------------------------------------------------
 -----
 title
 -----
 Structure from the checkpoint file:  "1-2-4-5-hexatetraene.chk"
 Charge =  0 Multiplicity = 1

                         Standard orientation:
 ---------------------------------------------------------------------
 Center     Atomic      Atomic             Coordinates (Angstroms)
 Number     Number       Type             X           Y           Z
 ---------------------------------------------------------------------
      1          6           0       -1.082759    1.467406    0.000000
      2          6           0       -2.155944    2.199238    0.000000
      3          6           0        0.000000    0.731453    0.000000
      4          6           0       -0.000007   -0.731463    0.000000
      5          6           0        1.082753   -1.467415    0.000000
      6          6           0        2.155946   -2.199235    0.000000
      7          1           0       -2.623852    2.519476    0.924515
      8          1           0       -2.623852    2.519476   -0.924515
      9          1           0        0.966558    1.224888    0.000000
     10          1           0       -0.966564   -1.224897    0.000000
     11          1           0        2.623889   -2.519421   -0.924515
     12          1           0        2.623889   -2.519421    0.924515
 ---------------------------------------------------------------------

 SCF Done:  E(RHF) =  -231.713646688     A.U. after    2 cycles

 The electronic state is 1-A'.
 Alpha  occ. eigenvalues --  -11.46121 -11.42961 -11.42654 -11.41652 -11.40434
 Alpha  occ. eigenvalues --  -11.38968  -1.26040  -1.14969  -1.05420  -0.94806
 Alpha  occ. eigenvalues --   -0.73780  -0.72793  -0.62638  -0.60898  -0.60511
 Alpha  occ. eigenvalues --   -0.58347  -0.55114  -0.43392  -0.37499  -0.35119
 Alpha  occ. eigenvalues --   -0.29939
 Alpha virt. eigenvalues --    0.02914   0.04922   0.05654   0.05754   0.06746
 Alpha virt. eigenvalues --    0.06795   0.08894   0.09918   0.10749   0.11422
 Alpha virt. eigenvalues --    0.11459   0.11660   0.13332   0.13417   0.14031

 Mulliken charges:
               1
     1  C    2.838204
     2  C   -4.399190
     3  C   -2.261075
     4  C   -2.261070
     5  C    2.838175
     6  C   -4.399181
     7  H    1.233880
     8  H    1.233880
     9  H    1.354310
    10  H    1.354309
    11  H    1.233879
    12  H    1.233879
 Sum of Mulliken charges =   0.00000

 Dipole moment (field-independent basis, Debye):
    X=              0.0001    Y=              0.0001    Z=             -0.0000  Tot=              0.0001

 Test job not archived.
 1\1\GINC-SE046\SP\RHF\Aug-CC-pVDZ\C6H6\OHZDE\06-Apr-2025\0\\#t hf aug-
 cc-pvdz iop(5/13=1,5/36=2,99/5=2) pseudo=read geom=check guess=(read,t
 check) scf=(maxcycle=1)\\title\\0,1\C,0,0.604942,1.720376,0.\C,0,0.606
 915,3.019337,0.\C,0,0.604942,0.41118,0.\C,0,-0.604954,-0.41118,0.\C,0,
 -0.604953,-1.720376,0.\C,0,-0.606912,-3.019337,0.\H,0,0.608735,3.58633
 5,0.924515\H,0,0.608735,3.586335,-0.924515\H,0,1.556375,-0.110823,0.\H
 ,0,-1.556386,0.110823,0.\H,0,-0.608669,-3.586335,-0.924515\H,0,-0.6086
 69,-3.586335,0.924515\\Version=ES64L-G16RevC.01\State=1-A'\HF=-231.713

 Normal termination of Gaussian 16 at Sun Apr  6 07:56:59 2025.
