 Gaussian 16, Revision C.01,

 ----------------------------------------------------------------------
 #t hf aug-cc-pvdz symm=none int=(grid=ultrafine) guess=(read,tcheck) s
 table=(opt,rrhf)
 ----------------------------------------------------------------------
 -----
 title
 -----
 Symbolic Z-matrix:
 Charge =  0 Multiplicity = 1

 SCF Done:  E(RHF) =  -278.679445031     A.U. after   15 cycles
 Normal termination of Gaussian 16 at Sun Apr  6 07:57:21 2025.
 Gaussian 16:  ES64L-G16RevC.01  3-Jul-2019

 ----------------------------------------------------------------------
 #t hf aug-cc-pvdz iop(5/13=1,5/36=2,99/5=2) pseudo=read geom=check gue
 ss=(read,tcheck) scf=(maxcycle=1)
 ----------------------------------------------------------------------
 -----
 title
 -----
 Structure from the checkpoint file:  "1-2-4-triazine.chk"
 Charge =  0 Multiplicity = 1

                         Standard orientation:
 ---------------------------------------------------------------------
 Center     Atomic      Atomic             Coordinates (Angstroms)
 Number     Number       Type             X           Y           Z
 ---------------------------------------------------------------------
      1          6           0        0.000000    1.283548    0.000000
      2          7           0        1.195886    0.688755    0.000000
      3          7           0       -1.187170    0.683937    0.000000
      4          6           0        1.154952   -0.633315    0.000000
      5          6           0       -0.067010   -1.302568    0.000000
      6          7           0       -1.219098   -0.643966    0.000000
      7          1           0       -0.131661   -2.382786    0.000000
      8          1           0        2.096736   -1.170292    0.000000
      9          1           0       -0.020059    2.366010    0.000000
 ---------------------------------------------------------------------

 SCF Done:  E(RHF) =  -279.929514652     A.U. after    2 cycles

 The electronic state is 1-A'.
 Alpha  occ. eigenvalues --  -15.80372 -15.78329 -15.77965 -11.48893 -11.45043
 Alpha  occ. eigenvalues --  -11.42777  -1.59982  -1.38601  -1.23278  -0.97947
 Alpha  occ. eigenvalues --   -0.95365  -0.75847  -0.67884  -0.67321  -0.61495
 Alpha  occ. eigenvalues --   -0.59411  -0.48297  -0.44856  -0.44148  -0.39302
 Alpha  occ. eigenvalues --   -0.34230
 Alpha virt. eigenvalues --    0.03008   0.05199   0.05541   0.08380   0.09229
 Alpha virt. eigenvalues --    0.09854   0.10641   0.10966   0.11286   0.12847
 Alpha virt. eigenvalues --    0.13788   0.14441   0.15451   0.15481   0.16127

 Mulliken charges:
               1
     1  C    0.979012
     2  N   -3.049480
     3  N   -1.487227
     4  C    0.724610
     5  C    0.123613
     6  N   -2.006565
     7  H    1.477191
     8  H    1.538378
     9  H    1.700467
 Sum of Mulliken charges =   0.00000

 Dipole moment (field-independent basis, Debye):
    X=              1.9460    Y=             -1.1011    Z=              0.0000  Tot=              2.2359

 Test job not archived.
 1\1\GINC-SE101\SP\RHF\Aug-CC-pVDZ\C3H3N3\OHZDE\06-Apr-2025\0\\#t hf au
 g-cc-pvdz iop(5/13=1,5/36=2,99/5=2) pseudo=read geom=check guess=(read
 ,tcheck) scf=(maxcycle=1)\\title\\0,1\C,0,0.,1.283548,0.\N,0,1.195886,
 0.688755,0.\N,0,-1.18717,0.683937,0.\C,0,1.154952,-0.633315,0.\C,0,-0.
 06701,-1.302568,0.\N,0,-1.219098,-0.643966,0.\H,0,-0.131661,-2.382786,
 0.\H,0,2.096736,-1.170292,0.\H,0,-0.020059,2.36601,0.\\Version=ES64L-G
 16RevC.01\State=1-A'\HF=-279.9295147\RMSD=4.573e-01\Dipole=0.7656203,-
 0.4332044,0.\Quadrupole=-3.9078347,3.7083061,0.1995286,-2.0500003,0.,0

 Normal termination of Gaussian 16 at Sun Apr  6 07:57:34 2025.
