 Gaussian 16, Revision C.01,

 ----------------------------------------------------------------------
 #t hf aug-cc-pvdz symm=none int=(grid=ultrafine) guess=(read,tcheck) s
 table=(opt,rrhf)
 ----------------------------------------------------------------------
 -----
 title
 -----
 Symbolic Z-matrix:
 Charge =  0 Multiplicity = 1

 SCF Done:  E(RHF) =  -793.058710475     A.U. after   15 cycles
 Normal termination of Gaussian 16 at Sun Apr  6 07:57:54 2025.
 Gaussian 16:  ES64L-G16RevC.01  3-Jul-2019

 ----------------------------------------------------------------------
 #t hf aug-cc-pvdz iop(5/13=1,5/36=2,99/5=2) pseudo=read geom=check gue
 ss=(read,tcheck) scf=(maxcycle=1)
 ----------------------------------------------------------------------
 -----
 title
 -----
 Structure from the checkpoint file:  "1-2-5-oxathiazolidine-4-carboxylic_acid.chk"
 Charge =  0 Multiplicity = 1

                         Standard orientation:
 ---------------------------------------------------------------------
 Center     Atomic      Atomic             Coordinates (Angstroms)
 Number     Number       Type             X           Y           Z
 ---------------------------------------------------------------------
      1         16           0        2.173408   -0.484649   -0.218616
      2          8           0        1.706873    1.062931    0.309144
      3          8           0       -2.406268    1.061439   -0.306376
      4          8           0       -2.347569   -1.153252    0.077835
      5          7           0        0.354539    1.209545   -0.199575
      6          6           0       -0.337365    0.073070    0.423591
      7          6           0       -1.793433    0.075562    0.003121
      8          6           0        0.479207   -1.171035    0.031849
      9          1           0       -3.285795   -1.061746   -0.148192
     10          1           0        0.051131    2.086883    0.215271
     11          1           0       -0.334047    0.154184    1.518761
     12          1           0        0.458740   -1.921418    0.816656
     13          1           0        0.138929   -1.604861   -0.903801
 ---------------------------------------------------------------------

 SCF Done:  E(RHF) =  -794.973666718     A.U. after    2 cycles

 The electronic state is 1-A.
 Alpha  occ. eigenvalues --  -75.72799 -21.14602 -21.09057 -21.07657 -15.78968
 Alpha  occ. eigenvalues --  -13.17568 -13.15061 -13.05697 -11.55978 -11.48096
 Alpha  occ. eigenvalues --  -11.42300  -8.06496  -1.85878  -1.81498  -1.67866
 Alpha  occ. eigenvalues --   -1.30733  -1.19783  -0.99409  -0.92047  -0.82097
 Alpha  occ. eigenvalues --   -0.73843  -0.68851  -0.63175  -0.59382  -0.57933
 Alpha  occ. eigenvalues --   -0.55410  -0.52631  -0.50943  -0.46883  -0.41315
 Alpha  occ. eigenvalues --   -0.39607  -0.36131  -0.33993  -0.31094  -0.21086
 Alpha virt. eigenvalues --    0.03257   0.04745   0.05275   0.05525   0.06554
 Alpha virt. eigenvalues --    0.07329   0.09272   0.10712   0.11567   0.12329
 Alpha virt. eigenvalues --    0.12502   0.12827   0.14604   0.15351   0.15544

 Mulliken charges:
               1
     1  S    1.660576
     2  O   -2.312651
     3  O   -3.122096
     4  O   -3.063611
     5  N   -0.342012
     6  C   -2.045679
     7  C    6.445683
     8  C   -3.262467
     9  H    0.917527
    10  H    0.660057
    11  H    1.780642
    12  H    1.224591
    13  H    1.459439
 Sum of Mulliken charges =  -0.00000

 Dipole moment (field-independent basis, Debye):
    X=             -0.2370    Y=             -1.2325    Z=              0.7574  Tot=              1.4659

 Test job not archived.
 1\1\GINC-SE177\SP\RHF\Aug-CC-pVDZ\C3H5N1O3S1\OHZDE\06-Apr-2025\0\\#t h
 f aug-cc-pvdz iop(5/13=1,5/36=2,99/5=2) pseudo=read geom=check guess=(
 read,tcheck) scf=(maxcycle=1)\\title\\0,1\S,0,2.173408,-0.484649,-0.21
 8616\O,0,1.706873,1.062931,0.309144\O,0,-2.406268,1.061439,-0.306376\O
 ,0,-2.347569,-1.153252,0.077835\N,0,0.354539,1.209545,-0.199575\C,0,-0
 .337365,0.07307,0.423591\C,0,-1.793433,0.075562,0.003121\C,0,0.479207,
 -1.171035,0.031849\H,0,-3.285795,-1.061746,-0.148192\H,0,0.051131,2.08
 6883,0.215271\H,0,-0.334047,0.154184,1.518761\H,0,0.45874,-1.921418,0.

 Normal termination of Gaussian 16 at Sun Apr  6 07:58:01 2025.
