 Gaussian 16, Revision C.01,

 ----------------------------------------------------------------------
 #t hf aug-cc-pvdz symm=none int=(grid=ultrafine) guess=(read,tcheck) s
 table=(opt,rrhf)
 ----------------------------------------------------------------------
 -----
 title
 -----
 Symbolic Z-matrix:
 Charge =  0 Multiplicity = 1

 SCF Done:  E(RHF) =  -1088.81557643     A.U. after   14 cycles
 Normal termination of Gaussian 16 at Sun Apr  6 07:57:25 2025.
 Gaussian 16:  ES64L-G16RevC.01  3-Jul-2019

 ----------------------------------------------------------------------
 #t hf aug-cc-pvdz iop(5/13=1,5/36=2,99/5=2) pseudo=read geom=check gue
 ss=(read,tcheck) scf=(maxcycle=1)
 ----------------------------------------------------------------------
 -----
 title
 -----
 Structure from the checkpoint file:  "1-2-dichloro-1-cyanoethane.chk"
 Charge =  0 Multiplicity = 1

                         Standard orientation:
 ---------------------------------------------------------------------
 Center     Atomic      Atomic             Coordinates (Angstroms)
 Number     Number       Type             X           Y           Z
 ---------------------------------------------------------------------
      1         17           0        0.551587    1.629115    0.087511
      2         17           0       -2.244644   -0.339481   -0.083117
      3          7           0        2.790232   -1.254867    0.059102
      4          6           0        0.482758   -0.120609   -0.375006
      5          6           0       -0.599970   -0.872040    0.395411
      6          6           0        1.784559   -0.732929   -0.133991
      7          1           0        0.269104   -0.138557   -1.441420
      8          1           0       -0.528062   -1.933131    0.170399
      9          1           0       -0.494775   -0.714549    1.464113
 ---------------------------------------------------------------------

 SCF Done:  E(RHF) =  -1090.08875771     A.U. after    2 cycles

 The electronic state is 1-A.
 Alpha  occ. eigenvalues --  -99.91867 -99.90904 -15.79286 -11.54158 -11.48452
 Alpha  occ. eigenvalues --  -11.45801 -10.49125 -10.48188  -9.69013  -9.68290
 Alpha  occ. eigenvalues --   -9.68197  -9.68090  -9.67349  -9.67252  -1.43295
 Alpha  occ. eigenvalues --   -1.33447  -1.31473  -1.15559  -0.97887  -0.78028
 Alpha  occ. eigenvalues --   -0.73279  -0.66882  -0.62438  -0.61924  -0.55927
 Alpha  occ. eigenvalues --   -0.53746  -0.52069  -0.50623  -0.50349  -0.46654
 Alpha  occ. eigenvalues --   -0.45819
 Alpha virt. eigenvalues --    0.02041   0.04516   0.05361   0.06011   0.06424
 Alpha virt. eigenvalues --    0.09064   0.09583   0.11069   0.11366   0.11811
 Alpha virt. eigenvalues --    0.12362   0.13885   0.15582   0.15972   0.16190

 Mulliken charges:
               1
     1  Cl   0.204136
     2  Cl   0.131969
     3  N   -2.382144
     4  C   -1.927792
     5  C   -3.523259
     6  C    2.512898
     7  H    1.785442
     8  H    1.614639
     9  H    1.584111
 Sum of Mulliken charges =   0.00000

 Dipole moment (field-independent basis, Debye):
    X=             -1.1313    Y=             -0.9334    Z=             -0.3009  Tot=              1.4972

 Test job not archived.
 1\1\GINC-SE085\SP\RHF\Aug-CC-pVDZ\C3H3Cl2N1\OHZDE\06-Apr-2025\0\\#t hf
  aug-cc-pvdz iop(5/13=1,5/36=2,99/5=2) pseudo=read geom=check guess=(r
 ead,tcheck) scf=(maxcycle=1)\\title\\0,1\Cl,0,0.551587,1.629115,0.0875
 11\Cl,0,-2.244644,-0.339481,-0.083117\N,0,2.790232,-1.254867,0.059102\
 C,0,0.482758,-0.120609,-0.375006\C,0,-0.59997,-0.87204,0.395411\C,0,1.
 784559,-0.732929,-0.133991\H,0,0.269104,-0.138557,-1.44142\H,0,-0.5280
 62,-1.933131,0.170399\H,0,-0.494775,-0.714549,1.464113\\Version=ES64L-
 G16RevC.01\State=1-A\HF=-1090.0887577\RMSD=2.221e-01\Dipole=-0.4450895

 Normal termination of Gaussian 16 at Sun Apr  6 07:57:33 2025.
