 Gaussian 16, Revision C.01,

 ----------------------------------------------------------------------
 #t hf aug-cc-pvdz symm=none int=(grid=ultrafine) guess=(read,tcheck) s
 table=(opt,rrhf)
 ----------------------------------------------------------------------
 -----
 title
 -----
 Symbolic Z-matrix:
 Charge =  0 Multiplicity = 1

 SCF Done:  E(RHF) =  -1392.54008687     A.U. after   12 cycles

 1\1\GINC-SE084\Stability\RHF\Aug-CC-pVDZ\C2Cl2F4\OHZDE\06-Apr-2025\0\\
 #t hf aug-cc-pvdz symm=none int=(grid=ultrafine) guess=(read,tcheck) s
 table=(opt,rrhf)\\title\\0,1\C,0,-0.237982,0.743614,0.\C,0,0.237982,-0
 .743614,0.\Cl,0,-2.016512,0.831072,0.\Cl,0,2.016512,-0.831072,0.\F,0,0
 .237982,1.361871,1.086622\F,0,0.237982,1.361871,-1.086622\F,0,-0.23798
 2,-1.361871,1.086622\F,0,-0.237982,-1.361871,-1.086622\\Version=ES64L-
 G16RevC.01\HF=-1392.5400869\RMSD=1.649e-09\Dipole=0.,0.,0.\Quadrupole=
 2.3922694,-1.0118485,-1.3804209,-0.8819287,0.,0.\PG=Unknown\\@

 Normal termination of Gaussian 16 at Sun Apr  6 07:57:28 2025.
 Gaussian 16:  ES64L-G16RevC.01  3-Jul-2019

 ----------------------------------------------------------------------
 #t hf aug-cc-pvdz iop(5/13=1,5/36=2,99/5=2) pseudo=read geom=check gue
 ss=(read,tcheck) scf=(maxcycle=1)
 ----------------------------------------------------------------------
 -----
 title
 -----
 Structure from the checkpoint file:  "1-2-dichloro-1-1-2-2-tetrafluoroethane.chk"
 Charge =  0 Multiplicity = 1

                         Standard orientation:
 ---------------------------------------------------------------------
 Center     Atomic      Atomic             Coordinates (Angstroms)
 Number     Number       Type             X           Y           Z
 ---------------------------------------------------------------------
      1          6           0       -0.237982    0.743614    0.000000
      2          6           0        0.237982   -0.743614    0.000000
      3         17           0       -2.016512    0.831072    0.000000
      4         17           0        2.016512   -0.831072    0.000000
      5          9           0        0.237982    1.361871    1.086622
      6          9           0        0.237982    1.361871   -1.086622
      7          9           0       -0.237982   -1.361871    1.086622
      8          9           0       -0.237982   -1.361871   -1.086622
 ---------------------------------------------------------------------

 SCF Done:  E(RHF) =  -1394.70318836     A.U. after    2 cycles

 The electronic state is 1-AG.
 Alpha  occ. eigenvalues --  -99.93554 -99.93550 -29.34352 -29.34338 -29.34303
 Alpha  occ. eigenvalues --  -29.34298 -11.64404 -11.59225 -10.51056 -10.51051
 Alpha  occ. eigenvalues --   -9.70983  -9.70844  -9.70067  -9.69976  -9.69949
 Alpha  occ. eigenvalues --   -9.69936  -1.53041  -1.41190  -1.27244  -1.20734
 Alpha  occ. eigenvalues --   -0.96472  -0.86443  -0.83864  -0.82344  -0.72525
 Alpha  occ. eigenvalues --   -0.58004  -0.57100  -0.55581  -0.55216  -0.51350
 Alpha  occ. eigenvalues --   -0.47853  -0.43996  -0.42592  -0.42064  -0.38903
 Alpha  occ. eigenvalues --   -0.36845  -0.36169  -0.32437  -0.28576  -0.28157
 Alpha  occ. eigenvalues --   -0.24351
 Alpha virt. eigenvalues --    0.03348   0.06199   0.07971   0.09572   0.10485
 Alpha virt. eigenvalues --    0.11595   0.12557   0.13593   0.14573   0.15550
 Alpha virt. eigenvalues --    0.15559   0.17011   0.17305   0.19701   0.20270

 Mulliken charges:
               1
     1  C   -1.060160
     2  C   -1.060160
     3  Cl  -0.395095
     4  Cl  -0.395095
     5  F    0.727627
     6  F    0.727627
     7  F    0.727627
     8  F    0.727627
 Sum of Mulliken charges =  -0.00000

 Dipole moment (field-independent basis, Debye):
    X=              0.0000    Y=             -0.0000    Z=              0.0000  Tot=              0.0000

 Test job not archived.
 1\1\GINC-SE084\SP\RHF\Aug-CC-pVDZ\C2Cl2F4\OHZDE\06-Apr-2025\0\\#t hf a
 ug-cc-pvdz iop(5/13=1,5/36=2,99/5=2) pseudo=read geom=check guess=(rea
 d,tcheck) scf=(maxcycle=1)\\title\\0,1\C,0,-0.237982,0.743614,0.\C,0,0
 .237982,-0.743614,0.\Cl,0,-2.016512,0.831072,0.\Cl,0,2.016512,-0.83107
 2,0.\F,0,0.237982,1.361871,1.086622\F,0,0.237982,1.361871,-1.086622\F,
 0,-0.237982,-1.361871,1.086622\F,0,-0.237982,-1.361871,-1.086622\\Vers
 ion=ES64L-G16RevC.01\State=1-AG\HF=-1394.7031884\RMSD=1.346e-01\Dipole
 =0.,0.,0.\Quadrupole=-5.889845,3.136198,2.753647,4.3083583,0.,0.\PG=C0

 Normal termination of Gaussian 16 at Sun Apr  6 07:57:33 2025.
