 Gaussian 16, Revision C.01,

 ----------------------------------------------------------------------
 #t hf aug-cc-pvdz symm=none int=(grid=ultrafine) guess=(read,tcheck) s
 table=(opt,rrhf)
 ----------------------------------------------------------------------
 -----
 title
 -----
 Symbolic Z-matrix:
 Charge =  0 Multiplicity = 1

 SCF Done:  E(RHF) =  -626.164978976     A.U. after   12 cycles
 Normal termination of Gaussian 16 at Sun Apr  6 07:57:09 2025.
 Gaussian 16:  ES64L-G16RevC.01  3-Jul-2019

 ----------------------------------------------------------------------
 #t hf aug-cc-pvdz iop(5/13=1,5/36=2,99/5=2) pseudo=read geom=check gue
 ss=(read,tcheck) scf=(maxcycle=1)
 ----------------------------------------------------------------------
 -----
 title
 -----
 Structure from the checkpoint file:  "1-2-4-5-tetrafluorobenzene.chk"
 Charge =  0 Multiplicity = 1

                         Standard orientation:
 ---------------------------------------------------------------------
 Center     Atomic      Atomic             Coordinates (Angstroms)
 Number     Number       Type             X           Y           Z
 ---------------------------------------------------------------------
      1          6           0        0.000000    1.191371    0.693954
      2          6           0        0.000000    0.000000    1.397434
      3          6           0       -0.000000   -1.191371    0.693954
      4          6           0       -0.000000   -1.191371   -0.693954
      5          6           0        0.000000    0.000000   -1.397434
      6          6           0        0.000000    1.191371   -0.693954
      7          9           0        0.000000    2.357926    1.354335
      8          1           0        0.000000    0.000000    2.477199
      9          9           0       -0.000000   -2.357926    1.354335
     10          9           0       -0.000000   -2.357926   -1.354335
     11          1           0        0.000000    0.000000   -2.477199
     12          9           0        0.000000    2.357926   -1.354335
 ---------------------------------------------------------------------

 SCF Done:  E(RHF) =  -628.558880040     A.U. after    2 cycles

 The electronic state is 1-AG.
 Alpha  occ. eigenvalues --  -29.31443 -29.31402 -29.31366 -29.31356 -11.59073
 Alpha  occ. eigenvalues --  -11.53506 -11.50833 -11.49677 -11.46381 -11.42958
 Alpha  occ. eigenvalues --   -1.45732  -1.26881  -1.21393  -1.06298  -1.01003
 Alpha  occ. eigenvalues --   -0.85882  -0.84711  -0.74993  -0.72035  -0.66057
 Alpha  occ. eigenvalues --   -0.64196  -0.60652  -0.57366  -0.54846  -0.47831
 Alpha  occ. eigenvalues --   -0.43676  -0.42165  -0.40885  -0.40810  -0.38765
 Alpha  occ. eigenvalues --   -0.32666  -0.30727  -0.30224  -0.28762  -0.27447
 Alpha  occ. eigenvalues --   -0.26678  -0.18318
 Alpha virt. eigenvalues --    0.04001   0.06052   0.09590   0.09666   0.10046
 Alpha virt. eigenvalues --    0.10427   0.11377   0.12044   0.12097   0.12718
 Alpha virt. eigenvalues --    0.12860   0.13633   0.13963   0.14360   0.15196

 Mulliken charges:
               1
     1  C    0.567316
     2  C   -4.791496
     3  C    0.567316
     4  C    0.567316
     5  C   -4.791496
     6  C    0.567316
     7  F    0.947454
     8  H    1.761957
     9  F    0.947454
    10  F    0.947454
    11  H    1.761957
    12  F    0.947454
 Sum of Mulliken charges =   0.00000

 Dipole moment (field-independent basis, Debye):
    X=             -0.0000    Y=              0.0000    Z=             -0.0000  Tot=              0.0000

 Test job not archived.
 1\1\GINC-SE047\SP\RHF\Aug-CC-pVDZ\C6H2F4\OHZDE\06-Apr-2025\0\\#t hf au
 g-cc-pvdz iop(5/13=1,5/36=2,99/5=2) pseudo=read geom=check guess=(read
 ,tcheck) scf=(maxcycle=1)\\title\\0,1\C,0,0.,1.191371,0.693954\C,0,0.,
 0.,1.397434\C,0,0.,-1.191371,0.693954\C,0,0.,-1.191371,-0.693954\C,0,0
 .,0.,-1.397434\C,0,0.,1.191371,-0.693954\F,0,0.,2.357926,1.354335\H,0,
 0.,0.,2.477199\F,0,0.,-2.357926,1.354335\F,0,0.,-2.357926,-1.354335\H,
 0,0.,0.,-2.477199\F,0,0.,2.357926,-1.354335\\Version=ES64L-G16RevC.01\
 State=1-AG\HF=-628.55888\RMSD=1.507e+00\Dipole=0.,0.,0.\Quadrupole=-8.

 Normal termination of Gaussian 16 at Sun Apr  6 07:57:13 2025.
