 Gaussian 16, Revision C.01,

 ----------------------------------------------------------------------
 #t hf aug-cc-pvdz symm=none int=(grid=ultrafine) guess=(read,tcheck) s
 table=(opt,rrhf)
 ----------------------------------------------------------------------
 -----
 title
 -----
 Symbolic Z-matrix:
 Charge =  0 Multiplicity = 1

 SCF Done:  E(RHF) =  -1036.12805124     A.U. after   12 cycles

 1\1\GINC-SE106\Stability\RHF\Aug-CC-pVDZ\C3H6Cl2\OHZDE\06-Apr-2025\0\\
 #t hf aug-cc-pvdz symm=none int=(grid=ultrafine) guess=(read,tcheck) s
 table=(opt,rrhf)\\title\\0,1\C,0,0.666782,1.690821,-0.460286\C,0,-0.72
 5969,0.098901,0.986609\C,0,0.649984,0.536037,0.52168\Cl,0,-1.857919,-0
 .342878,-0.351048\Cl,0,1.569886,-0.883973,-0.164823\H,0,0.168266,1.420
 936,-1.388454\H,0,0.146881,2.547529,-0.025224\H,0,1.689864,1.985265,-0
 .683868\H,0,-0.661903,-0.769025,1.634334\H,0,-1.198048,0.91969,1.52343
 3\H,0,1.206722,0.79753,1.421558\\Version=ES64L-G16RevC.01\HF=-1036.128

 Normal termination of Gaussian 16 at Sun Apr  6 07:57:40 2025.
 Gaussian 16:  ES64L-G16RevC.01  3-Jul-2019

 ----------------------------------------------------------------------
 #t hf aug-cc-pvdz iop(5/13=1,5/36=2,99/5=2) pseudo=read geom=check gue
 ss=(read,tcheck) scf=(maxcycle=1)
 ----------------------------------------------------------------------
 -----
 title
 -----
 Structure from the checkpoint file:  "1-2-dichloropropane.chk"
 Charge =  0 Multiplicity = 1

                         Standard orientation:
 ---------------------------------------------------------------------
 Center     Atomic      Atomic             Coordinates (Angstroms)
 Number     Number       Type             X           Y           Z
 ---------------------------------------------------------------------
      1          6           0        0.666782    1.690821   -0.460286
      2          6           0       -0.725969    0.098901    0.986609
      3          6           0        0.649984    0.536037    0.521680
      4         17           0       -1.857919   -0.342878   -0.351048
      5         17           0        1.569886   -0.883973   -0.164823
      6          1           0        0.168266    1.420936   -1.388454
      7          1           0        0.146881    2.547529   -0.025224
      8          1           0        1.689864    1.985265   -0.683868
      9          1           0       -0.661903   -0.769025    1.634334
     10          1           0       -1.198048    0.919690    1.523433
     11          1           0        1.206722    0.797530    1.421558
 ---------------------------------------------------------------------

 SCF Done:  E(RHF) =  -1037.22311566     A.U. after    2 cycles

 The electronic state is 1-A.
 Alpha  occ. eigenvalues --  -99.88305 -99.87811 -11.48659 -11.44765 -11.38980
 Alpha  occ. eigenvalues --  -10.45586 -10.45089  -9.65466  -9.65007  -9.64831
 Alpha  occ. eigenvalues --   -9.64710  -9.64293  -9.64216  -1.38355  -1.29821
 Alpha  occ. eigenvalues --   -1.15301  -1.02585  -0.86719  -0.69883  -0.68237
 Alpha  occ. eigenvalues --   -0.63504  -0.58549  -0.55550  -0.54032  -0.52802
 Alpha  occ. eigenvalues --   -0.49501  -0.47815  -0.47099  -0.45564
 Alpha virt. eigenvalues --    0.02937   0.05101   0.05509   0.06313   0.06499
 Alpha virt. eigenvalues --    0.06932   0.07793   0.08498   0.10369   0.12172
 Alpha virt. eigenvalues --    0.13017   0.14423   0.14913   0.15518   0.15928

 Mulliken charges:
               1
     1  C   -3.243283
     2  C   -3.268215
     3  C   -1.923658
     4  Cl   0.080515
     5  Cl  -0.100903
     6  H    1.278954
     7  H    1.198897
     8  H    1.259337
     9  H    1.611528
    10  H    1.556010
    11  H    1.550818
 Sum of Mulliken charges =  -0.00000

 Dipole moment (field-independent basis, Debye):
    X=              0.2294    Y=              2.4961    Z=              2.1435  Tot=              3.2982

 Test job not archived.
 1\1\GINC-SE106\SP\RHF\Aug-CC-pVDZ\C3H6Cl2\OHZDE\06-Apr-2025\0\\#t hf a
 ug-cc-pvdz iop(5/13=1,5/36=2,99/5=2) pseudo=read geom=check guess=(rea
 d,tcheck) scf=(maxcycle=1)\\title\\0,1\C,0,0.666782,1.690821,-0.460286
 \C,0,-0.725969,0.098901,0.986609\C,0,0.649984,0.536037,0.52168\Cl,0,-1
 .857919,-0.342878,-0.351048\Cl,0,1.569886,-0.883973,-0.164823\H,0,0.16
 8266,1.420936,-1.388454\H,0,0.146881,2.547529,-0.025224\H,0,1.689864,1
 .985265,-0.683868\H,0,-0.661903,-0.769025,1.634334\H,0,-1.198048,0.919
 69,1.523433\H,0,1.206722,0.79753,1.421558\\Version=ES64L-G16RevC.01\St

 Normal termination of Gaussian 16 at Sun Apr  6 07:57:44 2025.
