 Gaussian 16, Revision C.01,

 ----------------------------------------------------------------------
 #t hf aug-cc-pvdz symm=none int=(grid=ultrafine) guess=(read,tcheck) s
 table=(opt,rrhf)
 ----------------------------------------------------------------------
 -----
 title
 -----
 Symbolic Z-matrix:
 Charge =  0 Multiplicity = 1

 SCF Done:  E(RHF) =  -982.020538603     A.U. after   15 cycles
 Normal termination of Gaussian 16 at Sun Apr  6 07:56:55 2025.
 Gaussian 16:  ES64L-G16RevC.01  3-Jul-2019

 ----------------------------------------------------------------------
 #t hf aug-cc-pvdz iop(5/13=1,5/36=2,99/5=2) pseudo=read geom=check gue
 ss=(read,tcheck) scf=(maxcycle=1)
 ----------------------------------------------------------------------
 -----
 title
 -----
 Structure from the checkpoint file:  "1-2-3-dithiazolidin-4-imine.chk"
 Charge =  0 Multiplicity = 1

                         Standard orientation:
 ---------------------------------------------------------------------
 Center     Atomic      Atomic             Coordinates (Angstroms)
 Number     Number       Type             X           Y           Z
 ---------------------------------------------------------------------
      1         16           0       -1.169858   -1.011282    0.175331
      2         16           0       -1.142550    1.044339   -0.322638
      3          7           0        0.518150   -1.217936   -0.077229
      4          7           0        2.527323   -0.088721   -0.233399
      5          6           0        1.295329   -0.062239    0.065703
      6          6           0        0.478211    1.133537    0.539987
      7          1           0        0.785257   -1.791625   -0.865407
      8          1           0        2.962650    0.821414   -0.123246
      9          1           0        0.970962    2.062828    0.267287
     10          1           0        0.320110    1.097290    1.618539
 ---------------------------------------------------------------------

 SCF Done:  E(RHF) =  -983.336628332     A.U. after    2 cycles

 The electronic state is 1-A.
 Alpha  occ. eigenvalues --  -75.74335 -75.72234 -15.77831 -15.73639 -13.19412
 Alpha  occ. eigenvalues --  -13.14339 -13.12968 -13.09855 -13.06961 -13.05479
 Alpha  occ. eigenvalues --  -11.49440 -11.42982  -8.08208  -8.06131  -1.49907
 Alpha  occ. eigenvalues --   -1.29997  -1.21348  -1.07017  -0.93676  -0.82837
 Alpha  occ. eigenvalues --   -0.68505  -0.66483  -0.59620  -0.56015  -0.52109
 Alpha  occ. eigenvalues --   -0.46386  -0.41197  -0.37517  -0.34997  -0.29160
 Alpha  occ. eigenvalues --   -0.21301
 Alpha virt. eigenvalues --    0.03008   0.04404   0.04951   0.05237   0.06247
 Alpha virt. eigenvalues --    0.07412   0.11391   0.12206   0.12295   0.12486
 Alpha virt. eigenvalues --    0.13232   0.14271   0.14715   0.15218   0.15605

 Mulliken charges:
               1
     1  S    0.483425
     2  S    0.372575
     3  N   -2.301926
     4  N   -3.052687
     5  C    3.859690
     6  C   -3.408819
     7  H    0.653894
     8  H    0.557855
     9  H    1.429714
    10  H    1.406278
 Sum of Mulliken charges =   0.00000

 Dipole moment (field-independent basis, Debye):
    X=             -2.6601    Y=              1.0899    Z=             -0.0398  Tot=              2.8750

 Test job not archived.
 1\1\GINC-SE150\SP\RHF\Aug-CC-pVDZ\C2H4N2S2\OHZDE\06-Apr-2025\0\\#t hf
 aug-cc-pvdz iop(5/13=1,5/36=2,99/5=2) pseudo=read geom=check guess=(re
 ad,tcheck) scf=(maxcycle=1)\\title\\0,1\S,0,-1.169858,-1.011282,0.1753
 31\S,0,-1.14255,1.044339,-0.322638\N,0,0.51815,-1.217936,-0.077229\N,0
 ,2.527323,-0.088722,-0.233399\C,0,1.295329,-0.062239,0.065703\C,0,0.47
 8211,1.133537,0.539987\H,0,0.785257,-1.791625,-0.865407\H,0,2.96265,0.
 821413,-0.123246\H,0,0.970963,2.062828,0.267287\H,0,0.32011,1.09729,1.
 618539\\Version=ES64L-G16RevC.01\State=1-A\HF=-983.3366283\RMSD=1.655e

 Normal termination of Gaussian 16 at Sun Apr  6 07:57:01 2025.
