 Gaussian 16, Revision C.01,

 ----------------------------------------------------------------------
 #t hf aug-cc-pvdz symm=none int=(grid=ultrafine) guess=(read,tcheck) s
 table=(opt,rrhf)
 ----------------------------------------------------------------------
 -----
 title
 -----
 Symbolic Z-matrix:
 Charge =  0 Multiplicity = 1

 SCF Done:  E(RHF) =  -1495.04622018     A.U. after   13 cycles

 1\1\GINC-SE209\Stability\RHF\Aug-CC-pVDZ\C3H5Cl3\OHZDE\06-Apr-2025\0\\
 #t hf aug-cc-pvdz symm=none int=(grid=ultrafine) guess=(read,tcheck) s
 table=(opt,rrhf)\\title\\0,1\C,0,0.430741,0.570041,0.\C,0,-0.305104,0.
 279695,1.300643\C,0,-0.305104,0.279695,-1.300643\Cl,0,0.726567,2.38202
 3,0.\Cl,0,-0.305104,-1.475215,-1.736081\Cl,0,-0.305104,-1.475215,1.736
 081\H,0,1.416453,0.11506,0.\H,0,0.183833,0.788707,-2.122928\H,0,0.1838
 33,0.788707,2.122928\H,0,-1.342701,0.596935,-1.244192\H,0,-1.342701,0.
 596935,1.244192\\Version=ES64L-G16RevC.01\HF=-1495.0462202\RMSD=3.692e

 Normal termination of Gaussian 16 at Sun Apr  6 07:56:58 2025.
 Gaussian 16:  ES64L-G16RevC.01  3-Jul-2019

 ----------------------------------------------------------------------
 #t hf aug-cc-pvdz iop(5/13=1,5/36=2,99/5=2) pseudo=read geom=check gue
 ss=(read,tcheck) scf=(maxcycle=1)
 ----------------------------------------------------------------------
 -----
 title
 -----
 Structure from the checkpoint file:  "1-2-3-trichloropropane.chk"
 Charge =  0 Multiplicity = 1

                         Standard orientation:
 ---------------------------------------------------------------------
 Center     Atomic      Atomic             Coordinates (Angstroms)
 Number     Number       Type             X           Y           Z
 ---------------------------------------------------------------------
      1          6           0        0.430741    0.570041    0.000000
      2          6           0       -0.305104    0.279695    1.300643
      3          6           0       -0.305104    0.279695   -1.300643
      4         17           0        0.726567    2.382023    0.000000
      5         17           0       -0.305104   -1.475215   -1.736081
      6         17           0       -0.305104   -1.475215    1.736081
      7          1           0        1.416453    0.115060   -0.000000
      8          1           0        0.183833    0.788707   -2.122928
      9          1           0        0.183833    0.788707    2.122928
     10          1           0       -1.342701    0.596935   -1.244192
     11          1           0       -1.342701    0.596935    1.244192
 ---------------------------------------------------------------------

 SCF Done:  E(RHF) =  -1496.36885784     A.U. after    2 cycles

 The electronic state is 1-A'.
 Alpha  occ. eigenvalues --  -99.90188 -99.89015 -99.89010 -11.50992 -11.47117
 Alpha  occ. eigenvalues --  -11.44393 -10.47442 -10.46311 -10.46266  -9.67383
 Alpha  occ. eigenvalues --   -9.66727  -9.66559  -9.66206  -9.66150  -9.65550
 Alpha  occ. eigenvalues --   -9.65430  -9.65409  -9.65338  -1.41605  -1.32553
 Alpha  occ. eigenvalues --   -1.30462  -1.14030  -1.02815  -0.89037  -0.72057
 Alpha  occ. eigenvalues --   -0.68921  -0.67562  -0.61372  -0.59969  -0.59761
 Alpha  occ. eigenvalues --   -0.54887  -0.52677  -0.51706  -0.50710  -0.48179
 Alpha  occ. eigenvalues --   -0.48089  -0.44962
 Alpha virt. eigenvalues --    0.02699   0.05189   0.05296   0.05881   0.06878
 Alpha virt. eigenvalues --    0.07013   0.07449   0.07901   0.10597   0.11412
 Alpha virt. eigenvalues --    0.11532   0.12877   0.13583   0.14214   0.16005

 Mulliken charges:
               1
     1  C   -1.946781
     2  C   -3.288833
     3  C   -3.288833
     4  Cl   0.094579
     5  Cl   0.072991
     6  Cl   0.072991
     7  H    1.726015
     8  H    1.617483
     9  H    1.617483
    10  H    1.661453
    11  H    1.661453
 Sum of Mulliken charges =  -0.00000

 Dipole moment (field-independent basis, Debye):
    X=             -0.2811    Y=              1.6366    Z=             -0.0000  Tot=              1.6605

 Test job not archived.
 1\1\GINC-SE209\SP\RHF\Aug-CC-pVDZ\C3H5Cl3\OHZDE\06-Apr-2025\0\\#t hf a
 ug-cc-pvdz iop(5/13=1,5/36=2,99/5=2) pseudo=read geom=check guess=(rea
 d,tcheck) scf=(maxcycle=1)\\title\\0,1\C,0,0.430741,0.570041,0.\C,0,-0
 .305104,0.279695,1.300643\C,0,-0.305104,0.279695,-1.300643\Cl,0,0.7265
 67,2.382023,0.\Cl,0,-0.305104,-1.475215,-1.736081\Cl,0,-0.305104,-1.47
 5215,1.736081\H,0,1.416453,0.11506,0.\H,0,0.183833,0.788707,-2.122928\
 H,0,0.183833,0.788707,2.122928\H,0,-1.342701,0.596935,-1.244192\H,0,-1
 .342701,0.596935,1.244192\\Version=ES64L-G16RevC.01\State=1-A'\HF=-149

 Normal termination of Gaussian 16 at Sun Apr  6 07:57:02 2025.
