 Gaussian 16, Revision C.01,

 ----------------------------------------------------------------------
 #t hf aug-cc-pvdz symm=none int=(grid=ultrafine) guess=(read,tcheck) s
 table=(opt,rrhf)
 ----------------------------------------------------------------------
 -----
 title
 -----
 Symbolic Z-matrix:
 Charge =  0 Multiplicity = 1

 SCF Done:  E(RHF) =  -302.566604446     A.U. after   13 cycles
 Normal termination of Gaussian 16 at Sun Apr  6 07:57:21 2025.
 Gaussian 16:  ES64L-G16RevC.01  3-Jul-2019

 ----------------------------------------------------------------------
 #t hf aug-cc-pvdz iop(5/13=1,5/36=2,99/5=2) pseudo=read geom=check gue
 ss=(read,tcheck) scf=(maxcycle=1)
 ----------------------------------------------------------------------
 -----
 title
 -----
 Structure from the checkpoint file:  "1-2-4-trioxolane.chk"
 Charge =  0 Multiplicity = 1

                         Standard orientation:
 ---------------------------------------------------------------------
 Center     Atomic      Atomic             Coordinates (Angstroms)
 Number     Number       Type             X           Y           Z
 ---------------------------------------------------------------------
      1          8           0        0.000000   -0.000000    1.185426
      2          6           0        0.000000    1.126270    0.321884
      3          6           0       -0.000000   -1.126270    0.321884
      4          8           0       -0.368242   -0.630282   -0.948481
      5          8           0        0.368242    0.630282   -0.948481
      6          1           0       -0.997388    1.574227    0.297170
      7          1           0        0.997388   -1.574227    0.297170
      8          1           0        0.765842    1.843110    0.617669
      9          1           0       -0.765842   -1.843110    0.617669
 ---------------------------------------------------------------------

 SCF Done:  E(RHF) =  -303.819170744     A.U. after    2 cycles

 The electronic state is 1-A.
 Alpha  occ. eigenvalues --  -21.11459 -21.11201 -21.07061 -11.47903 -11.45253
 Alpha  occ. eigenvalues --   -2.02411  -1.72894  -1.49468  -0.97199  -0.91093
 Alpha  occ. eigenvalues --   -0.72135  -0.71098  -0.65045  -0.55866  -0.50972
 Alpha  occ. eigenvalues --   -0.47955  -0.38592  -0.37664  -0.32585  -0.29929
 Alpha virt. eigenvalues --    0.03694   0.04954   0.05897   0.06443   0.09411
 Alpha virt. eigenvalues --    0.10165   0.11059   0.14713   0.15633   0.16777
 Alpha virt. eigenvalues --    0.17244   0.17671   0.17874   0.19347   0.24907

 Mulliken charges:
               1
     1  O   -2.509240
     2  C   -0.241678
     3  C   -0.241678
     4  O   -1.410297
     5  O   -1.410297
     6  H    1.499975
     7  H    1.499975
     8  H    1.406621
     9  H    1.406621
 Sum of Mulliken charges =   0.00000

 Dipole moment (field-independent basis, Debye):
    X=              0.0000    Y=             -0.0000    Z=              0.3816  Tot=              0.3816

 Test job not archived.
 1\1\GINC-SE155\SP\RHF\Aug-CC-pVDZ\C2H4O3\OHZDE\06-Apr-2025\0\\#t hf au
 g-cc-pvdz iop(5/13=1,5/36=2,99/5=2) pseudo=read geom=check guess=(read
 ,tcheck) scf=(maxcycle=1)\\title\\0,1\O,0,0.,0.,1.185426\C,0,0.,1.1262
 7,0.321884\C,0,0.,-1.12627,0.321884\O,0,-0.368242,-0.630282,-0.948481\
 O,0,0.368242,0.630282,-0.948481\H,0,-0.997388,1.574227,0.29717\H,0,0.9
 97388,-1.574227,0.29717\H,0,0.765842,1.84311,0.617669\H,0,-0.765842,-1
 .84311,0.617669\\Version=ES64L-G16RevC.01\State=1-A\HF=-303.8191707\RM
 SD=6.861e-02\Dipole=0.,0.,0.1501321\Quadrupole=-0.2430192,2.5863391,-2

 Normal termination of Gaussian 16 at Sun Apr  6 07:57:33 2025.
