 Gaussian 16, Revision C.01,

 ----------------------------------------------------------------------
 #t hf aug-cc-pvdz symm=none int=(grid=ultrafine) guess=(read,tcheck) s
 table=(opt,rrhf)
 ----------------------------------------------------------------------
 -----
 title
 -----
 Symbolic Z-matrix:
 Charge =  0 Multiplicity = 1

 SCF Done:  E(RHF) =  -871.752643414     A.U. after   17 cycles
 Normal termination of Gaussian 16 at Sun Apr  6 07:59:49 2025.
 Gaussian 16:  ES64L-G16RevC.01  3-Jul-2019

 ----------------------------------------------------------------------
 #t hf aug-cc-pvdz iop(5/13=1,5/36=2,99/5=2) pseudo=read geom=check gue
 ss=(read,tcheck) scf=(maxcycle=1)
 ----------------------------------------------------------------------
 -----
 title
 -----
 Structure from the checkpoint file:  "1-2-thienylpyridin-4-one.chk"
 Charge =  0 Multiplicity = 1

                         Standard orientation:
 ---------------------------------------------------------------------
 Center     Atomic      Atomic             Coordinates (Angstroms)
 Number     Number       Type             X           Y           Z
 ---------------------------------------------------------------------
      1          6           0       -3.260747    0.996763    0.430923
      2          6           0       -1.865684    1.229535    0.570709
      3          6           0       -3.546891   -0.215226   -0.118964
      4          6           0       -1.112417    0.187192    0.114195
      5          6           0        2.381637    1.125229   -0.488236
      6          6           0        2.306330   -1.101133    0.504790
      7          6           0        1.033891    1.153086   -0.447360
      8          6           0        0.961179   -1.008421    0.530032
      9          6           0        3.145966   -0.022380   -0.008396
     10          7           0        0.292939    0.105453    0.062562
     11          8           0        4.374161   -0.076554   -0.036314
     12         16           0       -2.114227   -1.095088   -0.513823
     13          1           0       -4.018281    1.696745    0.749056
     14          1           0       -1.438528    2.118035    1.010517
     15          1           0       -4.511080   -0.656491   -0.304364
     16          1           0        2.922894    1.963430   -0.901979
     17          1           0        2.789940   -1.988514    0.885958
     18          1           0        0.451171    1.981024   -0.821014
     19          1           0        0.328052   -1.786428    0.929407
 ---------------------------------------------------------------------

 SCF Done:  E(RHF) =  -874.156144516     A.U. after    2 cycles

 The electronic state is 1-A.
 Alpha  occ. eigenvalues --  -75.73779 -21.00882 -15.81713 -13.20034 -13.18221
 Alpha  occ. eigenvalues --  -13.06925 -11.52079 -11.51655 -11.48855 -11.47762
 Alpha  occ. eigenvalues --  -11.47300 -11.44377 -11.40139 -11.39942 -11.39209
 Alpha  occ. eigenvalues --   -8.08274  -1.67242  -1.54907  -1.37170  -1.18941
 Alpha  occ. eigenvalues --   -1.15387  -1.11059  -1.05495  -0.92097  -0.89781
 Alpha  occ. eigenvalues --   -0.83058  -0.80984  -0.74877  -0.67622  -0.65855
 Alpha  occ. eigenvalues --   -0.64832  -0.62754  -0.62006  -0.56996  -0.53655
 Alpha  occ. eigenvalues --   -0.53158  -0.50638  -0.49257  -0.45691  -0.44999
 Alpha  occ. eigenvalues --   -0.41243  -0.38514  -0.35255  -0.29528  -0.26066
 Alpha  occ. eigenvalues --   -0.24882
 Alpha virt. eigenvalues --    0.02282   0.03744   0.04470   0.05300   0.05559
 Alpha virt. eigenvalues --    0.06628   0.06936   0.07264   0.08452   0.08999
 Alpha virt. eigenvalues --    0.10226   0.10826   0.11244   0.11767   0.12301

 Mulliken charges:
               1
     1  C   -0.203337
     2  C   -2.628779
     3  C   -3.627392
     4  C    4.371888
     5  C   -1.270994
     6  C   -1.367704
     7  C   -1.829550
     8  C   -1.921707
     9  C    3.703051
    10  N   -4.246576
    11  O   -3.747686
    12  S    1.569433
    13  H    1.522490
    14  H    1.734873
    15  H    1.296165
    16  H    1.521917
    17  H    1.521108
    18  H    1.829326
    19  H    1.773473
 Sum of Mulliken charges =  -0.00000

 Dipole moment (field-independent basis, Debye):
    X=             -5.5831    Y=             -1.3373    Z=             -0.6901  Tot=              5.7823

 Test job not archived.
 1\1\GINC-SE388\SP\RHF\Aug-CC-pVDZ\C9H7N1O1S1\OHZDE\06-Apr-2025\0\\#t h
 f aug-cc-pvdz iop(5/13=1,5/36=2,99/5=2) pseudo=read geom=check guess=(
 read,tcheck) scf=(maxcycle=1)\\title\\0,1\C,0,-3.260747,0.996763,0.430
 923\C,0,-1.865684,1.229535,0.570709\C,0,-3.546891,-0.215226,-0.118964\
 C,0,-1.112417,0.187192,0.114195\C,0,2.381637,1.125229,-0.488236\C,0,2.
 30633,-1.101133,0.50479\C,0,1.033891,1.153086,-0.44736\C,0,0.961179,-1
 .008421,0.530032\C,0,3.145966,-0.02238,-0.008396\N,0,0.292939,0.105453
 ,0.062562\O,0,4.374161,-0.076554,-0.036314\S,0,-2.114227,-1.095088,-0.

 Normal termination of Gaussian 16 at Sun Apr  6 08:00:02 2025.
