 Gaussian 16, Revision C.01,

 ----------------------------------------------------------------------
 #t hf aug-cc-pvdz symm=none int=(grid=ultrafine) guess=(read,tcheck) s
 table=(opt,rrhf)
 ----------------------------------------------------------------------
 -----
 title
 -----
 Symbolic Z-matrix:
 Charge =  0 Multiplicity = 1

 SCF Done:  E(RHF) =  -392.560656343     A.U. after   15 cycles
 Normal termination of Gaussian 16 at Sun Apr  6 07:58:12 2025.
 Gaussian 16:  ES64L-G16RevC.01  3-Jul-2019

 ----------------------------------------------------------------------
 #t hf aug-cc-pvdz iop(5/13=1,5/36=2,99/5=2) pseudo=read geom=check gue
 ss=(read,tcheck) scf=(maxcycle=1)
 ----------------------------------------------------------------------
 -----
 title
 -----
 Structure from the checkpoint file:  "1-2-dicyano-2-hydroxylamino-ethane.chk"
 Charge =  0 Multiplicity = 1

                         Standard orientation:
 ---------------------------------------------------------------------
 Center     Atomic      Atomic             Coordinates (Angstroms)
 Number     Number       Type             X           Y           Z
 ---------------------------------------------------------------------
      1          8           0        0.313702   -1.614925   -0.926768
      2          7           0        1.171613   -1.268187    0.163198
      3          7           0        1.427390    2.027391   -0.681155
      4          7           0       -2.527750    0.403730   -0.742264
      5          6           0        0.711444   -0.025519    0.777150
      6          6           0       -0.791840    0.053445    1.169705
      7          6           0        1.112029    1.119852   -0.051970
      8          6           0       -1.739571    0.231309    0.075617
      9          1           0        0.885285   -1.552765   -1.700527
     10          1           0        1.045190   -2.024365    0.828812
     11          1           0        1.278390    0.046227    1.709846
     12          1           0       -1.048671   -0.855680    1.716626
     13          1           0       -0.920956    0.890916    1.857922
 ---------------------------------------------------------------------

 SCF Done:  E(RHF) =  -394.299912609     A.U. after    2 cycles

 The electronic state is 1-A.
 Alpha  occ. eigenvalues --  -21.11900 -15.81242 -15.77939 -15.76495 -11.53828
 Alpha  occ. eigenvalues --  -11.49015 -11.44916 -11.43529  -1.80223  -1.38870
 Alpha  occ. eigenvalues --   -1.31557  -1.27989  -1.15149  -1.00078  -0.78545
 Alpha  occ. eigenvalues --   -0.72125  -0.68999  -0.67501  -0.63435  -0.59884
 Alpha  occ. eigenvalues --   -0.55397  -0.52696  -0.51672  -0.46515  -0.45605
 Alpha  occ. eigenvalues --   -0.44879  -0.44045  -0.38012  -0.35340
 Alpha virt. eigenvalues --    0.02193   0.04373   0.04579   0.05282   0.06483
 Alpha virt. eigenvalues --    0.08016   0.09842   0.10247   0.10772   0.12200
 Alpha virt. eigenvalues --    0.12683   0.13190   0.14042   0.14185   0.14515

 Mulliken charges:
               1
     1  O   -2.254347
     2  N   -0.608865
     3  N   -2.423502
     4  N   -2.320614
     5  C   -0.160397
     6  C   -2.215771
     7  C    2.356131
     8  C    1.716178
     9  H    0.837048
    10  H    0.575942
    11  H    1.716450
    12  H    1.467746
    13  H    1.314000
 Sum of Mulliken charges =  -0.00000

 Dipole moment (field-independent basis, Debye):
    X=              1.3061    Y=             -3.3327    Z=              3.8105  Tot=              5.2281

 Test job not archived.
 1\1\GINC-SE107\SP\RHF\Aug-CC-pVDZ\C4H5N3O1\OHZDE\06-Apr-2025\0\\#t hf
 aug-cc-pvdz iop(5/13=1,5/36=2,99/5=2) pseudo=read geom=check guess=(re
 ad,tcheck) scf=(maxcycle=1)\\title\\0,1\O,0,0.313702,-1.614925,-0.9267
 68\N,0,1.171613,-1.268187,0.163198\N,0,1.42739,2.027391,-0.681155\N,0,
 -2.52775,0.40373,-0.742264\C,0,0.711444,-0.025519,0.77715\C,0,-0.79184
 ,0.053445,1.169705\C,0,1.112029,1.119852,-0.05197\C,0,-1.739571,0.2313
 09,0.075617\H,0,0.885285,-1.552765,-1.700527\H,0,1.04519,-2.024365,0.8
 28812\H,0,1.27839,0.046227,1.709846\H,0,-1.048671,-0.85568,1.716626\H,

 Normal termination of Gaussian 16 at Sun Apr  6 07:58:23 2025.
