 Gaussian 16, Revision C.01,

 ----------------------------------------------------------------------
 #t hf aug-cc-pvdz symm=none int=(grid=ultrafine) guess=(read,tcheck) s
 table=(opt,rrhf)
 ----------------------------------------------------------------------
 -----
 title
 -----
 Symbolic Z-matrix:
 Charge =  0 Multiplicity = 1

 SCF Done:  E(RHF) =  -412.485350754     A.U. after   13 cycles
 Normal termination of Gaussian 16 at Sun Apr  6 07:57:49 2025.
 Gaussian 16:  ES64L-G16RevC.01  3-Jul-2019

 ----------------------------------------------------------------------
 #t hf aug-cc-pvdz iop(5/13=1,5/36=2,99/5=2) pseudo=read geom=check gue
 ss=(read,tcheck) scf=(maxcycle=1)
 ----------------------------------------------------------------------
 -----
 title
 -----
 Structure from the checkpoint file:  "1-2-diisocyanatoethane.chk"
 Charge =  0 Multiplicity = 1

                         Standard orientation:
 ---------------------------------------------------------------------
 Center     Atomic      Atomic             Coordinates (Angstroms)
 Number     Number       Type             X           Y           Z
 ---------------------------------------------------------------------
      1          8           0       -4.169729   -0.037851   -0.000189
      2          8           0        4.169729    0.037850   -0.000331
      3          7           0       -1.822306    0.260406    0.000120
      4          7           0        1.822306   -0.260406    0.000229
      5          6           0       -0.587346   -0.486761    0.000192
      6          6           0        0.587346    0.486762    0.000114
      7          6           0       -3.002288    0.047253   -0.000041
      8          6           0        3.002288   -0.047254   -0.000081
      9          1           0       -0.530798   -1.125725   -0.882692
     10          1           0       -0.530812   -1.125555    0.883200
     11          1           0        0.530823    1.125555   -0.882895
     12          1           0        0.530787    1.125727    0.882997
 ---------------------------------------------------------------------

 SCF Done:  E(RHF) =  -414.256844196     A.U. after    2 cycles

 The electronic state is 1-A.
 Alpha  occ. eigenvalues --  -21.12305 -21.12291 -15.77466 -15.77414 -11.59356
 Alpha  occ. eigenvalues --  -11.59027 -11.49013 -11.43763  -1.77212  -1.76963
 Alpha  occ. eigenvalues --   -1.45432  -1.38835  -1.14351  -0.96313  -0.77367
 Alpha  occ. eigenvalues --   -0.70999  -0.68624  -0.64333  -0.62558  -0.61809
 Alpha  occ. eigenvalues --   -0.60102  -0.58764  -0.57545  -0.53580  -0.52127
 Alpha  occ. eigenvalues --   -0.36599  -0.36472  -0.34099  -0.33558
 Alpha virt. eigenvalues --    0.03172   0.05113   0.05683   0.05847   0.07289
 Alpha virt. eigenvalues --    0.09100   0.09416   0.09895   0.10221   0.11266
 Alpha virt. eigenvalues --    0.11545   0.12551   0.13158   0.13765   0.14450

 Mulliken charges:
               1
     1  O   -2.843926
     2  O   -2.843926
     3  N   -2.233657
     4  N   -2.233655
     5  C   -2.095377
     6  C   -2.095380
     7  C    3.980790
     8  C    3.980789
     9  H    1.596104
    10  H    1.596067
    11  H    1.596152
    12  H    1.596018
 Sum of Mulliken charges =   0.00000

 Dipole moment (field-independent basis, Debye):
    X=             -0.0000    Y=              0.0000    Z=             -0.0003  Tot=              0.0003

 Test job not archived.
 1\1\GINC-SE167\SP\RHF\Aug-CC-pVDZ\C4H4N2O2\OHZDE\06-Apr-2025\0\\#t hf
 aug-cc-pvdz iop(5/13=1,5/36=2,99/5=2) pseudo=read geom=check guess=(re
 ad,tcheck) scf=(maxcycle=1)\\title\\0,1\O,0,-4.169729,-0.037851,-0.000
 189\O,0,4.169729,0.03785,-0.000331\N,0,-1.822306,0.260406,0.00012\N,0,
 1.822306,-0.260406,0.000229\C,0,-0.587346,-0.486761,0.000192\C,0,0.587
 346,0.486762,0.000114\C,0,-3.002288,0.047253,-0.000041\C,0,3.002288,-0
 .047254,-0.000081\H,0,-0.530798,-1.125725,-0.882692\H,0,-0.530812,-1.1
 25555,0.8832\H,0,0.530823,1.125555,-0.882895\H,0,0.530787,1.125727,0.8

 Normal termination of Gaussian 16 at Sun Apr  6 07:57:54 2025.
