 Gaussian 16, Revision C.01,

 ----------------------------------------------------------------------
 #t hf aug-cc-pvdz symm=none int=(grid=ultrafine) guess=(read,tcheck) s
 table=(opt,rrhf)
 ----------------------------------------------------------------------
 -----
 title
 -----
 Symbolic Z-matrix:
 Charge =  0 Multiplicity = 1

 SCF Done:  E(RHF) =  -436.330919475     A.U. after   15 cycles
 Normal termination of Gaussian 16 at Sun Apr  6 07:58:36 2025.
 Gaussian 16:  ES64L-G16RevC.01  3-Jul-2019

 ----------------------------------------------------------------------
 #t hf aug-cc-pvdz iop(5/13=1,5/36=2,99/5=2) pseudo=read geom=check gue
 ss=(read,tcheck) scf=(maxcycle=1)
 ----------------------------------------------------------------------
 -----
 title
 -----
 Structure from the checkpoint file:  "1-2-furylpyrrole.chk"
 Charge =  0 Multiplicity = 1

                         Standard orientation:
 ---------------------------------------------------------------------
 Center     Atomic      Atomic             Coordinates (Angstroms)
 Number     Number       Type             X           Y           Z
 ---------------------------------------------------------------------
      1          6           0       -2.772926   -0.745430    0.127040
      2          6           0       -2.835748    0.657366   -0.109605
      3          6           0        2.860308    0.583052    0.103711
      4          6           0        1.551119    1.154181    0.212862
      5          6           0       -1.451987   -1.096859    0.185131
      6          6           0       -1.550872    1.119466   -0.190721
      7          6           0        2.691852   -0.736863   -0.133470
      8          6           0        0.685887    0.123810    0.019734
      9          7           0       -0.697666    0.046430   -0.010764
     10          8           0        1.353226   -1.035205   -0.194701
     11          1           0       -3.604798   -1.419043    0.239788
     12          1           0       -3.724063    1.255180   -0.219283
     13          1           0        3.800352    1.097381    0.201917
     14          1           0        1.298133    2.176815    0.425961
     15          1           0       -0.974196   -2.044614    0.349051
     16          1           0       -1.163532    2.103939   -0.379320
     17          1           0        3.360167   -1.565371   -0.273248
 ---------------------------------------------------------------------

 SCF Done:  E(RHF) =  -438.345765062     A.U. after    2 cycles

 The electronic state is 1-A.
 Alpha  occ. eigenvalues --  -21.12195 -15.79096 -11.52002 -11.47610 -11.46097
 Alpha  occ. eigenvalues --  -11.43117 -11.42821 -11.40789 -11.37768 -11.35784
 Alpha  occ. eigenvalues --   -1.86529  -1.52663  -1.21449  -1.18096  -1.05286
 Alpha  occ. eigenvalues --   -1.03197  -0.86034  -0.83127  -0.78618  -0.76449
 Alpha  occ. eigenvalues --   -0.75786  -0.65998  -0.62857  -0.57548  -0.55783
 Alpha  occ. eigenvalues --   -0.54786  -0.54125  -0.52525  -0.49740  -0.49049
 Alpha  occ. eigenvalues --   -0.44271  -0.38188  -0.34455  -0.29687  -0.27269
 Alpha virt. eigenvalues --    0.03419   0.04791   0.05422   0.05586   0.06121
 Alpha virt. eigenvalues --    0.06586   0.06982   0.09635   0.10107   0.10598
 Alpha virt. eigenvalues --    0.11660   0.12486   0.13165   0.13554   0.13914

 Mulliken charges:
               1
     1  C   -1.057897
     2  C   -0.981327
     3  C   -0.764557
     4  C   -2.725890
     5  C   -1.086081
     6  C   -1.296319
     7  C   -0.201049
     8  C    5.872823
     9  N   -3.803999
    10  O   -4.054116
    11  H    1.327945
    12  H    1.320957
    13  H    1.352950
    14  H    1.466298
    15  H    1.527758
    16  H    1.574214
    17  H    1.528288
 Sum of Mulliken charges =  -0.00000

 Dipole moment (field-independent basis, Debye):
    X=              1.1337    Y=             -0.0973    Z=              0.0013  Tot=              1.1379

 Test job not archived.
 1\1\GINC-SE014\SP\RHF\Aug-CC-pVDZ\C8H7N1O1\OHZDE\06-Apr-2025\0\\#t hf
 aug-cc-pvdz iop(5/13=1,5/36=2,99/5=2) pseudo=read geom=check guess=(re
 ad,tcheck) scf=(maxcycle=1)\\title\\0,1\C,0,-2.772926,-0.74543,0.12704
 \C,0,-2.835748,0.657366,-0.109605\C,0,2.860308,0.583052,0.103711\C,0,1
 .551119,1.154181,0.212862\C,0,-1.451987,-1.096859,0.185131\C,0,-1.5508
 72,1.119466,-0.190721\C,0,2.691852,-0.736863,-0.13347\C,0,0.685887,0.1
 2381,0.019734\N,0,-0.697666,0.04643,-0.010764\O,0,1.353226,-1.035205,-
 0.194701\H,0,-3.604798,-1.419043,0.239788\H,0,-3.724063,1.25518,-0.219

 Normal termination of Gaussian 16 at Sun Apr  6 07:58:45 2025.
