 Gaussian 16, Revision C.01,

 ----------------------------------------------------------------------
 #t hf aug-cc-pvdz symm=none int=(grid=ultrafine) guess=(read,tcheck) s
 table=(opt,rrhf)
 ----------------------------------------------------------------------
 -----
 title
 -----
 Symbolic Z-matrix:
 Charge =  0 Multiplicity = 1

 SCF Done:  E(RHF) =  -294.635401316     A.U. after   11 cycles
 Normal termination of Gaussian 16 at Sun Apr  6 07:57:22 2025.
 Gaussian 16:  ES64L-G16RevC.01  3-Jul-2019

 ----------------------------------------------------------------------
 #t hf aug-cc-pvdz iop(5/13=1,5/36=2,99/5=2) pseudo=read geom=check gue
 ss=(read,tcheck) scf=(maxcycle=1)
 ----------------------------------------------------------------------
 -----
 title
 -----
 Structure from the checkpoint file:  "1-2-4-5-tetrazine.chk"
 Charge =  0 Multiplicity = 1

                         Standard orientation:
 ---------------------------------------------------------------------
 Center     Atomic      Atomic             Coordinates (Angstroms)
 Number     Number       Type             X           Y           Z
 ---------------------------------------------------------------------
      1          7           0        0.000000    1.188502    0.658697
      2          7           0        0.000000    1.188502   -0.658697
      3          6           0        0.000000    0.000000   -1.262286
      4          7           0       -0.000000   -1.188502   -0.658697
      5          7           0       -0.000000   -1.188502    0.658697
      6          6           0       -0.000000    0.000000    1.262286
      7          1           0        0.000000    0.000000   -2.343802
      8          1           0       -0.000000    0.000000    2.343802
 ---------------------------------------------------------------------

 SCF Done:  E(RHF) =  -295.928677777     A.U. after    2 cycles

 The electronic state is 1-AG.
 Alpha  occ. eigenvalues --  -15.82682 -15.82530 -15.82021 -15.81959 -11.47038
 Alpha  occ. eigenvalues --  -11.45812  -1.66821  -1.48344  -1.29786  -1.05291
 Alpha  occ. eigenvalues --   -0.98781  -0.76285  -0.72175  -0.69408  -0.65392
 Alpha  occ. eigenvalues --   -0.51086  -0.49952  -0.47541  -0.47531  -0.42463
 Alpha  occ. eigenvalues --   -0.34675
 Alpha virt. eigenvalues --    0.03497   0.05116   0.06963   0.08004   0.09738
 Alpha virt. eigenvalues --    0.10200   0.10539   0.11281   0.12890   0.14235
 Alpha virt. eigenvalues --    0.14358   0.15905   0.17602   0.18270   0.19029

 Mulliken charges:
               1
     1  N   -1.494406
     2  N   -1.494406
     3  C    1.289125
     4  N   -1.494406
     5  N   -1.494406
     6  C    1.289125
     7  H    1.699686
     8  H    1.699686
 Sum of Mulliken charges =  -0.00000

 Dipole moment (field-independent basis, Debye):
    X=             -0.0000    Y=              0.0000    Z=              0.0000  Tot=              0.0000

 Test job not archived.
 1\1\GINC-SE028\SP\RHF\Aug-CC-pVDZ\C2H2N4\OHZDE\06-Apr-2025\0\\#t hf au
 g-cc-pvdz iop(5/13=1,5/36=2,99/5=2) pseudo=read geom=check guess=(read
 ,tcheck) scf=(maxcycle=1)\\title\\0,1\N,0,0.,1.188502,0.658697\N,0,0.,
 1.188502,-0.658697\C,0,0.,0.,-1.262286\N,0,0.,-1.188502,-0.658697\N,0,
 0.,-1.188502,0.658697\C,0,0.,0.,1.262286\H,0,0.,0.,-2.343802\H,0,0.,0.
 ,2.343802\\Version=ES64L-G16RevC.01\State=1-AG\HF=-295.9286778\RMSD=9.
 700e-02\Dipole=0.,0.,0.\Quadrupole=1.4217395,-5.8738663,4.4521268,0.,0
 .,0.\PG=D02H [C2"(H1C1.C1H1),SG(N4)]\\@

 Normal termination of Gaussian 16 at Sun Apr  6 07:57:32 2025.
