 Gaussian 16, Revision C.01,

 ----------------------------------------------------------------------
 #t hf aug-cc-pvdz symm=none int=(grid=ultrafine) guess=(read,tcheck) s
 table=(opt,rrhf)
 ----------------------------------------------------------------------
 -----
 title
 -----
 Symbolic Z-matrix:
 Charge =  0 Multiplicity = 1

 SCF Done:  E(RHF) =  -282.734519810     A.U. after   14 cycles
 Normal termination of Gaussian 16 at Sun Apr  6 07:57:21 2025.
 Gaussian 16:  ES64L-G16RevC.01  3-Jul-2019

 ----------------------------------------------------------------------
 #t hf aug-cc-pvdz iop(5/13=1,5/36=2,99/5=2) pseudo=read geom=check gue
 ss=(read,tcheck) scf=(maxcycle=1)
 ----------------------------------------------------------------------
 -----
 title
 -----
 Structure from the checkpoint file:  "1-2-4-dioxazolidine.chk"
 Charge =  0 Multiplicity = 1

                         Standard orientation:
 ---------------------------------------------------------------------
 Center     Atomic      Atomic             Coordinates (Angstroms)
 Number     Number       Type             X           Y           Z
 ---------------------------------------------------------------------
      1          8           0       -0.804675   -0.888675   -0.282832
      2          8           0        0.593730   -1.074263    0.088267
      3          7           0        0.083190    1.201711   -0.098487
      4          6           0       -1.066718    0.402828    0.261301
      5          6           0        1.178668    0.263370    0.057915
      6          1           0       -1.160115    0.336301    1.347953
      7          1           0       -1.985775    0.765929   -0.193125
      8          1           0        1.887206    0.349577   -0.766514
      9          1           0        1.686490    0.379911    1.015848
     10          1           0        0.005721    1.462625   -1.073532
 ---------------------------------------------------------------------

 SCF Done:  E(RHF) =  -283.957671250     A.U. after    2 cycles

 The electronic state is 1-A.
 Alpha  occ. eigenvalues --  -21.09314 -21.08669 -15.74721 -11.45824 -11.43243
 Alpha  occ. eigenvalues --   -1.96512  -1.46484  -1.38273  -0.95753  -0.90602
 Alpha  occ. eigenvalues --   -0.74459  -0.67308  -0.63102  -0.56443  -0.53503
 Alpha  occ. eigenvalues --   -0.45967  -0.43531  -0.38770  -0.34810  -0.26272
 Alpha virt. eigenvalues --    0.03734   0.05220   0.05512   0.06041   0.06531
 Alpha virt. eigenvalues --    0.09942   0.11296   0.12552   0.14188   0.15599
 Alpha virt. eigenvalues --    0.16616   0.17156   0.17385   0.18708   0.19835

 Mulliken charges:
               1
     1  O   -1.359112
     2  O   -1.411973
     3  N   -2.128708
     4  C   -0.781495
     5  C   -0.738832
     6  H    1.569972
     7  H    1.370550
     8  H    1.416595
     9  H    1.522660
    10  H    0.540342
 Sum of Mulliken charges =  -0.00000

 Dipole moment (field-independent basis, Debye):
    X=             -0.1581    Y=              0.8016    Z=             -0.5524  Tot=              0.9863

 Test job not archived.
 1\1\GINC-SE038\SP\RHF\Aug-CC-pVDZ\C2H5N1O2\OHZDE\06-Apr-2025\0\\#t hf
 aug-cc-pvdz iop(5/13=1,5/36=2,99/5=2) pseudo=read geom=check guess=(re
 ad,tcheck) scf=(maxcycle=1)\\title\\0,1\O,0,-0.804673,-0.888677,-0.282
 832\O,0,0.593732,-1.074262,0.088267\N,0,0.083188,1.201711,-0.098487\C,
 0,-1.066719,0.402826,0.261301\C,0,1.178668,0.263372,0.057915\H,0,-1.16
 0116,0.336299,1.347953\H,0,-1.985776,0.765925,-0.193125\H,0,1.887205,0
 .34958,-0.766514\H,0,1.686489,0.379914,1.015848\H,0,0.005718,1.462625,
 -1.073532\\Version=ES64L-G16RevC.01\State=1-A\HF=-283.9576712\RMSD=7.5

 Normal termination of Gaussian 16 at Sun Apr  6 07:57:33 2025.
