 Gaussian 16, Revision C.01,

 ----------------------------------------------------------------------
 #t hf aug-cc-pvdz symm=none int=(grid=ultrafine) guess=(read,tcheck) s
 table=(opt,rrhf)
 ----------------------------------------------------------------------
 -----
 title
 -----
 Symbolic Z-matrix:
 Charge =  0 Multiplicity = 1

 SCF Done:  E(RHF) =  -676.149699419     A.U. after   16 cycles
 Normal termination of Gaussian 16 at Sun Apr  6 07:57:00 2025.
 Gaussian 16:  ES64L-G16RevC.01  3-Jul-2019

 ----------------------------------------------------------------------
 #t hf aug-cc-pvdz iop(5/13=1,5/36=2,99/5=2) pseudo=read geom=check gue
 ss=(read,tcheck) scf=(maxcycle=1)
 ----------------------------------------------------------------------
 -----
 title
 -----
 Structure from the checkpoint file:  "1-2-3-thiadiazole-23H-carbonitrile.chk"
 Charge =  0 Multiplicity = 1

                         Standard orientation:
 ---------------------------------------------------------------------
 Center     Atomic      Atomic             Coordinates (Angstroms)
 Number     Number       Type             X           Y           Z
 ---------------------------------------------------------------------
      1         16           0        0.596501   -1.254311   -0.215908
      2          7           0       -0.521489    0.078464   -0.630668
      3          7           0        0.161630    1.335417   -0.521980
      4          7           0       -2.690102    0.007425    0.617646
      5          6           0        1.600362   -0.083701    0.655744
      6          6           0        1.269049    1.169256    0.363538
      7          6           0       -1.667835    0.056671    0.083610
      8          1           0        0.450648    1.618461   -1.455320
      9          1           0        2.392643   -0.412715    1.306776
     10          1           0        1.752966    2.060731    0.730728
 ---------------------------------------------------------------------

 SCF Done:  E(RHF) =  -677.627915350     A.U. after    2 cycles

 The electronic state is 1-A.
 Alpha  occ. eigenvalues --  -75.75159 -15.82870 -15.80648 -15.75447 -13.19600
 Alpha  occ. eigenvalues --  -13.17597 -13.09287 -11.48097 -11.45326 -11.42563
 Alpha  occ. eigenvalues --   -8.09170  -1.60747  -1.32533  -1.23736  -1.21455
 Alpha  occ. eigenvalues --   -0.99434  -0.85018  -0.77297  -0.71994  -0.66111
 Alpha  occ. eigenvalues --   -0.59597  -0.54846  -0.52766  -0.49409  -0.45284
 Alpha  occ. eigenvalues --   -0.42602  -0.38449  -0.36266  -0.24746
 Alpha virt. eigenvalues --    0.02302   0.04179   0.05160   0.06411   0.08182
 Alpha virt. eigenvalues --    0.09255   0.09946   0.10438   0.12407   0.12682
 Alpha virt. eigenvalues --    0.13146   0.13270   0.13921   0.15264   0.15576

 Mulliken charges:
               1
     1  S    1.015432
     2  N   -1.482423
     3  N   -2.062034
     4  N   -2.874640
     5  C   -1.478740
     6  C   -0.271299
     7  C    3.952450
     8  H    0.632916
     9  H    1.243934
    10  H    1.324402
 Sum of Mulliken charges =  -0.00000

 Dipole moment (field-independent basis, Debye):
    X=              4.8604    Y=             -0.8545    Z=             -1.4329  Tot=              5.1388

 Test job not archived.
 1\1\GINC-SE177\SP\RHF\Aug-CC-pVDZ\C3H3N3S1\OHZDE\06-Apr-2025\0\\#t hf
 aug-cc-pvdz iop(5/13=1,5/36=2,99/5=2) pseudo=read geom=check guess=(re
 ad,tcheck) scf=(maxcycle=1)\\title\\0,1\S,0,0.596501,-1.254311,-0.2159
 08\N,0,-0.521489,0.078464,-0.630668\N,0,0.16163,1.335417,-0.52198\N,0,
 -2.690102,0.007425,0.617646\C,0,1.600362,-0.083701,0.655744\C,0,1.2690
 49,1.169256,0.363538\C,0,-1.667835,0.056671,0.08361\H,0,0.450648,1.618
 461,-1.45532\H,0,2.392643,-0.412715,1.306776\H,0,1.752966,2.060731,0.7
 30728\\Version=ES64L-G16RevC.01\State=1-A\HF=-677.6279154\RMSD=5.441e-

 Normal termination of Gaussian 16 at Sun Apr  6 07:57:05 2025.
