 Gaussian 16, Revision C.01,

 ----------------------------------------------------------------------
 #t hf aug-cc-pvdz symm=none int=(grid=ultrafine) guess=(read,tcheck) s
 table=(opt,rrhf)
 ----------------------------------------------------------------------
 -----
 title
 -----
 Symbolic Z-matrix:
 Charge =  0 Multiplicity = 1

 SCF Done:  E(RHF) =  -604.282896760     A.U. after   16 cycles
 Normal termination of Gaussian 16 at Sun Apr  6 07:56:49 2025.
 Gaussian 16:  ES64L-G16RevC.01  3-Jul-2019

 ----------------------------------------------------------------------
 #t hf aug-cc-pvdz iop(5/13=1,5/36=2,99/5=2) pseudo=read geom=check gue
 ss=(read,tcheck) scf=(maxcycle=1)
 ----------------------------------------------------------------------
 -----
 title
 -----
 Structure from the checkpoint file:  "1-2-3-oxathiazole.chk"
 Charge =  0 Multiplicity = 1

                         Standard orientation:
 ---------------------------------------------------------------------
 Center     Atomic      Atomic             Coordinates (Angstroms)
 Number     Number       Type             X           Y           Z
 ---------------------------------------------------------------------
      1         16           0        1.186410   -0.064007    0.045138
      2          8           0       -0.061151   -1.221903   -0.137878
      3          7           0        0.175745    1.267799   -0.042280
      4          6           0       -1.314499   -0.572651    0.090963
      5          6           0       -1.045627    0.909738   -0.039631
      6          1           0       -2.026855   -0.942921   -0.648855
      7          1           0       -1.699332   -0.803959    1.095565
      8          1           0       -1.836623    1.649106   -0.077924
 ---------------------------------------------------------------------

 SCF Done:  E(RHF) =  -605.413916263     A.U. after    2 cycles

 The electronic state is 1-A.
 Alpha  occ. eigenvalues --  -75.74747 -21.07746 -15.77979 -13.20854 -13.18301
 Alpha  occ. eigenvalues --  -13.06121 -11.47454 -11.42670  -8.08673  -1.78607
 Alpha  occ. eigenvalues --   -1.41080  -1.13619  -0.94155  -0.82177  -0.71077
 Alpha  occ. eigenvalues --   -0.66504  -0.56222  -0.49993  -0.48535  -0.40396
 Alpha  occ. eigenvalues --   -0.39806  -0.39018  -0.19921
 Alpha virt. eigenvalues --    0.02833   0.05216   0.05736   0.08070   0.08767
 Alpha virt. eigenvalues --    0.09557   0.10078   0.11247   0.13554   0.13956
 Alpha virt. eigenvalues --    0.14681   0.15487   0.16001   0.19155   0.19946

 Mulliken charges:
               1
     1  S    1.931537
     2  O   -2.382502
     3  N   -2.834322
     4  C   -1.080319
     5  C    0.229521
     6  H    1.358425
     7  H    1.302984
     8  H    1.474676
 Sum of Mulliken charges =  -0.00000

 Dipole moment (field-independent basis, Debye):
    X=             -0.6743    Y=             -1.0531    Z=              0.0057  Tot=              1.2505

 Test job not archived.
 1\1\GINC-SE165\SP\RHF\Aug-CC-pVDZ\C2H3N1O1S1\OHZDE\06-Apr-2025\0\\#t h
 f aug-cc-pvdz iop(5/13=1,5/36=2,99/5=2) pseudo=read geom=check guess=(
 read,tcheck) scf=(maxcycle=1)\\title\\0,1\S,0,1.18641,-0.064006,0.0451
 38\O,0,-0.06115,-1.221903,-0.137878\N,0,0.175744,1.267799,-0.04228\C,0
 ,-1.314499,-0.572652,0.090963\C,0,-1.045628,0.909737,-0.039631\H,0,-2.
 026854,-0.942923,-0.648855\H,0,-1.699331,-0.803961,1.095565\H,0,-1.836
 625,1.649104,-0.077924\\Version=ES64L-G16RevC.01\State=1-A\HF=-605.413
 9163\RMSD=1.917e-01\Dipole=-0.2653037,-0.4143307,0.0022496\Quadrupole=

 Normal termination of Gaussian 16 at Sun Apr  6 07:56:52 2025.
