 Gaussian 16, Revision C.01,

 ----------------------------------------------------------------------
 #t hf aug-cc-pvdz symm=none int=(grid=ultrafine) guess=(read,tcheck) s
 table=(opt,rrhf)
 ----------------------------------------------------------------------
 -----
 title
 -----
 Symbolic Z-matrix:
 Charge =  0 Multiplicity = 1

 SCF Done:  E(RHF) =  -659.063850319     A.U. after   16 cycles
 Normal termination of Gaussian 16 at Sun Apr  6 07:57:44 2025.
 Gaussian 16:  ES64L-G16RevC.01  3-Jul-2019

 ----------------------------------------------------------------------
 #t hf aug-cc-pvdz iop(5/13=1,5/36=2,99/5=2) pseudo=read geom=check gue
 ss=(read,tcheck) scf=(maxcycle=1)
 ----------------------------------------------------------------------
 -----
 title
 -----
 Structure from the checkpoint file:  "1-2-thiazole-4-carbonitrile.chk"
 Charge =  0 Multiplicity = 1

                         Standard orientation:
 ---------------------------------------------------------------------
 Center     Atomic      Atomic             Coordinates (Angstroms)
 Number     Number       Type             X           Y           Z
 ---------------------------------------------------------------------
      1         16           0        1.790737   -0.475898   -0.000002
      2          7           0        1.364374    1.134172   -0.000002
      3          7           0       -3.240588   -0.146020   -0.000007
      4          6           0       -0.672756    0.008613    0.000004
      5          6           0        0.191251   -1.060988    0.000003
      6          6           0        0.060358    1.235299    0.000002
      7          6           0       -2.089661   -0.084352    0.000005
      8          1           0       -0.056134   -2.109489    0.000004
      9          1           0       -0.397308    2.215358    0.000003
 ---------------------------------------------------------------------

 SCF Done:  E(RHF) =  -660.464773073     A.U. after    2 cycles

 The electronic state is 1-A.
 Alpha  occ. eigenvalues --  -75.76681 -15.78668 -15.77680 -13.24415 -13.21771
 Alpha  occ. eigenvalues --  -13.08006 -11.51400 -11.48698 -11.46272 -11.44004
 Alpha  occ. eigenvalues --   -8.11234  -1.52142  -1.32675  -1.19712  -1.15018
 Alpha  occ. eigenvalues --   -0.89731  -0.85735  -0.78922  -0.60982  -0.59723
 Alpha  occ. eigenvalues --   -0.59418  -0.53123  -0.49016  -0.48332  -0.42789
 Alpha  occ. eigenvalues --   -0.41107  -0.38541  -0.30359
 Alpha virt. eigenvalues --    0.02216   0.05037   0.06393   0.07339   0.07679
 Alpha virt. eigenvalues --    0.08510   0.09788   0.09830   0.12267   0.12488
 Alpha virt. eigenvalues --    0.12829   0.13553   0.13592   0.15361   0.15838

 Mulliken charges:
               1
     1  S    2.054608
     2  N   -3.125831
     3  N   -2.418571
     4  C    3.639154
     5  C   -4.063335
     6  C   -0.874374
     7  C    1.942172
     8  H    1.339171
     9  H    1.507007
 Sum of Mulliken charges =   0.00000

 Dipole moment (field-independent basis, Debye):
    X=              4.8645    Y=             -1.8307    Z=              0.0000  Tot=              5.1976

 Test job not archived.
 1\1\GINC-SE388\SP\RHF\Aug-CC-pVDZ\C4H2N2S1\OHZDE\06-Apr-2025\0\\#t hf
 aug-cc-pvdz iop(5/13=1,5/36=2,99/5=2) pseudo=read geom=check guess=(re
 ad,tcheck) scf=(maxcycle=1)\\title\\0,1\S,0,1.790737,-0.475898,-0.0000
 02\N,0,1.364374,1.134172,-0.000002\N,0,-3.240588,-0.14602,-0.000007\C,
 0,-0.672756,0.008613,0.000004\C,0,0.191251,-1.060988,0.000003\C,0,0.06
 0358,1.235299,0.000002\C,0,-2.089661,-0.084352,0.000005\H,0,-0.056134,
 -2.109489,0.000004\H,0,-0.397308,2.215358,0.000003\\Version=ES64L-G16R
 evC.01\State=1-A\HF=-660.4647731\RMSD=1.041e+00\Dipole=1.9138542,-0.72

 Normal termination of Gaussian 16 at Sun Apr  6 07:57:52 2025.
