 Gaussian 16, Revision C.01,

 ----------------------------------------------------------------------
 #t hf aug-cc-pvdz symm=none int=(grid=ultrafine) guess=(read,tcheck) s
 table=(opt,rrhf)
 ----------------------------------------------------------------------
 -----
 title
 -----
 Symbolic Z-matrix:
 Charge =  0 Multiplicity = 1

 SCF Done:  E(RHF) =  -601.590745981     A.U. after   15 cycles
 Normal termination of Gaussian 16 at Sun Apr  6 07:56:54 2025.
 Gaussian 16:  ES64L-G16RevC.01  3-Jul-2019

 ----------------------------------------------------------------------
 #t hf aug-cc-pvdz iop(5/13=1,5/36=2,99/5=2) pseudo=read geom=check gue
 ss=(read,tcheck) scf=(maxcycle=1)
 ----------------------------------------------------------------------
 -----
 title
 -----
 Structure from the checkpoint file:  "1-2-3-5-thiatriazolidine.chk"
 Charge =  0 Multiplicity = 1

                         Standard orientation:
 ---------------------------------------------------------------------
 Center     Atomic      Atomic             Coordinates (Angstroms)
 Number     Number       Type             X           Y           Z
 ---------------------------------------------------------------------
      1         16           0        1.269184    0.021996   -0.048659
      2          7           0       -0.119170    1.321785   -0.175767
      3          7           0        0.137738   -1.247091    0.185652
      4          7           0       -1.310756    0.631312    0.167212
      5          6           0       -1.144327   -0.729143   -0.328537
      6          1           0        0.047791    2.004441    0.559957
      7          1           0        0.046505   -1.444294    1.177121
      8          1           0       -1.422605    0.577580    1.179868
      9          1           0       -1.098327   -0.703318   -1.415165
     10          1           0       -1.969029   -1.353521    0.008300
 ---------------------------------------------------------------------

 SCF Done:  E(RHF) =  -602.770848601     A.U. after    2 cycles

 The electronic state is 1-A.
 Alpha  occ. eigenvalues --  -75.71424 -15.77713 -15.76302 -15.75822 -13.16081
 Alpha  occ. eigenvalues --  -13.11106 -13.04859 -11.43033  -8.05207  -1.55317
 Alpha  occ. eigenvalues --   -1.34321  -1.18322  -0.94910  -0.92038  -0.74180
 Alpha  occ. eigenvalues --   -0.65250  -0.64968  -0.55146  -0.51524  -0.49508
 Alpha  occ. eigenvalues --   -0.43364  -0.38238  -0.31108  -0.21742
 Alpha virt. eigenvalues --    0.03046   0.04663   0.05388   0.05994   0.06947
 Alpha virt. eigenvalues --    0.08709   0.10869   0.11706   0.12146   0.14267
 Alpha virt. eigenvalues --    0.16838   0.17072   0.17271   0.18600   0.19236

 Mulliken charges:
               1
     1  S    1.150125
     2  N   -1.301392
     3  N   -1.983518
     4  N   -1.135763
     5  C   -1.604336
     6  H    0.760553
     7  H    0.624446
     8  H    0.555264
     9  H    1.561439
    10  H    1.373183
 Sum of Mulliken charges =  -0.00000

 Dipole moment (field-independent basis, Debye):
    X=              0.0938    Y=             -0.3356    Z=              1.6946  Tot=              1.7300

 Test job not archived.
 1\1\GINC-SE104\SP\RHF\Aug-CC-pVDZ\C1H5N3S1\OHZDE\06-Apr-2025\0\\#t hf
 aug-cc-pvdz iop(5/13=1,5/36=2,99/5=2) pseudo=read geom=check guess=(re
 ad,tcheck) scf=(maxcycle=1)\\title\\0,1\S,0,1.269184,0.021994,-0.04865
 9\N,0,-0.119168,1.321785,-0.175767\N,0,0.137736,-1.247091,0.185652\N,0
 ,-1.310755,0.631314,0.167212\C,0,-1.144328,-0.729142,-0.328537\H,0,0.0
 47793,2.004441,0.559957\H,0,0.046503,-1.444294,1.177121\H,0,-1.422604,
 0.577582,1.179868\H,0,-1.098328,-0.703317,-1.415165\H,0,-1.969031,-1.3
 53519,0.0083\\Version=ES64L-G16RevC.01\State=1-A\HF=-602.7708486\RMSD=

 Normal termination of Gaussian 16 at Sun Apr  6 07:56:58 2025.
