 Gaussian 16, Revision C.01,

 ----------------------------------------------------------------------
 #t hf aug-cc-pvdz symm=none int=(grid=ultrafine) guess=(read,tcheck) s
 table=(opt,rrhf)
 ----------------------------------------------------------------------
 -----
 title
 -----
 Symbolic Z-matrix:
 Charge =  0 Multiplicity = 1

 SCF Done:  E(RHF) =  -263.313066781     A.U. after   11 cycles
 Normal termination of Gaussian 16 at Sun Apr  6 07:57:18 2025.
 Gaussian 16:  ES64L-G16RevC.01  3-Jul-2019

 ----------------------------------------------------------------------
 #t hf aug-cc-pvdz iop(5/13=1,5/36=2,99/5=2) pseudo=read geom=check gue
 ss=(read,tcheck) scf=(maxcycle=1)
 ----------------------------------------------------------------------
 -----
 title
 -----
 Structure from the checkpoint file:  "1-2-propadiene-1-3-dione.chk"
 Charge =  0 Multiplicity = 1

                         Standard orientation:
 ---------------------------------------------------------------------
 Center     Atomic      Atomic             Coordinates (Angstroms)
 Number     Number       Type             X           Y           Z
 ---------------------------------------------------------------------
      1          6           0        0.000000    0.000000    0.000000
      2          6           0        0.000000    0.000000    1.271509
      3          6           0        0.000000    0.000000   -1.271509
      4          8           0        0.000000    0.000000    2.431267
      5          8           0        0.000000    0.000000   -2.431267
 ---------------------------------------------------------------------

 SCF Done:  E(RHF) =  -264.400532842     A.U. after    2 cycles

 The electronic state is 1-SGG.
 Alpha  occ. eigenvalues --  -21.16369 -21.16347 -11.60626 -11.60127 -11.43130
 Alpha  occ. eigenvalues --   -1.80678  -1.79238  -1.18625  -0.93449  -0.65649
 Alpha  occ. eigenvalues --   -0.62417  -0.61740  -0.61740  -0.53635  -0.53635
 Alpha  occ. eigenvalues --   -0.31978  -0.31978
 Alpha virt. eigenvalues --    0.04012   0.08082   0.09810   0.10394   0.10394
 Alpha virt. eigenvalues --    0.11448   0.11448   0.12965   0.12965   0.14991
 Alpha virt. eigenvalues --    0.18169   0.18169   0.20403   0.21935   0.26299

 Mulliken charges:
               1
     1  C    1.747394
     2  C    1.961919
     3  C    1.961919
     4  O   -2.835616
     5  O   -2.835616
 Sum of Mulliken charges =  -0.00000

 Dipole moment (field-independent basis, Debye):
    X=              0.0000    Y=             -0.0000    Z=             -0.0000  Tot=              0.0000

 Test job not archived.
 1\1\GINC-SE013\SP\RHF\Aug-CC-pVDZ\C3O2\OHZDE\06-Apr-2025\0\\#t hf aug-
 cc-pvdz iop(5/13=1,5/36=2,99/5=2) pseudo=read geom=check guess=(read,t
 check) scf=(maxcycle=1)\\title\\0,1\C,0,0.,0.,0.\C,0,0.,0.,1.271509\C,
 0,0.,0.,-1.271509\O,0,0.,0.,2.431267\O,0,0.,0.,-2.431267\\Version=ES64
 L-G16RevC.01\State=1-SGG\HF=-264.4005328\RMSD=7.595e-01\Dipole=0.,0.,0
 .\Quadrupole=-0.7683251,-0.7683251,1.5366502,0.,0.,0.\PG=D*H [O(C1),C*
 (O1C1.C1O1)]\\@

 Normal termination of Gaussian 16 at Sun Apr  6 07:57:32 2025.
