 Gaussian 16, Revision C.01,

 ----------------------------------------------------------------------
 #t hf aug-cc-pvdz symm=none int=(grid=ultrafine) guess=(read,tcheck) s
 table=(opt,rrhf)
 ----------------------------------------------------------------------
 -----
 title
 -----
 Symbolic Z-matrix:
 Charge =  0 Multiplicity = 1

 SCF Done:  E(RHF) =  -307.021357262     A.U. after   11 cycles

 1\1\GINC-SE168\Stability\RHF\Aug-CC-pVDZ\C4H10O2\OHZDE\06-Apr-2025\0\\
 #t hf aug-cc-pvdz symm=none int=(grid=ultrafine) guess=(read,tcheck) s
 table=(opt,rrhf)\\title\\0,1\C,0,0.170671,2.748478,-0.443046\C,0,-0.17
 0671,-2.748478,-0.443046\C,0,-0.170671,0.7354,0.732131\C,0,0.170671,-0
 .7354,0.732131\O,0,0.508228,1.383432,-0.325029\O,0,-0.508228,-1.383432
 ,-0.325029\H,0,0.742895,3.152831,-1.275405\H,0,0.423122,3.30609,0.4678
 16\H,0,-0.898648,2.880525,-0.647014\H,0,0.898648,-2.880525,-0.647014\H
 ,0,-0.742895,-3.152831,-1.275405\H,0,-0.423122,-3.30609,0.467816\H,0,0

 Normal termination of Gaussian 16 at Sun Apr  6 07:57:41 2025.
 Gaussian 16:  ES64L-G16RevC.01  3-Jul-2019

 ----------------------------------------------------------------------
 #t hf aug-cc-pvdz iop(5/13=1,5/36=2,99/5=2) pseudo=read geom=check gue
 ss=(read,tcheck) scf=(maxcycle=1)
 ----------------------------------------------------------------------
 -----
 title
 -----
 Structure from the checkpoint file:  "1-2-dimethoxyethane.chk"
 Charge =  0 Multiplicity = 1

                         Standard orientation:
 ---------------------------------------------------------------------
 Center     Atomic      Atomic             Coordinates (Angstroms)
 Number     Number       Type             X           Y           Z
 ---------------------------------------------------------------------
      1          6           0        0.170671    2.748478   -0.443046
      2          6           0       -0.170671   -2.748478   -0.443046
      3          6           0       -0.170671    0.735400    0.732131
      4          6           0        0.170671   -0.735400    0.732131
      5          8           0        0.508228    1.383432   -0.325029
      6          8           0       -0.508228   -1.383432   -0.325029
      7          1           0        0.742895    3.152831   -1.275405
      8          1           0        0.423122    3.306090    0.467816
      9          1           0       -0.898648    2.880525   -0.647014
     10          1           0        0.898648   -2.880525   -0.647014
     11          1           0       -0.742895   -3.152831   -1.275405
     12          1           0       -0.423122   -3.306090    0.467816
     13          1           0        0.125486    1.172411    1.696274
     14          1           0       -1.256057    0.857539    0.624047
     15          1           0       -0.125486   -1.172411    1.696274
     16          1           0        1.256057   -0.857539    0.624047
 ---------------------------------------------------------------------

 SCF Done:  E(RHF) =  -308.437124335     A.U. after    2 cycles

 The electronic state is 1-A.
 Alpha  occ. eigenvalues --  -21.03713 -21.03711 -11.45035 -11.39832 -11.39661
 Alpha  occ. eigenvalues --  -11.38288  -1.76724  -1.72177  -1.10764  -0.98456
 Alpha  occ. eigenvalues --   -0.94087  -0.85114  -0.65530  -0.65098  -0.63118
 Alpha  occ. eigenvalues --   -0.59077  -0.58831  -0.57576  -0.52776  -0.51705
 Alpha  occ. eigenvalues --   -0.45330  -0.38788  -0.37418  -0.30408  -0.28226
 Alpha virt. eigenvalues --    0.04176   0.05077   0.05416   0.05567   0.05842
 Alpha virt. eigenvalues --    0.06793   0.06885   0.06992   0.07765   0.08705
 Alpha virt. eigenvalues --    0.12199   0.13355   0.13783   0.14773   0.15139

 Mulliken charges:
               1
     1  C   -2.983357
     2  C   -2.983357
     3  C   -1.175542
     4  C   -1.175542
     5  O   -2.852511
     6  O   -2.852511
     7  H    1.282899
     8  H    1.349953
     9  H    1.330653
    10  H    1.330653
    11  H    1.282899
    12  H    1.349953
    13  H    1.395876
    14  H    1.652028
    15  H    1.395876
    16  H    1.652028
 Sum of Mulliken charges =  -0.00000

 Dipole moment (field-independent basis, Debye):
    X=              0.0000    Y=             -0.0000    Z=              0.2682  Tot=              0.2682

 Test job not archived.
 1\1\GINC-SE168\SP\RHF\Aug-CC-pVDZ\C4H10O2\OHZDE\06-Apr-2025\0\\#t hf a
 ug-cc-pvdz iop(5/13=1,5/36=2,99/5=2) pseudo=read geom=check guess=(rea
 d,tcheck) scf=(maxcycle=1)\\title\\0,1\C,0,0.170671,2.748478,-0.443046
 \C,0,-0.170671,-2.748478,-0.443046\C,0,-0.170671,0.7354,0.732131\C,0,0
 .170671,-0.7354,0.732131\O,0,0.508228,1.383432,-0.325029\O,0,-0.508228
 ,-1.383432,-0.325029\H,0,0.742895,3.152831,-1.275405\H,0,0.423122,3.30
 609,0.467816\H,0,-0.898648,2.880525,-0.647014\H,0,0.898648,-2.880525,-
 0.647014\H,0,-0.742895,-3.152831,-1.275405\H,0,-0.423122,-3.30609,0.46

 Normal termination of Gaussian 16 at Sun Apr  6 07:57:45 2025.
