 Gaussian 16, Revision C.01,

 ----------------------------------------------------------------------
 #t hf aug-cc-pvdz symm=none int=(grid=ultrafine) guess=(read,tcheck) s
 table=(opt,rrhf)
 ----------------------------------------------------------------------
 -----
 title
 -----
 Symbolic Z-matrix:
 Charge =  0 Multiplicity = 1

 SCF Done:  E(RHF) =  -384.506534280     A.U. after   14 cycles
 Normal termination of Gaussian 16 at Sun Apr  6 07:58:57 2025.
 Gaussian 16:  ES64L-G16RevC.01  3-Jul-2019

 ----------------------------------------------------------------------
 #t hf aug-cc-pvdz iop(5/13=1,5/36=2,99/5=2) pseudo=read geom=check gue
 ss=(read,tcheck) scf=(maxcycle=1)
 ----------------------------------------------------------------------
 -----
 title
 -----
 Structure from the checkpoint file:  "1-2-divinylbenzene.chk"
 Charge =  0 Multiplicity = 1

                         Standard orientation:
 ---------------------------------------------------------------------
 Center     Atomic      Atomic             Coordinates (Angstroms)
 Number     Number       Type             X           Y           Z
 ---------------------------------------------------------------------
      1          6           0       -0.002677    0.695637    2.287492
      2          6           0        0.002677   -0.695637    2.287492
      3          6           0       -0.005281    1.380849    1.083628
      4          6           0        0.005281   -1.380849    1.083628
      5          6           0        0.002677    0.706828   -0.143419
      6          6           0       -0.002677   -0.706828   -0.143419
      7          6           0        0.504833    2.671718   -1.602985
      8          6           0       -0.504833   -2.671718   -1.602985
      9          6           0       -0.027936    1.466513   -1.404857
     10          6           0        0.027936   -1.466513   -1.404857
     11          1           0       -0.012494    1.242389    3.220751
     12          1           0        0.012494   -1.242389    3.220751
     13          1           0       -0.044540    2.461435    1.086304
     14          1           0        0.044540   -2.461435    1.086304
     15          1           0        0.415967    3.169418   -2.558579
     16          1           0        1.054385    3.194867   -0.831116
     17          1           0       -0.415967   -3.169418   -2.558579
     18          1           0       -1.054385   -3.194867   -0.831116
     19          1           0       -0.534592    0.991304   -2.236512
     20          1           0        0.534592   -0.991304   -2.236512
 ---------------------------------------------------------------------

 SCF Done:  E(RHF) =  -386.376258071     A.U. after    2 cycles

 The electronic state is 1-A.
 Alpha  occ. eigenvalues --  -11.51406 -11.46029 -11.43452 -11.42415 -11.42016
 Alpha  occ. eigenvalues --  -11.41082 -11.40723 -11.39011 -11.38599 -11.36230
 Alpha  occ. eigenvalues --   -1.37319  -1.18239  -1.17776  -1.06415  -1.04799
 Alpha  occ. eigenvalues --   -0.89145  -0.88890  -0.79785  -0.78862  -0.70114
 Alpha  occ. eigenvalues --   -0.65331  -0.64444  -0.61025  -0.58540  -0.56407
 Alpha  occ. eigenvalues --   -0.53718  -0.52115  -0.50371  -0.49840  -0.43777
 Alpha  occ. eigenvalues --   -0.42887  -0.39311  -0.39030  -0.31149  -0.28589
 Alpha virt. eigenvalues --    0.03477   0.04551   0.05253   0.05710   0.06005
 Alpha virt. eigenvalues --    0.06046   0.06762   0.07010   0.07058   0.08092
 Alpha virt. eigenvalues --    0.09380   0.09969   0.10413   0.11202   0.11526

 Mulliken charges:
               1
     1  C   -4.212279
     2  C   -4.212279
     3  C   -1.925874
     4  C   -1.925874
     5  C    4.220285
     6  C    4.220285
     7  C   -4.320197
     8  C   -4.320197
     9  C   -1.327813
    10  C   -1.327813
    11  H    1.537203
    12  H    1.537203
    13  H    1.863271
    14  H    1.863271
    15  H    1.299175
    16  H    1.454362
    17  H    1.299175
    18  H    1.454362
    19  H    1.411868
    20  H    1.411868
 Sum of Mulliken charges =   0.00000

 Dipole moment (field-independent basis, Debye):
    X=              0.0000    Y=              0.0000    Z=              0.1469  Tot=              0.1469

 Test job not archived.
 1\1\GINC-SE169\SP\RHF\Aug-CC-pVDZ\C10H10\OHZDE\06-Apr-2025\0\\#t hf au
 g-cc-pvdz iop(5/13=1,5/36=2,99/5=2) pseudo=read geom=check guess=(read
 ,tcheck) scf=(maxcycle=1)\\title\\0,1\C,0,-0.002677,0.695637,2.287492\
 C,0,0.002677,-0.695637,2.287492\C,0,-0.005281,1.380849,1.083628\C,0,0.
 005281,-1.380849,1.083628\C,0,0.002677,0.706828,-0.143419\C,0,-0.00267
 7,-0.706828,-0.143419\C,0,0.504833,2.671718,-1.602985\C,0,-0.504833,-2
 .671718,-1.602985\C,0,-0.027936,1.466513,-1.404857\C,0,0.027936,-1.466
 513,-1.404857\H,0,-0.012494,1.242389,3.220751\H,0,0.012494,-1.242389,3

 Normal termination of Gaussian 16 at Sun Apr  6 07:59:04 2025.
