 Gaussian 16, Revision C.01,

 ----------------------------------------------------------------------
 #t hf aug-cc-pvdz symm=none int=(grid=ultrafine) guess=(read,tcheck) s
 table=(opt,rrhf)
 ----------------------------------------------------------------------
 -----
 title
 -----
 Symbolic Z-matrix:
 Charge =  0 Multiplicity = 1

 SCF Done:  E(RHF) =  -659.059407881     A.U. after   17 cycles
 Normal termination of Gaussian 16 at Sun Apr  6 07:57:25 2025.
 Gaussian 16:  ES64L-G16RevC.01  3-Jul-2019

 ----------------------------------------------------------------------
 #t hf aug-cc-pvdz iop(5/13=1,5/36=2,99/5=2) pseudo=read geom=check gue
 ss=(read,tcheck) scf=(maxcycle=1)
 ----------------------------------------------------------------------
 -----
 title
 -----
 Structure from the checkpoint file:  "1-2-thiazole-3-carbonitrile.chk"
 Charge =  0 Multiplicity = 1

                         Standard orientation:
 ---------------------------------------------------------------------
 Center     Atomic      Atomic             Coordinates (Angstroms)
 Number     Number       Type             X           Y           Z
 ---------------------------------------------------------------------
      1         16           0        1.711330   -0.591498   -0.000002
      2          7           0        0.125713   -1.050663    0.000000
      3          7           0       -3.206102   -0.162108    0.000004
      4          6           0        0.041278    1.287387    0.000000
      5          6           0       -0.631726    0.033488    0.000001
      6          6           0        1.390605    1.091295   -0.000002
      7          6           0       -2.056708   -0.099158    0.000002
      8          1           0       -0.453822    2.244922    0.000000
      9          1           0        2.174575    1.830378   -0.000003
 ---------------------------------------------------------------------

 SCF Done:  E(RHF) =  -660.460495494     A.U. after    2 cycles

 The electronic state is 1-A.
 Alpha  occ. eigenvalues --  -75.76659 -15.79478 -15.78030 -13.25082 -13.21216
 Alpha  occ. eigenvalues --  -13.08325 -11.52812 -11.48569 -11.45242 -11.42870
 Alpha  occ. eigenvalues --   -8.11207  -1.52908  -1.31965  -1.18981  -1.15511
 Alpha  occ. eigenvalues --   -0.90196  -0.86372  -0.76344  -0.62691  -0.60275
 Alpha  occ. eigenvalues --   -0.57854  -0.53581  -0.47429  -0.45872  -0.43549
 Alpha  occ. eigenvalues --   -0.42521  -0.39074  -0.30273
 Alpha virt. eigenvalues --    0.02074   0.04470   0.06223   0.07735   0.08597
 Alpha virt. eigenvalues --    0.08902   0.09771   0.10499   0.11920   0.11995
 Alpha virt. eigenvalues --    0.13317   0.13628   0.14224   0.14539   0.14772

 Mulliken charges:
               1
     1  S    2.242947
     2  N   -3.521212
     3  N   -2.352309
     4  C   -2.351603
     5  C    3.579562
     6  C   -1.655465
     7  C    1.234384
     8  H    1.500621
     9  H    1.323074
 Sum of Mulliken charges =   0.00000

 Dipole moment (field-independent basis, Debye):
    X=              6.1098    Y=              0.8382    Z=             -0.0000  Tot=              6.1670

 Test job not archived.
 1\1\GINC-SE249\SP\RHF\Aug-CC-pVDZ\C4H2N2S1\OHZDE\06-Apr-2025\0\\#t hf
 aug-cc-pvdz iop(5/13=1,5/36=2,99/5=2) pseudo=read geom=check guess=(re
 ad,tcheck) scf=(maxcycle=1)\\title\\0,1\S,0,-1.71133,-0.591498,0.00000
 2\N,0,-0.125713,-1.050663,0.\N,0,3.206102,-0.162108,-0.000004\C,0,-0.0
 41278,1.287387,0.\C,0,0.631726,0.033488,-0.000001\C,0,-1.390605,1.0912
 95,0.000002\C,0,2.056708,-0.099158,-0.000002\H,0,0.453822,2.244922,0.\
 H,0,-2.174575,1.830378,0.000003\\Version=ES64L-G16RevC.01\State=1-A\HF
 =-660.4604955\RMSD=1.138e+00\Dipole=-2.4037786,0.3297546,0.0000031\Qua

 Normal termination of Gaussian 16 at Sun Apr  6 07:57:34 2025.
