 Gaussian 16, Revision C.01,

 ----------------------------------------------------------------------
 #t hf aug-cc-pvdz symm=none int=(grid=ultrafine) guess=(read,tcheck) s
 table=(opt,rrhf)
 ----------------------------------------------------------------------
 -----
 title
 -----
 Symbolic Z-matrix:
 Charge =  0 Multiplicity = 1

 SCF Done:  E(RHF) =  -240.813167471     A.U. after   12 cycles
 Normal termination of Gaussian 16 at Sun Apr  6 07:57:22 2025.
 Gaussian 16:  ES64L-G16RevC.01  3-Jul-2019

 ----------------------------------------------------------------------
 #t hf aug-cc-pvdz iop(5/13=1,5/36=2,99/5=2) pseudo=read geom=check gue
 ss=(read,tcheck) scf=(maxcycle=1)
 ----------------------------------------------------------------------
 -----
 title
 -----
 Structure from the checkpoint file:  "1-2-5-triazole.chk"
 Charge =  0 Multiplicity = 1

                         Standard orientation:
 ---------------------------------------------------------------------
 Center     Atomic      Atomic             Coordinates (Angstroms)
 Number     Number       Type             X           Y           Z
 ---------------------------------------------------------------------
      1          7           0        0.000000    1.125330    0.353534
      2          7           0        0.000000    0.000000    1.049856
      3          7           0       -0.000000   -1.125330    0.353534
      4          6           0        0.000000   -0.700907   -0.908175
      5          6           0        0.000000    0.700907   -0.908175
      6          1           0        0.000000    0.000000    2.055597
      7          1           0        0.000000   -1.396879   -1.727982
      8          1           0        0.000000    1.396879   -1.727982
 ---------------------------------------------------------------------

 SCF Done:  E(RHF) =  -241.907746532     A.U. after    2 cycles

 The electronic state is 1-A1.
 Alpha  occ. eigenvalues --  -15.84257 -15.78117 -15.77936 -11.44627 -11.39381
 Alpha  occ. eigenvalues --   -1.69717  -1.29854  -1.19977  -0.87718  -0.84713
 Alpha  occ. eigenvalues --   -0.74404  -0.64887  -0.60179  -0.58079  -0.44974
 Alpha  occ. eigenvalues --   -0.42468  -0.37511  -0.35632
 Alpha virt. eigenvalues --    0.03826   0.05307   0.05624   0.10617   0.11168
 Alpha virt. eigenvalues --    0.12124   0.12200   0.13011   0.14461   0.16145
 Alpha virt. eigenvalues --    0.17122   0.17165   0.17880   0.18714   0.19740

 Mulliken charges:
               1
     1  N   -2.029606
     2  N   -0.211544
     3  N   -2.029606
     4  C    0.356586
     5  C    0.356586
     6  H    0.961214
     7  H    1.298185
     8  H    1.298185
 Sum of Mulliken charges =   0.00000

 Dipole moment (field-independent basis, Debye):
    X=              0.0000    Y=              0.0000    Z=              0.1713  Tot=              0.1713

 Test job not archived.
 1\1\GINC-SE212\SP\RHF\Aug-CC-pVDZ\C2H3N3\OHZDE\06-Apr-2025\0\\#t hf au
 g-cc-pvdz iop(5/13=1,5/36=2,99/5=2) pseudo=read geom=check guess=(read
 ,tcheck) scf=(maxcycle=1)\\title\\0,1\N,0,0.,1.12533,0.353534\N,0,0.,0
 .,1.049856\N,0,0.,-1.12533,0.353534\C,0,0.,-0.700907,-0.908175\C,0,0.,
 0.700907,-0.908175\H,0,0.,0.,2.055597\H,0,0.,-1.396879,-1.727982\H,0,0
 .,1.396879,-1.727982\\Version=ES64L-G16RevC.01\State=1-A1\HF=-241.9077
 465\RMSD=5.164e-01\Dipole=0.,0.,0.0674094\Quadrupole=-1.7679694,-3.473
 8213,5.2417907,0.,0.,0.\PG=C02V [C2(N1H1),SGV(C2H2N2)]\\@

 Normal termination of Gaussian 16 at Sun Apr  6 07:57:33 2025.
