 Gaussian 16, Revision C.01,

 ----------------------------------------------------------------------
 #t hf aug-cc-pvdz symm=none int=(grid=ultrafine) guess=(read,tcheck) s
 table=(opt,rrhf)
 ----------------------------------------------------------------------
 -----
 title
 -----
 Symbolic Z-matrix:
 Charge =  0 Multiplicity = 1

 SCF Done:  E(RHF) =  -276.593324850     A.U. after   15 cycles
 Normal termination of Gaussian 16 at Sun Apr  6 07:56:40 2025.
 Gaussian 16:  ES64L-G16RevC.01  3-Jul-2019

 ----------------------------------------------------------------------
 #t hf aug-cc-pvdz iop(5/13=1,5/36=2,99/5=2) pseudo=read geom=check gue
 ss=(read,tcheck) scf=(maxcycle=1)
 ----------------------------------------------------------------------
 -----
 title
 -----
 Structure from the checkpoint file:  "1-2-3-4-oxatriazole.chk"
 Charge =  0 Multiplicity = 1

                         Standard orientation:
 ---------------------------------------------------------------------
 Center     Atomic      Atomic             Coordinates (Angstroms)
 Number     Number       Type             X           Y           Z
 ---------------------------------------------------------------------
      1          6           0       -0.000000    1.060596    0.000000
      2          7           0        1.107973    0.392861    0.000000
      3          7           0        0.687701   -0.924391    0.000000
      4          7           0       -0.543555   -1.038784    0.000000
      5          8           0       -1.082437    0.312079    0.000000
      6          1           0       -0.105336    2.131991    0.000000
 ---------------------------------------------------------------------

 SCF Done:  E(RHF) =  -277.760221784     A.U. after    2 cycles

 The electronic state is 1-A'.
 Alpha  occ. eigenvalues --  -21.17393 -15.86878 -15.84627 -15.79256 -11.50514
 Alpha  occ. eigenvalues --   -1.96348  -1.56147  -1.34691  -0.93328  -0.88984
 Alpha  occ. eigenvalues --   -0.75423  -0.69508  -0.59320  -0.51599  -0.45483
 Alpha  occ. eigenvalues --   -0.45412  -0.41561  -0.41245
 Alpha virt. eigenvalues --    0.03216   0.09152   0.09367   0.09953   0.13171
 Alpha virt. eigenvalues --    0.13803   0.14077   0.14371   0.16228   0.17163
 Alpha virt. eigenvalues --    0.19035   0.19987   0.20418   0.22577   0.24529

 Mulliken charges:
               1
     1  C    1.566324
     2  N   -1.874829
     3  N    0.886651
     4  N    0.174586
     5  O   -2.372139
     6  H    1.619407
 Sum of Mulliken charges =   0.00000

 Dipole moment (field-independent basis, Debye):
    X=             -1.7098    Y=              2.6261    Z=              0.0000  Tot=              3.1337

 Test job not archived.
 1\1\GINC-SE023\SP\RHF\Aug-CC-pVDZ\C1H1N3O1\OHZDE\06-Apr-2025\0\\#t hf
 aug-cc-pvdz iop(5/13=1,5/36=2,99/5=2) pseudo=read geom=check guess=(re
 ad,tcheck) scf=(maxcycle=1)\\title\\0,1\C,0,0.,1.060596,0.\N,0,1.10797
 3,0.392861,0.\N,0,0.687701,-0.924391,0.\N,0,-0.543555,-1.038784,0.\O,0
 ,-1.082437,0.312079,0.\H,0,-0.105336,2.131991,0.\\Version=ES64L-G16Rev
 C.01\State=1-A'\HF=-277.7602218\RMSD=9.645e-02\Dipole=-0.6726801,1.033
 1888,0.\Quadrupole=-2.487783,1.7885726,0.6992104,-0.9343232,0.,0.\PG=C
 S [SG(C1H1N3O1)]\\@

 Normal termination of Gaussian 16 at Sun Apr  6 07:56:42 2025.
