 Gaussian 16, Revision C.01,

 ----------------------------------------------------------------------
 #t hf aug-cc-pvdz symm=none int=(grid=ultrafine) guess=(read,tcheck) s
 table=(opt,rrhf)
 ----------------------------------------------------------------------
 -----
 title
 -----
 Symbolic Z-matrix:
 Charge =  0 Multiplicity = 1

 SCF Done:  E(RHF) =  -889.671804110     A.U. after   17 cycles
 Normal termination of Gaussian 16 at Sun Apr  6 07:58:14 2025.
 Gaussian 16:  ES64L-G16RevC.01  3-Jul-2019

 ----------------------------------------------------------------------
 #t hf aug-cc-pvdz iop(5/13=1,5/36=2,99/5=2) pseudo=read geom=check gue
 ss=(read,tcheck) scf=(maxcycle=1)
 ----------------------------------------------------------------------
 -----
 title
 -----
 Structure from the checkpoint file:  "1-2-chloroethyl-1-nitrosourea.chk"
 Charge =  0 Multiplicity = 1

                         Standard orientation:
 ---------------------------------------------------------------------
 Center     Atomic      Atomic             Coordinates (Angstroms)
 Number     Number       Type             X           Y           Z
 ---------------------------------------------------------------------
      1         17           0       -2.331716    0.385323   -0.842661
      2          8           0        0.800067    1.956894    0.684740
      3          8           0        1.924475   -1.710939   -0.590900
      4          7           0        0.559473   -0.319605    0.435360
      5          7           0        0.933917   -1.565968    0.100956
      6          7           0        2.266673    0.888042   -0.680548
      7          6           0        1.219264    0.950722    0.158620
      8          6           0       -0.659018   -0.298092    1.257074
      9          6           0       -1.897922   -0.742235    0.503473
     10          1           0        2.749788    1.749947   -0.864293
     11          1           0        2.588978   -0.000540   -1.031486
     12          1           0       -0.513599   -0.974263    2.100509
     13          1           0       -0.765445    0.714099    1.630691
     14          1           0       -2.748841   -0.765557    1.178688
     15          1           0       -1.762439   -1.721470    0.055027
 ---------------------------------------------------------------------

 SCF Done:  E(RHF) =  -891.814498261     A.U. after    2 cycles

 The electronic state is 1-A.
 Alpha  occ. eigenvalues --  -99.88425 -21.11651 -21.04582 -15.91608 -15.81187
 Alpha  occ. eigenvalues --  -15.79228 -11.54400 -11.48950 -11.42804 -10.45690
 Alpha  occ. eigenvalues --   -9.65589  -9.64980  -9.64812  -1.89600  -1.74533
 Alpha  occ. eigenvalues --   -1.49440  -1.36992  -1.32877  -1.13420  -1.02663
 Alpha  occ. eigenvalues --   -0.94052  -0.80299  -0.74443  -0.71341  -0.69866
 Alpha  occ. eigenvalues --   -0.67605  -0.63008  -0.61909  -0.58216  -0.54828
 Alpha  occ. eigenvalues --   -0.54334  -0.53283  -0.51465  -0.48384  -0.47764
 Alpha  occ. eigenvalues --   -0.37594  -0.33864  -0.32549  -0.30042
 Alpha virt. eigenvalues --    0.03458   0.04664   0.05392   0.06177   0.06788
 Alpha virt. eigenvalues --    0.07285   0.07644   0.10240   0.11137   0.11610
 Alpha virt. eigenvalues --    0.11822   0.12548   0.13243   0.14098   0.14669

 Mulliken charges:
               1
     1  Cl   0.054026
     2  O   -2.888615
     3  O   -2.339969
     4  N   -0.694863
     5  N    1.031906
     6  N   -2.907610
     7  C    5.843328
     8  C   -2.286443
     9  C   -3.612915
    10  H    0.627444
    11  H    0.873007
    12  H    1.368478
    13  H    1.743566
    14  H    1.448036
    15  H    1.740624
 Sum of Mulliken charges =  -0.00000

 Dipole moment (field-independent basis, Debye):
    X=              1.3086    Y=             -0.8777    Z=              1.0283  Tot=              1.8815

 Test job not archived.
 1\1\GINC-SE046\SP\RHF\Aug-CC-pVDZ\C3H6Cl1N3O2\OHZDE\06-Apr-2025\0\\#t
 hf aug-cc-pvdz iop(5/13=1,5/36=2,99/5=2) pseudo=read geom=check guess=
 (read,tcheck) scf=(maxcycle=1)\\title\\0,1\Cl,0,-2.331716,0.385323,-0.
 842661\O,0,0.800067,1.956894,0.68474\O,0,1.924475,-1.710939,-0.5909\N,
 0,0.559473,-0.319605,0.43536\N,0,0.933917,-1.565968,0.100956\N,0,2.266
 673,0.888042,-0.680548\C,0,1.219264,0.950722,0.15862\C,0,-0.659018,-0.
 298092,1.257074\C,0,-1.897922,-0.742235,0.503473\H,0,2.749788,1.749947
 ,-0.864293\H,0,2.588978,-0.00054,-1.031486\H,0,-0.513599,-0.974263,2.1

 Normal termination of Gaussian 16 at Sun Apr  6 07:58:27 2025.
