 Gaussian 16, Revision C.01,

 ----------------------------------------------------------------------
 #t hf aug-cc-pvdz symm=none int=(grid=ultrafine) guess=(read,tcheck) s
 table=(opt,rrhf)
 ----------------------------------------------------------------------
 -----
 title
 -----
 Symbolic Z-matrix:
 Charge =  0 Multiplicity = 1

 SCF Done:  E(RHF) =  -347.848665069     A.U. after   16 cycles
 Normal termination of Gaussian 16 at Sun Apr  6 07:58:59 2025.
 Gaussian 16:  ES64L-G16RevC.01  3-Jul-2019

 ----------------------------------------------------------------------
 #t hf aug-cc-pvdz iop(5/13=1,5/36=2,99/5=2) pseudo=read geom=check gue
 ss=(read,tcheck) scf=(maxcycle=1)
 ----------------------------------------------------------------------
 -----
 title
 -----
 Structure from the checkpoint file:  "1-2-4-trimethylbenzene.chk"
 Charge =  0 Multiplicity = 1

                         Standard orientation:
 ---------------------------------------------------------------------
 Center     Atomic      Atomic             Coordinates (Angstroms)
 Number     Number       Type             X           Y           Z
 ---------------------------------------------------------------------
      1          6           0        1.195758   -1.298145   -0.004519
      2          6           0       -0.164078   -1.590289   -0.001142
      3          6           0        0.666857    1.027078   -0.003574
      4          6           0        1.634761    0.020991   -0.004468
      5          6           0       -1.127279   -0.586152    0.001431
      6          6           0       -0.698001    0.753544   -0.000391
      7          6           0        3.101945    0.363537    0.005491
      8          6           0       -2.592222   -0.934876    0.003747
      9          6           0       -1.694071    1.883282   -0.000809
     10          1           0        1.916869   -2.105981   -0.008032
     11          1           0       -0.483106   -2.625508   -0.001941
     12          1           0        0.988228    2.062856   -0.006517
     13          1           0        3.350936    1.071949   -0.786662
     14          1           0        3.394831    0.823552    0.952224
     15          1           0        3.716693   -0.524973   -0.134151
     16          1           0       -3.103136   -0.529106    0.880359
     17          1           0       -3.105416   -0.531909   -0.872848
     18          1           0       -2.735435   -2.014351    0.005643
     19          1           0       -1.191305    2.849145   -0.002610
     20          1           0       -2.346579    1.844113   -0.876396
     21          1           0       -2.344609    1.846392    0.876330
 ---------------------------------------------------------------------

 SCF Done:  E(RHF) =  -349.587017867     A.U. after    2 cycles

 The electronic state is 1-A.
 Alpha  occ. eigenvalues --  -11.49783 -11.44505 -11.42763 -11.42104 -11.40309
 Alpha  occ. eigenvalues --  -11.39228 -11.38175 -11.37536 -11.34500  -1.36312
 Alpha  occ. eigenvalues --   -1.17831  -1.12568  -1.04737  -0.99488  -0.93845
 Alpha  occ. eigenvalues --   -0.84380  -0.79091  -0.65819  -0.62676  -0.61830
 Alpha  occ. eigenvalues --   -0.59116  -0.56664  -0.55708  -0.55208  -0.54621
 Alpha  occ. eigenvalues --   -0.52842  -0.51092  -0.47637  -0.46077  -0.41579
 Alpha  occ. eigenvalues --   -0.40876  -0.31382  -0.29688
 Alpha virt. eigenvalues --    0.03567   0.04564   0.05208   0.05589   0.05656
 Alpha virt. eigenvalues --    0.06346   0.06881   0.06936   0.07054   0.08016
 Alpha virt. eigenvalues --    0.09224   0.09547   0.10040   0.11587   0.12389

 Mulliken charges:
               1
     1  C   -3.419223
     2  C   -2.549066
     3  C   -1.601582
     4  C    3.059361
     5  C    3.412331
     6  C    2.691124
     7  C   -5.829159
     8  C   -5.917460
     9  C   -5.680688
    10  H    1.868463
    11  H    1.891457
    12  H    2.043612
    13  H    1.030010
    14  H    1.027144
    15  H    1.277120
    16  H    1.014985
    17  H    1.017295
    18  H    1.342701
    19  H    1.342032
    20  H    0.992491
    21  H    0.987053
 Sum of Mulliken charges =  -0.00000

 Dipole moment (field-independent basis, Debye):
    X=             -0.2263    Y=              0.2170    Z=              0.0140  Tot=              0.3139

 Test job not archived.
 1\1\GINC-SE150\SP\RHF\Aug-CC-pVDZ\C9H12\OHZDE\06-Apr-2025\0\\#t hf aug
 -cc-pvdz iop(5/13=1,5/36=2,99/5=2) pseudo=read geom=check guess=(read,
 tcheck) scf=(maxcycle=1)\\title\\0,1\C,0,1.195758,-1.298145,-0.004519\
 C,0,-0.164078,-1.590289,-0.001142\C,0,0.666857,1.027078,-0.003574\C,0,
 1.634761,0.020991,-0.004468\C,0,-1.127279,-0.586152,0.001431\C,0,-0.69
 8001,0.753544,-0.000391\C,0,3.101945,0.363537,0.005491\C,0,-2.592222,-
 0.934876,0.003747\C,0,-1.694071,1.883282,-0.000809\H,0,1.916869,-2.105
 981,-0.008032\H,0,-0.483106,-2.625508,-0.001941\H,0,0.988228,2.062856,

 Normal termination of Gaussian 16 at Sun Apr  6 07:59:11 2025.
