 Gaussian 16, Revision C.01,

 ----------------------------------------------------------------------
 #t hf aug-cc-pvdz symm=none int=(grid=ultrafine) guess=(read,tcheck) s
 table=(opt,rrhf)
 ----------------------------------------------------------------------
 -----
 title
 -----
 Symbolic Z-matrix:
 Charge =  0 Multiplicity = 1

 SCF Done:  E(RHF) =  -1181.65845865     A.U. after   16 cycles
 Normal termination of Gaussian 16 at Sun Apr  6 07:57:56 2025.
 Gaussian 16:  ES64L-G16RevC.01  3-Jul-2019

 ----------------------------------------------------------------------
 #t hf aug-cc-pvdz iop(5/13=1,5/36=2,99/5=2) pseudo=read geom=check gue
 ss=(read,tcheck) scf=(maxcycle=1)
 ----------------------------------------------------------------------
 -----
 title
 -----
 Structure from the checkpoint file:  "1-2-dichloro-1-2-dihydropyrimidine.chk"
 Charge =  0 Multiplicity = 1

                         Standard orientation:
 ---------------------------------------------------------------------
 Center     Atomic      Atomic             Coordinates (Angstroms)
 Number     Number       Type             X           Y           Z
 ---------------------------------------------------------------------
      1         17           0        0.166446    2.029748   -0.534405
      2         17           0       -2.226375   -0.504117    0.180096
      3          7           0       -0.509875   -0.569838    0.156783
      4          7           0        1.549944    0.221170    0.996445
      5          6           0        0.208766    0.520260    0.714401
      6          6           0        0.106052   -1.471911   -0.652182
      7          6           0        1.460676   -1.542010   -0.638384
      8          6           0        2.129257   -0.705879    0.304895
      9          1           0       -0.325278    0.953353    1.547915
     10          1           0       -0.533226   -2.118979   -1.232017
     11          1           0        1.984941   -2.262604   -1.244494
     12          1           0        3.183372   -0.869602    0.506885
 ---------------------------------------------------------------------

 SCF Done:  E(RHF) =  -1183.36506892     A.U. after    2 cycles

 The electronic state is 1-A.
 Alpha  occ. eigenvalues --  -99.95513 -99.84944 -15.83025 -15.74666 -11.50933
 Alpha  occ. eigenvalues --  -11.49963 -11.47898 -11.40959 -10.52654 -10.42079
 Alpha  occ. eigenvalues --   -9.72739  -9.71776  -9.71454  -9.62003  -9.61401
 Alpha  occ. eigenvalues --   -9.61357  -1.59488  -1.41449  -1.26676  -1.25883
 Alpha  occ. eigenvalues --   -1.16786  -0.97597  -0.94760  -0.79301  -0.72958
 Alpha  occ. eigenvalues --   -0.69738  -0.68957  -0.64726  -0.60834  -0.58833
 Alpha  occ. eigenvalues --   -0.56181  -0.53653  -0.50018  -0.48821  -0.47030
 Alpha  occ. eigenvalues --   -0.43457  -0.38279  -0.31943
 Alpha virt. eigenvalues --    0.02350   0.03356   0.04828   0.05347   0.05887
 Alpha virt. eigenvalues --    0.06564   0.08203   0.09470   0.10547   0.11040
 Alpha virt. eigenvalues --    0.12281   0.12334   0.12997   0.13604   0.13838

 Mulliken charges:
               1
     1  Cl  -0.007373
     2  Cl   0.464239
     3  N   -1.894231
     4  N   -2.879693
     5  C   -0.974838
     6  C   -0.196787
     7  C   -0.723078
     8  C    0.086302
     9  H    1.743675
    10  H    1.422440
    11  H    1.386287
    12  H    1.573059
 Sum of Mulliken charges =  -0.00000

 Dipole moment (field-independent basis, Debye):
    X=              0.3308    Y=             -4.8834    Z=              0.1163  Tot=              4.8960

 Test job not archived.
 1\1\GINC-SE084\SP\RHF\Aug-CC-pVDZ\C4H4Cl2N2\OHZDE\06-Apr-2025\0\\#t hf
  aug-cc-pvdz iop(5/13=1,5/36=2,99/5=2) pseudo=read geom=check guess=(r
 ead,tcheck) scf=(maxcycle=1)\\title\\0,1\Cl,0,0.166446,2.029748,-0.534
 405\Cl,0,-2.226375,-0.504117,0.180096\N,0,-0.509875,-0.569838,0.156783
 \N,0,1.549944,0.22117,0.996445\C,0,0.208766,0.52026,0.714401\C,0,0.106
 052,-1.471911,-0.652182\C,0,1.460676,-1.54201,-0.638384\C,0,2.129257,-
 0.705879,0.304895\H,0,-0.325278,0.953353,1.547915\H,0,-0.533226,-2.118
 979,-1.232017\H,0,1.984941,-2.262604,-1.244494\H,0,3.183372,-0.869602,

 Normal termination of Gaussian 16 at Sun Apr  6 07:58:04 2025.
