 Gaussian 16, Revision C.01,

 ----------------------------------------------------------------------
 #t hf aug-cc-pvdz symm=none int=(grid=ultrafine) guess=(read,tcheck) s
 table=(opt,rrhf)
 ----------------------------------------------------------------------
 -----
 title
 -----
 Symbolic Z-matrix:
 Charge =  0 Multiplicity = 1

 SCF Done:  E(RHF) =  -240.805897911     A.U. after   14 cycles
 Normal termination of Gaussian 16 at Sun Apr  6 07:56:51 2025.
 Gaussian 16:  ES64L-G16RevC.01  3-Jul-2019

 ----------------------------------------------------------------------
 #t hf aug-cc-pvdz iop(5/13=1,5/36=2,99/5=2) pseudo=read geom=check gue
 ss=(read,tcheck) scf=(maxcycle=1)
 ----------------------------------------------------------------------
 -----
 title
 -----
 Structure from the checkpoint file:  "1-2-3-triazole.chk"
 Charge =  0 Multiplicity = 1

                         Standard orientation:
 ---------------------------------------------------------------------
 Center     Atomic      Atomic             Coordinates (Angstroms)
 Number     Number       Type             X           Y           Z
 ---------------------------------------------------------------------
      1          7           0        0.000000    1.067552    0.000000
      2          7           0       -1.127818    0.334603    0.000000
      3          7           0       -0.769838   -0.912161    0.000000
      4          6           0        0.589795   -0.989098    0.000000
      5          6           0        1.100389    0.282255    0.000000
      6          1           0       -0.062722    2.071574    0.000000
      7          1           0        1.103956   -1.933077    0.000000
      8          1           0        2.101258    0.672603    0.000000
 ---------------------------------------------------------------------

 SCF Done:  E(RHF) =  -241.895818633     A.U. after    2 cycles

 The electronic state is 1-A'.
 Alpha  occ. eigenvalues --  -15.83136 -15.79345 -15.75993 -11.46191 -11.39638
 Alpha  occ. eigenvalues --   -1.68524  -1.31324  -1.17341  -0.88858  -0.83964
 Alpha  occ. eigenvalues --   -0.77183  -0.64142  -0.59181  -0.58415  -0.46554
 Alpha  occ. eigenvalues --   -0.38925  -0.38847  -0.34492
 Alpha virt. eigenvalues --    0.02996   0.05032   0.05302   0.10660   0.10665
 Alpha virt. eigenvalues --    0.11746   0.12171   0.12535   0.14648   0.15434
 Alpha virt. eigenvalues --    0.16096   0.17053   0.17834   0.19431   0.19462

 Mulliken charges:
               1
     1  N   -2.115926
     2  N   -0.429195
     3  N   -1.707621
     4  C    0.087519
     5  C    0.778508
     6  H    0.916326
     7  H    1.260016
     8  H    1.210373
 Sum of Mulliken charges =  -0.00000

 Dipole moment (field-independent basis, Debye):
    X=              3.1192    Y=              2.5050    Z=              0.0000  Tot=              4.0005

 Test job not archived.
 1\1\GINC-SE208\SP\RHF\Aug-CC-pVDZ\C2H3N3\OHZDE\06-Apr-2025\0\\#t hf au
 g-cc-pvdz iop(5/13=1,5/36=2,99/5=2) pseudo=read geom=check guess=(read
 ,tcheck) scf=(maxcycle=1)\\title\\0,1\N,0,0.,1.067552,0.\N,0,-1.127818
 ,0.334603,0.\N,0,-0.769838,-0.912161,0.\C,0,0.589795,-0.989098,0.\C,0,
 1.100389,0.282255,0.\H,0,-0.062722,2.071574,0.\H,0,1.103956,-1.933077,
 0.\H,0,2.101258,0.672603,0.\\Version=ES64L-G16RevC.01\State=1-A'\HF=-2
 41.8958186\RMSD=5.520e-01\Dipole=1.2271702,0.9855278,0.\Quadrupole=-1.
 5571068,3.3508343,-1.7937275,-0.7301134,0.,0.\PG=CS [SG(C2H3N3)]\\@

 Normal termination of Gaussian 16 at Sun Apr  6 07:56:55 2025.
