 Gaussian 16, Revision C.01,

 ----------------------------------------------------------------------
 #t hf aug-cc-pvdz symm=none int=(grid=ultrafine) guess=(read,tcheck) s
 table=(opt,rrhf)
 ----------------------------------------------------------------------
 -----
 title
 -----
 Symbolic Z-matrix:
 Charge =  0 Multiplicity = 1

 SCF Done:  E(RHF) =  -412.402464511     A.U. after   13 cycles
 Normal termination of Gaussian 16 at Sun Apr  6 07:57:38 2025.
 Gaussian 16:  ES64L-G16RevC.01  3-Jul-2019

 ----------------------------------------------------------------------
 #t hf aug-cc-pvdz iop(5/13=1,5/36=2,99/5=2) pseudo=read geom=check gue
 ss=(read,tcheck) scf=(maxcycle=1)
 ----------------------------------------------------------------------
 -----
 title
 -----
 Structure from the checkpoint file:  "1-2-ethanediyl_dicyanate.chk"
 Charge =  0 Multiplicity = 1

                         Standard orientation:
 ---------------------------------------------------------------------
 Center     Atomic      Atomic             Coordinates (Angstroms)
 Number     Number       Type             X           Y           Z
 ---------------------------------------------------------------------
      1          8           0       -0.194628    1.442226   -0.211553
      2          8           0        0.194628   -1.442226   -0.211553
      3          7           0        0.795033    3.647186   -0.572454
      4          7           0       -0.795033   -3.647186   -0.572454
      5          6           0        0.339745    0.667888    0.903873
      6          6           0       -0.339745   -0.667888    0.903873
      7          6           0        0.339745    2.601889   -0.389104
      8          6           0       -0.339745   -2.601889   -0.389104
      9          1           0        1.417300    0.568273    0.779108
     10          1           0        0.119945    1.195921    1.831875
     11          1           0       -1.417300   -0.568273    0.779108
     12          1           0       -0.119945   -1.195921    1.831875
 ---------------------------------------------------------------------

 SCF Done:  E(RHF) =  -414.154222280     A.U. after    2 cycles

 The electronic state is 1-A.
 Alpha  occ. eigenvalues --  -21.17308 -21.17298 -15.77037 -15.77034 -11.54644
 Alpha  occ. eigenvalues --  -11.50136 -11.49817 -11.48101  -1.89519  -1.85475
 Alpha  occ. eigenvalues --   -1.31096  -1.30142  -1.18433  -0.97168  -0.79514
 Alpha  occ. eigenvalues --   -0.78816  -0.68814  -0.68166  -0.65793  -0.58934
 Alpha  occ. eigenvalues --   -0.57163  -0.55634  -0.55123  -0.53607  -0.51140
 Alpha  occ. eigenvalues --   -0.42749  -0.41628  -0.37050  -0.35787
 Alpha virt. eigenvalues --    0.02051   0.04414   0.04607   0.05088   0.07274
 Alpha virt. eigenvalues --    0.08087   0.08349   0.09722   0.10149   0.11127
 Alpha virt. eigenvalues --    0.12440   0.12566   0.13240   0.13873   0.14351

 Mulliken charges:
               1
     1  O   -2.546243
     2  O   -2.546243
     3  N   -2.819806
     4  N   -2.819806
     5  C   -1.895027
     6  C   -1.895027
     7  C    4.139404
     8  C    4.139404
     9  H    1.649574
    10  H    1.472098
    11  H    1.649574
    12  H    1.472098
 Sum of Mulliken charges =   0.00000

 Dipole moment (field-independent basis, Debye):
    X=             -0.0000    Y=              0.0000    Z=              3.0376  Tot=              3.0376

 Test job not archived.
 1\1\GINC-SE009\SP\RHF\Aug-CC-pVDZ\C4H4N2O2\OHZDE\06-Apr-2025\0\\#t hf
 aug-cc-pvdz iop(5/13=1,5/36=2,99/5=2) pseudo=read geom=check guess=(re
 ad,tcheck) scf=(maxcycle=1)\\title\\0,1\O,0,-0.194628,1.442226,-0.2115
 53\O,0,0.194628,-1.442226,-0.211553\N,0,0.795033,3.647186,-0.572454\N,
 0,-0.795033,-3.647186,-0.572454\C,0,0.339745,0.667888,0.903873\C,0,-0.
 339745,-0.667888,0.903873\C,0,0.339745,2.601889,-0.389104\C,0,-0.33974
 5,-2.601889,-0.389104\H,0,1.4173,0.568273,0.779108\H,0,0.119945,1.1959
 21,1.831875\H,0,-1.4173,-0.568273,0.779108\H,0,-0.119945,-1.195921,1.8

 Normal termination of Gaussian 16 at Sun Apr  6 07:57:42 2025.
