 Gaussian 16, Revision C.01,

 ----------------------------------------------------------------------
 #t hf aug-cc-pvdz symm=none int=(grid=ultrafine) guess=(read,tcheck) s
 table=(opt,rrhf)
 ----------------------------------------------------------------------
 -----
 title
 -----
 Symbolic Z-matrix:
 Charge =  0 Multiplicity = 1

 SCF Done:  E(RHF) =  -302.473774387     A.U. after   13 cycles
 Normal termination of Gaussian 16 at Sun Apr  6 07:56:49 2025.
 Gaussian 16:  ES64L-G16RevC.01  3-Jul-2019

 ----------------------------------------------------------------------
 #t hf aug-cc-pvdz iop(5/13=1,5/36=2,99/5=2) pseudo=read geom=check gue
 ss=(read,tcheck) scf=(maxcycle=1)
 ----------------------------------------------------------------------
 -----
 title
 -----
 Structure from the checkpoint file:  "1-2-3-trioxolane.chk"
 Charge =  0 Multiplicity = 1

                         Standard orientation:
 ---------------------------------------------------------------------
 Center     Atomic      Atomic             Coordinates (Angstroms)
 Number     Number       Type             X           Y           Z
 ---------------------------------------------------------------------
      1          8           0       -0.557524   -1.069370    0.000000
      2          8           0        0.138457   -0.482273    1.115905
      3          8           0        0.138457   -0.482273   -1.115905
      4          6           0        0.138457    0.901420    0.775632
      5          6           0        0.138457    0.901420   -0.775632
      6          1           0        1.040255    1.327083    1.210950
      7          1           0        1.040255    1.327083   -1.210950
      8          1           0       -0.748557    1.400059    1.169152
      9          1           0       -0.748557    1.400059   -1.169152
 ---------------------------------------------------------------------

 SCF Done:  E(RHF) =  -303.738951541     A.U. after    2 cycles

 The electronic state is 1-A'.
 Alpha  occ. eigenvalues --  -21.14398 -21.11329 -21.11219 -11.47842 -11.41792
 Alpha  occ. eigenvalues --   -2.08746  -1.70655  -1.37368  -1.04516  -0.89593
 Alpha  occ. eigenvalues --   -0.71761  -0.70130  -0.59840  -0.56734  -0.53209
 Alpha  occ. eigenvalues --   -0.44680  -0.42020  -0.40564  -0.32048  -0.27609
 Alpha virt. eigenvalues --    0.03703   0.05176   0.05362   0.05771   0.09724
 Alpha virt. eigenvalues --    0.11483   0.11528   0.14234   0.15050   0.15735
 Alpha virt. eigenvalues --    0.17981   0.18257   0.18725   0.20228   0.21467

 Mulliken charges:
               1
     1  O    0.017062
     2  O   -1.471053
     3  O   -1.471053
     4  C   -1.275730
     5  C   -1.275730
     6  H    1.369896
     7  H    1.369896
     8  H    1.368356
     9  H    1.368356
 Sum of Mulliken charges =   0.00000

 Dipole moment (field-independent basis, Debye):
    X=              0.3039    Y=              1.6993    Z=             -0.0000  Tot=              1.7262

 Test job not archived.
 1\1\GINC-SE046\SP\RHF\Aug-CC-pVDZ\C2H4O3\OHZDE\06-Apr-2025\0\\#t hf au
 g-cc-pvdz iop(5/13=1,5/36=2,99/5=2) pseudo=read geom=check guess=(read
 ,tcheck) scf=(maxcycle=1)\\title\\0,1\O,0,-0.557524,-1.06937,0.\O,0,0.
 138457,-0.482273,1.115905\O,0,0.138457,-0.482273,-1.115905\C,0,0.13845
 7,0.90142,0.775632\C,0,0.138457,0.90142,-0.775632\H,0,1.040255,1.32708
 3,1.21095\H,0,1.040255,1.327083,-1.21095\H,0,-0.748557,1.400059,1.1691
 52\H,0,-0.748557,1.400059,-1.169152\\Version=ES64L-G16RevC.01\State=1-
 A'\HF=-303.7389515\RMSD=2.045e-01\Dipole=0.1195725,0.6685459,0.\Quadru

 Normal termination of Gaussian 16 at Sun Apr  6 07:56:51 2025.
