 Gaussian 16, Revision C.01,

 ----------------------------------------------------------------------
 #t hf aug-cc-pvdz symm=none int=(grid=ultrafine) guess=(read,tcheck) s
 table=(opt,rrhf)
 ----------------------------------------------------------------------
 -----
 title
 -----
 Symbolic Z-matrix:
 Charge =  0 Multiplicity = 1

 SCF Done:  E(RHF) =  -549.094391891     A.U. after   16 cycles
 Normal termination of Gaussian 16 at Sun Apr  6 07:59:37 2025.
 Gaussian 16:  ES64L-G16RevC.01  3-Jul-2019

 ----------------------------------------------------------------------
 #t hf aug-cc-pvdz iop(5/13=1,5/36=2,99/5=2) pseudo=read geom=check gue
 ss=(read,tcheck) scf=(maxcycle=1)
 ----------------------------------------------------------------------
 -----
 title
 -----
 Structure from the checkpoint file:  "1-2-furylpyridin-2-one.chk"
 Charge =  0 Multiplicity = 1

                         Standard orientation:
 ---------------------------------------------------------------------
 Center     Atomic      Atomic             Coordinates (Angstroms)
 Number     Number       Type             X           Y           Z
 ---------------------------------------------------------------------
      1          6           0       -3.194575   -0.313665    0.532954
      2          6           0       -1.888732   -0.508814    1.083438
      3          6           0       -3.009799    0.096865   -0.744869
      4          6           0       -1.019311   -0.203012    0.091580
      5          6           0        3.135362   -0.257975   -0.067413
      6          6           0        2.506179    0.937102    0.061393
      7          6           0        2.396422   -1.469775   -0.153237
      8          6           0        1.044926   -1.406409   -0.107584
      9          6           0        1.064931    1.048883    0.123453
     10          7           0        0.385002   -0.209485    0.027326
     11          8           0        0.429863    2.079331    0.252424
     12          8           0       -1.682395    0.164204   -1.036752
     13          1           0       -4.138874   -0.452415    1.029472
     14          1           0       -1.631730   -0.812260    2.082940
     15          1           0       -3.678984    0.370087   -1.539794
     16          1           0        4.216627   -0.293566   -0.105985
     17          1           0        3.049817    1.867462    0.131301
     18          1           0        2.886862   -2.424324   -0.258784
     19          1           0        0.409095   -2.276074   -0.174091
 ---------------------------------------------------------------------

 SCF Done:  E(RHF) =  -551.569296749     A.U. after    2 cycles

 The electronic state is 1-A.
 Alpha  occ. eigenvalues --  -21.12063 -21.02084 -15.79791 -11.53375 -11.51408
 Alpha  occ. eigenvalues --  -11.49566 -11.46866 -11.45677 -11.43540 -11.41614
 Alpha  occ. eigenvalues --  -11.39603 -11.37833  -1.86210  -1.70480  -1.48220
 Alpha  occ. eigenvalues --   -1.24637  -1.20385  -1.10640  -1.05698  -0.92651
 Alpha  occ. eigenvalues --   -0.89375  -0.82093  -0.80468  -0.75417  -0.70388
 Alpha  occ. eigenvalues --   -0.66781  -0.64907  -0.61577  -0.59756  -0.57164
 Alpha  occ. eigenvalues --   -0.55072  -0.53480  -0.52493  -0.49045  -0.47121
 Alpha  occ. eigenvalues --   -0.44677  -0.44005  -0.40134  -0.34195  -0.32689
 Alpha  occ. eigenvalues --   -0.28679  -0.25850
 Alpha virt. eigenvalues --    0.03030   0.04671   0.04948   0.05097   0.05632
 Alpha virt. eigenvalues --    0.05729   0.06857   0.08611   0.09215   0.10453
 Alpha virt. eigenvalues --    0.10971   0.11385   0.12491   0.12600   0.12997

 Mulliken charges:
               1
     1  C   -0.786946
     2  C   -3.046861
     3  C    0.215599
     4  C    6.816871
     5  C    0.322139
     6  C   -2.525324
     7  C   -1.093783
     8  C   -1.949541
     9  C    3.284338
    10  N   -3.784499
    11  O   -3.853039
    12  O   -4.152425
    13  H    1.342517
    14  H    1.479239
    15  H    1.565213
    16  H    1.548470
    17  H    1.445200
    18  H    1.383176
    19  H    1.789654
 Sum of Mulliken charges =  -0.00000

 Dipole moment (field-independent basis, Debye):
    X=             -0.1412    Y=             -2.4385    Z=             -0.3225  Tot=              2.4638

 Test job not archived.
 1\1\GINC-SE011\SP\RHF\Aug-CC-pVDZ\C9H7N1O2\OHZDE\06-Apr-2025\0\\#t hf
 aug-cc-pvdz iop(5/13=1,5/36=2,99/5=2) pseudo=read geom=check guess=(re
 ad,tcheck) scf=(maxcycle=1)\\title\\0,1\C,0,-3.194575,-0.313665,0.5329
 54\C,0,-1.888732,-0.508814,1.083438\C,0,-3.009799,0.096865,-0.744869\C
 ,0,-1.019311,-0.203012,0.09158\C,0,3.135362,-0.257975,-0.067413\C,0,2.
 506179,0.937102,0.061393\C,0,2.396422,-1.469775,-0.153237\C,0,1.044926
 ,-1.406409,-0.107584\C,0,1.064931,1.048883,0.123453\N,0,0.385002,-0.20
 9485,0.027326\O,0,0.429863,2.079331,0.252424\O,0,-1.682395,0.164204,-1

 Normal termination of Gaussian 16 at Sun Apr  6 07:59:50 2025.
