 Gaussian 16, Revision C.01,

 ----------------------------------------------------------------------
 #t hf aug-cc-pvdz symm=none int=(grid=ultrafine) guess=(read,tcheck) s
 table=(opt,rrhf)
 ----------------------------------------------------------------------
 -----
 title
 -----
 Symbolic Z-matrix:
 Charge =  0 Multiplicity = 1

 SCF Done:  E(RHF) =  -347.845104989     A.U. after   15 cycles
 Normal termination of Gaussian 16 at Sun Apr  6 07:58:24 2025.
 Gaussian 16:  ES64L-G16RevC.01  3-Jul-2019

 ----------------------------------------------------------------------
 #t hf aug-cc-pvdz iop(5/13=1,5/36=2,99/5=2) pseudo=read geom=check gue
 ss=(read,tcheck) scf=(maxcycle=1)
 ----------------------------------------------------------------------
 -----
 title
 -----
 Structure from the checkpoint file:  "1-2-3-trimethylbenzene.chk"
 Charge =  0 Multiplicity = 1

                         Standard orientation:
 ---------------------------------------------------------------------
 Center     Atomic      Atomic             Coordinates (Angstroms)
 Number     Number       Type             X           Y           Z
 ---------------------------------------------------------------------
      1          6           0       -0.013713   -2.140034    0.000000
      2          6           0       -1.206232   -1.434267    0.000000
      3          6           0        1.188364   -1.448980    0.000000
      4          6           0       -1.219337   -0.039134    0.000000
      5          6           0        1.211026   -0.056326    0.000000
      6          6           0        0.000000    0.658904    0.000000
      7          6           0       -2.548821    0.677092    0.000000
      8          6           0        2.533357    0.666411    0.000000
      9          6           0        0.040515    2.167409    0.000000
     10          1           0       -0.020953   -3.222033    0.000000
     11          1           0       -2.147129   -1.970109    0.000000
     12          1           0        2.124223   -1.993715    0.000000
     13          1           0       -2.669919    1.314846    0.878141
     14          1           0       -2.669919    1.314846   -0.878141
     15          1           0       -3.368212   -0.040077    0.000000
     16          1           0        2.643869    1.309810   -0.876251
     17          1           0        2.643869    1.309810    0.876251
     18          1           0        3.361993   -0.039937    0.000000
     19          1           0        0.571159    2.550206   -0.875359
     20          1           0       -0.951091    2.609692    0.000000
     21          1           0        0.571159    2.550206    0.875359
 ---------------------------------------------------------------------

 SCF Done:  E(RHF) =  -349.587188682     A.U. after    2 cycles

 The electronic state is 1-A'.
 Alpha  occ. eigenvalues --  -11.50470 -11.44181 -11.43487 -11.40262 -11.40211
 Alpha  occ. eigenvalues --  -11.39377 -11.38444 -11.37307 -11.34505  -1.36450
 Alpha  occ. eigenvalues --   -1.16230  -1.14508  -1.04527  -0.97705  -0.96364
 Alpha  occ. eigenvalues --   -0.81486  -0.80935  -0.67100  -0.63352  -0.60648
 Alpha  occ. eigenvalues --   -0.59654  -0.56480  -0.55742  -0.54394  -0.54302
 Alpha  occ. eigenvalues --   -0.52525  -0.51900  -0.48576  -0.46426  -0.40999
 Alpha  occ. eigenvalues --   -0.40816  -0.30601  -0.30351
 Alpha virt. eigenvalues --    0.03489   0.04570   0.04917   0.05974   0.06061
 Alpha virt. eigenvalues --    0.06121   0.06530   0.06903   0.07264   0.07734
 Alpha virt. eigenvalues --    0.08939   0.09581   0.11279   0.12296   0.12390

 Mulliken charges:
               1
     1  C   -1.742593
     2  C   -3.343200
     3  C   -3.632386
     4  C    3.274954
     5  C    3.542016
     6  C    3.856652
     7  C   -5.402784
     8  C   -5.807110
     9  C   -5.904758
    10  H    1.546565
    11  H    1.828575
    12  H    1.845822
    13  H    0.979912
    14  H    0.979912
    15  H    1.244553
    16  H    0.992216
    17  H    0.992216
    18  H    1.344953
    19  H    0.967688
    20  H    1.469110
    21  H    0.967688
 Sum of Mulliken charges =  -0.00000

 Dipole moment (field-independent basis, Debye):
    X=              0.0196    Y=              0.6105    Z=             -0.0000  Tot=              0.6108

 Test job not archived.
 1\1\GINC-SE223\SP\RHF\Aug-CC-pVDZ\C9H12\OHZDE\06-Apr-2025\0\\#t hf aug
 -cc-pvdz iop(5/13=1,5/36=2,99/5=2) pseudo=read geom=check guess=(read,
 tcheck) scf=(maxcycle=1)\\title\\0,1\C,0,-0.013713,-2.140034,0.\C,0,-1
 .206232,-1.434267,0.\C,0,1.188364,-1.44898,0.\C,0,-1.219337,-0.039134,
 0.\C,0,1.211026,-0.056326,0.\C,0,0.,0.658904,0.\C,0,-2.548821,0.677092
 ,0.\C,0,2.533357,0.666411,0.\C,0,0.040515,2.167409,0.\H,0,-0.020953,-3
 .222033,0.\H,0,-2.147129,-1.970109,0.\H,0,2.124223,-1.993715,0.\H,0,-2
 .669919,1.314846,0.878141\H,0,-2.669919,1.314846,-0.878141\H,0,-3.3682

 Normal termination of Gaussian 16 at Sun Apr  6 07:58:33 2025.
