 Gaussian 16, Revision C.01,

 ----------------------------------------------------------------------
 #t hf aug-cc-pvdz symm=none int=(grid=ultrafine) guess=(read,tcheck) s
 table=(opt,rrhf)
 ----------------------------------------------------------------------
 -----
 title
 -----
 Symbolic Z-matrix:
 Charge =  0 Multiplicity = 1

 SCF Done:  E(RHF) =  -256.797582665     A.U. after   15 cycles
 Normal termination of Gaussian 16 at Sun Apr  6 07:56:47 2025.
 Gaussian 16:  ES64L-G16RevC.01  3-Jul-2019

 ----------------------------------------------------------------------
 #t hf aug-cc-pvdz iop(5/13=1,5/36=2,99/5=2) pseudo=read geom=check gue
 ss=(read,tcheck) scf=(maxcycle=1)
 ----------------------------------------------------------------------
 -----
 title
 -----
 Structure from the checkpoint file:  "1-2-3-5-tetrazole.chk"
 Charge =  0 Multiplicity = 1

                         Standard orientation:
 ---------------------------------------------------------------------
 Center     Atomic      Atomic             Coordinates (Angstroms)
 Number     Number       Type             X           Y           Z
 ---------------------------------------------------------------------
      1          7           0        1.116569    0.323298    0.000000
      2          7           0        0.000000    1.033096    0.000000
      3          7           0       -1.109966    0.315745    0.000000
      4          7           0       -0.722852   -0.930666    0.000000
      5          6           0        0.629718   -0.907123    0.000000
      6          1           0       -0.009536    2.040913    0.000000
      7          1           0        1.244977   -1.788487    0.000000
 ---------------------------------------------------------------------

 SCF Done:  E(RHF) =  -257.930719600     A.U. after    2 cycles

 The electronic state is 1-A'.
 Alpha  occ. eigenvalues --  -15.86818 -15.82774 -15.79744 -15.77742 -11.43225
 Alpha  occ. eigenvalues --   -1.76955  -1.39455  -1.29067  -0.93438  -0.88017
 Alpha  occ. eigenvalues --   -0.77087  -0.69101  -0.62008  -0.53258  -0.44874
 Alpha  occ. eigenvalues --   -0.41862  -0.41772  -0.39015
 Alpha virt. eigenvalues --    0.03698   0.04951   0.10169   0.10961   0.11281
 Alpha virt. eigenvalues --    0.12660   0.14221   0.14772   0.16705   0.17448
 Alpha virt. eigenvalues --    0.17510   0.19355   0.19516   0.20189   0.20773

 Mulliken charges:
               1
     1  N   -1.639949
     2  N   -0.385443
     3  N   -0.114608
     4  N   -1.636648
     5  C    1.215503
     6  H    0.990025
     7  H    1.571120
 Sum of Mulliken charges =   0.00000

 Dipole moment (field-independent basis, Debye):
    X=              1.2445    Y=              1.7638    Z=              0.0000  Tot=              2.1586

 Test job not archived.
 1\1\GINC-SE101\SP\RHF\Aug-CC-pVDZ\C1H2N4\OHZDE\06-Apr-2025\0\\#t hf au
 g-cc-pvdz iop(5/13=1,5/36=2,99/5=2) pseudo=read geom=check guess=(read
 ,tcheck) scf=(maxcycle=1)\\title\\0,1\N,0,1.116569,0.323298,0.\N,0,0.,
 1.033096,0.\N,0,-1.109966,0.315745,0.\N,0,-0.722852,-0.930666,0.\C,0,0
 .629718,-0.907123,0.\H,0,-0.009536,2.040913,0.\H,0,1.244977,-1.788487,
 0.\\Version=ES64L-G16RevC.01\State=1-A'\HF=-257.9307196\RMSD=9.669e-02
 \Dipole=0.4896161,0.6939235,0.\Quadrupole=-3.8438526,4.3125039,-0.4686
 514,-2.4998387,0.,0.\PG=CS [SG(C1H2N4)]\\@

 Normal termination of Gaussian 16 at Sun Apr  6 07:56:50 2025.
