 Gaussian 16, Revision C.01,

 ----------------------------------------------------------------------
 #t hf aug-cc-pvdz symm=none int=(grid=ultrafine) guess=(read,tcheck) s
 table=(opt,rrhf)
 ----------------------------------------------------------------------
 -----
 title
 -----
 Symbolic Z-matrix:
 Charge =  0 Multiplicity = 1

 SCF Done:  E(RHF) =  -631.938218682     A.U. after   17 cycles
 Normal termination of Gaussian 16 at Sun Apr  6 07:58:27 2025.
 Gaussian 16:  ES64L-G16RevC.01  3-Jul-2019

 ----------------------------------------------------------------------
 #t hf aug-cc-pvdz iop(5/13=1,5/36=2,99/5=2) pseudo=read geom=check gue
 ss=(read,tcheck) scf=(maxcycle=1)
 ----------------------------------------------------------------------
 -----
 title
 -----
 Structure from the checkpoint file:  "1-2-difluoro-3-nitrobenzene.chk"
 Charge =  0 Multiplicity = 1

                         Standard orientation:
 ---------------------------------------------------------------------
 Center     Atomic      Atomic             Coordinates (Angstroms)
 Number     Number       Type             X           Y           Z
 ---------------------------------------------------------------------
      1          9           0       -0.174377   -1.959003   -0.132114
      2          9           0       -2.700777   -1.150004   -0.078605
      3          8           0        2.821157    0.734982   -0.401394
      4          8           0        2.306279   -1.197619    0.437397
      5          7           0        2.021435   -0.091571    0.012142
      6          6           0        0.601826    0.299791    0.013607
      7          6           0       -0.410428   -0.657728   -0.033324
      8          6           0       -1.733657   -0.226270   -0.015537
      9          6           0        0.291444    1.653903    0.071365
     10          6           0       -2.054339    1.114433    0.058602
     11          6           0       -1.032431    2.057202    0.104097
     12          1           0        1.101788    2.365330    0.093910
     13          1           0       -3.095956    1.401601    0.074126
     14          1           0       -1.273459    3.108243    0.162559
 ---------------------------------------------------------------------

 SCF Done:  E(RHF) =  -634.515705831     A.U. after    2 cycles

 The electronic state is 1-A.
 Alpha  occ. eigenvalues --  -29.32527 -29.31974 -21.10818 -21.10464 -16.01701
 Alpha  occ. eigenvalues --  -11.59915 -11.51970 -11.51803 -11.48892 -11.47113
 Alpha  occ. eigenvalues --  -11.43023  -2.01418  -1.70507  -1.44458  -1.23940
 Alpha  occ. eigenvalues --   -1.21658  -1.06816  -0.99604  -0.91266  -0.82008
 Alpha  occ. eigenvalues --   -0.76698  -0.71969  -0.70181  -0.68373  -0.68007
 Alpha  occ. eigenvalues --   -0.61941  -0.61206  -0.55098  -0.54342  -0.46397
 Alpha  occ. eigenvalues --   -0.46038  -0.43095  -0.42123  -0.38559  -0.33775
 Alpha  occ. eigenvalues --   -0.32454  -0.31038  -0.30201  -0.27578  -0.23660
 Alpha virt. eigenvalues --    0.02872   0.04730   0.05373   0.06908   0.09125
 Alpha virt. eigenvalues --    0.10405   0.10787   0.11237   0.11627   0.12494
 Alpha virt. eigenvalues --    0.12819   0.13013   0.13276   0.13779   0.13857

 Mulliken charges:
               1
     1  F    1.339311
     2  F    0.841032
     3  O   -2.865293
     4  O   -2.775783
     5  N    3.073501
     6  C    0.036861
     7  C   -0.207534
     8  C    2.431588
     9  C   -2.735493
    10  C   -4.899826
    11  C    0.878997
    12  H    1.729550
    13  H    1.692716
    14  H    1.460374
 Sum of Mulliken charges =   0.00000

 Dipole moment (field-independent basis, Debye):
    X=             -4.0160    Y=             -3.1016    Z=             -0.1763  Tot=              5.0774

 Test job not archived.
 1\1\GINC-SE108\SP\RHF\Aug-CC-pVDZ\C6H3F2N1O2\OHZDE\06-Apr-2025\0\\#t h
 f aug-cc-pvdz iop(5/13=1,5/36=2,99/5=2) pseudo=read geom=check guess=(
 read,tcheck) scf=(maxcycle=1)\\title\\0,1\F,0,-0.174377,-1.959003,-0.1
 32114\F,0,-2.700777,-1.150004,-0.078605\O,0,2.821157,0.734982,-0.40139
 4\O,0,2.306279,-1.197619,0.437397\N,0,2.021435,-0.091571,0.012142\C,0,
 0.601826,0.299791,0.013607\C,0,-0.410428,-0.657728,-0.033324\C,0,-1.73
 3657,-0.22627,-0.015537\C,0,0.291444,1.653903,0.071365\C,0,-2.054339,1
 .114433,0.058602\C,0,-1.032431,2.057202,0.104097\H,0,1.101788,2.36533,

 Normal termination of Gaussian 16 at Sun Apr  6 07:58:34 2025.
