 Gaussian 16, Revision C.01,

 ----------------------------------------------------------------------
 #t hf aug-cc-pvdz symm=none int=(grid=ultrafine) guess=(read,tcheck) s
 table=(opt,rrhf)
 ----------------------------------------------------------------------
 -----
 title
 -----
 Symbolic Z-matrix:
 Charge =  0 Multiplicity = 1

 SCF Done:  E(RHF) =  -228.974712492     A.U. after   12 cycles
 Normal termination of Gaussian 16 at Sun Apr  6 07:57:19 2025.
 Gaussian 16:  ES64L-G16RevC.01  3-Jul-2019

 ----------------------------------------------------------------------
 #t hf aug-cc-pvdz iop(5/13=1,5/36=2,99/5=2) pseudo=read geom=check gue
 ss=(read,tcheck) scf=(maxcycle=1)
 ----------------------------------------------------------------------
 -----
 title
 -----
 Structure from the checkpoint file:  "1-2-ethanediol.chk"
 Charge =  0 Multiplicity = 1

                         Standard orientation:
 ---------------------------------------------------------------------
 Center     Atomic      Atomic             Coordinates (Angstroms)
 Number     Number       Type             X           Y           Z
 ---------------------------------------------------------------------
      1          6           0        0.680732    0.592289   -0.291181
      2          6           0       -0.721940    0.567772    0.287742
      3          8           0        1.404236   -0.594510    0.050668
      4          8           0       -1.459811   -0.557597   -0.160898
      5          1           0        1.214042    1.489687    0.038901
      6          1           0        0.632713    0.600665   -1.379775
      7          1           0       -1.271483    1.455526   -0.029664
      8          1           0       -0.669565    0.583184    1.385698
      9          1           0        1.668590   -0.545996    0.974636
     10          1           0       -0.882437   -1.326578   -0.087321
 ---------------------------------------------------------------------

 SCF Done:  E(RHF) =  -229.988834093     A.U. after    2 cycles

 The electronic state is 1-A.
 Alpha  occ. eigenvalues --  -21.07938 -21.06258 -11.44793 -11.39266  -1.73634
 Alpha  occ. eigenvalues --   -1.68094  -1.07984  -0.87421  -0.67111  -0.65730
 Alpha  occ. eigenvalues --   -0.59619  -0.55087  -0.51838  -0.42392  -0.40050
 Alpha  occ. eigenvalues --   -0.34435  -0.30791
 Alpha virt. eigenvalues --    0.03732   0.05381   0.05794   0.06066   0.06313
 Alpha virt. eigenvalues --    0.07110   0.11444   0.11772   0.12829   0.14576
 Alpha virt. eigenvalues --    0.15735   0.17426   0.18332   0.19100   0.22474

 Mulliken charges:
               1
     1  C   -1.196848
     2  C   -0.820823
     3  O   -2.343799
     4  O   -2.528177
     5  H    1.344861
     6  H    1.321079
     7  H    1.375815
     8  H    1.260031
     9  H    0.731511
    10  H    0.856351
 Sum of Mulliken charges =   0.00000

 Dipole moment (field-independent basis, Debye):
    X=              0.7971    Y=              0.6132    Z=              0.6188  Tot=              1.1808

 Test job not archived.
 1\1\GINC-SE169\SP\RHF\Aug-CC-pVDZ\C2H6O2\OHZDE\06-Apr-2025\0\\#t hf au
 g-cc-pvdz iop(5/13=1,5/36=2,99/5=2) pseudo=read geom=check guess=(read
 ,tcheck) scf=(maxcycle=1)\\title\\0,1\C,0,0.680732,0.592289,-0.291181\
 C,0,-0.72194,0.567772,0.287742\O,0,1.404236,-0.59451,0.050668\O,0,-1.4
 59811,-0.557597,-0.160898\H,0,1.214042,1.489687,0.038901\H,0,0.632713,
 0.600665,-1.379775\H,0,-1.271483,1.455526,-0.029664\H,0,-0.669565,0.58
 3184,1.385698\H,0,1.66859,-0.545996,0.974636\H,0,-0.882437,-1.326578,-
 0.087321\\Version=ES64L-G16RevC.01\State=1-A\HF=-229.9888341\RMSD=2.13

 Normal termination of Gaussian 16 at Sun Apr  6 07:57:33 2025.
