 Gaussian 16, Revision C.01,

 ----------------------------------------------------------------------
 #t hf aug-cc-pvdz symm=none int=(grid=ultrafine) guess=(read,tcheck) s
 table=(opt,rrhf)
 ----------------------------------------------------------------------
 -----
 title
 -----
 Symbolic Z-matrix:
 Charge =  0 Multiplicity = 1

 SCF Done:  E(RHF) =  -260.637861280     A.U. after   15 cycles
 Normal termination of Gaussian 16 at Sun Apr  6 07:57:21 2025.
 Gaussian 16:  ES64L-G16RevC.01  3-Jul-2019

 ----------------------------------------------------------------------
 #t hf aug-cc-pvdz iop(5/13=1,5/36=2,99/5=2) pseudo=read geom=check gue
 ss=(read,tcheck) scf=(maxcycle=1)
 ----------------------------------------------------------------------
 -----
 title
 -----
 Structure from the checkpoint file:  "1-2-4-oxadiazole.chk"
 Charge =  0 Multiplicity = 1

                         Standard orientation:
 ---------------------------------------------------------------------
 Center     Atomic      Atomic             Coordinates (Angstroms)
 Number     Number       Type             X           Y           Z
 ---------------------------------------------------------------------
      1          6           0        0.672289   -0.872864    0.000000
      2          6           0        0.000000    1.080516    0.000000
      3          7           0        1.115151    0.428577    0.000000
      4          7           0       -0.618412   -1.018822    0.000000
      5          8           0       -1.086341    0.307970    0.000000
      6          1           0        1.331150   -1.725351    0.000000
      7          1           0       -0.151329    2.147397    0.000000
 ---------------------------------------------------------------------

 SCF Done:  E(RHF) =  -261.760530129     A.U. after    2 cycles

 The electronic state is 1-A'.
 Alpha  occ. eigenvalues --  -21.15150 -15.79596 -15.76201 -11.49217 -11.44636
 Alpha  occ. eigenvalues --   -1.93132  -1.41196  -1.26267  -0.88884  -0.85614
 Alpha  occ. eigenvalues --   -0.74470  -0.65147  -0.59545  -0.50450  -0.46129
 Alpha  occ. eigenvalues --   -0.40852  -0.40513  -0.38677
 Alpha virt. eigenvalues --    0.03410   0.05143   0.09504   0.10144   0.10163
 Alpha virt. eigenvalues --    0.10612   0.11042   0.14786   0.15479   0.17131
 Alpha virt. eigenvalues --    0.17201   0.17854   0.19616   0.19946   0.20207

 Mulliken charges:
               1
     1  C    1.181872
     2  C    1.570948
     3  N   -2.695363
     4  N   -0.585027
     5  O   -2.517889
     6  H    1.471233
     7  H    1.574225
 Sum of Mulliken charges =   0.00000

 Dipole moment (field-independent basis, Debye):
    X=             -0.2491    Y=              0.9465    Z=              0.0000  Tot=              0.9787

 Test job not archived.
 1\1\GINC-SE044\SP\RHF\Aug-CC-pVDZ\C2H2N2O1\OHZDE\06-Apr-2025\0\\#t hf
 aug-cc-pvdz iop(5/13=1,5/36=2,99/5=2) pseudo=read geom=check guess=(re
 ad,tcheck) scf=(maxcycle=1)\\title\\0,1\C,0,0.672289,-0.872864,0.\C,0,
 0.,1.080516,0.\N,0,1.115151,0.428577,0.\N,0,-0.618412,-1.018822,0.\O,0
 ,-1.086341,0.30797,0.\H,0,1.33115,-1.725351,0.\H,0,-0.151329,2.147397,
 0.\\Version=ES64L-G16RevC.01\State=1-A'\HF=-261.7605301\RMSD=8.021e-02
 \Dipole=-0.0979956,0.3723685,0.\Quadrupole=-2.3492076,2.6657076,-0.316
 5,-3.5815326,0.,0.\PG=CS [SG(C2H2N2O1)]\\@

 Normal termination of Gaussian 16 at Sun Apr  6 07:57:34 2025.
