 Gaussian 16, Revision C.01,

 ----------------------------------------------------------------------
 #t hf aug-cc-pvdz symm=none int=(grid=ultrafine) guess=(read,tcheck) s
 table=(opt,rrhf)
 ----------------------------------------------------------------------
 -----
 title
 -----
 Symbolic Z-matrix:
 Charge =  0 Multiplicity = 1

 SCF Done:  E(RHF) =  -260.600581137     A.U. after   15 cycles
 Normal termination of Gaussian 16 at Sun Apr  6 07:56:49 2025.
 Gaussian 16:  ES64L-G16RevC.01  3-Jul-2019

 ----------------------------------------------------------------------
 #t hf aug-cc-pvdz iop(5/13=1,5/36=2,99/5=2) pseudo=read geom=check gue
 ss=(read,tcheck) scf=(maxcycle=1)
 ----------------------------------------------------------------------
 -----
 title
 -----
 Structure from the checkpoint file:  "1-2-3-oxadiazole.chk"
 Charge =  0 Multiplicity = 1

                         Standard orientation:
 ---------------------------------------------------------------------
 Center     Atomic      Atomic             Coordinates (Angstroms)
 Number     Number       Type             X           Y           Z
 ---------------------------------------------------------------------
      1          8           0       -1.090936    0.355540    0.000000
      2          7           0       -0.611357   -1.025671   -0.000000
      3          7           0        0.631549   -0.984727   -0.000000
      4          6           0        1.095265    0.310964    0.000000
      5          6           0       -0.000000    1.106756    0.000000
      6          1           0        2.142317    0.547367    0.000000
      7          1           0       -0.127759    2.174789    0.000000
 ---------------------------------------------------------------------

 SCF Done:  E(RHF) =  -261.733479834     A.U. after    2 cycles

 The electronic state is 1-A'.
 Alpha  occ. eigenvalues --  -21.14305 -15.84603 -15.81217 -11.49384 -11.42223
 Alpha  occ. eigenvalues --   -1.91307  -1.48982  -1.18833  -0.89148  -0.84488
 Alpha  occ. eigenvalues --   -0.76053  -0.64865  -0.60420  -0.50655  -0.48419
 Alpha  occ. eigenvalues --   -0.42688  -0.39120  -0.35792
 Alpha virt. eigenvalues --    0.03159   0.04891   0.09579   0.10151   0.11154
 Alpha virt. eigenvalues --    0.11710   0.11827   0.13823   0.14455   0.15399
 Alpha virt. eigenvalues --    0.16365   0.19119   0.19411   0.19803   0.20553

 Mulliken charges:
               1
     1  O   -2.743782
     2  N    0.183533
     3  N   -1.019768
     4  C    0.029020
     5  C    1.063432
     6  H    1.148411
     7  H    1.339153
 Sum of Mulliken charges =  -0.00000

 Dipole moment (field-independent basis, Debye):
    X=              0.4800    Y=              3.1008    Z=              0.0000  Tot=              3.1377

 Test job not archived.
 1\1\GINC-SE155\SP\RHF\Aug-CC-pVDZ\C2H2N2O1\OHZDE\06-Apr-2025\0\\#t hf
 aug-cc-pvdz iop(5/13=1,5/36=2,99/5=2) pseudo=read geom=check guess=(re
 ad,tcheck) scf=(maxcycle=1)\\title\\0,1\O,0,-1.090936,0.35554,0.\N,0,-
 0.611357,-1.025671,0.\N,0,0.631549,-0.984727,0.\C,0,1.095265,0.310964,
 0.\C,0,0.,1.106756,0.\H,0,2.142317,0.547367,0.\H,0,-0.127759,2.174789,
 0.\\Version=ES64L-G16RevC.01\State=1-A'\HF=-261.7334798\RMSD=5.791e-01
 \Dipole=0.1888445,1.2199475,0.\Quadrupole=0.4450994,0.2326899,-0.67778
 92,0.1713133,0.,0.\PG=CS [SG(C2H2N2O1)]\\@

 Normal termination of Gaussian 16 at Sun Apr  6 07:56:52 2025.
