 Gaussian 16, Revision C.01,

 ----------------------------------------------------------------------
 #t hf aug-cc-pvdz symm=none int=(grid=ultrafine) guess=(read,tcheck) s
 table=(opt,rrhf)
 ----------------------------------------------------------------------
 -----
 title
 -----
 Symbolic Z-matrix:
 Charge =  0 Multiplicity = 1

 SCF Done:  E(RHF) =  -1074.93638967     A.U. after   15 cycles
 Normal termination of Gaussian 16 at Sun Apr  6 07:57:56 2025.
 Gaussian 16:  ES64L-G16RevC.01  3-Jul-2019

 ----------------------------------------------------------------------
 #t hf aug-cc-pvdz iop(5/13=1,5/36=2,99/5=2) pseudo=read geom=check gue
 ss=(read,tcheck) scf=(maxcycle=1)
 ----------------------------------------------------------------------
 -----
 title
 -----
 Structure from the checkpoint file:  "1-2-4-triazole-5-mercaptomethyl-3-thione.chk"
 Charge =  0 Multiplicity = 1

                         Standard orientation:
 ---------------------------------------------------------------------
 Center     Atomic      Atomic             Coordinates (Angstroms)
 Number     Number       Type             X           Y           Z
 ---------------------------------------------------------------------
      1         16           0        3.158398    0.012249   -0.430328
      2         16           0       -3.209591   -0.375034   -0.249597
      3          7           0        0.242548    1.157410    0.432157
      4          7           0       -1.076255    1.253277   -0.028584
      5          7           0       -0.552113   -0.911454    0.160999
      6          6           0        0.499106   -0.189314    0.400050
      7          6           0        1.863333   -0.733224    0.644600
      8          6           0       -1.610629   -0.027657   -0.042353
      9          1           0        0.910796    1.791602    0.010985
     10          1           0        2.185538   -0.503864    1.660042
     11          1           0        1.837961   -1.811016    0.524244
     12          1           0       -1.629039    2.025841    0.310848
     13          1           0        2.703714   -0.491460   -1.593112
 ---------------------------------------------------------------------

 SCF Done:  E(RHF) =  -1076.65313347     A.U. after    2 cycles

 The electronic state is 1-A.
 Alpha  occ. eigenvalues --  -75.73049 -75.63015 -15.83092 -15.81681 -15.75513
 Alpha  occ. eigenvalues --  -13.17193 -13.13852 -13.12331 -13.07767 -12.96771
 Alpha  occ. eigenvalues --  -12.94107 -11.52818 -11.49375 -11.45366  -8.06873
 Alpha  occ. eigenvalues --   -7.97172  -1.67778  -1.35937  -1.30947  -1.20910
 Alpha  occ. eigenvalues --   -1.07565  -1.02648  -0.85614  -0.85065  -0.74608
 Alpha  occ. eigenvalues --   -0.71311  -0.64498  -0.61831  -0.58854  -0.54180
 Alpha  occ. eigenvalues --   -0.47841  -0.45118  -0.44741  -0.42262  -0.40748
 Alpha  occ. eigenvalues --   -0.28354  -0.22970  -0.20916
 Alpha virt. eigenvalues --    0.01778   0.03500   0.04096   0.04965   0.06432
 Alpha virt. eigenvalues --    0.07411   0.08484   0.09031   0.09398   0.10246
 Alpha virt. eigenvalues --    0.11165   0.11540   0.13368   0.14395   0.14548

 Mulliken charges:
               1
     1  S   -0.464697
     2  S    1.328024
     3  N   -2.170453
     4  N   -1.867838
     5  N   -3.377757
     6  C    4.777036
     7  C   -4.488205
     8  C    0.681176
     9  H    0.859566
    10  H    1.487382
    11  H    1.372591
    12  H    0.838348
    13  H    1.024828
 Sum of Mulliken charges =  -0.00000

 Dipole moment (field-independent basis, Debye):
    X=              4.9127    Y=              2.9185    Z=              1.0762  Tot=              5.8146

 Test job not archived.
 1\1\GINC-SE104\SP\RHF\Aug-CC-pVDZ\C3H5N3S2\OHZDE\06-Apr-2025\0\\#t hf
 aug-cc-pvdz iop(5/13=1,5/36=2,99/5=2) pseudo=read geom=check guess=(re
 ad,tcheck) scf=(maxcycle=1)\\title\\0,1\S,0,3.158398,0.012249,-0.43032
 8\S,0,-3.209591,-0.375034,-0.249597\N,0,0.242548,1.15741,0.432157\N,0,
 -1.076255,1.253277,-0.028584\N,0,-0.552113,-0.911454,0.160999\C,0,0.49
 9106,-0.189314,0.40005\C,0,1.863333,-0.733224,0.6446\C,0,-1.610629,-0.
 027657,-0.042353\H,0,0.910796,1.791602,0.010985\H,0,2.185538,-0.503864
 ,1.660042\H,0,1.837961,-1.811016,0.524244\H,0,-1.629039,2.025841,0.310

 Normal termination of Gaussian 16 at Sun Apr  6 07:58:02 2025.
