 Gaussian 16, Revision C.01,

 ----------------------------------------------------------------------
 #t hf aug-cc-pvdz symm=none int=(grid=ultrafine) guess=(read,tcheck) s
 table=(opt,rrhf)
 ----------------------------------------------------------------------
 -----
 title
 -----
 Symbolic Z-matrix:
 Charge =  0 Multiplicity = 1

 SCF Done:  E(RHF) =  -361.571371285     A.U. after   14 cycles
 Normal termination of Gaussian 16 at Sun Apr  6 07:57:44 2025.
 Gaussian 16:  ES64L-G16RevC.01  3-Jul-2019

 ----------------------------------------------------------------------
 #t hf aug-cc-pvdz iop(5/13=1,5/36=2,99/5=2) pseudo=read geom=check gue
 ss=(read,tcheck) scf=(maxcycle=1)
 ----------------------------------------------------------------------
 -----
 title
 -----
 Structure from the checkpoint file:  "1-2-dicyanofluoroethane.chk"
 Charge =  0 Multiplicity = 1

                         Standard orientation:
 ---------------------------------------------------------------------
 Center     Atomic      Atomic             Coordinates (Angstroms)
 Number     Number       Type             X           Y           Z
 ---------------------------------------------------------------------
      1          9           0        0.548649    1.404763   -0.866830
      2          7           0        1.973333   -1.532425   -0.071295
      3          7           0       -2.338792   -0.929584   -0.574584
      4          6           0        0.660912    0.696914    0.317359
      5          6           0       -0.731990    0.476706    0.920774
      6          6           0        1.389652   -0.554071    0.072761
      7          6           0       -1.622829   -0.312424    0.077679
      8          1           0        1.247307    1.305371    1.008994
      9          1           0       -0.623459   -0.014179    1.889654
     10          1           0       -1.177948    1.457246    1.092538
 ---------------------------------------------------------------------

 SCF Done:  E(RHF) =  -363.086637757     A.U. after    2 cycles

 The electronic state is 1-A.
 Alpha  occ. eigenvalues --  -29.31256 -15.79992 -15.78271 -11.57140 -11.50267
 Alpha  occ. eigenvalues --  -11.46210 -11.44914  -1.40272  -1.33131  -1.26800
 Alpha  occ. eigenvalues --   -1.08705  -0.82847  -0.79905  -0.70008  -0.67451
 Alpha  occ. eigenvalues --   -0.64925  -0.55657  -0.53540  -0.48679  -0.47948
 Alpha  occ. eigenvalues --   -0.46135  -0.45654  -0.40842  -0.30855  -0.30650
 Alpha virt. eigenvalues --    0.02336   0.04527   0.05084   0.07859   0.09051
 Alpha virt. eigenvalues --    0.09919   0.10320   0.10941   0.12027   0.12580
 Alpha virt. eigenvalues --    0.12995   0.14340   0.14447   0.14888   0.15662

 Mulliken charges:
               1
     1  F    0.321648
     2  N   -2.309476
     3  N   -2.371263
     4  C   -0.844798
     5  C   -2.784074
     6  C    1.537016
     7  C    2.156503
     8  H    1.527020
     9  H    1.420217
    10  H    1.347206
 Sum of Mulliken charges =  -0.00000

 Dipole moment (field-independent basis, Debye):
    X=              0.4077    Y=              4.9097    Z=              1.1325  Tot=              5.0551

 Test job not archived.
 1\1\GINC-SE107\SP\RHF\Aug-CC-pVDZ\C4H3F1N2\OHZDE\06-Apr-2025\0\\#t hf
 aug-cc-pvdz iop(5/13=1,5/36=2,99/5=2) pseudo=read geom=check guess=(re
 ad,tcheck) scf=(maxcycle=1)\\title\\0,1\F,0,0.548649,1.404763,-0.86683
 \N,0,1.973333,-1.532425,-0.071295\N,0,-2.338792,-0.929583,-0.574584\C,
 0,0.660912,0.696914,0.317359\C,0,-0.73199,0.476706,0.920774\C,0,1.3896
 52,-0.554071,0.072761\C,0,-1.622829,-0.312424,0.077679\H,0,1.247307,1.
 305371,1.008994\H,0,-0.623459,-0.014179,1.889654\H,0,-1.177948,1.45724
 6,1.092538\\Version=ES64L-G16RevC.01\State=1-A\HF=-363.0866378\RMSD=2.

 Normal termination of Gaussian 16 at Sun Apr  6 07:57:53 2025.
