 Gaussian 16, Revision C.01,

 ----------------------------------------------------------------------
 #t hf aug-cc-pvdz symm=none int=(grid=ultrafine) guess=(read,tcheck) s
 table=(opt,rrhf)
 ----------------------------------------------------------------------
 -----
 title
 -----
 Symbolic Z-matrix:
 Charge =  0 Multiplicity = 1

 SCF Done:  E(RHF) =  -1056.57479106     A.U. after   14 cycles
 Normal termination of Gaussian 16 at Sun Apr  6 07:57:49 2025.
 Gaussian 16:  ES64L-G16RevC.01  3-Jul-2019

 ----------------------------------------------------------------------
 #t hf aug-cc-pvdz iop(5/13=1,5/36=2,99/5=2) pseudo=read geom=check gue
 ss=(read,tcheck) scf=(maxcycle=1)
 ----------------------------------------------------------------------
 -----
 title
 -----
 Structure from the checkpoint file:  "1-2-dicyano-1-2-ethenedithiol.chk"
 Charge =  0 Multiplicity = 1

                         Standard orientation:
 ---------------------------------------------------------------------
 Center     Atomic      Atomic             Coordinates (Angstroms)
 Number     Number       Type             X           Y           Z
 ---------------------------------------------------------------------
      1         16           0        1.653853   -1.466360   -0.041522
      2         16           0       -1.653852    1.466360   -0.041519
      3          7           0        1.962541    2.243904    0.036069
      4          7           0       -1.962541   -2.243903    0.036069
      5          6           0        0.678815    0.016108    0.014810
      6          6           0       -0.678816   -0.016108    0.014811
      7          6           0        1.374142    1.251705    0.022854
      8          6           0       -1.374142   -1.251704    0.022855
      9          1           0        2.827783   -0.852150    0.185852
     10          1           0       -2.827783    0.852149    0.185851
 ---------------------------------------------------------------------

 SCF Done:  E(RHF) =  -1058.16547026     A.U. after    2 cycles

 The electronic state is 1-A.
 Alpha  occ. eigenvalues --  -75.75192 -75.75191 -15.80402 -15.80358 -13.23750
 Alpha  occ. eigenvalues --  -13.19874 -13.19108 -13.18304 -13.07304 -13.06906
 Alpha  occ. eigenvalues --  -11.56360 -11.50557 -11.47625 -11.46879  -8.09174
 Alpha  occ. eigenvalues --   -8.09162  -1.42228  -1.34062  -1.28156  -1.20323
 Alpha  occ. eigenvalues --   -1.07493  -0.98288  -0.76371  -0.69182  -0.59799
 Alpha  occ. eigenvalues --   -0.57681  -0.56976  -0.53965  -0.52003  -0.50900
 Alpha  occ. eigenvalues --   -0.50753  -0.45643  -0.42277  -0.40745  -0.33631
 Alpha  occ. eigenvalues --   -0.23827
 Alpha virt. eigenvalues --    0.01670   0.03872   0.04356   0.04481   0.07084
 Alpha virt. eigenvalues --    0.07847   0.10385   0.10605   0.10918   0.11368
 Alpha virt. eigenvalues --    0.11955   0.13105   0.13207   0.13698   0.14290

 Mulliken charges:
               1
     1  S   -0.424174
     2  S   -0.424171
     3  N   -2.265826
     4  N   -2.265828
     5  C    0.911747
     6  C    0.911746
     7  C    0.663281
     8  C    0.663288
     9  H    1.114967
    10  H    1.114969
 Sum of Mulliken charges =  -0.00000

 Dipole moment (field-independent basis, Debye):
    X=             -0.0000    Y=              0.0000    Z=             -0.4467  Tot=              0.4467

 Test job not archived.
 1\1\GINC-SE106\SP\RHF\Aug-CC-pVDZ\C4H2N2S2\OHZDE\06-Apr-2025\0\\#t hf
 aug-cc-pvdz iop(5/13=1,5/36=2,99/5=2) pseudo=read geom=check guess=(re
 ad,tcheck) scf=(maxcycle=1)\\title\\0,1\S,0,1.653853,-1.46636,-0.04152
 2\S,0,-1.653853,1.466359,-0.041519\N,0,1.96254,2.243904,0.036069\N,0,-
 1.96254,-2.243904,0.036069\C,0,0.678815,0.016108,0.01481\C,0,-0.678816
 ,-0.016108,0.014811\C,0,1.374141,1.251705,0.022854\C,0,-1.374142,-1.25
 1705,0.022855\H,0,2.827783,-0.852149,0.185852\H,0,-2.827783,0.852148,0
 .185851\\Version=ES64L-G16RevC.01\State=1-A\HF=-1058.1654703\RMSD=2.00

 Normal termination of Gaussian 16 at Sun Apr  6 07:57:55 2025.
