 Gaussian 16, Revision C.01,

 ----------------------------------------------------------------------
 #t hf aug-cc-pvdz symm=none int=(grid=ultrafine) guess=(read,tcheck) s
 table=(opt,rrhf)
 ----------------------------------------------------------------------
 -----
 title
 -----
 Symbolic Z-matrix:
 Charge =  0 Multiplicity = 1

 SCF Done:  E(RHF) =  -1347.56139275     A.U. after   14 cycles
 Normal termination of Gaussian 16 at Sun Apr  6 07:58:25 2025.
 Gaussian 16:  ES64L-G16RevC.01  3-Jul-2019

 ----------------------------------------------------------------------
 #t hf aug-cc-pvdz iop(5/13=1,5/36=2,99/5=2) pseudo=read geom=check gue
 ss=(read,tcheck) scf=(maxcycle=1)
 ----------------------------------------------------------------------
 -----
 title
 -----
 Structure from the checkpoint file:  "1-3-dithiane-2-thione.chk"
 Charge =  0 Multiplicity = 1

                         Standard orientation:
 ---------------------------------------------------------------------
 Center     Atomic      Atomic             Coordinates (Angstroms)
 Number     Number       Type             X           Y           Z
 ---------------------------------------------------------------------
      1         16           0       -0.195948    2.519947    0.000000
      2          6           0       -0.116097    0.874513    0.000000
      3         16           0       -0.033616    0.069956    1.548701
      4          6           0       -0.033616   -1.749646    1.260469
      5          6           0        0.684442   -2.198644   -0.000000
      6          6           0       -0.033616   -1.749646   -1.260469
      7         16           0       -0.033616    0.069956   -1.548701
      8          1           0        0.452909   -2.143490    2.151791
      9          1           0       -1.066908   -2.096687    1.261615
     10          1           0        1.716281   -1.844930   -0.000000
     11          1           0        0.715928   -3.291933   -0.000000
     12          1           0        0.452909   -2.143490   -2.151791
     13          1           0       -1.066908   -2.096687   -1.261615
 ---------------------------------------------------------------------

 SCF Done:  E(RHF) =  -1349.00628977     A.U. after    2 cycles

 The electronic state is 1-A'.
 Alpha  occ. eigenvalues --  -75.71815 -75.71764 -75.65327 -13.15987 -13.15876
 Alpha  occ. eigenvalues --  -13.14276 -13.14012 -13.10899 -13.05504 -13.05347
 Alpha  occ. eigenvalues --  -12.99287 -12.96601 -11.49485 -11.46854 -11.44139
 Alpha  occ. eigenvalues --  -11.40507  -8.06128  -8.05845  -7.99482  -1.36293
 Alpha  occ. eigenvalues --   -1.22048  -1.18234  -1.05424  -0.97154  -0.88258
 Alpha  occ. eigenvalues --   -0.73640  -0.67419  -0.63794  -0.61777  -0.56649
 Alpha  occ. eigenvalues --   -0.52538  -0.51835  -0.47138  -0.45429  -0.37694
 Alpha  occ. eigenvalues --   -0.35115  -0.24744  -0.21024  -0.20919
 Alpha virt. eigenvalues --    0.01520   0.04202   0.04402   0.05047   0.05407
 Alpha virt. eigenvalues --    0.06399   0.06406   0.07827   0.08763   0.09763
 Alpha virt. eigenvalues --    0.10274   0.11712   0.12798   0.12840   0.13810

 Mulliken charges:
               1
     1  S    1.112294
     2  C   -3.078719
     3  S    1.826710
     4  C   -3.902438
     5  C   -2.438223
     6  C   -3.902438
     7  S    1.826710
     8  H    1.451134
     9  H    1.515228
    10  H    1.408822
    11  H    1.214558
    12  H    1.451134
    13  H    1.515228
 Sum of Mulliken charges =  -0.00000

 Dipole moment (field-independent basis, Debye):
    X=              0.1436    Y=             -1.2333    Z=              0.0000  Tot=              1.2416

 Test job not archived.
 1\1\GINC-SE422\SP\RHF\Aug-CC-pVDZ\C4H6S3\OHZDE\06-Apr-2025\0\\#t hf au
 g-cc-pvdz iop(5/13=1,5/36=2,99/5=2) pseudo=read geom=check guess=(read
 ,tcheck) scf=(maxcycle=1)\\title\\0,1\S,0,-0.195948,2.519947,0.\C,0,-0
 .116097,0.874513,0.\S,0,-0.033616,0.069956,1.548701\C,0,-0.033616,-1.7
 49646,1.260469\C,0,0.684442,-2.198644,0.\C,0,-0.033616,-1.749646,-1.26
 0469\S,0,-0.033616,0.069956,-1.548701\H,0,0.452909,-2.14349,2.151791\H
 ,0,-1.066908,-2.096687,1.261615\H,0,1.716281,-1.84493,0.\H,0,0.715928,
 -3.291933,0.\H,0,0.452909,-2.14349,-2.151791\H,0,-1.066908,-2.096687,-

 Normal termination of Gaussian 16 at Sun Apr  6 07:58:29 2025.
