 Gaussian 16, Revision C.01,

 ----------------------------------------------------------------------
 #t hf aug-cc-pvdz symm=none int=(grid=ultrafine) guess=(read,tcheck) s
 table=(opt,rrhf)
 ----------------------------------------------------------------------
 -----
 title
 -----
 Symbolic Z-matrix:
 Charge =  0 Multiplicity = 1

 SCF Done:  E(RHF) =  -192.814904900     A.U. after   12 cycles
 Normal termination of Gaussian 16 at Sun Apr  6 07:57:59 2025.
 Gaussian 16:  ES64L-G16RevC.01  3-Jul-2019

 ----------------------------------------------------------------------
 #t hf aug-cc-pvdz iop(5/13=1,5/36=2,99/5=2) pseudo=read geom=check gue
 ss=(read,tcheck) scf=(maxcycle=1)
 ----------------------------------------------------------------------
 -----
 title
 -----
 Structure from the checkpoint file:  "1-3-cyclopentadiene.chk"
 Charge =  0 Multiplicity = 1

                         Standard orientation:
 ---------------------------------------------------------------------
 Center     Atomic      Atomic             Coordinates (Angstroms)
 Number     Number       Type             X           Y           Z
 ---------------------------------------------------------------------
      1          6           0        0.000000    0.732496   -0.987747
      2          6           0       -0.000000   -0.732496   -0.987747
      3          6           0        0.000000    1.176401    0.280659
      4          6           0       -0.000000   -1.176401    0.280659
      5          6           0        0.000000    0.000000    1.213319
      6          1           0        0.000000    1.345222   -1.877331
      7          1           0       -0.000000   -1.345222   -1.877331
      8          1           0        0.000000    2.205253    0.605805
      9          1           0       -0.000000   -2.205253    0.605805
     10          1           0        0.874476   -0.000000    1.874095
     11          1           0       -0.874476    0.000000    1.874095
 ---------------------------------------------------------------------

 SCF Done:  E(RHF) =  -193.763599829     A.U. after    2 cycles

 The electronic state is 1-A1.
 Alpha  occ. eigenvalues --  -11.44803 -11.43881 -11.39101 -11.38396 -11.34766
 Alpha  occ. eigenvalues --   -1.33868  -1.01692  -1.01601  -0.78314  -0.75188
 Alpha  occ. eigenvalues --   -0.71124  -0.59265  -0.53728  -0.48590  -0.47451
 Alpha  occ. eigenvalues --   -0.45857  -0.40438  -0.29050
 Alpha virt. eigenvalues --    0.03681   0.05339   0.05529   0.06171   0.06336
 Alpha virt. eigenvalues --    0.06826   0.10537   0.10743   0.13073   0.13798
 Alpha virt. eigenvalues --    0.14336   0.14654   0.14922   0.15376   0.15708

 Mulliken charges:
               1
     1  C   -0.693318
     2  C   -0.693318
     3  C   -0.654451
     4  C   -0.654451
     5  C   -5.139467
     6  H    1.348449
     7  H    1.348449
     8  H    1.320486
     9  H    1.320486
    10  H    1.248568
    11  H    1.248568
 Sum of Mulliken charges =   0.00000

 Dipole moment (field-independent basis, Debye):
    X=             -0.0000    Y=             -0.0000    Z=              0.3143  Tot=              0.3143

 Test job not archived.
 1\1\GINC-SE208\SP\RHF\Aug-CC-pVDZ\C5H6\OHZDE\06-Apr-2025\0\\#t hf aug-
 cc-pvdz iop(5/13=1,5/36=2,99/5=2) pseudo=read geom=check guess=(read,t
 check) scf=(maxcycle=1)\\title\\0,1\C,0,-0.987747,-0.732496,0.\C,0,-0.
 987747,0.732496,0.\C,0,0.280659,-1.176401,0.\C,0,0.280659,1.176401,0.\
 C,0,1.213319,0.,0.\H,0,-1.877331,-1.345222,0.\H,0,-1.877331,1.345222,0
 .\H,0,0.605805,-2.205253,0.\H,0,0.605805,2.205253,0.\H,0,1.874095,0.,0
 .874476\H,0,1.874095,0.,-0.874476\\Version=ES64L-G16RevC.01\State=1-A1
 \HF=-193.7635998\RMSD=1.591e+00\Dipole=0.1236653,0.,0.\Quadrupole=2.12

 Normal termination of Gaussian 16 at Sun Apr  6 07:58:02 2025.
