 Gaussian 16, Revision C.01,

 ----------------------------------------------------------------------
 #t hf aug-cc-pvdz symm=none int=(grid=ultrafine) guess=(read,tcheck) s
 table=(opt,rrhf)
 ----------------------------------------------------------------------
 -----
 title
 -----
 Symbolic Z-matrix:
 Charge =  0 Multiplicity = 1

 SCF Done:  E(RHF) =  -340.581042747     A.U. after   13 cycles
 Normal termination of Gaussian 16 at Sun Apr  6 07:57:57 2025.
 Gaussian 16:  ES64L-G16RevC.01  3-Jul-2019

 ----------------------------------------------------------------------
 #t hf aug-cc-pvdz iop(5/13=1,5/36=2,99/5=2) pseudo=read geom=check gue
 ss=(read,tcheck) scf=(maxcycle=1)
 ----------------------------------------------------------------------
 -----
 title
 -----
 Structure from the checkpoint file:  "1-3-dioxolan-2-one.chk"
 Charge =  0 Multiplicity = 1

                         Standard orientation:
 ---------------------------------------------------------------------
 Center     Atomic      Atomic             Coordinates (Angstroms)
 Number     Number       Type             X           Y           Z
 ---------------------------------------------------------------------
      1          6           0        0.000000    0.000000    0.851993
      2          6           0       -0.168984    0.745968   -1.301801
      3          6           0        0.168984   -0.745968   -1.301801
      4          8           0        0.000000    0.000000    2.039757
      5          8           0       -0.000000    1.114456    0.074557
      6          8           0       -0.000000   -1.114456    0.074557
      7          1           0        0.504009    1.345920   -1.908473
      8          1           0       -1.201132    0.944052   -1.592185
      9          1           0       -0.504009   -1.345920   -1.908473
     10          1           0        1.201132   -0.944052   -1.592185
 ---------------------------------------------------------------------

 SCF Done:  E(RHF) =  -342.010659390     A.U. after    2 cycles

 The electronic state is 1-A.
 Alpha  occ. eigenvalues --  -21.11234 -21.11199 -21.05356 -11.54551 -11.50077
 Alpha  occ. eigenvalues --  -11.43689  -1.94247  -1.72591  -1.68742  -1.14007
 Alpha  occ. eigenvalues --   -0.92830  -0.80524  -0.73002  -0.70350  -0.62528
 Alpha  occ. eigenvalues --   -0.59622  -0.58068  -0.51212  -0.46649  -0.41892
 Alpha  occ. eigenvalues --   -0.35581  -0.32934  -0.31180
 Alpha virt. eigenvalues --    0.02699   0.04703   0.04934   0.05132   0.08216
 Alpha virt. eigenvalues --    0.10175   0.11544   0.12100   0.12226   0.13090
 Alpha virt. eigenvalues --    0.13330   0.14296   0.16526   0.16739   0.17692

 Mulliken charges:
               1
     1  C    6.405731
     2  C   -1.679376
     3  C   -1.679376
     4  O   -3.133678
     5  O   -2.759239
     6  O   -2.759239
     7  H    1.413658
     8  H    1.388931
     9  H    1.413658
    10  H    1.388931
 Sum of Mulliken charges =   0.00000

 Dipole moment (field-independent basis, Debye):
    X=              0.0000    Y=              0.0000    Z=             -3.7898  Tot=              3.7898

 Test job not archived.
 1\1\GINC-SE412\SP\RHF\Aug-CC-pVDZ\C3H4O3\OHZDE\06-Apr-2025\0\\#t hf au
 g-cc-pvdz iop(5/13=1,5/36=2,99/5=2) pseudo=read geom=check guess=(read
 ,tcheck) scf=(maxcycle=1)\\title\\0,1\C,0,0.,0.,0.851993\C,0,-0.168984
 ,0.745968,-1.301801\C,0,0.168984,-0.745968,-1.301801\O,0,0.,0.,2.03975
 7\O,0,0.,1.114456,0.074557\O,0,0.,-1.114456,0.074557\H,0,0.504009,1.34
 592,-1.908473\H,0,-1.201132,0.944052,-1.592185\H,0,-0.504009,-1.34592,
 -1.908473\H,0,1.201132,-0.944052,-1.592185\\Version=ES64L-G16RevC.01\S
 tate=1-A\HF=-342.0106594\RMSD=2.316e-01\Dipole=0.,0.,-1.4910183\Quadru

 Normal termination of Gaussian 16 at Sun Apr  6 07:58:00 2025.
