 Gaussian 16, Revision C.01,

 ----------------------------------------------------------------------
 #t hf aug-cc-pvdz symm=none int=(grid=ultrafine) guess=(read,tcheck) s
 table=(opt,rrhf)
 ----------------------------------------------------------------------
 -----
 title
 -----
 Symbolic Z-matrix:
 Charge =  0 Multiplicity = 1

 SCF Done:  E(RHF) =  -913.340358784     A.U. after   12 cycles
 Normal termination of Gaussian 16 at Sun Apr  6 07:58:47 2025.
 Gaussian 16:  ES64L-G16RevC.01  3-Jul-2019

 ----------------------------------------------------------------------
 #t hf aug-cc-pvdz iop(5/13=1,5/36=2,99/5=2) pseudo=read geom=check gue
 ss=(read,tcheck) scf=(maxcycle=1)
 ----------------------------------------------------------------------
 -----
 title
 -----
 Structure from the checkpoint file:  "1-3-propanedithiol.chk"
 Charge =  0 Multiplicity = 1

                         Standard orientation:
 ---------------------------------------------------------------------
 Center     Atomic      Atomic             Coordinates (Angstroms)
 Number     Number       Type             X           Y           Z
 ---------------------------------------------------------------------
      1          6           0        0.000000   -0.000000    0.156756
      2          6           0        0.000000    1.260347   -0.704215
      3          6           0       -0.000000   -1.260347   -0.704215
      4          1           0        0.877590   -0.000000    0.806673
      5          1           0       -0.877590    0.000000    0.806673
      6         16           0        0.000000    2.743925    0.388305
      7         16           0       -0.000000   -2.743925    0.388305
      8          1           0        0.000000    3.667139   -0.589694
      9          1           0       -0.000000   -3.667139   -0.589694
     10          1           0        0.885217    1.290973   -1.337416
     11          1           0       -0.885217    1.290973   -1.337416
     12          1           0       -0.885217   -1.290973   -1.337416
     13          1           0        0.885217   -1.290973   -1.337416
 ---------------------------------------------------------------------

 SCF Done:  E(RHF) =  -914.407733249     A.U. after    2 cycles

 The electronic state is 1-A1.
 Alpha  occ. eigenvalues --  -75.68713 -75.68708 -13.15483 -13.13372 -13.07955
 Alpha  occ. eigenvalues --  -13.07673 -13.01160 -13.01060 -11.44124 -11.42314
 Alpha  occ. eigenvalues --  -11.38143  -8.02569  -8.02548  -1.28821  -1.16324
 Alpha  occ. eigenvalues --   -1.05290  -0.92362  -0.85159  -0.67578  -0.60378
 Alpha  occ. eigenvalues --   -0.58667  -0.55337  -0.51863  -0.49568  -0.43926
 Alpha  occ. eigenvalues --   -0.39844  -0.37088  -0.24299  -0.23812
 Alpha virt. eigenvalues --    0.03005   0.03680   0.04391   0.05263   0.05374
 Alpha virt. eigenvalues --    0.06951   0.06957   0.07650   0.09674   0.10053
 Alpha virt. eigenvalues --    0.10723   0.13064   0.14636   0.14949   0.15173

 Mulliken charges:
               1
     1  C   -2.402846
     2  C   -3.561604
     3  C   -3.561604
     4  H    1.525804
     5  H    1.525804
     6  S   -0.363635
     7  S   -0.363635
     8  H    0.849896
     9  H    0.849896
    10  H    1.375481
    11  H    1.375481
    12  H    1.375481
    13  H    1.375481
 Sum of Mulliken charges =  -0.00000

 Dipole moment (field-independent basis, Debye):
    X=             -0.0000    Y=             -0.0000    Z=              1.0173  Tot=              1.0173

 Test job not archived.
 1\1\GINC-SE044\SP\RHF\Aug-CC-pVDZ\C3H8S2\OHZDE\06-Apr-2025\0\\#t hf au
 g-cc-pvdz iop(5/13=1,5/36=2,99/5=2) pseudo=read geom=check guess=(read
 ,tcheck) scf=(maxcycle=1)\\title\\0,1\C,0,0.,0.,0.156756\C,0,0.,1.2603
 47,-0.704215\C,0,0.,-1.260347,-0.704215\H,0,0.87759,0.,0.806673\H,0,-0
 .87759,0.,0.806673\S,0,0.,2.743925,0.388305\S,0,0.,-2.743925,0.388305\
 H,0,0.,3.667139,-0.589694\H,0,0.,-3.667139,-0.589694\H,0,0.885217,1.29
 0973,-1.337416\H,0,-0.885217,1.290973,-1.337416\H,0,-0.885217,-1.29097
 3,-1.337416\H,0,0.885217,-1.290973,-1.337416\\Version=ES64L-G16RevC.01

 Normal termination of Gaussian 16 at Sun Apr  6 07:58:53 2025.
