 Gaussian 16, Revision C.01,

 ----------------------------------------------------------------------
 #t hf aug-cc-pvdz symm=none int=(grid=ultrafine) guess=(read,tcheck) s
 table=(opt,rrhf)
 ----------------------------------------------------------------------
 -----
 title
 -----
 Symbolic Z-matrix:
 Charge =  0 Multiplicity = 1

 SCF Done:  E(RHF) =  -1239.62421238     A.U. after   15 cycles
 Normal termination of Gaussian 16 at Sun Apr  6 07:58:31 2025.
 Gaussian 16:  ES64L-G16RevC.01  3-Jul-2019

 ----------------------------------------------------------------------
 #t hf aug-cc-pvdz iop(5/13=1,5/36=2,99/5=2) pseudo=read geom=check gue
 ss=(read,tcheck) scf=(maxcycle=1)
 ----------------------------------------------------------------------
 -----
 title
 -----
 Structure from the checkpoint file:  "1-3-dichloronitropropane.chk"
 Charge =  0 Multiplicity = 1

                         Standard orientation:
 ---------------------------------------------------------------------
 Center     Atomic      Atomic             Coordinates (Angstroms)
 Number     Number       Type             X           Y           Z
 ---------------------------------------------------------------------
      1         17           0        1.969671   -1.392624   -0.227155
      2         17           0       -2.726372   -0.166639   -0.549480
      3          8           0        1.299667    1.497740    1.060977
      4          8           0        1.142038    1.750743   -1.088218
      5          7           0        1.039851    1.108331   -0.061878
      6          6           0        0.528061   -0.332445   -0.214217
      7          6           0       -0.425033   -0.704823    0.900645
      8          6           0       -1.706486    0.113665    0.924971
      9          1           0        0.086211   -0.366790   -1.201970
     10          1           0       -0.662786   -1.761718    0.786146
     11          1           0        0.086276   -0.577124    1.855350
     12          1           0       -2.317628   -0.174091    1.774333
     13          1           0       -1.520016    1.182620    0.971618
 ---------------------------------------------------------------------

 SCF Done:  E(RHF) =  -1241.53983855     A.U. after    2 cycles

 The electronic state is 1-A.
 Alpha  occ. eigenvalues --  -99.92559 -99.89915 -21.11874 -21.11420 -16.01280
 Alpha  occ. eigenvalues --  -11.54119 -11.48948 -11.43599 -10.49857 -10.47175
 Alpha  occ. eigenvalues --   -9.69862  -9.69041  -9.68943  -9.67081  -9.66449
 Alpha  occ. eigenvalues --   -9.66315  -2.01868  -1.71484  -1.41299  -1.34489
 Alpha  occ. eigenvalues --   -1.21379  -1.10454  -0.96573  -0.85555  -0.74780
 Alpha  occ. eigenvalues --   -0.73960  -0.70418  -0.66791  -0.65249  -0.61215
 Alpha  occ. eigenvalues --   -0.58237  -0.57882  -0.55343  -0.54212  -0.52322
 Alpha  occ. eigenvalues --   -0.49386  -0.48035  -0.37056  -0.33266  -0.33241
 Alpha virt. eigenvalues --    0.02853   0.04754   0.04869   0.06023   0.06116
 Alpha virt. eigenvalues --    0.06486   0.07263   0.08908   0.10896   0.11247
 Alpha virt. eigenvalues --    0.12426   0.13306   0.14173   0.15109   0.15475

 Mulliken charges:
               1
     1  Cl   0.177967
     2  Cl   0.083516
     3  O   -2.996287
     4  O   -2.886057
     5  N    5.199416
     6  C   -2.758139
     7  C   -1.291952
     8  C   -3.578166
     9  H    1.969665
    10  H    1.426490
    11  H    1.509710
    12  H    1.416639
    13  H    1.727199
 Sum of Mulliken charges =  -0.00000

 Dipole moment (field-independent basis, Debye):
    X=             -0.9812    Y=             -0.6135    Z=              1.9231  Tot=              2.2445

 Test job not archived.
 1\1\GINC-SE013\SP\RHF\Aug-CC-pVDZ\C3H5Cl2N1O2\OHZDE\06-Apr-2025\0\\#t
 hf aug-cc-pvdz iop(5/13=1,5/36=2,99/5=2) pseudo=read geom=check guess=
 (read,tcheck) scf=(maxcycle=1)\\title\\0,1\Cl,0,1.969671,-1.392624,-0.
 227155\Cl,0,-2.726372,-0.166639,-0.54948\O,0,1.299667,1.49774,1.060977
 \O,0,1.142038,1.750743,-1.088218\N,0,1.039851,1.108331,-0.061878\C,0,0
 .528061,-0.332445,-0.214217\C,0,-0.425033,-0.704823,0.900645\C,0,-1.70
 6486,0.113665,0.924971\H,0,0.086211,-0.36679,-1.20197\H,0,-0.662786,-1
 .761718,0.786146\H,0,0.086276,-0.577124,1.85535\H,0,-2.317628,-0.17409

 Normal termination of Gaussian 16 at Sun Apr  6 07:58:36 2025.
