 Gaussian 16, Revision C.01,

 ----------------------------------------------------------------------
 #t hf aug-cc-pvdz symm=none int=(grid=ultrafine) guess=(read,tcheck) s
 table=(opt,rrhf)
 ----------------------------------------------------------------------
 -----
 title
 -----
 Symbolic Z-matrix:
 Charge =  0 Multiplicity = 1

 SCF Done:  E(RHF) =  -341.704239023     A.U. after   11 cycles
 Normal termination of Gaussian 16 at Sun Apr  6 07:57:55 2025.
 Gaussian 16:  ES64L-G16RevC.01  3-Jul-2019

 ----------------------------------------------------------------------
 #t hf aug-cc-pvdz iop(5/13=1,5/36=2,99/5=2) pseudo=read geom=check gue
 ss=(read,tcheck) scf=(maxcycle=1)
 ----------------------------------------------------------------------
 -----
 title
 -----
 Structure from the checkpoint file:  "1-3-5-trioxane.chk"
 Charge =  0 Multiplicity = 1

                         Standard orientation:
 ---------------------------------------------------------------------
 Center     Atomic      Atomic             Coordinates (Angstroms)
 Number     Number       Type             X           Y           Z
 ---------------------------------------------------------------------
      1          6           0       -0.178381    1.334824    0.000000
      2          6           0       -0.178381   -0.667412    1.155992
      3          6           0       -0.178381   -0.667412   -1.155992
      4          8           0        0.261238    0.672604    1.164984
      5          8           0        0.261238    0.672604   -1.164984
      6          8           0        0.261238   -1.345208    0.000000
      7          1           0       -1.278381    1.389553    0.000000
      8          1           0        0.258762    2.328144    0.000000
      9          1           0        0.258762   -1.164072    2.016232
     10          1           0       -1.278381   -0.694777    1.203388
     11          1           0       -1.278381   -0.694777   -1.203388
     12          1           0        0.258762   -1.164072   -2.016232
 ---------------------------------------------------------------------

 SCF Done:  E(RHF) =  -343.170111621     A.U. after    2 cycles

 The electronic state is 1-A'.
 Alpha  occ. eigenvalues --  -21.06328 -21.06328 -21.06276 -11.46863 -11.46863
 Alpha  occ. eigenvalues --  -11.44002  -1.89319  -1.70721  -1.70721  -1.00541
 Alpha  occ. eigenvalues --   -1.00541  -0.85293  -0.74975  -0.64843  -0.64843
 Alpha  occ. eigenvalues --   -0.59112  -0.58614  -0.55709  -0.55709  -0.39237
 Alpha  occ. eigenvalues --   -0.39237  -0.33324  -0.30305  -0.30305
 Alpha virt. eigenvalues --    0.03983   0.05513   0.05572   0.05572   0.05801
 Alpha virt. eigenvalues --    0.05801   0.10325   0.10325   0.12103   0.13661
 Alpha virt. eigenvalues --    0.14780   0.14780   0.15747   0.17194   0.17650

 Mulliken charges:
               1
     1  C   -0.068737
     2  C   -0.068740
     3  C   -0.068740
     4  O   -2.846183
     5  O   -2.846183
     6  O   -2.846180
     7  H    1.501707
     8  H    1.413213
     9  H    1.413213
    10  H    1.501708
    11  H    1.501708
    12  H    1.413213
 Sum of Mulliken charges =  -0.00000

 Dipole moment (field-independent basis, Debye):
    X=             -0.5583    Y=              0.0000    Z=              0.0000  Tot=              0.5583

 Test job not archived.
 1\1\GINC-SE050\SP\RHF\Aug-CC-pVDZ\C3H6O3\OHZDE\06-Apr-2025\0\\#t hf au
 g-cc-pvdz iop(5/13=1,5/36=2,99/5=2) pseudo=read geom=check guess=(read
 ,tcheck) scf=(maxcycle=1)\\title\\0,1\C,0,0.,1.334824,0.178381\C,0,1.1
 55992,-0.667412,0.178381\C,0,-1.155992,-0.667412,0.178381\O,0,1.164984
 ,0.672604,-0.261238\O,0,-1.164984,0.672604,-0.261238\O,0,0.,-1.345208,
 -0.261238\H,0,0.,1.389553,1.278381\H,0,0.,2.328144,-0.258762\H,0,2.016
 232,-1.164072,-0.258762\H,0,1.203388,-0.694777,1.278381\H,0,-1.203388,
 -0.694777,1.278381\H,0,-2.016232,-1.164072,-0.258762\\Version=ES64L-G1

 Normal termination of Gaussian 16 at Sun Apr  6 07:57:59 2025.
