 Gaussian 16, Revision C.01,

 ----------------------------------------------------------------------
 #t hf aug-cc-pvdz symm=none int=(grid=ultrafine) guess=(read,tcheck) s
 table=(opt,rrhf)
 ----------------------------------------------------------------------
 -----
 title
 -----
 Symbolic Z-matrix:
 Charge =  0 Multiplicity = 1

 SCF Done:  E(RHF) =  -305.875585784     A.U. after   11 cycles
 Normal termination of Gaussian 16 at Sun Apr  6 07:58:08 2025.
 Gaussian 16:  ES64L-G16RevC.01  3-Jul-2019

 ----------------------------------------------------------------------
 #t hf aug-cc-pvdz iop(5/13=1,5/36=2,99/5=2) pseudo=read geom=check gue
 ss=(read,tcheck) scf=(maxcycle=1)
 ----------------------------------------------------------------------
 -----
 title
 -----
 Structure from the checkpoint file:  "1-3-dioxane.chk"
 Charge =  0 Multiplicity = 1

                         Standard orientation:
 ---------------------------------------------------------------------
 Center     Atomic      Atomic             Coordinates (Angstroms)
 Number     Number       Type             X           Y           Z
 ---------------------------------------------------------------------
      1          1           0        0.551499   -2.301909   -0.000000
      2          1           0        1.666462   -0.888490   -0.000000
      3          6           0        0.613674   -1.217264   -0.000000
      4          8           0       -0.017447   -0.764404    1.171597
      5          8           0       -0.017447   -0.764404   -1.171597
      6          1           0       -0.553642    0.923256   -2.152989
      7          1           0        1.017015    1.020150   -1.338331
      8          6           0       -0.017447    0.661398   -1.242927
      9          1           0        1.017015    1.020150    1.338331
     10          1           0       -0.553642    0.923256    2.152989
     11          6           0       -0.017447    0.661398    1.242927
     12          1           0       -0.568831    2.344294    0.000000
     13          1           0       -1.736457    1.016352    0.000000
     14          6           0       -0.672158    1.256703    0.000000
 ---------------------------------------------------------------------

 SCF Done:  E(RHF) =  -307.262338107     A.U. after    2 cycles

 The electronic state is 1-A'.
 Alpha  occ. eigenvalues --  -21.04530 -21.04526 -11.47356 -11.43173 -11.43059
 Alpha  occ. eigenvalues --  -11.37029  -1.82315  -1.68147  -1.18503  -0.96161
 Alpha  occ. eigenvalues --   -0.95281  -0.81606  -0.71226  -0.63825  -0.62019
 Alpha  occ. eigenvalues --   -0.61733  -0.54967  -0.53629  -0.51280  -0.48915
 Alpha  occ. eigenvalues --   -0.39276  -0.37474  -0.31469  -0.27683
 Alpha virt. eigenvalues --    0.03976   0.05036   0.05554   0.05630   0.05766
 Alpha virt. eigenvalues --    0.05945   0.06450   0.07526   0.10975   0.12996
 Alpha virt. eigenvalues --    0.13498   0.13736   0.14382   0.15085   0.15153

 Mulliken charges:
               1
     1  H    1.421263
     2  H    1.563542
     3  C   -0.042514
     4  O   -2.899520
     5  O   -2.899520
     6  H    1.241754
     7  H    1.476598
     8  C   -1.358469
     9  H    1.476598
    10  H    1.241754
    11  C   -1.358469
    12  H    1.328944
    13  H    1.394865
    14  C   -2.586824
 Sum of Mulliken charges =   0.00000

 Dipole moment (field-independent basis, Debye):
    X=              0.1103    Y=              0.8032    Z=              0.0000  Tot=              0.8107

 Test job not archived.
 1\1\GINC-SE249\SP\RHF\Aug-CC-pVDZ\C4H8O2\OHZDE\06-Apr-2025\0\\#t hf au
 g-cc-pvdz iop(5/13=1,5/36=2,99/5=2) pseudo=read geom=check guess=(read
 ,tcheck) scf=(maxcycle=1)\\title\\0,1\H,0,0.551499,-2.301909,0.\H,0,1.
 666462,-0.88849,0.\C,0,0.613674,-1.217264,0.\O,0,-0.017447,-0.764404,1
 .171597\O,0,-0.017447,-0.764404,-1.171597\H,0,-0.553642,0.923256,-2.15
 2989\H,0,1.017015,1.02015,-1.338331\C,0,-0.017447,0.661398,-1.242927\H
 ,0,1.017015,1.02015,1.338331\H,0,-0.553642,0.923256,2.152989\C,0,-0.01
 7447,0.661398,1.242927\H,0,-0.568831,2.344294,0.\H,0,-1.736457,1.01635

 Normal termination of Gaussian 16 at Sun Apr  6 07:58:11 2025.
