 Gaussian 16, Revision C.01,

 ----------------------------------------------------------------------
 #t hf aug-cc-pvdz symm=none int=(grid=ultrafine) guess=(read,tcheck) s
 table=(opt,rrhf)
 ----------------------------------------------------------------------
 -----
 title
 -----
 Symbolic Z-matrix:
 Charge =  0 Multiplicity = 1

 SCF Done:  E(RHF) =  -926.943628228     A.U. after   14 cycles
 Normal termination of Gaussian 16 at Sun Apr  6 07:57:39 2025.
 Gaussian 16:  ES64L-G16RevC.01  3-Jul-2019

 ----------------------------------------------------------------------
 #t hf aug-cc-pvdz iop(5/13=1,5/36=2,99/5=2) pseudo=read geom=check gue
 ss=(read,tcheck) scf=(maxcycle=1)
 ----------------------------------------------------------------------
 -----
 title
 -----
 Structure from the checkpoint file:  "1-3-2-dithiazole.chk"
 Charge =  0 Multiplicity = 1

                         Standard orientation:
 ---------------------------------------------------------------------
 Center     Atomic      Atomic             Coordinates (Angstroms)
 Number     Number       Type             X           Y           Z
 ---------------------------------------------------------------------
      1         16           0        0.104910   -0.330209    1.416746
      2         16           0        0.104910   -0.330209   -1.416746
      3          7           0       -0.487995   -1.151970   -0.000000
      4          6           0        0.104910    1.282613    0.665107
      5          6           0        0.104910    1.282613   -0.665107
      6          1           0        0.150997    2.157376    1.295596
      7          1           0        0.150997    2.157376   -1.295596
      8          1           0       -1.502056   -1.075624    0.000000
 ---------------------------------------------------------------------

 SCF Done:  E(RHF) =  -928.016183066     A.U. after    2 cycles

 The electronic state is 1-A'.
 Alpha  occ. eigenvalues --  -75.72423 -75.71975 -15.78105 -13.16805 -13.15865
 Alpha  occ. eigenvalues --  -13.13551 -13.10582 -13.05226 -13.04485 -11.45075
 Alpha  occ. eigenvalues --  -11.40684  -8.06524  -8.06043  -1.45338  -1.18356
 Alpha  occ. eigenvalues --   -1.13266  -0.92177  -0.80693  -0.69151  -0.64227
 Alpha  occ. eigenvalues --   -0.50274  -0.49992  -0.46359  -0.39792  -0.37727
 Alpha  occ. eigenvalues --   -0.26672  -0.20666
 Alpha virt. eigenvalues --    0.02626   0.04618   0.04710   0.07379   0.07564
 Alpha virt. eigenvalues --    0.09827   0.10693   0.12787   0.12848   0.14384
 Alpha virt. eigenvalues --    0.14441   0.15388   0.15745   0.16223   0.16380

 Mulliken charges:
               1
     1  S    1.386603
     2  S    1.386603
     3  N   -2.202370
     4  C   -2.032715
     5  C   -2.032715
     6  H    1.347969
     7  H    1.347969
     8  H    0.798658
 Sum of Mulliken charges =  -0.00000

 Dipole moment (field-independent basis, Debye):
    X=             -0.1312    Y=             -0.0538    Z=             -0.0000  Tot=              0.1418

 Test job not archived.
 1\1\GINC-SE398\SP\RHF\Aug-CC-pVDZ\C2H3N1S2\OHZDE\06-Apr-2025\0\\#t hf
 aug-cc-pvdz iop(5/13=1,5/36=2,99/5=2) pseudo=read geom=check guess=(re
 ad,tcheck) scf=(maxcycle=1)\\title\\0,1\S,0,0.10491,-0.330209,1.416746
 \S,0,0.10491,-0.330209,-1.416746\N,0,-0.487995,-1.15197,0.\C,0,0.10491
 ,1.282613,0.665107\C,0,0.10491,1.282613,-0.665107\H,0,0.150997,2.15737
 6,1.295596\H,0,0.150997,2.157376,-1.295596\H,0,-1.502056,-1.075624,0.\
 \Version=ES64L-G16RevC.01\State=1-A'\HF=-928.0161831\RMSD=4.906e-01\Di
 pole=-0.0516219,-0.0211841,0.\Quadrupole=-3.594053,0.3422046,3.2518484

 Normal termination of Gaussian 16 at Sun Apr  6 07:57:42 2025.
