 Gaussian 16, Revision C.01,

 ----------------------------------------------------------------------
 #t hf aug-cc-pvdz symm=none int=(grid=ultrafine) guess=(read,tcheck) s
 table=(opt,rrhf)
 ----------------------------------------------------------------------
 -----
 title
 -----
 Symbolic Z-matrix:
 Charge =  0 Multiplicity = 1

 SCF Done:  E(RHF) =  -283.729943678     A.U. after   14 cycles
 Normal termination of Gaussian 16 at Sun Apr  6 07:58:00 2025.
 Gaussian 16:  ES64L-G16RevC.01  3-Jul-2019

 ----------------------------------------------------------------------
 #t hf aug-cc-pvdz iop(5/13=1,5/36=2,99/5=2) pseudo=read geom=check gue
 ss=(read,tcheck) scf=(maxcycle=1)
 ----------------------------------------------------------------------
 -----
 title
 -----
 Structure from the checkpoint file:  "1-3-dihydro-2H-pyrrol-2-one.chk"
 Charge =  0 Multiplicity = 1

                         Standard orientation:
 ---------------------------------------------------------------------
 Center     Atomic      Atomic             Coordinates (Angstroms)
 Number     Number       Type             X           Y           Z
 ---------------------------------------------------------------------
      1          6           0        0.607256   -1.472453    0.000000
      2          6           0       -0.720908   -1.347453    0.000000
      3          6           0        0.000000    0.838463    0.000000
      4          6           0        1.215158   -0.096851    0.000000
      5          7           0       -1.101042    0.002861    0.000000
      6          8           0       -0.024582    2.048657    0.000000
      7          1           0        1.152714   -2.400270    0.000000
      8          1           0       -1.477373   -2.115225    0.000000
      9          1           0        1.831991    0.113272    0.876531
     10          1           0        1.831991    0.113272   -0.876531
     11          1           0       -2.044414    0.349438    0.000000
 ---------------------------------------------------------------------

 SCF Done:  E(RHF) =  -285.009210347     A.U. after    2 cycles

 The electronic state is 1-A'.
 Alpha  occ. eigenvalues --  -21.03137 -15.77606 -11.50650 -11.46022 -11.42684
 Alpha  occ. eigenvalues --  -11.37705  -1.70652  -1.46209  -1.16316  -1.03238
 Alpha  occ. eigenvalues --   -0.83159  -0.81995  -0.69580  -0.63857  -0.58369
 Alpha  occ. eigenvalues --   -0.56312  -0.51723  -0.51452  -0.48386  -0.41801
 Alpha  occ. eigenvalues --   -0.28323  -0.27412
 Alpha virt. eigenvalues --    0.03063   0.04839   0.05405   0.06218   0.06714
 Alpha virt. eigenvalues --    0.09477   0.10072   0.11236   0.12674   0.13153
 Alpha virt. eigenvalues --    0.13675   0.13797   0.14262   0.15355   0.15811

 Mulliken charges:
               1
     1  C   -0.383440
     2  C    0.221445
     3  C    4.624241
     4  C   -4.157231
     5  N   -2.965584
     6  O   -3.362203
     7  H    1.281226
     8  H    1.311483
     9  H    1.324375
    10  H    1.324375
    11  H    0.781312
 Sum of Mulliken charges =   0.00000

 Dipole moment (field-independent basis, Debye):
    X=             -1.0018    Y=             -2.2293    Z=             -0.0000  Tot=              2.4441

 Test job not archived.
 1\1\GINC-SE085\SP\RHF\Aug-CC-pVDZ\C4H5N1O1\OHZDE\06-Apr-2025\0\\#t hf
 aug-cc-pvdz iop(5/13=1,5/36=2,99/5=2) pseudo=read geom=check guess=(re
 ad,tcheck) scf=(maxcycle=1)\\title\\0,1\C,0,0.607256,-1.472453,0.\C,0,
 -0.720908,-1.347453,0.\C,0,0.,0.838463,0.\C,0,1.215158,-0.096851,0.\N,
 0,-1.101042,0.002861,0.\O,0,-0.024582,2.048657,0.\H,0,1.152714,-2.4002
 7,0.\H,0,-1.477373,-2.115225,0.\H,0,1.831991,0.113272,0.876531\H,0,1.8
 31991,0.113272,-0.876531\H,0,-2.044414,0.349438,0.\\Version=ES64L-G16R
 evC.01\State=1-A'\HF=-285.0092103\RMSD=7.590e-01\Dipole=-0.3941279,-0.

 Normal termination of Gaussian 16 at Sun Apr  6 07:58:04 2025.
