 Gaussian 16, Revision C.01,

 ----------------------------------------------------------------------
 #t hf aug-cc-pvdz symm=none int=(grid=ultrafine) guess=(read,tcheck) s
 table=(opt,rrhf)
 ----------------------------------------------------------------------
 -----
 title
 -----
 Symbolic Z-matrix:
 Charge =  0 Multiplicity = 1

 SCF Done:  E(RHF) =  -191.563257908     A.U. after   13 cycles
 Normal termination of Gaussian 16 at Sun Apr  6 07:58:30 2025.
 Gaussian 16:  ES64L-G16RevC.01  3-Jul-2019

 ----------------------------------------------------------------------
 #t hf aug-cc-pvdz iop(5/13=1,5/36=2,99/5=2) pseudo=read geom=check gue
 ss=(read,tcheck) scf=(maxcycle=1)
 ----------------------------------------------------------------------
 -----
 title
 -----
 Structure from the checkpoint file:  "1-3-pentadiyne.chk"
 Charge =  0 Multiplicity = 1

                         Standard orientation:
 ---------------------------------------------------------------------
 Center     Atomic      Atomic             Coordinates (Angstroms)
 Number     Number       Type             X           Y           Z
 ---------------------------------------------------------------------
      1          6           0        0.000000    0.150318    0.000000
      2          6           0        0.002169   -1.056593    0.000000
      3          6           0       -0.002595    1.513662    0.000000
      4          6           0        0.004244   -2.507221    0.000000
      5          6           0       -0.005012    2.718859    0.000000
      6          1           0       -0.007164    3.779665    0.000000
      7          1           0        0.514494   -2.897262    0.882841
      8          1           0        0.514494   -2.897262   -0.882841
      9          1           0       -1.014660   -2.899289    0.000000
 ---------------------------------------------------------------------

 SCF Done:  E(RHF) =  -192.474660268     A.U. after    2 cycles

 The electronic state is 1-A'.
 Alpha  occ. eigenvalues --  -11.47271 -11.45880 -11.42584 -11.41901 -11.40973
 Alpha  occ. eigenvalues --   -1.21672  -1.12229  -1.00434  -0.82754  -0.69416
 Alpha  occ. eigenvalues --   -0.60585  -0.59810  -0.59809  -0.46167  -0.46167
 Alpha  occ. eigenvalues --   -0.32368  -0.32368
 Alpha virt. eigenvalues --    0.02541   0.04477   0.06377   0.06377   0.07624
 Alpha virt. eigenvalues --    0.10047   0.11030   0.11030   0.12440   0.14146
 Alpha virt. eigenvalues --    0.14188   0.14190   0.15419   0.15538   0.15540

 Mulliken charges:
               1
     1  C    5.312993
     2  C    0.131942
     3  C    4.122601
     4  C   -5.207327
     5  C   -7.135544
     6  H    0.660214
     7  H    0.705235
     8  H    0.705235
     9  H    0.704651
 Sum of Mulliken charges =  -0.00000

 Dipole moment (field-independent basis, Debye):
    X=              0.0011    Y=             -1.1237    Z=             -0.0000  Tot=              1.1237

 Test job not archived.
 1\1\GINC-SE028\SP\RHF\Aug-CC-pVDZ\C5H4\OHZDE\06-Apr-2025\0\\#t hf aug-
 cc-pvdz iop(5/13=1,5/36=2,99/5=2) pseudo=read geom=check guess=(read,t
 check) scf=(maxcycle=1)\\title\\0,1\C,0,0.,0.150318,0.\C,0,0.002169,-1
 .056593,0.\C,0,-0.002595,1.513662,0.\C,0,0.004244,-2.507221,0.\C,0,-0.
 005012,2.718859,0.\H,0,-0.007164,3.779665,0.\H,0,0.514494,-2.897262,0.
 882841\H,0,0.514494,-2.897262,-0.882841\H,0,-1.01466,-2.899289,0.\\Ver
 sion=ES64L-G16RevC.01\State=1-A'\HF=-192.4746603\RMSD=4.941e+00\Dipole
 =0.000423,-0.4421023,0.\Quadrupole=-3.2786248,6.5574205,-3.2787956,-0.

 Normal termination of Gaussian 16 at Sun Apr  6 07:58:33 2025.
