 Gaussian 16, Revision C.01,

 ----------------------------------------------------------------------
 #t hf aug-cc-pvdz symm=none int=(grid=ultrafine) guess=(read,tcheck) s
 table=(opt,rrhf)
 ----------------------------------------------------------------------
 -----
 title
 -----
 Symbolic Z-matrix:
 Charge =  0 Multiplicity = 1

 SCF Done:  E(RHF) =  -1309.69162598     A.U. after   12 cycles
 Normal termination of Gaussian 16 at Sun Apr  6 07:58:05 2025.
 Gaussian 16:  ES64L-G16RevC.01  3-Jul-2019

 ----------------------------------------------------------------------
 #t hf aug-cc-pvdz iop(5/13=1,5/36=2,99/5=2) pseudo=read geom=check gue
 ss=(read,tcheck) scf=(maxcycle=1)
 ----------------------------------------------------------------------
 -----
 title
 -----
 Structure from the checkpoint file:  "1-3-5-trithiane.chk"
 Charge =  0 Multiplicity = 1

                         Standard orientation:
 ---------------------------------------------------------------------
 Center     Atomic      Atomic             Coordinates (Angstroms)
 Number     Number       Type             X           Y           Z
 ---------------------------------------------------------------------
      1          6           0        0.948694   -1.350269    0.000000
      2          6           0        0.087137    0.890974    1.386296
      3          6           0        0.087137    0.890974   -1.386296
      4         16           0        0.087137   -0.924984    1.549588
      5         16           0        0.087137   -0.924984   -1.549588
      6         16           0       -0.875903    1.580255   -0.000000
      7          1           0        1.943229   -0.904411    0.000000
      8          1           0        1.056441   -2.431888    0.000000
      9          1           0       -0.369306    1.277032    2.294111
     10          1           0        1.113597    1.253782    1.334926
     11          1           0        1.113597    1.253782   -1.334926
     12          1           0       -0.369306    1.277032   -2.294111
 ---------------------------------------------------------------------

 SCF Done:  E(RHF) =  -1310.96524012     A.U. after    2 cycles

 The electronic state is 1-A'.
 Alpha  occ. eigenvalues --  -75.69171 -75.69171 -75.68897 -13.14485 -13.14485
 Alpha  occ. eigenvalues --  -13.12311 -13.09333 -13.09333 -13.06191 -13.03159
 Alpha  occ. eigenvalues --  -13.03159 -13.00739 -11.43264 -11.43264 -11.42685
 Alpha  occ. eigenvalues --   -8.03377  -8.02986  -8.02986  -1.32403  -1.17033
 Alpha  occ. eigenvalues --   -1.17033  -0.94591  -0.94591  -0.82453  -0.66330
 Alpha  occ. eigenvalues --   -0.62642  -0.62642  -0.52506  -0.50188  -0.50188
 Alpha  occ. eigenvalues --   -0.49563  -0.36698  -0.36698  -0.25543  -0.19981
 Alpha  occ. eigenvalues --   -0.19981
 Alpha virt. eigenvalues --    0.02761   0.03496   0.03496   0.04889   0.07247
 Alpha virt. eigenvalues --    0.07247   0.07902   0.07902   0.09810   0.11551
 Alpha virt. eigenvalues --    0.11551   0.13156   0.14462   0.14882   0.16162

 Mulliken charges:
               1
     1  C   -4.455496
     2  C   -4.455497
     3  C   -4.455497
     4  S    1.234232
     5  S    1.234232
     6  S    1.234231
     7  H    1.604611
     8  H    1.616654
     9  H    1.616655
    10  H    1.604611
    11  H    1.604611
    12  H    1.616655
 Sum of Mulliken charges =  -0.00000

 Dipole moment (field-independent basis, Debye):
    X=             -1.0728    Y=             -0.4124    Z=              0.0000  Tot=              1.1493

 Test job not archived.
 1\1\GINC-SE101\SP\RHF\Aug-CC-pVDZ\C3H6S3\OHZDE\06-Apr-2025\0\\#t hf au
 g-cc-pvdz iop(5/13=1,5/36=2,99/5=2) pseudo=read geom=check guess=(read
 ,tcheck) scf=(maxcycle=1)\\title\\0,1\C,0,0.,1.600757,0.401027\C,0,1.3
 86296,-0.800378,0.401027\C,0,-1.386296,-0.800378,0.401027\S,0,1.549588
 ,0.894655,-0.250561\S,0,-1.549588,0.894655,-0.250561\S,0,0.,-1.78931,-
 0.250561\H,0,0.,1.54144,1.489315\H,0,0.,2.649012,0.113501\H,0,2.294111
 ,-1.324506,0.113501\H,0,1.334926,-0.77072,1.489315\H,0,-1.334926,-0.77
 072,1.489315\H,0,-2.294111,-1.324506,0.113501\\Version=ES64L-G16RevC.0

 Normal termination of Gaussian 16 at Sun Apr  6 07:58:09 2025.
