 Gaussian 16, Revision C.01,

 ----------------------------------------------------------------------
 #t hf aug-cc-pvdz symm=none int=(grid=ultrafine) guess=(read,tcheck) s
 table=(opt,rrhf)
 ----------------------------------------------------------------------
 -----
 title
 -----
 Symbolic Z-matrix:
 Charge =  0 Multiplicity = 1

 SCF Done:  E(RHF) =  -227.763681665     A.U. after   10 cycles
 Normal termination of Gaussian 16 at Sun Apr  6 07:57:54 2025.
 Gaussian 16:  ES64L-G16RevC.01  3-Jul-2019

 ----------------------------------------------------------------------
 #t hf aug-cc-pvdz iop(5/13=1,5/36=2,99/5=2) pseudo=read geom=check gue
 ss=(read,tcheck) scf=(maxcycle=1)
 ----------------------------------------------------------------------
 -----
 title
 -----
 Structure from the checkpoint file:  "1-3-dioxetane.chk"
 Charge =  0 Multiplicity = 1

                         Standard orientation:
 ---------------------------------------------------------------------
 Center     Atomic      Atomic             Coordinates (Angstroms)
 Number     Number       Type             X           Y           Z
 ---------------------------------------------------------------------
      1          6           0       -0.985328    0.000000    0.000000
      2          6           0        0.985328   -0.000000    0.000000
      3          8           0        0.000000    1.035861    0.000000
      4          8           0       -0.000000   -1.035861    0.000000
      5          1           0       -1.603663    0.000000    0.903194
      6          1           0        1.603663   -0.000000    0.903194
      7          1           0       -1.603663    0.000000   -0.903194
      8          1           0        1.603663    0.000000   -0.903194
 ---------------------------------------------------------------------

 SCF Done:  E(RHF) =  -228.722221523     A.U. after    2 cycles

 The electronic state is 1-AG.
 Alpha  occ. eigenvalues --  -21.05963 -21.05874 -11.50144 -11.44459  -1.91453
 Alpha  occ. eigenvalues --   -1.59525  -1.03396  -0.84160  -0.71812  -0.65075
 Alpha  occ. eigenvalues --   -0.60283  -0.57044  -0.46959  -0.34648  -0.34037
 Alpha  occ. eigenvalues --   -0.29738
 Alpha virt. eigenvalues --    0.03630   0.05204   0.05722   0.06511   0.09796
 Alpha virt. eigenvalues --    0.10239   0.10630   0.14705   0.15517   0.16285
 Alpha virt. eigenvalues --    0.17468   0.18320   0.19638   0.22480   0.24212

 Mulliken charges:
               1
     1  C   -0.554129
     2  C   -0.554129
     3  O   -2.313928
     4  O   -2.313928
     5  H    1.434028
     6  H    1.434028
     7  H    1.434028
     8  H    1.434028
 Sum of Mulliken charges =   0.00000

 Dipole moment (field-independent basis, Debye):
    X=              0.0000    Y=             -0.0000    Z=             -0.0000  Tot=              0.0000

 Test job not archived.
 1\1\GINC-SE249\SP\RHF\Aug-CC-pVDZ\C2H4O2\OHZDE\06-Apr-2025\0\\#t hf au
 g-cc-pvdz iop(5/13=1,5/36=2,99/5=2) pseudo=read geom=check guess=(read
 ,tcheck) scf=(maxcycle=1)\\title\\0,1\C,0,-0.985328,0.,0.\C,0,0.985328
 ,0.,0.\O,0,0.,1.035861,0.\O,0,0.,-1.035861,0.\H,0,-1.603663,0.,0.90319
 4\H,0,1.603663,0.,0.903194\H,0,-1.603663,0.,-0.903194\H,0,1.603663,0.,
 -0.903194\\Version=ES64L-G16RevC.01\State=1-AG\HF=-228.7222215\RMSD=1.
 534e-01\Dipole=0.,0.,0.\Quadrupole=1.9408745,-2.1942282,0.2533537,0.,0
 .,0.\PG=D02H [C2(C1.C1),C2'(O1.O1),SG'(H4)]\\@

 Normal termination of Gaussian 16 at Sun Apr  6 07:57:58 2025.
