 Gaussian 16, Revision C.01,

 ----------------------------------------------------------------------
 #t hf aug-cc-pvdz symm=none int=(grid=ultrafine) guess=(read,tcheck) s
 table=(opt,rrhf)
 ----------------------------------------------------------------------
 -----
 title
 -----
 Symbolic Z-matrix:
 Charge =  0 Multiplicity = 1

 SCF Done:  E(RHF) =  -266.830653464     A.U. after   12 cycles
 Normal termination of Gaussian 16 at Sun Apr  6 07:57:57 2025.
 Gaussian 16:  ES64L-G16RevC.01  3-Jul-2019

 ----------------------------------------------------------------------
 #t hf aug-cc-pvdz iop(5/13=1,5/36=2,99/5=2) pseudo=read geom=check gue
 ss=(read,tcheck) scf=(maxcycle=1)
 ----------------------------------------------------------------------
 -----
 title
 -----
 Structure from the checkpoint file:  "1-3-dioxolane.chk"
 Charge =  0 Multiplicity = 1

                         Standard orientation:
 ---------------------------------------------------------------------
 Center     Atomic      Atomic             Coordinates (Angstroms)
 Number     Number       Type             X           Y           Z
 ---------------------------------------------------------------------
      1          1           0       -1.638593   -1.153756    0.688314
      2          1           0       -1.454271   -0.881074   -1.060827
      3          6           0       -1.031076   -0.669148   -0.077087
      4          1           0       -0.970288    1.084448    1.225130
      5          1           0       -1.528273    1.455561   -0.426021
      6          6           0       -0.860191    0.833461    0.164191
      7          8           0        0.306808   -1.179852   -0.027728
      8          8           0        0.477289    1.074627   -0.266338
      9          1           0        1.499157    0.001110    1.176675
     10          1           0        2.050598   -0.197573   -0.525731
     11          6           0        1.186084   -0.075466    0.125395
 ---------------------------------------------------------------------

 SCF Done:  E(RHF) =  -268.004634226     A.U. after    2 cycles

 The electronic state is 1-A.
 Alpha  occ. eigenvalues --  -21.05473 -21.04587 -11.46221 -11.44104 -11.39688
 Alpha  occ. eigenvalues --   -1.85204  -1.65752  -1.11912  -0.89583  -0.87494
 Alpha  occ. eigenvalues --   -0.70989  -0.68281  -0.62519  -0.56273  -0.51722
 Alpha  occ. eigenvalues --   -0.51526  -0.42094  -0.37166  -0.31087  -0.29955
 Alpha virt. eigenvalues --    0.03607   0.05146   0.05745   0.05770   0.06404
 Alpha virt. eigenvalues --    0.06790   0.10163   0.10646   0.11697   0.14076
 Alpha virt. eigenvalues --    0.14807   0.15054   0.15152   0.17815   0.18042

 Mulliken charges:
               1
     1  H    1.357079
     2  H    1.337716
     3  C   -1.029960
     4  H    1.328582
     5  H    1.321006
     6  C   -1.791326
     7  O   -2.673895
     8  O   -2.609983
     9  H    1.544775
    10  H    1.486844
    11  C   -0.270838
 Sum of Mulliken charges =   0.00000

 Dipole moment (field-independent basis, Debye):
    X=             -0.6774    Y=              0.3131    Z=              0.1363  Tot=              0.7586

 Test job not archived.
 1\1\GINC-SE412\SP\RHF\Aug-CC-pVDZ\C3H6O2\OHZDE\06-Apr-2025\0\\#t hf au
 g-cc-pvdz iop(5/13=1,5/36=2,99/5=2) pseudo=read geom=check guess=(read
 ,tcheck) scf=(maxcycle=1)\\title\\0,1\H,0,-1.638593,-1.153756,0.688314
 \H,0,-1.454271,-0.881074,-1.060827\C,0,-1.031076,-0.669148,-0.077087\H
 ,0,-0.970288,1.084448,1.22513\H,0,-1.528273,1.455561,-0.426021\C,0,-0.
 860191,0.833461,0.164191\O,0,0.306808,-1.179852,-0.027728\O,0,0.477289
 ,1.074627,-0.266338\H,0,1.499157,0.00111,1.176675\H,0,2.050598,-0.1975
 73,-0.525731\C,0,1.186084,-0.075466,0.125395\\Version=ES64L-G16RevC.01

 Normal termination of Gaussian 16 at Sun Apr  6 07:58:00 2025.
