 Gaussian 16, Revision C.01,

 ----------------------------------------------------------------------
 #t hf aug-cc-pvdz symm=none int=(grid=ultrafine) guess=(read,tcheck) s
 table=(opt,rrhf)
 ----------------------------------------------------------------------
 -----
 title
 -----
 Symbolic Z-matrix:
 Charge =  0 Multiplicity = 1

 SCF Done:  E(RHF) =  -527.318600291     A.U. after   13 cycles
 Normal termination of Gaussian 16 at Sun Apr  6 07:58:11 2025.
 Gaussian 16:  ES64L-G16RevC.01  3-Jul-2019

 ----------------------------------------------------------------------
 #t hf aug-cc-pvdz iop(5/13=1,5/36=2,99/5=2) pseudo=read geom=check gue
 ss=(read,tcheck) scf=(maxcycle=1)
 ----------------------------------------------------------------------
 -----
 title
 -----
 Structure from the checkpoint file:  "1-3-5-trifluorobenzene.chk"
 Charge =  0 Multiplicity = 1

                         Standard orientation:
 ---------------------------------------------------------------------
 Center     Atomic      Atomic             Coordinates (Angstroms)
 Number     Number       Type             X           Y           Z
 ---------------------------------------------------------------------
      1          6           0       -0.000000    0.000000    1.361787
      2          6           0        0.000000    1.217446    0.702893
      3          6           0       -0.000000   -1.217446    0.702893
      4          6           0        0.000000    1.179342   -0.680894
      5          6           0       -0.000000   -1.179342   -0.680894
      6          6           0        0.000000   -0.000000   -1.405786
      7          9           0        0.000000    2.344663   -1.353692
      8          9           0       -0.000000   -2.344663   -1.353692
      9          1           0        0.000000    2.151626    1.242242
     10          1           0       -0.000000   -2.151626    1.242242
     11          9           0       -0.000000    0.000000    2.707384
     12          1           0        0.000000    0.000000   -2.484484
 ---------------------------------------------------------------------

 SCF Done:  E(RHF) =  -529.399425418     A.U. after    2 cycles

 The electronic state is 1-A1.
 Alpha  occ. eigenvalues --  -29.30699 -29.30669 -29.30669 -11.56949 -11.52378
 Alpha  occ. eigenvalues --  -11.52378 -11.43203 -11.43203 -11.42190  -1.43395
 Alpha  occ. eigenvalues --   -1.21495  -1.21495  -0.98400  -0.98400  -0.88385
 Alpha  occ. eigenvalues --   -0.73014  -0.68745  -0.68745  -0.68503  -0.61129
 Alpha  occ. eigenvalues --   -0.54478  -0.54478  -0.48817  -0.48817  -0.43276
 Alpha  occ. eigenvalues --   -0.40094  -0.40094  -0.30750  -0.30750  -0.29527
 Alpha  occ. eigenvalues --   -0.25686  -0.25101  -0.25101
 Alpha virt. eigenvalues --    0.04304   0.05803   0.05803   0.10252   0.10826
 Alpha virt. eigenvalues --    0.10826   0.11227   0.11329   0.11329   0.13552
 Alpha virt. eigenvalues --    0.13552   0.13944   0.14289   0.14452   0.14452

 Mulliken charges:
               1
     1  C    3.855245
     2  C   -6.314588
     3  C   -6.314588
     4  C    3.855223
     5  C    3.855223
     6  C   -6.314585
     7  F    0.794673
     8  F    0.794673
     9  H    1.664685
    10  H    1.664685
    11  F    0.794671
    12  H    1.664685
 Sum of Mulliken charges =  -0.00000

 Dipole moment (field-independent basis, Debye):
    X=             -0.0000    Y=              0.0000    Z=             -0.0000  Tot=              0.0000

 Test job not archived.
 1\1\GINC-SE046\SP\RHF\Aug-CC-pVDZ\C6H3F3\OHZDE\06-Apr-2025\0\\#t hf au
 g-cc-pvdz iop(5/13=1,5/36=2,99/5=2) pseudo=read geom=check guess=(read
 ,tcheck) scf=(maxcycle=1)\\title\\0,1\C,0,0.,1.361787,0.\C,0,-1.217446
 ,0.702893,0.\C,0,1.217446,0.702893,0.\C,0,-1.179342,-0.680894,0.\C,0,1
 .179342,-0.680894,0.\C,0,0.,-1.405786,0.\F,0,-2.344663,-1.353692,0.\F,
 0,2.344663,-1.353692,0.\H,0,-2.151626,1.242242,0.\H,0,2.151626,1.24224
 2,0.\F,0,0.,2.707384,0.\H,0,0.,-2.484484,0.\\Version=ES64L-G16RevC.01\
 State=1-A1\HF=-529.3994254\RMSD=1.529e+00\Dipole=0.,-0.0000024,0.\Quad

 Normal termination of Gaussian 16 at Sun Apr  6 07:58:15 2025.
