 Gaussian 16, Revision C.01,

 ----------------------------------------------------------------------
 #t hf aug-cc-pvdz symm=none int=(grid=ultrafine) guess=(read,tcheck) s
 table=(opt,rrhf)
 ----------------------------------------------------------------------
 -----
 title
 -----
 Symbolic Z-matrix:
 Charge =  0 Multiplicity = 1

 SCF Done:  E(RHF) =  -154.940627215     A.U. after   12 cycles
 Normal termination of Gaussian 16 at Sun Apr  6 07:57:55 2025.
 Gaussian 16:  ES64L-G16RevC.01  3-Jul-2019

 ----------------------------------------------------------------------
 #t hf aug-cc-pvdz iop(5/13=1,5/36=2,99/5=2) pseudo=read geom=check gue
 ss=(read,tcheck) scf=(maxcycle=1)
 ----------------------------------------------------------------------
 -----
 title
 -----
 Structure from the checkpoint file:  "1-3-butadiene.chk"
 Charge =  0 Multiplicity = 1

                         Standard orientation:
 ---------------------------------------------------------------------
 Center     Atomic      Atomic             Coordinates (Angstroms)
 Number     Number       Type             X           Y           Z
 ---------------------------------------------------------------------
      1          6           0        0.599705    1.744134    0.000000
      2          6           0       -0.599705   -1.744134    0.000000
      3          6           0        0.599705    0.409791    0.000000
      4          6           0       -0.599705   -0.409791    0.000000
      5          1           0        1.519840    2.311174    0.000000
      6          1           0       -0.324442    2.309081    0.000000
      7          1           0       -1.519840   -2.311174    0.000000
      8          1           0        0.324442   -2.309081    0.000000
      9          1           0        1.546374   -0.121919    0.000000
     10          1           0       -1.546374    0.121919    0.000000
 ---------------------------------------------------------------------

 SCF Done:  E(RHF) =  -155.708296941     A.U. after    2 cycles

 The electronic state is 1-AG.
 Alpha  occ. eigenvalues --  -11.43249 -11.40326 -11.39041 -11.36975  -1.23461
 Alpha  occ. eigenvalues --   -1.06759  -0.86369  -0.77914  -0.63427  -0.63051
 Alpha  occ. eigenvalues --   -0.53329  -0.52023  -0.46705  -0.43460  -0.30487
 Alpha virt. eigenvalues --    0.03788   0.05146   0.05838   0.06209   0.06320
 Alpha virt. eigenvalues --    0.08313   0.09928   0.10408   0.12456   0.12895
 Alpha virt. eigenvalues --    0.14060   0.15177   0.15267   0.15756   0.16892

 Mulliken charges:
               1
     1  C   -3.738644
     2  C   -3.738644
     3  C   -0.371580
     4  C   -0.371580
     5  H    1.328299
     6  H    1.443247
     7  H    1.328299
     8  H    1.443247
     9  H    1.338678
    10  H    1.338678
 Sum of Mulliken charges =   0.00000

 Dipole moment (field-independent basis, Debye):
    X=              0.0000    Y=              0.0000    Z=              0.0000  Tot=              0.0000

 Test job not archived.
 1\1\GINC-SE155\SP\RHF\Aug-CC-pVDZ\C4H6\OHZDE\06-Apr-2025\0\\#t hf aug-
 cc-pvdz iop(5/13=1,5/36=2,99/5=2) pseudo=read geom=check guess=(read,t
 check) scf=(maxcycle=1)\\title\\0,1\C,0,0.599705,1.744134,0.\C,0,-0.59
 9705,-1.744134,0.\C,0,0.599705,0.409791,0.\C,0,-0.599705,-0.409791,0.\
 H,0,1.51984,2.311174,0.\H,0,-0.324442,2.309081,0.\H,0,-1.51984,-2.3111
 74,0.\H,0,0.324442,-2.309081,0.\H,0,1.546374,-0.121919,0.\H,0,-1.54637
 4,0.121919,0.\\Version=ES64L-G16RevC.01\State=1-AG\HF=-155.7082969\RMS
 D=8.159e-01\Dipole=0.,0.,0.\Quadrupole=1.4892558,1.5090984,-2.9983542,

 Normal termination of Gaussian 16 at Sun Apr  6 07:57:58 2025.
