 Gaussian 16, Revision C.01,

 ----------------------------------------------------------------------
 #t hf aug-cc-pvdz symm=none int=(grid=ultrafine) guess=(read,tcheck) s
 table=(opt,rrhf)
 ----------------------------------------------------------------------
 -----
 title
 -----
 Symbolic Z-matrix:
 Charge =  0 Multiplicity = 1

 SCF Done:  E(RHF) =  -231.858513790     A.U. after   12 cycles
 Normal termination of Gaussian 16 at Sun Apr  6 07:58:14 2025.
 Gaussian 16:  ES64L-G16RevC.01  3-Jul-2019

 ----------------------------------------------------------------------
 #t hf aug-cc-pvdz iop(5/13=1,5/36=2,99/5=2) pseudo=read geom=check gue
 ss=(read,tcheck) scf=(maxcycle=1)
 ----------------------------------------------------------------------
 -----
 title
 -----
 Structure from the checkpoint file:  "1-3-cyclohexadiene.chk"
 Charge =  0 Multiplicity = 1

                         Standard orientation:
 ---------------------------------------------------------------------
 Center     Atomic      Atomic             Coordinates (Angstroms)
 Number     Number       Type             X           Y           Z
 ---------------------------------------------------------------------
      1          1           0        1.227612   -0.261128    2.198784
      2          6           0        0.724797   -0.096543    1.254344
      3          1           0       -1.227612    0.261128    2.198784
      4          6           0       -0.724797    0.096543    1.254344
      5          1           0       -2.497556    0.149519    0.117407
      6          6           0       -1.419944    0.043846    0.113143
      7          1           0        2.497556   -0.149519    0.117407
      8          6           0        1.419944   -0.043846    0.113143
      9          1           0       -1.272086    0.182344   -2.028442
     10          1           0       -0.737591   -1.338573   -1.350141
     11          6           0       -0.724797   -0.251426   -1.190421
     12          1           0        1.272086   -0.182344   -2.028442
     13          1           0        0.737591    1.338573   -1.350141
     14          6           0        0.724797    0.251426   -1.190421
 ---------------------------------------------------------------------

 SCF Done:  E(RHF) =  -233.008741992     A.U. after    2 cycles

 The electronic state is 1-A.
 Alpha  occ. eigenvalues --  -11.46357 -11.41391 -11.41135 -11.38624 -11.38409
 Alpha  occ. eigenvalues --  -11.34833  -1.31675  -1.08958  -1.08497  -0.88527
 Alpha  occ. eigenvalues --   -0.83691  -0.69692  -0.68633  -0.61015  -0.56956
 Alpha  occ. eigenvalues --   -0.54512  -0.52927  -0.50258  -0.42892  -0.41505
 Alpha  occ. eigenvalues --   -0.41337  -0.27997
 Alpha virt. eigenvalues --    0.03624   0.05069   0.05219   0.06022   0.06177
 Alpha virt. eigenvalues --    0.06249   0.06965   0.08039   0.10468   0.12620
 Alpha virt. eigenvalues --    0.12976   0.13997   0.14371   0.14525   0.14575

 Mulliken charges:
               1
     1  H    1.432471
     2  C   -0.756721
     3  H    1.432471
     4  C   -0.756721
     5  H    1.384814
     6  C   -0.733083
     7  H    1.384814
     8  C   -0.733083
     9  H    1.186538
    10  H    1.250937
    11  C   -3.764957
    12  H    1.186538
    13  H    1.250937
    14  C   -3.764957
 Sum of Mulliken charges =  -0.00000

 Dipole moment (field-independent basis, Debye):
    X=              0.0000    Y=             -0.0000    Z=             -0.3830  Tot=              0.3830

 Test job not archived.
 1\1\GINC-SE212\SP\RHF\Aug-CC-pVDZ\C6H8\OHZDE\06-Apr-2025\0\\#t hf aug-
 cc-pvdz iop(5/13=1,5/36=2,99/5=2) pseudo=read geom=check guess=(read,t
 check) scf=(maxcycle=1)\\title\\0,1\H,0,1.227612,-0.261128,2.198784\C,
 0,0.724797,-0.096543,1.254344\H,0,-1.227612,0.261128,2.198784\C,0,-0.7
 24797,0.096543,1.254344\H,0,-2.497556,0.149519,0.117407\C,0,-1.419944,
 0.043846,0.113143\H,0,2.497556,-0.149519,0.117407\C,0,1.419944,-0.0438
 46,0.113143\H,0,-1.272086,0.182344,-2.028442\H,0,-0.737591,-1.338573,-
 1.350141\C,0,-0.724797,-0.251426,-1.190421\H,0,1.272086,-0.182344,-2.0

 Normal termination of Gaussian 16 at Sun Apr  6 07:58:24 2025.
