 Gaussian 16, Revision C.01,

 ----------------------------------------------------------------------
 #t hf aug-cc-pvdz symm=none int=(grid=ultrafine) guess=(read,tcheck) s
 table=(opt,rrhf)
 ----------------------------------------------------------------------
 -----
 title
 -----
 Symbolic Z-matrix:
 Charge =  0 Multiplicity = 1

 SCF Done:  E(RHF) =  -461.475034271     A.U. after   17 cycles
 Normal termination of Gaussian 16 at Sun Apr  6 08:02:45 2025.
 Gaussian 16:  ES64L-G16RevC.01  3-Jul-2019

 ----------------------------------------------------------------------
 #t hf aug-cc-pvdz iop(5/13=1,5/36=2,99/5=2) pseudo=read geom=check gue
 ss=(read,tcheck) scf=(maxcycle=1)
 ----------------------------------------------------------------------
 -----
 title
 -----
 Structure from the checkpoint file:  "1-3-dimethylnaphthalene.chk"
 Charge =  0 Multiplicity = 1

                         Standard orientation:
 ---------------------------------------------------------------------
 Center     Atomic      Atomic             Coordinates (Angstroms)
 Number     Number       Type             X           Y           Z
 ---------------------------------------------------------------------
      1          6           0        2.773055    1.261111    0.000000
      2          6           0        1.856389    2.329988    0.000000
      3          6           0        2.317617   -0.031831    0.000000
      4          6           0        0.505981    2.084632    0.000000
      5          6           0        0.453695   -1.652390    0.000000
      6          6           0       -1.801003   -0.844292    0.000000
      7          6           0        0.931909   -0.319067    0.000000
      8          6           0        0.000000    0.762178    0.000000
      9          6           0       -0.887961   -1.928786    0.000000
     10          6           0       -1.398841    0.467661    0.000000
     11          6           0       -1.410513   -3.339932    0.000000
     12          6           0       -2.419621    1.574311    0.000000
     13          1           0        3.835851    1.463645    0.000000
     14          1           0        2.220247    3.348890    0.000000
     15          1           0        3.018072   -0.857766    0.000000
     16          1           0       -0.183202    2.916945    0.000000
     17          1           0        1.175542   -2.460565    0.000000
     18          1           0       -2.862447   -1.065376    0.000000
     19          1           0       -2.031880   -3.530639    0.877960
     20          1           0       -2.031880   -3.530639   -0.877960
     21          1           0       -0.598144   -4.065331    0.000000
     22          1           0       -2.318622    2.216328    0.878002
     23          1           0       -2.318622    2.216328   -0.878002
     24          1           0       -3.429158    1.166683    0.000000
 ---------------------------------------------------------------------

 SCF Done:  E(RHF) =  -463.729213941     A.U. after    2 cycles

 The electronic state is 1-A'.
 Alpha  occ. eigenvalues --  -11.51708 -11.48628 -11.44978 -11.44038 -11.43015
 Alpha  occ. eigenvalues --  -11.42088 -11.41880 -11.40644 -11.39343 -11.38979
 Alpha  occ. eigenvalues --  -11.38814 -11.35465  -1.40315  -1.25401  -1.17913
 Alpha  occ. eigenvalues --   -1.10725  -1.07044  -1.00482  -0.98143  -0.88064
 Alpha  occ. eigenvalues --   -0.84999  -0.81282  -0.71508  -0.69348  -0.64584
 Alpha  occ. eigenvalues --   -0.61151  -0.59434  -0.58413  -0.56754  -0.56738
 Alpha  occ. eigenvalues --   -0.54306  -0.53415  -0.51645  -0.51408  -0.49791
 Alpha  occ. eigenvalues --   -0.46028  -0.42747  -0.40672  -0.40402  -0.36893
 Alpha  occ. eigenvalues --   -0.30488  -0.26635
 Alpha virt. eigenvalues --    0.03368   0.04472   0.05058   0.05741   0.05943
 Alpha virt. eigenvalues --    0.06217   0.06421   0.06655   0.06994   0.07401
 Alpha virt. eigenvalues --    0.08614   0.09593   0.10101   0.10104   0.11233

 Mulliken charges:
               1
     1  C   -4.654825
     2  C   -4.195659
     3  C   -3.582808
     4  C   -2.545636
     5  C   -2.030053
     6  C   -2.738241
     7  C    6.898659
     8  C    4.321872
     9  C    2.787419
    10  C    0.807584
    11  C   -5.885372
    12  C   -5.908222
    13  H    1.492444
    14  H    1.497153
    15  H    1.674063
    16  H    1.871157
    17  H    2.010541
    18  H    1.993546
    19  H    0.930403
    20  H    0.930403
    21  H    1.266772
    22  H    0.948488
    23  H    0.948488
    24  H    1.161827
 Sum of Mulliken charges =   0.00000

 Dipole moment (field-independent basis, Debye):
    X=             -0.3923    Y=             -0.0424    Z=             -0.0000  Tot=              0.3946

 Test job not archived.
 1\1\GINC-SE086\SP\RHF\Aug-CC-pVDZ\C12H12\OHZDE\06-Apr-2025\0\\#t hf au
 g-cc-pvdz iop(5/13=1,5/36=2,99/5=2) pseudo=read geom=check guess=(read
 ,tcheck) scf=(maxcycle=1)\\title\\0,1\C,0,2.773055,1.261111,0.\C,0,1.8
 56389,2.329988,0.\C,0,2.317617,-0.031831,0.\C,0,0.505981,2.084632,0.\C
 ,0,0.453695,-1.65239,0.\C,0,-1.801003,-0.844292,0.\C,0,0.931909,-0.319
 067,0.\C,0,0.,0.762178,0.\C,0,-0.887961,-1.928786,0.\C,0,-1.398841,0.4
 67661,0.\C,0,-1.410513,-3.339932,0.\C,0,-2.419621,1.574311,0.\H,0,3.83
 5851,1.463645,0.\H,0,2.220247,3.34889,0.\H,0,3.018072,-0.857766,0.\H,0

 Normal termination of Gaussian 16 at Sun Apr  6 08:03:03 2025.
