 Gaussian 16, Revision C.01,

 ----------------------------------------------------------------------
 #t hf aug-cc-pvdz symm=none int=(grid=ultrafine) guess=(read,tcheck) s
 table=(opt,rrhf)
 ----------------------------------------------------------------------
 -----
 title
 -----
 Symbolic Z-matrix:
 Charge =  0 Multiplicity = 1

 SCF Done:  E(RHF) =  -268.012363728     A.U. after   12 cycles
 Normal termination of Gaussian 16 at Sun Apr  6 07:58:36 2025.
 Gaussian 16:  ES64L-G16RevC.01  3-Jul-2019

 ----------------------------------------------------------------------
 #t hf aug-cc-pvdz iop(5/13=1,5/36=2,99/5=2) pseudo=read geom=check gue
 ss=(read,tcheck) scf=(maxcycle=1)
 ----------------------------------------------------------------------
 -----
 title
 -----
 Structure from the checkpoint file:  "1-3-propanediol.chk"
 Charge =  0 Multiplicity = 1

                         Standard orientation:
 ---------------------------------------------------------------------
 Center     Atomic      Atomic             Coordinates (Angstroms)
 Number     Number       Type             X           Y           Z
 ---------------------------------------------------------------------
      1          6           0        0.008318    0.961105   -0.023694
      2          6           0       -1.114125    0.158565    0.611742
      3          6           0        1.116320    0.099589   -0.621439
      4          8           0       -1.812567   -0.530130   -0.430109
      5          8           0        1.810846   -0.677414    0.357585
      6          1           0       -0.412195    1.593028   -0.810995
      7          1           0        0.431966    1.633237    0.729520
      8          1           0       -0.700353   -0.553181    1.331700
      9          1           0       -1.795932    0.830612    1.143845
     10          1           0        1.818672    0.728131   -1.178324
     11          1           0        0.691233   -0.621872   -1.316811
     12          1           0       -2.402771   -1.178879   -0.038359
     13          1           0        2.320068   -0.086283    0.919958
 ---------------------------------------------------------------------

 SCF Done:  E(RHF) =  -269.228997814     A.U. after    2 cycles

 The electronic state is 1-A.
 Alpha  occ. eigenvalues --  -21.06295 -21.06219 -11.43588 -11.42114 -11.36300
 Alpha  occ. eigenvalues --   -1.71227  -1.68747  -1.15437  -0.95653  -0.83155
 Alpha  occ. eigenvalues --   -0.67050  -0.65520  -0.61370  -0.56477  -0.52082
 Alpha  occ. eigenvalues --   -0.50384  -0.46845  -0.40870  -0.39414  -0.31677
 Alpha  occ. eigenvalues --   -0.31048
 Alpha virt. eigenvalues --    0.03946   0.05303   0.05486   0.05953   0.06245
 Alpha virt. eigenvalues --    0.06533   0.06978   0.07410   0.11471   0.13667
 Alpha virt. eigenvalues --    0.14303   0.14813   0.14945   0.15934   0.16622

 Mulliken charges:
               1
     1  C   -2.902127
     2  C   -1.071279
     3  C   -0.908323
     4  O   -2.531691
     5  O   -2.424948
     6  H    1.395734
     7  H    1.362429
     8  H    1.555874
     9  H    1.285739
    10  H    1.237328
    11  H    1.514420
    12  H    0.791586
    13  H    0.695257
 Sum of Mulliken charges =  -0.00000

 Dipole moment (field-independent basis, Debye):
    X=             -0.0859    Y=              0.5042    Z=              0.5531  Tot=              0.7533

 Test job not archived.
 1\1\GINC-SE038\SP\RHF\Aug-CC-pVDZ\C3H8O2\OHZDE\06-Apr-2025\0\\#t hf au
 g-cc-pvdz iop(5/13=1,5/36=2,99/5=2) pseudo=read geom=check guess=(read
 ,tcheck) scf=(maxcycle=1)\\title\\0,1\C,0,0.008318,0.961105,-0.023694\
 C,0,-1.114125,0.158565,0.611742\C,0,1.11632,0.099589,-0.621439\O,0,-1.
 812567,-0.53013,-0.430109\O,0,1.810846,-0.677414,0.357585\H,0,-0.41219
 5,1.593028,-0.810995\H,0,0.431966,1.633237,0.72952\H,0,-0.700353,-0.55
 3181,1.3317\H,0,-1.795932,0.830612,1.143845\H,0,1.818672,0.728131,-1.1
 78324\H,0,0.691233,-0.621872,-1.316811\H,0,-2.402771,-1.178879,-0.0383

 Normal termination of Gaussian 16 at Sun Apr  6 07:58:40 2025.
