 Gaussian 16, Revision C.01,

 ----------------------------------------------------------------------
 #t hf aug-cc-pvdz symm=none int=(grid=ultrafine) guess=(read,tcheck) s
 table=(opt,rrhf)
 ----------------------------------------------------------------------
 -----
 title
 -----
 Symbolic Z-matrix:
 Charge =  0 Multiplicity = 1

 SCF Done:  E(RHF) =  -262.726378766     A.U. after   13 cycles
 Normal termination of Gaussian 16 at Sun Apr  6 07:57:58 2025.
 Gaussian 16:  ES64L-G16RevC.01  3-Jul-2019

 ----------------------------------------------------------------------
 #t hf aug-cc-pvdz iop(5/13=1,5/36=2,99/5=2) pseudo=read geom=check gue
 ss=(read,tcheck) scf=(maxcycle=1)
 ----------------------------------------------------------------------
 -----
 title
 -----
 Structure from the checkpoint file:  "1-3-diazine.chk"
 Charge =  0 Multiplicity = 1

                         Standard orientation:
 ---------------------------------------------------------------------
 Center     Atomic      Atomic             Coordinates (Angstroms)
 Number     Number       Type             X           Y           Z
 ---------------------------------------------------------------------
      1          6           0        0.000000   -0.000000   -1.307744
      2          7           0        0.000000    1.191556   -0.712170
      3          7           0       -0.000000   -1.191556   -0.712170
      4          6           0        0.000000   -1.180628    0.620975
      5          6           0        0.000000    1.180628    0.620975
      6          6           0        0.000000    0.000000    1.349488
      7          1           0        0.000000    0.000000    2.429940
      8          1           0        0.000000   -0.000000   -2.391534
      9          1           0        0.000000   -2.145739    1.114908
     10          1           0        0.000000    2.145739    1.114908
 ---------------------------------------------------------------------

 SCF Done:  E(RHF) =  -263.931031290     A.U. after    2 cycles

 The electronic state is 1-A1.
 Alpha  occ. eigenvalues --  -15.74702 -15.74666 -11.47876 -11.46063 -11.43614
 Alpha  occ. eigenvalues --  -11.39766  -1.51581  -1.30539  -1.16728  -0.92340
 Alpha  occ. eigenvalues --   -0.92305  -0.75563  -0.64635  -0.63907  -0.57906
 Alpha  occ. eigenvalues --   -0.57350  -0.56968  -0.42433  -0.40454  -0.36886
 Alpha  occ. eigenvalues --   -0.34936
 Alpha virt. eigenvalues --    0.03083   0.05272   0.05335   0.06073   0.09395
 Alpha virt. eigenvalues --    0.10476   0.10574   0.10954   0.11076   0.12506
 Alpha virt. eigenvalues --    0.12986   0.14104   0.14513   0.14655   0.15561

 Mulliken charges:
               1
     1  C    0.965164
     2  N   -3.165354
     3  N   -3.165354
     4  C   -0.120789
     5  C   -0.120789
     6  C   -0.479942
     7  H    1.411827
     8  H    1.618749
     9  H    1.528244
    10  H    1.528244
 Sum of Mulliken charges =   0.00000

 Dipole moment (field-independent basis, Debye):
    X=              0.0000    Y=             -0.0000    Z=              1.9766  Tot=              1.9766

 Test job not archived.
 1\1\GINC-SE209\SP\RHF\Aug-CC-pVDZ\C4H4N2\OHZDE\06-Apr-2025\0\\#t hf au
 g-cc-pvdz iop(5/13=1,5/36=2,99/5=2) pseudo=read geom=check guess=(read
 ,tcheck) scf=(maxcycle=1)\\title\\0,1\C,0,0.,0.,-1.307744\N,0,0.,1.191
 556,-0.71217\N,0,0.,-1.191556,-0.71217\C,0,0.,-1.180628,0.620975\C,0,0
 .,1.180628,0.620975\C,0,0.,0.,1.349488\H,0,0.,0.,2.42994\H,0,0.,0.,-2.
 391534\H,0,0.,-2.145739,1.114908\H,0,0.,2.145739,1.114908\\Version=ES6
 4L-G16RevC.01\State=1-A1\HF=-263.9310313\RMSD=8.070e-01\Dipole=0.,0.,0
 .7776428\Quadrupole=-1.0425357,-1.6188663,2.661402,0.,0.,0.\PG=C02V [C

 Normal termination of Gaussian 16 at Sun Apr  6 07:58:01 2025.
