 Gaussian 16, Revision C.01,

 ----------------------------------------------------------------------
 #t hf aug-cc-pvdz symm=none int=(grid=ultrafine) guess=(read,tcheck) s
 table=(opt,rrhf)
 ----------------------------------------------------------------------
 -----
 title
 -----
 Symbolic Z-matrix:
 Charge =  0 Multiplicity = 1

 SCF Done:  E(RHF) =  -1056.58362928     A.U. after   16 cycles
 Normal termination of Gaussian 16 at Sun Apr  6 07:58:40 2025.
 Gaussian 16:  ES64L-G16RevC.01  3-Jul-2019

 ----------------------------------------------------------------------
 #t hf aug-cc-pvdz iop(5/13=1,5/36=2,99/5=2) pseudo=read geom=check gue
 ss=(read,tcheck) scf=(maxcycle=1)
 ----------------------------------------------------------------------
 -----
 title
 -----
 Structure from the checkpoint file:  "1-3-thiazol-2-yl_thiocyanate.chk"
 Charge =  0 Multiplicity = 1

                         Standard orientation:
 ---------------------------------------------------------------------
 Center     Atomic      Atomic             Coordinates (Angstroms)
 Number     Number       Type             X           Y           Z
 ---------------------------------------------------------------------
      1         16           0       -0.684744    1.213061   -0.000080
      2         16           0        1.377318   -1.154886    0.000075
      3          7           0       -1.268379   -1.298952    0.000129
      4          7           0        2.990519    1.193133   -0.000175
      5          6           0       -0.269821   -0.479529    0.000045
      6          6           0       -2.349814    0.743056   -0.000014
      7          6           0       -2.455845   -0.611093    0.000096
      8          6           0        2.305403    0.262740   -0.000076
      9          1           0       -3.132667    1.481541   -0.000061
     10          1           0       -3.383034   -1.162635    0.000156
 ---------------------------------------------------------------------

 SCF Done:  E(RHF) =  -1058.20387556     A.U. after    2 cycles

 The electronic state is 1-A.
 Alpha  occ. eigenvalues --  -75.77744 -75.75158 -15.79047 -15.77208 -13.25425
 Alpha  occ. eigenvalues --  -13.21793 -13.19745 -13.18474 -13.09731 -13.06788
 Alpha  occ. eigenvalues --  -11.48808 -11.47007 -11.46053 -11.41781  -8.11992
 Alpha  occ. eigenvalues --   -8.09632  -1.52014  -1.34768  -1.22736  -1.21244
 Alpha  occ. eigenvalues --   -1.07894  -0.86248  -0.78808  -0.73228  -0.66277
 Alpha  occ. eigenvalues --   -0.59455  -0.58197  -0.54722  -0.51403  -0.51167
 Alpha  occ. eigenvalues --   -0.45066  -0.44269  -0.40207  -0.36498  -0.32214
 Alpha  occ. eigenvalues --   -0.26126
 Alpha virt. eigenvalues --    0.02392   0.04437   0.05024   0.07657   0.08283
 Alpha virt. eigenvalues --    0.08661   0.08983   0.11029   0.11554   0.11958
 Alpha virt. eigenvalues --    0.12136   0.12317   0.13390   0.13433   0.14601

 Mulliken charges:
               1
     1  S    1.535567
     2  S    2.502952
     3  N   -3.065128
     4  N   -1.950742
     5  C   -0.393949
     6  C   -2.783399
     7  C    0.954232
     8  C    0.525146
     9  H    1.161960
    10  H    1.513360
 Sum of Mulliken charges =   0.00000

 Dipole moment (field-independent basis, Debye):
    X=             -1.6700    Y=              0.1558    Z=              0.0001  Tot=              1.6772

 Test job not archived.
 1\1\GINC-SE101\SP\RHF\Aug-CC-pVDZ\C4H2N2S2\OHZDE\06-Apr-2025\0\\#t hf
 aug-cc-pvdz iop(5/13=1,5/36=2,99/5=2) pseudo=read geom=check guess=(re
 ad,tcheck) scf=(maxcycle=1)\\title\\0,1\S,0,-0.684744,1.213061,-0.0000
 8\S,0,1.377318,-1.154886,0.000075\N,0,-1.268379,-1.298952,0.000129\N,0
 ,2.990519,1.193133,-0.000175\C,0,-0.269821,-0.479529,0.000045\C,0,-2.3
 49814,0.743056,-0.000014\C,0,-2.455845,-0.611093,0.000096\C,0,2.305403
 ,0.26274,-0.000076\H,0,-3.132667,1.481541,-0.000061\H,0,-3.383034,-1.1
 62635,0.000156\\Version=ES64L-G16RevC.01\State=1-A\HF=-1058.2038756\RM

 Normal termination of Gaussian 16 at Sun Apr  6 07:58:46 2025.
