 Gaussian 16, Revision C.01,

 ----------------------------------------------------------------------
 #t hf aug-cc-pvdz symm=none int=(grid=ultrafine) guess=(read,tcheck) s
 table=(opt,rrhf)
 ----------------------------------------------------------------------
 -----
 title
 -----
 Symbolic Z-matrix:
 Charge =  0 Multiplicity = 1

 SCF Done:  E(RHF) =  -637.732139600     A.U. after   16 cycles
 Normal termination of Gaussian 16 at Sun Apr  6 07:59:28 2025.
 Gaussian 16:  ES64L-G16RevC.01  3-Jul-2019

 ----------------------------------------------------------------------
 #t hf aug-cc-pvdz iop(5/13=1,5/36=2,99/5=2) pseudo=read geom=check gue
 ss=(read,tcheck) scf=(maxcycle=1)
 ----------------------------------------------------------------------
 -----
 title
 -----
 Structure from the checkpoint file:  "1-3-dinitrobenzene.chk"
 Charge =  0 Multiplicity = 1

                         Standard orientation:
 ---------------------------------------------------------------------
 Center     Atomic      Atomic             Coordinates (Angstroms)
 Number     Number       Type             X           Y           Z
 ---------------------------------------------------------------------
      1          8           0        0.000000    3.490824    0.071542
      2          7           0        0.000000    2.463811   -0.588557
      3          8           0        0.000000    2.410623   -1.806860
      4          6           0        0.000000    1.181426    0.151124
      5          6           0       -0.000000    0.000000   -0.570360
      6          6           0       -0.000000   -1.181426    0.151124
      7          7           0       -0.000000   -2.463811   -0.588557
      8          8           0       -0.000000   -3.490824    0.071542
      9          8           0       -0.000000   -2.410623   -1.806860
     10          6           0        0.000000   -1.204752    1.538926
     11          6           0        0.000000   -0.000000    2.229613
     12          6           0        0.000000    1.204752    1.538926
     13          1           0       -0.000000    0.000000   -1.647700
     14          1           0        0.000000   -2.152894    2.053303
     15          1           0        0.000000   -0.000000    3.309868
     16          1           0        0.000000    2.152894    2.053303
 ---------------------------------------------------------------------

 SCF Done:  E(RHF) =  -640.493555273     A.U. after    2 cycles

 The electronic state is 1-A1.
 Alpha  occ. eigenvalues --  -21.11482 -21.11476 -21.11344 -21.11341 -16.02196
 Alpha  occ. eigenvalues --  -16.02195 -11.58660 -11.52005 -11.50961 -11.49419
 Alpha  occ. eigenvalues --  -11.48526 -11.44110  -2.02744  -2.01489  -1.71549
 Alpha  occ. eigenvalues --   -1.70952  -1.42069  -1.23623  -1.19017  -1.04434
 Alpha  occ. eigenvalues --   -1.03114  -0.90601  -0.82813  -0.78711  -0.71981
 Alpha  occ. eigenvalues --   -0.71234  -0.70521  -0.69298  -0.68437  -0.66238
 Alpha  occ. eigenvalues --   -0.62961  -0.59006  -0.55621  -0.54570  -0.52436
 Alpha  occ. eigenvalues --   -0.39713  -0.39529  -0.38835  -0.36922  -0.33585
 Alpha  occ. eigenvalues --   -0.33320  -0.33084  -0.32734
 Alpha virt. eigenvalues --    0.02319   0.04630   0.04797   0.05075   0.06612
 Alpha virt. eigenvalues --    0.07082   0.08998   0.09990   0.10879   0.11137
 Alpha virt. eigenvalues --    0.11939   0.11978   0.12835   0.13272   0.13885

 Mulliken charges:
               1
     1  O   -3.115479
     2  N    3.423312
     3  O   -2.977028
     4  C    4.061517
     5  C   -2.777864
     6  C    4.061517
     7  N    3.423312
     8  O   -3.115479
     9  O   -2.977028
    10  C   -3.835563
    11  C    0.590101
    12  C   -3.835563
    13  H    1.919424
    14  H    1.832809
    15  H    1.489204
    16  H    1.832809
 Sum of Mulliken charges =  -0.00000

 Dipole moment (field-independent basis, Debye):
    X=              0.0000    Y=             -0.0000    Z=              2.9803  Tot=              2.9803

 Test job not archived.
 1\1\GINC-SE086\SP\RHF\Aug-CC-pVDZ\C6H4N2O4\OHZDE\06-Apr-2025\0\\#t hf
 aug-cc-pvdz iop(5/13=1,5/36=2,99/5=2) pseudo=read geom=check guess=(re
 ad,tcheck) scf=(maxcycle=1)\\title\\0,1\O,0,0.,3.490824,0.071542\N,0,0
 .,2.463811,-0.588557\O,0,0.,2.410623,-1.80686\C,0,0.,1.181426,0.151124
 \C,0,0.,0.,-0.57036\C,0,0.,-1.181426,0.151124\N,0,0.,-2.463811,-0.5885
 57\O,0,0.,-3.490824,0.071542\O,0,0.,-2.410623,-1.80686\C,0,0.,-1.20475
 2,1.538926\C,0,0.,0.,2.229613\C,0,0.,1.204752,1.538926\H,0,0.,0.,-1.64
 77\H,0,0.,-2.152894,2.053303\H,0,0.,0.,3.309868\H,0,0.,2.152894,2.0533

 Normal termination of Gaussian 16 at Sun Apr  6 07:59:35 2025.
