 Gaussian 16, Revision C.01,

 ----------------------------------------------------------------------
 #t hf aug-cc-pvdz symm=none int=(grid=ultrafine) guess=(read,tcheck) s
 table=(opt,rrhf)
 ----------------------------------------------------------------------
 -----
 title
 -----
 Symbolic Z-matrix:
 Charge =  0 Multiplicity = 1

 SCF Done:  E(RHF) =  -278.733002129     A.U. after   11 cycles
 Normal termination of Gaussian 16 at Sun Apr  6 07:58:00 2025.
 Gaussian 16:  ES64L-G16RevC.01  3-Jul-2019

 ----------------------------------------------------------------------
 #t hf aug-cc-pvdz iop(5/13=1,5/36=2,99/5=2) pseudo=read geom=check gue
 ss=(read,tcheck) scf=(maxcycle=1)
 ----------------------------------------------------------------------
 -----
 title
 -----
 Structure from the checkpoint file:  "1-3-5-triazine.chk"
 Charge =  0 Multiplicity = 1

                         Standard orientation:
 ---------------------------------------------------------------------
 Center     Atomic      Atomic             Coordinates (Angstroms)
 Number     Number       Type             X           Y           Z
 ---------------------------------------------------------------------
      1          6           0        0.000000   -0.000000   -1.292045
      2          7           0        0.000000    1.184015   -0.683592
      3          7           0       -0.000000   -1.184015   -0.683592
      4          6           0        0.000000    1.118944    0.646022
      5          6           0       -0.000000   -1.118944    0.646022
      6          7           0       -0.000000    0.000000    1.367183
      7          1           0        0.000000   -0.000000   -2.376108
      8          1           0        0.000000   -2.057770    1.188054
      9          1           0        0.000000    2.057770    1.188054
 ---------------------------------------------------------------------

 SCF Done:  E(RHF) =  -279.974904667     A.U. after    2 cycles

 The electronic state is 1-A1.
 Alpha  occ. eigenvalues --  -15.75926 -15.75902 -15.75902 -11.47051 -11.47051
 Alpha  occ. eigenvalues --  -11.45638  -1.57592  -1.32943  -1.32943  -0.96273
 Alpha  occ. eigenvalues --   -0.96273  -0.77799  -0.67798  -0.61776  -0.59660
 Alpha  occ. eigenvalues --   -0.59660  -0.55591  -0.42207  -0.42207  -0.37504
 Alpha  occ. eigenvalues --   -0.37504
 Alpha virt. eigenvalues --    0.03421   0.05523   0.05523   0.09336   0.09336
 Alpha virt. eigenvalues --    0.10026   0.10312   0.10344   0.10344   0.12312
 Alpha virt. eigenvalues --    0.15147   0.15147   0.15376   0.16404   0.16404

 Mulliken charges:
               1
     1  C    1.387273
     2  N   -2.973332
     3  N   -2.973332
     4  C    1.387269
     5  C    1.387269
     6  N   -2.973329
     7  H    1.586060
     8  H    1.586060
     9  H    1.586060
 Sum of Mulliken charges =  -0.00000

 Dipole moment (field-independent basis, Debye):
    X=              0.0000    Y=             -0.0000    Z=              0.0000  Tot=              0.0000

 Test job not archived.
 1\1\GINC-SE044\SP\RHF\Aug-CC-pVDZ\C3H3N3\OHZDE\06-Apr-2025\0\\#t hf au
 g-cc-pvdz iop(5/13=1,5/36=2,99/5=2) pseudo=read geom=check guess=(read
 ,tcheck) scf=(maxcycle=1)\\title\\0,1\C,0,0.,1.292045,0.\N,0,1.184015,
 0.683592,0.\N,0,-1.184015,0.683592,0.\C,0,1.118944,-0.646022,0.\C,0,-1
 .118944,-0.646022,0.\N,0,0.,-1.367183,0.\H,0,0.,2.376108,0.\H,0,-2.057
 77,-1.188054,0.\H,0,2.05777,-1.188054,0.\\Version=ES64L-G16RevC.01\Sta
 te=1-A1\HF=-279.9749047\RMSD=7.325e-02\Dipole=0.,0.,0.\Quadrupole=-0.2
 315711,-0.2315792,0.4631503,0.,0.,0.\PG=C02V [C2(H1C1N1),SGV(C2H2N2)]\

 Normal termination of Gaussian 16 at Sun Apr  6 07:58:06 2025.
