 Gaussian 16, Revision C.01,

 ----------------------------------------------------------------------
 #t hf aug-cc-pvdz symm=none int=(grid=ultrafine) guess=(read,tcheck) s
 table=(opt,rrhf)
 ----------------------------------------------------------------------
 -----
 title
 -----
 Symbolic Z-matrix:
 Charge =  0 Multiplicity = 1

 SCF Done:  E(RHF) =  -604.230659886     A.U. after   14 cycles
 Normal termination of Gaussian 16 at Sun Apr  6 07:57:40 2025.
 Gaussian 16:  ES64L-G16RevC.01  3-Jul-2019

 ----------------------------------------------------------------------
 #t hf aug-cc-pvdz iop(5/13=1,5/36=2,99/5=2) pseudo=read geom=check gue
 ss=(read,tcheck) scf=(maxcycle=1)
 ----------------------------------------------------------------------
 -----
 title
 -----
 Structure from the checkpoint file:  "1-3-2-oxathiazole.chk"
 Charge =  0 Multiplicity = 1

                         Standard orientation:
 ---------------------------------------------------------------------
 Center     Atomic      Atomic             Coordinates (Angstroms)
 Number     Number       Type             X           Y           Z
 ---------------------------------------------------------------------
      1         16           0       -1.224006    0.049081   -0.107328
      2          8           0        1.242809   -0.702537   -0.222880
      3          7           0       -0.052232   -1.238625    0.159007
      4          6           0        0.065657    1.249525    0.142810
      5          6           0        1.244683    0.655383    0.012729
      6          1           0       -0.124066    2.299324    0.277492
      7          1           0        2.227512    1.098554    0.002818
      8          1           0        0.041759   -1.321948    1.173704
 ---------------------------------------------------------------------

 SCF Done:  E(RHF) =  -605.364397986     A.U. after    2 cycles

 The electronic state is 1-A.
 Alpha  occ. eigenvalues --  -75.72194 -21.10602 -15.80711 -13.16126 -13.13678
 Alpha  occ. eigenvalues --  -13.04686 -11.46789 -11.41013  -8.06318  -1.84421
 Alpha  occ. eigenvalues --   -1.29467  -1.18651  -0.94879  -0.82036  -0.72232
 Alpha  occ. eigenvalues --   -0.66740  -0.54594  -0.51446  -0.47505  -0.40970
 Alpha  occ. eigenvalues --   -0.40144  -0.33148  -0.21373
 Alpha virt. eigenvalues --    0.03052   0.04750   0.05654   0.07055   0.09760
 Alpha virt. eigenvalues --    0.10575   0.11891   0.12868   0.13531   0.14517
 Alpha virt. eigenvalues --    0.15223   0.15591   0.16225   0.17656   0.19123

 Mulliken charges:
               1
     1  S    1.335027
     2  O   -2.505695
     3  N   -0.723508
     4  C   -2.116075
     5  C    0.615797
     6  H    1.163842
     7  H    1.394218
     8  H    0.836394
 Sum of Mulliken charges =  -0.00000

 Dipole moment (field-independent basis, Debye):
    X=             -0.5857    Y=              1.0531    Z=              0.4533  Tot=              1.2874

 Test job not archived.
 1\1\GINC-SE398\SP\RHF\Aug-CC-pVDZ\C2H3N1O1S1\OHZDE\06-Apr-2025\0\\#t h
 f aug-cc-pvdz iop(5/13=1,5/36=2,99/5=2) pseudo=read geom=check guess=(
 read,tcheck) scf=(maxcycle=1)\\title\\0,1\S,0,-1.224006,0.049081,-0.10
 7328\O,0,1.242809,-0.702537,-0.22288\N,0,-0.052232,-1.238625,0.159007\
 C,0,0.065658,1.249525,0.14281\C,0,1.244683,0.655383,0.012729\H,0,-0.12
 4065,2.299324,0.277492\H,0,2.227513,1.098553,0.002818\H,0,0.041759,-1.
 321948,1.173704\\Version=ES64L-G16RevC.01\State=1-A\HF=-605.364398\RMS
 D=4.936e-01\Dipole=-0.2304404,0.4143099,0.1783368\Quadrupole=2.3007176

 Normal termination of Gaussian 16 at Sun Apr  6 07:57:44 2025.
