 Gaussian 16, Revision C.01,

 ----------------------------------------------------------------------
 #t hf aug-cc-pvdz symm=none int=(grid=ultrafine) guess=(read,tcheck) s
 table=(opt,rrhf)
 ----------------------------------------------------------------------
 -----
 title
 -----
 Symbolic Z-matrix:
 Charge =  0 Multiplicity = 1

 SCF Done:  E(RHF) =  -1040.54558815     A.U. after   16 cycles
 Normal termination of Gaussian 16 at Sun Apr  6 07:58:47 2025.
 Gaussian 16:  ES64L-G16RevC.01  3-Jul-2019

 ----------------------------------------------------------------------
 #t hf aug-cc-pvdz iop(5/13=1,5/36=2,99/5=2) pseudo=read geom=check gue
 ss=(read,tcheck) scf=(maxcycle=1)
 ----------------------------------------------------------------------
 -----
 title
 -----
 Structure from the checkpoint file:  "1-3-thiazol-5-ylacetylenethiol.chk"
 Charge =  0 Multiplicity = 1

                         Standard orientation:
 ---------------------------------------------------------------------
 Center     Atomic      Atomic             Coordinates (Angstroms)
 Number     Number       Type             X           Y           Z
 ---------------------------------------------------------------------
      1         16           0        1.614785   -1.191862    0.001186
      2         16           0       -3.692874   -0.024363   -0.096618
      3          7           0        2.742645    1.118425   -0.006729
      4          6           0        0.591906    0.228939    0.007977
      5          6           0        1.399557    1.341512    0.002099
      6          6           0        3.000380   -0.156035   -0.008147
      7          6           0       -0.807791    0.156773    0.016980
      8          6           0       -2.014959    0.076694    0.041513
      9          1           0        1.022687    2.352845    0.003954
     10          1           0        3.998149   -0.568105   -0.014777
     11          1           0       -3.984497   -0.041414    1.222310
 ---------------------------------------------------------------------

 SCF Done:  E(RHF) =  -1042.12038344     A.U. after    2 cycles

 The electronic state is 1-A.
 Alpha  occ. eigenvalues --  -75.73878 -75.73718 -15.75804 -13.22915 -13.19345
 Alpha  occ. eigenvalues --  -13.17126 -13.16133 -13.05789 -13.05468 -11.48465
 Alpha  occ. eigenvalues --  -11.45374 -11.45099 -11.42422 -11.42336  -8.08207
 Alpha  occ. eigenvalues --   -8.07797  -1.49599  -1.24825  -1.19524  -1.12443
 Alpha  occ. eigenvalues --   -1.03017  -0.87396  -0.81091  -0.73201  -0.62276
 Alpha  occ. eigenvalues --   -0.58406  -0.57300  -0.55100  -0.49566  -0.49194
 Alpha  occ. eigenvalues --   -0.42852  -0.40539  -0.36583  -0.31811  -0.30017
 Alpha  occ. eigenvalues --   -0.24658
 Alpha virt. eigenvalues --    0.02202   0.03768   0.05001   0.07005   0.07305
 Alpha virt. eigenvalues --    0.07612   0.08234   0.09861   0.10610   0.10781
 Alpha virt. eigenvalues --    0.11885   0.12552   0.13268   0.13442   0.14065

 Mulliken charges:
               1
     1  S    1.049585
     2  S   -0.830105
     3  N   -3.461602
     4  C    1.256586
     5  C   -0.867385
     6  C   -1.244665
     7  C   -0.205657
     8  C    0.376440
     9  H    1.313407
    10  H    1.579421
    11  H    1.033974
 Sum of Mulliken charges =   0.00000

 Dipole moment (field-independent basis, Debye):
    X=             -1.5709    Y=             -3.2103    Z=             -0.9309  Tot=              3.6933

 Test job not archived.
 1\1\GINC-SE104\SP\RHF\Aug-CC-pVDZ\C5H3N1S2\OHZDE\06-Apr-2025\0\\#t hf
 aug-cc-pvdz iop(5/13=1,5/36=2,99/5=2) pseudo=read geom=check guess=(re
 ad,tcheck) scf=(maxcycle=1)\\title\\0,1\S,0,1.614785,-1.191862,0.00118
 6\S,0,-3.692874,-0.024363,-0.096618\N,0,2.742645,1.118425,-0.006729\C,
 0,0.591906,0.228939,0.007977\C,0,1.399557,1.341512,0.002099\C,0,3.0003
 8,-0.156035,-0.008147\C,0,-0.807791,0.156773,0.01698\C,0,-2.014959,0.0
 76694,0.041513\H,0,1.022687,2.352845,0.003954\H,0,3.998149,-0.568105,-
 0.014777\H,0,-3.984497,-0.041414,1.22231\\Version=ES64L-G16RevC.01\Sta

 Normal termination of Gaussian 16 at Sun Apr  6 07:58:54 2025.
