 Gaussian 16, Revision C.01,

 ----------------------------------------------------------------------
 #t hf aug-cc-pvdz symm=none int=(grid=ultrafine) guess=(read,tcheck) s
 table=(opt,rrhf)
 ----------------------------------------------------------------------
 -----
 title
 -----
 Symbolic Z-matrix:
 Charge =  0 Multiplicity = 1

 SCF Done:  E(RHF) =  -1036.13024162     A.U. after   12 cycles

 1\1\GINC-SE013\Stability\RHF\Aug-CC-pVDZ\C3H6Cl2\OHZDE\06-Apr-2025\0\\
 #t hf aug-cc-pvdz symm=none int=(grid=ultrafine) guess=(read,tcheck) s
 table=(opt,rrhf)\\title\\0,1\C,0,0.,0.,1.245285\C,0,0.,1.281625,0.4335
 21\C,0,0.,-1.281625,0.433521\Cl,0,-1.529889,1.4768,-0.530841\Cl,0,1.52
 9889,-1.4768,-0.530841\H,0,0.878901,0.017822,1.895082\H,0,-0.878901,-0
 .017822,1.895082\H,0,0.056209,2.153738,1.07711\H,0,0.813369,1.306239,-
 0.284878\H,0,-0.813369,-1.306239,-0.284878\H,0,-0.056209,-2.153738,1.0
 7711\\Version=ES64L-G16RevC.01\HF=-1036.1302416\RMSD=4.063e-09\Dipole=

 Normal termination of Gaussian 16 at Sun Apr  6 07:58:00 2025.
 Gaussian 16:  ES64L-G16RevC.01  3-Jul-2019

 ----------------------------------------------------------------------
 #t hf aug-cc-pvdz iop(5/13=1,5/36=2,99/5=2) pseudo=read geom=check gue
 ss=(read,tcheck) scf=(maxcycle=1)
 ----------------------------------------------------------------------
 -----
 title
 -----
 Structure from the checkpoint file:  "1-3-dichloropropane.chk"
 Charge =  0 Multiplicity = 1

                         Standard orientation:
 ---------------------------------------------------------------------
 Center     Atomic      Atomic             Coordinates (Angstroms)
 Number     Number       Type             X           Y           Z
 ---------------------------------------------------------------------
      1          6           0        0.000000    0.000000    1.245285
      2          6           0        0.000000    1.281625    0.433521
      3          6           0       -0.000000   -1.281625    0.433521
      4         17           0       -1.529889    1.476800   -0.530841
      5         17           0        1.529889   -1.476800   -0.530841
      6          1           0        0.878901    0.017822    1.895082
      7          1           0       -0.878901   -0.017822    1.895082
      8          1           0        0.056209    2.153738    1.077110
      9          1           0        0.813369    1.306239   -0.284878
     10          1           0       -0.813369   -1.306239   -0.284878
     11          1           0       -0.056209   -2.153738    1.077110
 ---------------------------------------------------------------------

 SCF Done:  E(RHF) =  -1037.22237887     A.U. after    2 cycles

 The electronic state is 1-A.
 Alpha  occ. eigenvalues --  -99.87990 -99.87981 -11.46946 -11.45367 -11.40309
 Alpha  occ. eigenvalues --  -10.45252 -10.45243  -9.65164  -9.65116  -9.64515
 Alpha  occ. eigenvalues --   -9.64486  -9.64388  -9.64348  -1.36719  -1.30879
 Alpha  occ. eigenvalues --   -1.16456  -1.00272  -0.87300  -0.69032  -0.68861
 Alpha  occ. eigenvalues --   -0.62681  -0.59988  -0.57130  -0.54515  -0.51398
 Alpha  occ. eigenvalues --   -0.48709  -0.48614  -0.46405  -0.45500
 Alpha virt. eigenvalues --    0.03255   0.04771   0.06095   0.06117   0.06545
 Alpha virt. eigenvalues --    0.06561   0.07627   0.08157   0.11269   0.11400
 Alpha virt. eigenvalues --    0.12679   0.14581   0.14626   0.16100   0.16262

 Mulliken charges:
               1
     1  C   -2.124161
     2  C   -3.485287
     3  C   -3.485287
     4  Cl   0.047804
     5  Cl   0.047804
     6  H    1.356679
     7  H    1.356679
     8  H    1.493844
     9  H    1.649041
    10  H    1.649041
    11  H    1.493844
 Sum of Mulliken charges =  -0.00000

 Dipole moment (field-independent basis, Debye):
    X=              0.0000    Y=             -0.0000    Z=              2.6481  Tot=              2.6481

 Test job not archived.
 1\1\GINC-SE013\SP\RHF\Aug-CC-pVDZ\C3H6Cl2\OHZDE\06-Apr-2025\0\\#t hf a
 ug-cc-pvdz iop(5/13=1,5/36=2,99/5=2) pseudo=read geom=check guess=(rea
 d,tcheck) scf=(maxcycle=1)\\title\\0,1\C,0,0.,0.,1.245285\C,0,0.,1.281
 625,0.433521\C,0,0.,-1.281625,0.433521\Cl,0,-1.529889,1.4768,-0.530841
 \Cl,0,1.529889,-1.4768,-0.530841\H,0,0.878901,0.017822,1.895082\H,0,-0
 .878901,-0.017822,1.895082\H,0,0.056209,2.153738,1.07711\H,0,0.813369,
 1.306239,-0.284878\H,0,-0.813369,-1.306239,-0.284878\H,0,-0.056209,-2.
 153738,1.07711\\Version=ES64L-G16RevC.01\State=1-A\HF=-1037.2223789\RM

 Normal termination of Gaussian 16 at Sun Apr  6 07:58:03 2025.
