 Gaussian 16, Revision C.01,

 ----------------------------------------------------------------------
 #t hf aug-cc-pvdz symm=none int=(grid=ultrafine) guess=(read,tcheck) s
 table=(opt,rrhf)
 ----------------------------------------------------------------------
 -----
 title
 -----
 Symbolic Z-matrix:
 Charge =  0 Multiplicity = 1

 SCF Done:  E(RHF) =  -240.830209159     A.U. after   13 cycles
 Normal termination of Gaussian 16 at Sun Apr  6 07:57:47 2025.
 Gaussian 16:  ES64L-G16RevC.01  3-Jul-2019

 ----------------------------------------------------------------------
 #t hf aug-cc-pvdz iop(5/13=1,5/36=2,99/5=2) pseudo=read geom=check gue
 ss=(read,tcheck) scf=(maxcycle=1)
 ----------------------------------------------------------------------
 -----
 title
 -----
 Structure from the checkpoint file:  "1-3-4-triazole.chk"
 Charge =  0 Multiplicity = 1

                         Standard orientation:
 ---------------------------------------------------------------------
 Center     Atomic      Atomic             Coordinates (Angstroms)
 Number     Number       Type             X           Y           Z
 ---------------------------------------------------------------------
      1          7           0        0.000000    0.691069   -0.992631
      2          7           0       -0.000000   -0.691069   -0.992631
      3          6           0        0.000000   -1.080094    0.251566
      4          7           0        0.000000   -0.000000    1.085367
      5          6           0        0.000000    1.080094    0.251566
      6          1           0        0.000000   -2.100069    0.594993
      7          1           0        0.000000   -0.000000    2.090477
      8          1           0        0.000000    2.100069    0.594993
 ---------------------------------------------------------------------

 SCF Done:  E(RHF) =  -241.911354910     A.U. after    2 cycles

 The electronic state is 1-A1.
 Alpha  occ. eigenvalues --  -15.81956 -15.74593 -15.74058 -11.44318 -11.42471
 Alpha  occ. eigenvalues --   -1.63574  -1.33248  -1.18056  -0.87706  -0.84277
 Alpha  occ. eigenvalues --   -0.78534  -0.63312  -0.59498  -0.59360  -0.43169
 Alpha  occ. eigenvalues --   -0.39482  -0.38225  -0.34841
 Alpha virt. eigenvalues --    0.02495   0.04546   0.05149   0.09533   0.10176
 Alpha virt. eigenvalues --    0.11319   0.11760   0.12384   0.14935   0.15274
 Alpha virt. eigenvalues --    0.17129   0.17530   0.17945   0.19009   0.19704

 Mulliken charges:
               1
     1  N   -1.664705
     2  N   -1.664705
     3  C    1.087470
     4  N   -2.533283
     5  C    1.087470
     6  H    1.447072
     7  H    0.793610
     8  H    1.447072
 Sum of Mulliken charges =   0.00000

 Dipole moment (field-independent basis, Debye):
    X=              0.0000    Y=              0.0000    Z=              5.2137  Tot=              5.2137

 Test job not archived.
 1\1\GINC-SE038\SP\RHF\Aug-CC-pVDZ\C2H3N3\OHZDE\06-Apr-2025\0\\#t hf au
 g-cc-pvdz iop(5/13=1,5/36=2,99/5=2) pseudo=read geom=check guess=(read
 ,tcheck) scf=(maxcycle=1)\\title\\0,1\N,0,0.,0.691069,-0.992631\N,0,0.
 ,-0.691069,-0.992631\C,0,0.,-1.080094,0.251566\N,0,0.,0.,1.085367\C,0,
 0.,1.080094,0.251566\H,0,0.,-2.100069,0.594993\H,0,0.,0.,2.090477\H,0,
 0.,2.100069,0.594993\\Version=ES64L-G16RevC.01\State=1-A1\HF=-241.9113
 549\RMSD=7.809e-02\Dipole=0.,0.,2.0512099\Quadrupole=-1.5214422,1.7588
 644,-0.2374222,0.,0.,0.\PG=C02V [C2(N1H1),SGV(C2H2N2)]\\@

 Normal termination of Gaussian 16 at Sun Apr  6 07:57:51 2025.
