 Gaussian 16, Revision C.01,

 ----------------------------------------------------------------------
 #t hf aug-cc-pvdz symm=none int=(grid=ultrafine) guess=(read,tcheck) s
 table=(opt,rrhf)
 ----------------------------------------------------------------------
 -----
 title
 -----
 Symbolic Z-matrix:
 Charge =  0 Multiplicity = 1

 SCF Done:  E(RHF) =  -775.077274406     A.U. after   15 cycles
 Normal termination of Gaussian 16 at Sun Apr  6 07:59:06 2025.
 Gaussian 16:  ES64L-G16RevC.01  3-Jul-2019

 ----------------------------------------------------------------------
 #t hf aug-cc-pvdz iop(5/13=1,5/36=2,99/5=2) pseudo=read geom=check gue
 ss=(read,tcheck) scf=(maxcycle=1)
 ----------------------------------------------------------------------
 -----
 title
 -----
 Structure from the checkpoint file:  "1-3-dihydro-2H-benzimidazole-2-thione.chk"
 Charge =  0 Multiplicity = 1

                         Standard orientation:
 ---------------------------------------------------------------------
 Center     Atomic      Atomic             Coordinates (Angstroms)
 Number     Number       Type             X           Y           Z
 ---------------------------------------------------------------------
      1          7           0        0.000000    1.086138    0.759003
      2          6           0        0.000000   -0.000000    1.598098
      3         16           0        0.000000   -0.000000    3.259399
      4          6           0        0.000000    0.701967   -0.573500
      5          6           0        0.000000    1.422352   -1.756178
      6          6           0        0.000000    0.697607   -2.946432
      7          6           0       -0.000000   -0.697607   -2.946432
      8          6           0       -0.000000   -1.422352   -1.756178
      9          6           0       -0.000000   -0.701967   -0.573500
     10          7           0       -0.000000   -1.086138    0.759003
     11          1           0        0.000000    2.023318    1.120645
     12          1           0        0.000000    2.503243   -1.758725
     13          1           0        0.000000    1.228712   -3.887766
     14          1           0       -0.000000   -1.228712   -3.887766
     15          1           0       -0.000000   -2.503243   -1.758725
     16          1           0       -0.000000   -2.023318    1.120645
 ---------------------------------------------------------------------

 SCF Done:  E(RHF) =  -777.055297736     A.U. after    2 cycles

 The electronic state is 1-A1.
 Alpha  occ. eigenvalues --  -75.62984 -15.81081 -15.81006 -13.12896 -12.97548
 Alpha  occ. eigenvalues --  -12.93912 -11.55308 -11.50523 -11.47358 -11.46875
 Alpha  occ. eigenvalues --  -11.43478 -11.43472 -11.38969  -7.97089  -1.61974
 Alpha  occ. eigenvalues --   -1.34470  -1.32566  -1.15326  -1.11134  -1.03882
 Alpha  occ. eigenvalues --   -0.92295  -0.88042  -0.86701  -0.74913  -0.71707
 Alpha  occ. eigenvalues --   -0.65467  -0.63857  -0.62358  -0.62295  -0.58047
 Alpha  occ. eigenvalues --   -0.50042  -0.49953  -0.47461  -0.46347  -0.46161
 Alpha  occ. eigenvalues --   -0.35277  -0.32739  -0.21866  -0.21413
 Alpha virt. eigenvalues --    0.02423   0.04410   0.04652   0.05301   0.06075
 Alpha virt. eigenvalues --    0.07324   0.08717   0.09518   0.09579   0.11664
 Alpha virt. eigenvalues --    0.11750   0.11932   0.11960   0.12602   0.13119

 Mulliken charges:
               1
     1  N   -3.931732
     2  C   -0.645839
     3  S    1.364535
     4  C    3.979081
     5  C   -2.354817
     6  C   -1.987646
     7  C   -1.987646
     8  C   -2.354817
     9  C    3.979081
    10  N   -3.931732
    11  H    0.813360
    12  H    1.604668
    13  H    1.517737
    14  H    1.517737
    15  H    1.604668
    16  H    0.813360
 Sum of Mulliken charges =   0.00000

 Dipole moment (field-independent basis, Debye):
    X=             -0.0000    Y=             -0.0000    Z=             -2.1738  Tot=              2.1738

 Test job not archived.
 1\1\GINC-SE170\SP\RHF\Aug-CC-pVDZ\C7H6N2S1\OHZDE\06-Apr-2025\0\\#t hf
 aug-cc-pvdz iop(5/13=1,5/36=2,99/5=2) pseudo=read geom=check guess=(re
 ad,tcheck) scf=(maxcycle=1)\\title\\0,1\N,0,0.,1.086138,0.759003\C,0,0
 .,0.,1.598098\S,0,0.,0.,3.259399\C,0,0.,0.701967,-0.5735\C,0,0.,1.4223
 52,-1.756178\C,0,0.,0.697607,-2.946432\C,0,0.,-0.697607,-2.946432\C,0,
 0.,-1.422352,-1.756178\C,0,0.,-0.701967,-0.5735\N,0,0.,-1.086138,0.759
 003\H,0,0.,2.023318,1.120645\H,0,0.,2.503243,-1.758725\H,0,0.,1.228712
 ,-3.887766\H,0,0.,-1.228712,-3.887766\H,0,0.,-2.503243,-1.758725\H,0,0

 Normal termination of Gaussian 16 at Sun Apr  6 07:59:11 2025.
