 Gaussian 16, Revision C.01,

 ----------------------------------------------------------------------
 #t hf aug-cc-pvdz symm=none int=(grid=ultrafine) guess=(read,tcheck) s
 table=(opt,rrhf)
 ----------------------------------------------------------------------
 -----
 title
 -----
 Symbolic Z-matrix:
 Charge =  0 Multiplicity = 1

 SCF Done:  E(RHF) =  -260.649489093     A.U. after   13 cycles
 Normal termination of Gaussian 16 at Sun Apr  6 07:57:55 2025.
 Gaussian 16:  ES64L-G16RevC.01  3-Jul-2019

 ----------------------------------------------------------------------
 #t hf aug-cc-pvdz iop(5/13=1,5/36=2,99/5=2) pseudo=read geom=check gue
 ss=(read,tcheck) scf=(maxcycle=1)
 ----------------------------------------------------------------------
 -----
 title
 -----
 Structure from the checkpoint file:  "1-3-4-oxadiazole.chk"
 Charge =  0 Multiplicity = 1

                         Standard orientation:
 ---------------------------------------------------------------------
 Center     Atomic      Atomic             Coordinates (Angstroms)
 Number     Number       Type             X           Y           Z
 ---------------------------------------------------------------------
      1          8           0        0.000000   -0.000000    1.123780
      2          6           0        0.000000    1.052759    0.266386
      3          7           0        0.000000    0.701433   -0.967868
      4          7           0       -0.000000   -0.701433   -0.967868
      5          6           0       -0.000000   -1.052759    0.266386
      6          1           0        0.000000    2.044558    0.681643
      7          1           0       -0.000000   -2.044558    0.681643
 ---------------------------------------------------------------------

 SCF Done:  E(RHF) =  -261.768342001     A.U. after    2 cycles

 The electronic state is 1-A1.
 Alpha  occ. eigenvalues --  -21.15937 -15.77416 -15.76876 -11.48261 -11.45761
 Alpha  occ. eigenvalues --   -1.91545  -1.48465  -1.21185  -0.87394  -0.86540
 Alpha  occ. eigenvalues --   -0.75246  -0.65437  -0.59972  -0.53950  -0.41976
 Alpha  occ. eigenvalues --   -0.41475  -0.40672  -0.38786
 Alpha virt. eigenvalues --    0.03123   0.05041   0.09381   0.10078   0.10107
 Alpha virt. eigenvalues --    0.10833   0.11031   0.14349   0.15496   0.16936
 Alpha virt. eigenvalues --    0.17356   0.18020   0.19099   0.20639   0.20668

 Mulliken charges:
               1
     1  O   -2.804475
     2  C    1.498889
     3  N   -1.637790
     4  N   -1.637790
     5  C    1.498889
     6  H    1.541139
     7  H    1.541139
 Sum of Mulliken charges =   0.00000

 Dipole moment (field-independent basis, Debye):
    X=             -0.0000    Y=             -0.0000    Z=              3.2976  Tot=              3.2976

 Test job not archived.
 1\1\GINC-SE023\SP\RHF\Aug-CC-pVDZ\C2H2N2O1\OHZDE\06-Apr-2025\0\\#t hf
 aug-cc-pvdz iop(5/13=1,5/36=2,99/5=2) pseudo=read geom=check guess=(re
 ad,tcheck) scf=(maxcycle=1)\\title\\0,1\O,0,0.,0.,1.12378\C,0,0.,1.052
 759,0.266386\N,0,0.,0.701433,-0.967868\N,0,0.,-0.701433,-0.967868\C,0,
 0.,-1.052759,0.266386\H,0,0.,2.044558,0.681643\H,0,0.,-2.044558,0.6816
 43\\Version=ES64L-G16RevC.01\State=1-A1\HF=-261.768342\RMSD=7.448e-02\
 Dipole=0.,0.,1.2973569\Quadrupole=-0.3210882,3.295596,-2.9745078,0.,0.
 ,0.\PG=C02V [C2(O1),SGV(C2H2N2)]\\@

 Normal termination of Gaussian 16 at Sun Apr  6 07:57:59 2025.
