 Gaussian 16, Revision C.01,

 ----------------------------------------------------------------------
 #t hf aug-cc-pvdz symm=none int=(grid=ultrafine) guess=(read,tcheck) s
 table=(opt,rrhf)
 ----------------------------------------------------------------------
 -----
 title
 -----
 Symbolic Z-matrix:
 Charge =  0 Multiplicity = 1

 SCF Done:  E(RHF) =  -1460.02329321     A.U. after   16 cycles
 Normal termination of Gaussian 16 at Sun Apr  6 07:59:08 2025.
 Gaussian 16:  ES64L-G16RevC.01  3-Jul-2019

 ----------------------------------------------------------------------
 #t hf aug-cc-pvdz iop(5/13=1,5/36=2,99/5=2) pseudo=read geom=check gue
 ss=(read,tcheck) scf=(maxcycle=1)
 ----------------------------------------------------------------------
 -----
 title
 -----
 Structure from the checkpoint file:  "1-3-benzodithiole-2-thione.chk"
 Charge =  0 Multiplicity = 1

                         Standard orientation:
 ---------------------------------------------------------------------
 Center     Atomic      Atomic             Coordinates (Angstroms)
 Number     Number       Type             X           Y           Z
 ---------------------------------------------------------------------
      1         16           0       -0.000000    0.000000    3.335105
      2          6           0       -0.000000    0.000000    1.696705
      3         16           0       -0.000000    1.461876    0.723589
      4          6           0        0.000039    0.699784   -0.860302
      5          6           0        0.000068    1.401474   -2.063160
      6          6           0        0.000035    0.696981   -3.258264
      7          6           0       -0.000035   -0.696981   -3.258264
      8          6           0       -0.000068   -1.401474   -2.063160
      9          6           0       -0.000039   -0.699784   -0.860302
     10         16           0       -0.000000   -1.461876    0.723589
     11          1           0        0.000110    2.482729   -2.063133
     12          1           0        0.000064    1.236910   -4.194881
     13          1           0       -0.000064   -1.236910   -4.194881
     14          1           0       -0.000110   -2.482729   -2.063133
 ---------------------------------------------------------------------

 SCF Done:  E(RHF) =  -1461.95414695     A.U. after    2 cycles

 The electronic state is 1-A.
 Alpha  occ. eigenvalues --  -75.74400 -75.74196 -75.66637 -13.26604 -13.20832
 Alpha  occ. eigenvalues --  -13.18289 -13.16131 -13.14106 -13.06581 -13.06105
 Alpha  occ. eigenvalues --  -13.00968 -12.97707 -11.54038 -11.50530 -11.47984
 Alpha  occ. eigenvalues --  -11.46821 -11.44487 -11.44303 -11.39684  -8.08773
 Alpha  occ. eigenvalues --   -8.08531  -8.00767  -1.44471  -1.29622  -1.19174
 Alpha  occ. eigenvalues --   -1.15106  -1.09256  -1.04691  -0.89691  -0.86578
 Alpha  occ. eigenvalues --   -0.78393  -0.70132  -0.66808  -0.61964  -0.61030
 Alpha  occ. eigenvalues --   -0.56976  -0.54301  -0.49379  -0.47341  -0.46245
 Alpha  occ. eigenvalues --   -0.43055  -0.39363  -0.38187  -0.37687  -0.26912
 Alpha  occ. eigenvalues --   -0.21313  -0.20278
 Alpha virt. eigenvalues --    0.01799   0.04462   0.04839   0.05329   0.05350
 Alpha virt. eigenvalues --    0.06334   0.07742   0.08868   0.09318   0.09412
 Alpha virt. eigenvalues --    0.10052   0.10492   0.11908   0.12177   0.12866

 Mulliken charges:
               1
     1  S    1.220153
     2  C   -2.259993
     3  S    1.461196
     4  C    0.905704
     5  C   -2.925677
     6  C   -2.159393
     7  C   -2.159393
     8  C   -2.925677
     9  C    0.905704
    10  S    1.461196
    11  H    1.695716
    12  H    1.542373
    13  H    1.542373
    14  H    1.695716
 Sum of Mulliken charges =  -0.00000

 Dipole moment (field-independent basis, Debye):
    X=             -0.0000    Y=             -0.0000    Z=             -0.9464  Tot=              0.9464

 Test job not archived.
 1\1\GINC-SE136\SP\RHF\Aug-CC-pVDZ\C7H4S3\OHZDE\06-Apr-2025\0\\#t hf au
 g-cc-pvdz iop(5/13=1,5/36=2,99/5=2) pseudo=read geom=check guess=(read
 ,tcheck) scf=(maxcycle=1)\\title\\0,1\S,0,0.,0.,3.335105\C,0,0.,0.,1.6
 96705\S,0,0.,1.461876,0.723589\C,0,0.000039,0.699784,-0.860302\C,0,0.0
 00068,1.401474,-2.06316\C,0,0.000035,0.696981,-3.258264\C,0,-0.000035,
 -0.696981,-3.258264\C,0,-0.000068,-1.401474,-2.06316\C,0,-0.000039,-0.
 699784,-0.860302\S,0,0.,-1.461876,0.723589\H,0,0.00011,2.482729,-2.063
 133\H,0,0.000064,1.23691,-4.194881\H,0,-0.000064,-1.23691,-4.194881\H,

 Normal termination of Gaussian 16 at Sun Apr  6 07:59:14 2025.
