 Gaussian 16, Revision C.01,

 ----------------------------------------------------------------------
 #t hf aug-cc-pvdz symm=none int=(grid=ultrafine) guess=(read,tcheck) s
 table=(opt,rrhf)
 ----------------------------------------------------------------------
 -----
 title
 -----
 Symbolic Z-matrix:
 Charge =  0 Multiplicity = 1

 SCF Done:  E(RHF) =  -406.463809692     A.U. after   15 cycles
 Normal termination of Gaussian 16 at Sun Apr  6 07:58:03 2025.
 Gaussian 16:  ES64L-G16RevC.01  3-Jul-2019

 ----------------------------------------------------------------------
 #t hf aug-cc-pvdz iop(5/13=1,5/36=2,99/5=2) pseudo=read geom=check gue
 ss=(read,tcheck) scf=(maxcycle=1)
 ----------------------------------------------------------------------
 -----
 title
 -----
 Structure from the checkpoint file:  "1-3-difluoropyrrole.chk"
 Charge =  0 Multiplicity = 1

                         Standard orientation:
 ---------------------------------------------------------------------
 Center     Atomic      Atomic             Coordinates (Angstroms)
 Number     Number       Type             X           Y           Z
 ---------------------------------------------------------------------
      1          9           0        2.330214   -0.536042    0.000001
      2          9           0       -2.393334   -0.522974   -0.000003
      3          7           0        1.036400   -0.102187   -0.000000
      4          6           0       -1.116301   -0.113298   -0.000000
      5          6           0       -0.028009   -0.957326   -0.000003
      6          6           0        0.691209    1.205519    0.000003
      7          6           0       -0.693561    1.228172    0.000003
      8          1           0        0.078795   -2.024555   -0.000006
      9          1           0        1.428370    1.986186    0.000006
     10          1           0       -1.313902    2.106420    0.000004
 ---------------------------------------------------------------------

 SCF Done:  E(RHF) =  -408.106367616     A.U. after    2 cycles

 The electronic state is 1-A.
 Alpha  occ. eigenvalues --  -29.33210 -29.28877 -15.85677 -11.50431 -11.45658
 Alpha  occ. eigenvalues --  -11.42890 -11.39453  -1.59263  -1.23870  -1.10776
 Alpha  occ. eigenvalues --   -0.94949  -0.87423  -0.79835  -0.66886  -0.65528
 Alpha  occ. eigenvalues --   -0.61762  -0.58221  -0.57080  -0.48900  -0.43506
 Alpha  occ. eigenvalues --   -0.39335  -0.35649  -0.31473  -0.28067  -0.26803
 Alpha  occ. eigenvalues --   -0.19668
 Alpha virt. eigenvalues --    0.03916   0.05281   0.05943   0.09513   0.09870
 Alpha virt. eigenvalues --    0.10880   0.12152   0.12787   0.13197   0.13901
 Alpha virt. eigenvalues --    0.14688   0.15176   0.15338   0.15928   0.16941

 Mulliken charges:
               1
     1  F   -0.155391
     2  F    0.957636
     3  N   -1.797325
     4  C    1.628837
     5  C   -1.892427
     6  C   -0.555451
     7  C   -2.073867
     8  H    1.253769
     9  H    1.219987
    10  H    1.414232
 Sum of Mulliken charges =   0.00000

 Dipole moment (field-independent basis, Debye):
    X=              0.8433    Y=             -0.9219    Z=             -0.0000  Tot=              1.2495

 Test job not archived.
 1\1\GINC-SE169\SP\RHF\Aug-CC-pVDZ\C4H3F2N1\OHZDE\06-Apr-2025\0\\#t hf
 aug-cc-pvdz iop(5/13=1,5/36=2,99/5=2) pseudo=read geom=check guess=(re
 ad,tcheck) scf=(maxcycle=1)\\title\\0,1\F,0,2.330214,-0.536042,0.00000
 1\F,0,-2.393334,-0.522974,-0.000003\N,0,1.0364,-0.102187,0.\C,0,-1.116
 301,-0.113298,0.\C,0,-0.028009,-0.957326,-0.000003\C,0,0.691209,1.2055
 19,0.000003\C,0,-0.693561,1.228172,0.000003\H,0,0.078795,-2.024555,-0.
 000006\H,0,1.42837,1.986186,0.000006\H,0,-1.313902,2.10642,0.000004\\V
 ersion=ES64L-G16RevC.01\State=1-A\HF=-408.1063676\RMSD=8.561e-01\Dipol

 Normal termination of Gaussian 16 at Sun Apr  6 07:58:06 2025.
