 Gaussian 16, Revision C.01,

 ----------------------------------------------------------------------
 #t hf aug-cc-pvdz symm=none int=(grid=ultrafine) guess=(read,tcheck) s
 table=(opt,rrhf)
 ----------------------------------------------------------------------
 -----
 title
 -----
 Symbolic Z-matrix:
 Charge =  0 Multiplicity = 1

 SCF Done:  E(RHF) =  -1075.17163146     A.U. after   13 cycles

 1\1\GINC-SE012\Stability\RHF\Aug-CC-pVDZ\C4H8Cl2\OHZDE\06-Apr-2025\0\\
 #t hf aug-cc-pvdz symm=none int=(grid=ultrafine) guess=(read,tcheck) s
 table=(opt,rrhf)\\title\\0,1\C,0,-2.173897,1.524699,-0.102751\H,0,-2.2
 10085,1.552101,-1.1915\H,0,-3.180147,1.347902,0.271737\H,0,-1.838899,2
 .500384,0.255787\C,0,-1.216511,0.451803,0.380282\H,0,-1.22285,0.398251
 ,1.467431\Cl,0,-1.855348,-1.193546,-0.136424\C,0,0.204566,0.645728,-0.
 1355\H,0,0.51627,1.656393,0.140769\H,0,0.207952,0.595476,-1.225135\C,0
 ,1.199715,-0.350388,0.431283\H,0,1.239358,-0.310969,1.516948\H,0,0.984

 Normal termination of Gaussian 16 at Sun Apr  6 07:58:24 2025.
 Gaussian 16:  ES64L-G16RevC.01  3-Jul-2019

 ----------------------------------------------------------------------
 #t hf aug-cc-pvdz iop(5/13=1,5/36=2,99/5=2) pseudo=read geom=check gue
 ss=(read,tcheck) scf=(maxcycle=1)
 ----------------------------------------------------------------------
 -----
 title
 -----
 Structure from the checkpoint file:  "1-3-dichlorobutane.chk"
 Charge =  0 Multiplicity = 1

                         Standard orientation:
 ---------------------------------------------------------------------
 Center     Atomic      Atomic             Coordinates (Angstroms)
 Number     Number       Type             X           Y           Z
 ---------------------------------------------------------------------
      1          6           0       -2.173897    1.524699   -0.102751
      2          1           0       -2.210085    1.552101   -1.191500
      3          1           0       -3.180147    1.347902    0.271737
      4          1           0       -1.838899    2.500384    0.255787
      5          6           0       -1.216511    0.451803    0.380282
      6          1           0       -1.222850    0.398251    1.467431
      7         17           0       -1.855348   -1.193546   -0.136424
      8          6           0        0.204566    0.645728   -0.135500
      9          1           0        0.516270    1.656393    0.140769
     10          1           0        0.207952    0.595476   -1.225135
     11          6           0        1.199715   -0.350388    0.431283
     12          1           0        1.239358   -0.310969    1.516948
     13          1           0        0.984119   -1.365316    0.116205
     14         17           0        2.880115    0.016766   -0.145466
 ---------------------------------------------------------------------

 SCF Done:  E(RHF) =  -1076.47185385     A.U. after    2 cycles

 The electronic state is 1-A.
 Alpha  occ. eigenvalues --  -99.87816 -99.87812 -11.48019 -11.45726 -11.41263
 Alpha  occ. eigenvalues --  -11.38860 -10.45087 -10.45057  -9.65042  -9.64991
 Alpha  occ. eigenvalues --   -9.64432  -9.64255  -9.64246  -9.64174  -1.37938
 Alpha  occ. eigenvalues --   -1.31100  -1.18350  -1.08368  -0.94142  -0.85974
 Alpha  occ. eigenvalues --   -0.70394  -0.65317  -0.64455  -0.62148  -0.57290
 Alpha  occ. eigenvalues --   -0.55308  -0.54227  -0.52174  -0.50809  -0.48827
 Alpha  occ. eigenvalues --   -0.47247  -0.46826  -0.43928
 Alpha virt. eigenvalues --    0.03372   0.04854   0.05245   0.06067   0.06428
 Alpha virt. eigenvalues --    0.06629   0.06777   0.07695   0.08340   0.09148
 Alpha virt. eigenvalues --    0.10632   0.12162   0.12839   0.13502   0.14723

 Mulliken charges:
               1
     1  C   -3.478091
     2  H    1.291858
     3  H    1.181677
     4  H    1.259389
     5  C   -2.535351
     6  H    1.814119
     7  Cl  -0.001189
     8  C   -1.590156
     9  H    1.550881
    10  H    1.494524
    11  C   -4.105299
    12  H    1.533152
    13  H    1.555887
    14  Cl   0.028599
 Sum of Mulliken charges =  -0.00000

 Dipole moment (field-independent basis, Debye):
    X=             -1.5808    Y=              2.0824    Z=              1.2057  Tot=              2.8791

 Test job not archived.
 1\1\GINC-SE012\SP\RHF\Aug-CC-pVDZ\C4H8Cl2\OHZDE\06-Apr-2025\0\\#t hf a
 ug-cc-pvdz iop(5/13=1,5/36=2,99/5=2) pseudo=read geom=check guess=(rea
 d,tcheck) scf=(maxcycle=1)\\title\\0,1\C,0,-2.173897,1.524699,-0.10275
 1\H,0,-2.210085,1.552101,-1.1915\H,0,-3.180147,1.347902,0.271737\H,0,-
 1.838899,2.500384,0.255787\C,0,-1.216511,0.451803,0.380282\H,0,-1.2228
 5,0.398251,1.467431\Cl,0,-1.855348,-1.193546,-0.136424\C,0,0.204566,0.
 645728,-0.1355\H,0,0.51627,1.656393,0.140769\H,0,0.207952,0.595476,-1.
 225135\C,0,1.199715,-0.350388,0.431283\H,0,1.239358,-0.310969,1.516948

 Normal termination of Gaussian 16 at Sun Apr  6 07:58:29 2025.
