 Gaussian 16, Revision C.01,

 ----------------------------------------------------------------------
 #t hf aug-cc-pvdz symm=none int=(grid=ultrafine) guess=(read,tcheck) s
 table=(opt,rrhf)
 ----------------------------------------------------------------------
 -----
 title
 -----
 Symbolic Z-matrix:
 Charge =  0 Multiplicity = 1

 SCF Done:  E(RHF) =  -299.746646892     A.U. after   13 cycles
 Normal termination of Gaussian 16 at Sun Apr  6 07:58:00 2025.
 Gaussian 16:  ES64L-G16RevC.01  3-Jul-2019

 ----------------------------------------------------------------------
 #t hf aug-cc-pvdz iop(5/13=1,5/36=2,99/5=2) pseudo=read geom=check gue
 ss=(read,tcheck) scf=(maxcycle=1)
 ----------------------------------------------------------------------
 -----
 title
 -----
 Structure from the checkpoint file:  "1-3-dihydro-2H-imidazol-2-one.chk"
 Charge =  0 Multiplicity = 1

                         Standard orientation:
 ---------------------------------------------------------------------
 Center     Atomic      Atomic             Coordinates (Angstroms)
 Number     Number       Type             X           Y           Z
 ---------------------------------------------------------------------
      1          6           0        0.000000    0.672790   -1.380599
      2          6           0       -0.000000   -0.672790   -1.380599
      3          6           0        0.000000    0.000000    0.812326
      4          7           0        0.000000    1.085426   -0.051191
      5          7           0       -0.000000   -1.085426   -0.051191
      6          8           0        0.000000    0.000000    2.030042
      7          1           0        0.000000    1.365081   -2.201042
      8          1           0       -0.000000   -1.365081   -2.201042
      9          1           0        0.000000    2.030184    0.285825
     10          1           0       -0.000000   -2.030184    0.285825
 ---------------------------------------------------------------------

 SCF Done:  E(RHF) =  -301.069046293     A.U. after    2 cycles

 The electronic state is 1-A1.
 Alpha  occ. eigenvalues --  -21.01116 -15.78332 -15.78254 -11.49446 -11.46569
 Alpha  occ. eigenvalues --  -11.40379  -1.70860  -1.53117  -1.31237  -1.07985
 Alpha  occ. eigenvalues --   -0.87832  -0.86005  -0.72088  -0.63363  -0.63001
 Alpha  occ. eigenvalues --   -0.59227  -0.57067  -0.49008  -0.42228  -0.41975
 Alpha  occ. eigenvalues --   -0.29053  -0.23986
 Alpha virt. eigenvalues --    0.03012   0.04562   0.05410   0.06277   0.10584
 Alpha virt. eigenvalues --    0.10729   0.11304   0.11430   0.12209   0.13547
 Alpha virt. eigenvalues --    0.14195   0.14740   0.14752   0.16246   0.18632

 Mulliken charges:
               1
     1  C    0.102753
     2  C    0.102753
     3  C    4.760761
     4  N   -2.892988
     5  N   -2.892988
     6  O   -3.069238
     7  H    1.202308
     8  H    1.202308
     9  H    0.742166
    10  H    0.742166
 Sum of Mulliken charges =   0.00000

 Dipole moment (field-independent basis, Debye):
    X=              0.0000    Y=             -0.0000    Z=             -3.0891  Tot=              3.0891

 Test job not archived.
 1\1\GINC-SE084\SP\RHF\Aug-CC-pVDZ\C3H4N2O1\OHZDE\06-Apr-2025\0\\#t hf
 aug-cc-pvdz iop(5/13=1,5/36=2,99/5=2) pseudo=read geom=check guess=(re
 ad,tcheck) scf=(maxcycle=1)\\title\\0,1\C,0,0.,0.67279,-1.380599\C,0,0
 .,-0.67279,-1.380599\C,0,0.,0.,0.812326\N,0,0.,1.085426,-0.051191\N,0,
 0.,-1.085426,-0.051191\O,0,0.,0.,2.030042\H,0,0.,1.365081,-2.201042\H,
 0,0.,-1.365081,-2.201042\H,0,0.,2.030184,0.285825\H,0,0.,-2.030184,0.2
 85825\\Version=ES64L-G16RevC.01\State=1-A1\HF=-301.0690463\RMSD=5.765e
 -01\Dipole=0.,0.,-1.2153618\Quadrupole=-2.3412815,6.7365912,-4.3953097

 Normal termination of Gaussian 16 at Sun Apr  6 07:58:03 2025.
