 Gaussian 16, Revision C.01,

 ----------------------------------------------------------------------
 #t hf aug-cc-pvdz symm=none int=(grid=ultrafine) guess=(read,tcheck) s
 table=(opt,rrhf)
 ----------------------------------------------------------------------
 -----
 title
 -----
 Symbolic Z-matrix:
 Charge =  0 Multiplicity = 1

 SCF Done:  E(RHF) =  -1378.37372337     A.U. after   14 cycles
 Normal termination of Gaussian 16 at Sun Apr  6 07:58:05 2025.
 Gaussian 16:  ES64L-G16RevC.01  3-Jul-2019

 ----------------------------------------------------------------------
 #t hf aug-cc-pvdz iop(5/13=1,5/36=2,99/5=2) pseudo=read geom=check gue
 ss=(read,tcheck) scf=(maxcycle=1)
 ----------------------------------------------------------------------
 -----
 title
 -----
 Structure from the checkpoint file:  "1-3-4-thiadiazolidine-2-5-dithione.chk"
 Charge =  0 Multiplicity = 1

                         Standard orientation:
 ---------------------------------------------------------------------
 Center     Atomic      Atomic             Coordinates (Angstroms)
 Number     Number       Type             X           Y           Z
 ---------------------------------------------------------------------
      1          6           0        0.000000    1.290037   -0.095700
      2         16           0        0.000000    0.000000    1.123017
      3          6           0       -0.000000   -1.290037   -0.095700
      4         16           0        0.098380   -2.902976    0.183152
      5         16           0       -0.098380    2.902976    0.183152
      6          7           0        0.082142    0.693918   -1.317219
      7          7           0       -0.082142   -0.693918   -1.317219
      8          1           0       -0.281158    1.189103   -2.119842
      9          1           0        0.281158   -1.189103   -2.119842
 ---------------------------------------------------------------------

 SCF Done:  E(RHF) =  -1379.87091535     A.U. after    2 cycles

 The electronic state is 1-A.
 Alpha  occ. eigenvalues --  -75.76490 -75.67358 -75.67227 -15.86058 -15.85505
 Alpha  occ. eigenvalues --  -13.20194 -13.19622 -13.17659 -13.14668 -13.08384
 Alpha  occ. eigenvalues --  -13.00852 -13.00673 -12.98444 -12.98333 -11.53415
 Alpha  occ. eigenvalues --  -11.53056  -8.10857  -8.01539  -8.01402  -1.65543
 Alpha  occ. eigenvalues --   -1.34013  -1.27746  -1.11751  -1.10037  -0.89290
 Alpha  occ. eigenvalues --   -0.84782  -0.76570  -0.68978  -0.62014  -0.54670
 Alpha  occ. eigenvalues --   -0.50622  -0.47625  -0.45288  -0.40744  -0.25639
 Alpha  occ. eigenvalues --   -0.25443  -0.24884  -0.22352
 Alpha virt. eigenvalues --    0.01606   0.04522   0.05770   0.06138   0.07175
 Alpha virt. eigenvalues --    0.07566   0.07692   0.09460   0.10092   0.12059
 Alpha virt. eigenvalues --    0.13371   0.14474   0.14742   0.15135   0.16101

 Mulliken charges:
               1
     1  C   -1.190198
     2  S    1.854399
     3  C   -1.190198
     4  S    1.556324
     5  S    1.556324
     6  N   -2.152137
     7  N   -2.152137
     8  H    0.858811
     9  H    0.858811
 Sum of Mulliken charges =  -0.00000

 Dipole moment (field-independent basis, Debye):
    X=              0.0000    Y=              0.0000    Z=              0.2312  Tot=              0.2312

 Test job not archived.
 1\1\GINC-SE028\SP\RHF\Aug-CC-pVDZ\C2H2N2S3\OHZDE\06-Apr-2025\0\\#t hf
 aug-cc-pvdz iop(5/13=1,5/36=2,99/5=2) pseudo=read geom=check guess=(re
 ad,tcheck) scf=(maxcycle=1)\\title\\0,1\C,0,0.,1.290037,-0.0957\S,0,0.
 ,0.,1.123017\C,0,0.,-1.290037,-0.0957\S,0,0.09838,-2.902976,0.183152\S
 ,0,-0.09838,2.902976,0.183152\N,0,0.082142,0.693918,-1.317219\N,0,-0.0
 82142,-0.693918,-1.317219\H,0,-0.281158,1.189103,-2.119842\H,0,0.28115
 8,-1.189103,-2.119842\\Version=ES64L-G16RevC.01\State=1-A\HF=-1379.870
 9154\RMSD=1.643e-01\Dipole=0.,0.,0.0909766\Quadrupole=-5.3354201,1.668

 Normal termination of Gaussian 16 at Sun Apr  6 07:58:08 2025.
