 Gaussian 16, Revision C.01,

 ----------------------------------------------------------------------
 #t hf aug-cc-pvdz symm=none int=(grid=ultrafine) guess=(read,tcheck) s
 table=(opt,rrhf)
 ----------------------------------------------------------------------
 -----
 title
 -----
 Symbolic Z-matrix:
 Charge =  0 Multiplicity = 1

 SCF Done:  E(RHF) =  -966.053602612     A.U. after   15 cycles
 Normal termination of Gaussian 16 at Sun Apr  6 07:58:36 2025.
 Gaussian 16:  ES64L-G16RevC.01  3-Jul-2019

 ----------------------------------------------------------------------
 #t hf aug-cc-pvdz iop(5/13=1,5/36=2,99/5=2) pseudo=read geom=check gue
 ss=(read,tcheck) scf=(maxcycle=1)
 ----------------------------------------------------------------------
 -----
 title
 -----
 Structure from the checkpoint file:  "1-3-thiazolidine-2-thione.chk"
 Charge =  0 Multiplicity = 1

                         Standard orientation:
 ---------------------------------------------------------------------
 Center     Atomic      Atomic             Coordinates (Angstroms)
 Number     Number       Type             X           Y           Z
 ---------------------------------------------------------------------
      1         16           0        2.227257    0.061467    0.015437
      2          6           0        0.580287    0.139250    0.025344
      3          7           0       -0.170607    1.260373    0.108482
      4          6           0       -1.590238    1.151842   -0.196876
      5          6           0       -1.989229   -0.260741    0.225693
      6         16           0       -0.486681   -1.273692   -0.086772
      7          1           0        0.312643    2.142650    0.044203
      8          1           0       -1.765588    1.297506   -1.267875
      9          1           0       -2.152266    1.906954    0.352089
     10          1           0       -2.821611   -0.645528   -0.356536
     11          1           0       -2.233067   -0.310700    1.285146
 ---------------------------------------------------------------------

 SCF Done:  E(RHF) =  -967.317948235     A.U. after    2 cycles

 The electronic state is 1-A.
 Alpha  occ. eigenvalues --  -75.71267 -75.63741 -15.79395 -13.14722 -13.14276
 Alpha  occ. eigenvalues --  -13.12372 -13.04472 -12.97150 -12.94918 -11.49455
 Alpha  occ. eigenvalues --  -11.47376 -11.41948  -8.05494  -7.97916  -1.50629
 Alpha  occ. eigenvalues --   -1.20583  -1.17851  -1.03171  -0.90540  -0.81554
 Alpha  occ. eigenvalues --   -0.70616  -0.68302  -0.57915  -0.56216  -0.54962
 Alpha  occ. eigenvalues --   -0.49902  -0.43557  -0.40051  -0.29103  -0.22362
 Alpha  occ. eigenvalues --   -0.20756
 Alpha virt. eigenvalues --    0.02045   0.04347   0.04878   0.05304   0.06031
 Alpha virt. eigenvalues --    0.07417   0.08483   0.09654   0.10016   0.11285
 Alpha virt. eigenvalues --    0.12434   0.13040   0.13504   0.14884   0.16014

 Mulliken charges:
               1
     1  S    1.469681
     2  C   -0.897190
     3  N   -2.661851
     4  C   -2.344420
     5  C   -3.510054
     6  S    1.463690
     7  H    0.806803
     8  H    1.481331
     9  H    1.410107
    10  H    1.383746
    11  H    1.398158
 Sum of Mulliken charges =  -0.00000

 Dipole moment (field-independent basis, Debye):
    X=             -2.4009    Y=             -0.2406    Z=             -0.2318  Tot=              2.4240

 Test job not archived.
 1\1\GINC-SE155\SP\RHF\Aug-CC-pVDZ\C3H5N1S2\OHZDE\06-Apr-2025\0\\#t hf
 aug-cc-pvdz iop(5/13=1,5/36=2,99/5=2) pseudo=read geom=check guess=(re
 ad,tcheck) scf=(maxcycle=1)\\title\\0,1\S,0,2.227257,0.061467,0.015437
 \C,0,0.580287,0.13925,0.025344\N,0,-0.170607,1.260373,0.108482\C,0,-1.
 590238,1.151842,-0.196876\C,0,-1.989229,-0.260741,0.225693\S,0,-0.4866
 81,-1.273692,-0.086772\H,0,0.312643,2.14265,0.044203\H,0,-1.765588,1.2
 97506,-1.267875\H,0,-2.152266,1.906954,0.352089\H,0,-2.821611,-0.64552
 8,-0.356536\H,0,-2.233067,-0.3107,1.285146\\Version=ES64L-G16RevC.01\S

 Normal termination of Gaussian 16 at Sun Apr  6 07:58:41 2025.
