 Gaussian 16, Revision C.01,

 ----------------------------------------------------------------------
 #t hf aug-cc-pvdz symm=none int=(grid=ultrafine) guess=(read,tcheck) s
 table=(opt,rrhf)
 ----------------------------------------------------------------------
 -----
 title
 -----
 Symbolic Z-matrix:
 Charge =  0 Multiplicity = 1

 SCF Done:  E(RHF) =  -398.517017966     A.U. after   15 cycles
 Normal termination of Gaussian 16 at Sun Apr  6 07:59:23 2025.
 Gaussian 16:  ES64L-G16RevC.01  3-Jul-2019

 ----------------------------------------------------------------------
 #t hf aug-cc-pvdz iop(5/13=1,5/36=2,99/5=2) pseudo=read geom=check gue
 ss=(read,tcheck) scf=(maxcycle=1)
 ----------------------------------------------------------------------
 -----
 title
 -----
 Structure from the checkpoint file:  "1-3-pyridinylethanone.chk"
 Charge =  0 Multiplicity = 1

                         Standard orientation:
 ---------------------------------------------------------------------
 Center     Atomic      Atomic             Coordinates (Angstroms)
 Number     Number       Type             X           Y           Z
 ---------------------------------------------------------------------
      1          6           0        1.696862   -1.488657    0.000000
      2          6           0        1.351488   -0.149893    0.000000
      3          6           0        0.678556   -2.438597    0.000000
      4          6           0       -0.937596   -0.833228    0.000000
      5          6           0        0.000000    0.201553    0.000000
      6          6           0       -0.380417    1.650164    0.000000
      7          6           0       -1.846582    2.020735    0.000000
      8          7           0       -0.617070   -2.126889    0.000000
      9          8           0        0.479636    2.507928    0.000000
     10          1           0        2.731892   -1.800786    0.000000
     11          1           0        2.096554    0.633302    0.000000
     12          1           0        0.915031   -3.496491    0.000000
     13          1           0       -1.998650   -0.616442    0.000000
     14          1           0       -2.350642    1.614766    0.878826
     15          1           0       -2.350642    1.614766   -0.878826
     16          1           0       -1.935005    3.103218    0.000000
 ---------------------------------------------------------------------

 SCF Done:  E(RHF) =  -400.345295661     A.U. after    2 cycles

 The electronic state is 1-A'.
 Alpha  occ. eigenvalues --  -21.05365 -15.74954 -11.51342 -11.49351 -11.46893
 Alpha  occ. eigenvalues --  -11.45291 -11.42673 -11.40407 -11.39138  -1.71534
 Alpha  occ. eigenvalues --   -1.46134  -1.21440  -1.15691  -1.09004  -0.93035
 Alpha  occ. eigenvalues --   -0.90343  -0.78735  -0.73670  -0.65176  -0.62752
 Alpha  occ. eigenvalues --   -0.62270  -0.60793  -0.56548  -0.55546  -0.55340
 Alpha  occ. eigenvalues --   -0.49938  -0.47795  -0.45203  -0.37404  -0.37174
 Alpha  occ. eigenvalues --   -0.34010  -0.29108
 Alpha virt. eigenvalues --    0.02870   0.05118   0.05462   0.05684   0.06269
 Alpha virt. eigenvalues --    0.06943   0.07641   0.08077   0.08168   0.10518
 Alpha virt. eigenvalues --    0.10580   0.11730   0.12280   0.12814   0.12978

 Mulliken charges:
               1
     1  C   -0.832994
     2  C   -2.288395
     3  C   -1.967425
     4  C   -0.270486
     5  C    3.600165
     6  C    4.544910
     7  C   -5.258471
     8  N   -3.796615
     9  O   -3.823850
    10  H    1.349635
    11  H    1.855210
    12  H    1.511205
    13  H    1.635776
    14  H    1.283771
    15  H    1.283771
    16  H    1.173791
 Sum of Mulliken charges =   0.00000

 Dipole moment (field-independent basis, Debye):
    X=              0.6062    Y=             -0.0303    Z=             -0.0000  Tot=              0.6069

 Test job not archived.
 1\1\GINC-SE050\SP\RHF\Aug-CC-pVDZ\C7H7N1O1\OHZDE\06-Apr-2025\0\\#t hf
 aug-cc-pvdz iop(5/13=1,5/36=2,99/5=2) pseudo=read geom=check guess=(re
 ad,tcheck) scf=(maxcycle=1)\\title\\0,1\C,0,1.696861,-1.488658,0.\C,0,
 1.351488,-0.149893,0.\C,0,0.678555,-2.438597,0.\C,0,-0.937596,-0.83322
 8,0.\C,0,0.,0.201553,0.\C,0,-0.380417,1.650164,0.\C,0,-1.846581,2.0207
 36,0.\N,0,-0.617071,-2.126889,0.\O,0,0.479637,2.507928,0.\H,0,2.731891
 ,-1.800787,0.\H,0,2.096554,0.633301,0.\H,0,0.91503,-3.496491,0.\H,0,-1
 .99865,-0.616441,0.\H,0,-2.350642,1.614767,0.878826\H,0,-2.350642,1.61

 Normal termination of Gaussian 16 at Sun Apr  6 07:59:31 2025.
