 Gaussian 16, Revision C.01,

 ----------------------------------------------------------------------
 #t hf aug-cc-pvdz symm=none int=(grid=ultrafine) guess=(read,tcheck) s
 table=(opt,rrhf)
 ----------------------------------------------------------------------
 -----
 title
 -----
 Symbolic Z-matrix:
 Charge =  0 Multiplicity = 1

 SCF Done:  E(RHF) =  -307.055797670     A.U. after   12 cycles

 1\1\GINC-SE165\Stability\RHF\Aug-CC-pVDZ\C4H10O2\OHZDE\06-Apr-2025\0\\
 #t hf aug-cc-pvdz symm=none int=(grid=ultrafine) guess=(read,tcheck) s
 table=(opt,rrhf)\\title\\0,1\O,0,1.184971,1.32915,-0.264204\H,0,2.0363
 45,1.691201,-0.001541\O,0,-2.681176,-0.346785,-0.16665\H,0,-3.437773,0
 .227118,-0.020588\C,0,2.195242,-0.882182,-0.037797\H,0,2.250223,-1.017
 985,-1.118621\H,0,3.142448,-0.457668,0.302556\H,0,2.084428,-1.861246,0
 .43082\C,0,1.029926,0.029059,0.326369\H,0,0.993181,0.139993,1.41855\C,
 0,-0.30585,-0.521316,-0.15342\H,0,-0.443749,-1.5233,0.259028\H,0,-0.28

 Normal termination of Gaussian 16 at Sun Apr  6 07:58:10 2025.
 Gaussian 16:  ES64L-G16RevC.01  3-Jul-2019

 ----------------------------------------------------------------------
 #t hf aug-cc-pvdz iop(5/13=1,5/36=2,99/5=2) pseudo=read geom=check gue
 ss=(read,tcheck) scf=(maxcycle=1)
 ----------------------------------------------------------------------
 -----
 title
 -----
 Structure from the checkpoint file:  "1-3-butanediol.chk"
 Charge =  0 Multiplicity = 1

                         Standard orientation:
 ---------------------------------------------------------------------
 Center     Atomic      Atomic             Coordinates (Angstroms)
 Number     Number       Type             X           Y           Z
 ---------------------------------------------------------------------
      1          8           0        1.184971    1.329150   -0.264204
      2          1           0        2.036345    1.691201   -0.001541
      3          8           0       -2.681176   -0.346785   -0.166650
      4          1           0       -3.437773    0.227118   -0.020588
      5          6           0        2.195242   -0.882182   -0.037797
      6          1           0        2.250223   -1.017985   -1.118621
      7          1           0        3.142448   -0.457668    0.302556
      8          1           0        2.084428   -1.861246    0.430820
      9          6           0        1.029926    0.029059    0.326369
     10          1           0        0.993181    0.139993    1.418550
     11          6           0       -0.305850   -0.521316   -0.153420
     12          1           0       -0.443749   -1.523300    0.259028
     13          1           0       -0.284509   -0.618015   -1.241427
     14          6           0       -1.493637    0.335082    0.248850
     15          1           0       -1.499349    0.479259    1.336354
     16          1           0       -1.425692    1.317864   -0.222316
 ---------------------------------------------------------------------

 SCF Done:  E(RHF) =  -308.478529873     A.U. after    2 cycles

 The electronic state is 1-A.
 Alpha  occ. eigenvalues --  -21.06270 -21.05897 -11.44741 -11.42865 -11.38978
 Alpha  occ. eigenvalues --  -11.35437  -1.71678  -1.68707  -1.18552  -1.05602
 Alpha  occ. eigenvalues --   -0.89973  -0.81946  -0.68416  -0.63117  -0.60973
 Alpha  occ. eigenvalues --   -0.58982  -0.57363  -0.52666  -0.49315  -0.48011
 Alpha  occ. eigenvalues --   -0.43851  -0.40913  -0.38815  -0.32090  -0.30840
 Alpha virt. eigenvalues --    0.03993   0.05111   0.05297   0.05733   0.05837
 Alpha virt. eigenvalues --    0.06051   0.07060   0.07265   0.08547   0.09360
 Alpha virt. eigenvalues --    0.11098   0.13261   0.13742   0.15285   0.16118

 Mulliken charges:
               1
     1  O   -2.953475
     2  H    0.765673
     3  O   -2.816145
     4  H    0.818131
     5  C   -3.709981
     6  H    1.206916
     7  H    1.108623
     8  H    1.241884
     9  C    1.009252
    10  H    1.669435
    11  C   -3.238784
    12  H    1.430262
    13  H    1.462121
    14  C   -0.905925
    15  H    1.421954
    16  H    1.490058
 Sum of Mulliken charges =  -0.00000

 Dipole moment (field-independent basis, Debye):
    X=              0.5490    Y=              0.4228    Z=              0.6219  Tot=              0.9311

 Test job not archived.
 1\1\GINC-SE165\SP\RHF\Aug-CC-pVDZ\C4H10O2\OHZDE\06-Apr-2025\0\\#t hf a
 ug-cc-pvdz iop(5/13=1,5/36=2,99/5=2) pseudo=read geom=check guess=(rea
 d,tcheck) scf=(maxcycle=1)\\title\\0,1\O,0,1.184971,1.32915,-0.264204\
 H,0,2.036345,1.691201,-0.001541\O,0,-2.681176,-0.346785,-0.16665\H,0,-
 3.437773,0.227118,-0.020588\C,0,2.195242,-0.882182,-0.037797\H,0,2.250
 223,-1.017985,-1.118621\H,0,3.142448,-0.457668,0.302556\H,0,2.084428,-
 1.861246,0.43082\C,0,1.029926,0.029059,0.326369\H,0,0.993181,0.139993,
 1.41855\C,0,-0.30585,-0.521316,-0.15342\H,0,-0.443749,-1.5233,0.259028

 Normal termination of Gaussian 16 at Sun Apr  6 07:58:15 2025.
