 Gaussian 16, Revision C.01,

 ----------------------------------------------------------------------
 #t hf aug-cc-pvdz symm=none int=(grid=ultrafine) guess=(read,tcheck) s
 table=(opt,rrhf)
 ----------------------------------------------------------------------
 -----
 title
 -----
 Symbolic Z-matrix:
 Charge =  0 Multiplicity = 1

 SCF Done:  E(RHF) =  -702.810429407     A.U. after   13 cycles
 Normal termination of Gaussian 16 at Sun Apr  6 07:59:04 2025.
 Gaussian 16:  ES64L-G16RevC.01  3-Jul-2019

 ----------------------------------------------------------------------
 #t hf aug-cc-pvdz iop(5/13=1,5/36=2,99/5=2) pseudo=read geom=check gue
 ss=(read,tcheck) scf=(maxcycle=1)
 ----------------------------------------------------------------------
 -----
 title
 -----
 Structure from the checkpoint file:  "1-3-diethylthiourea.chk"
 Charge =  0 Multiplicity = 1

                         Standard orientation:
 ---------------------------------------------------------------------
 Center     Atomic      Atomic             Coordinates (Angstroms)
 Number     Number       Type             X           Y           Z
 ---------------------------------------------------------------------
      1          6           0       -0.000000   -0.000000   -0.140930
      2         16           0        0.000000    0.000000    1.541614
      3          7           0       -0.517952   -1.016530   -0.880814
      4          7           0        0.517952    1.016530   -0.880814
      5          6           0       -1.052435   -2.261346   -0.344065
      6          6           0        1.052435    2.261346   -0.344065
      7          1           0        1.838995    2.593560   -1.024235
      8          1           0        1.512770    2.026931    0.612762
      9          6           0       -0.000000    3.353187   -0.170351
     10          1           0       -1.838995   -2.593560   -1.024235
     11          1           0       -1.512770   -2.026931    0.612762
     12          6           0       -0.000000   -3.353187   -0.170351
     13          1           0        0.475134   -3.601948   -1.121155
     14          1           0       -0.461950   -4.260562    0.222206
     15          1           0        0.769069   -3.029798    0.529468
     16          1           0        0.461950    4.260562    0.222206
     17          1           0       -0.769069    3.029798    0.529468
     18          1           0       -0.475134    3.601948   -1.121155
     19          1           0       -0.367821   -0.990573   -1.876978
     20          1           0        0.367821    0.990573   -1.876978
 ---------------------------------------------------------------------

 SCF Done:  E(RHF) =  -704.550404328     A.U. after    2 cycles

 The electronic state is 1-A.
 Alpha  occ. eigenvalues --  -75.61147 -15.76945 -15.76896 -13.10040 -13.00799
 Alpha  occ. eigenvalues --  -12.94009 -11.49423 -11.42699 -11.42628 -11.36308
 Alpha  occ. eigenvalues --  -11.36102  -7.95316  -1.50959  -1.36307  -1.15757
 Alpha  occ. eigenvalues --   -1.08441  -1.07441  -0.92879  -0.87543  -0.79643
 Alpha  occ. eigenvalues --   -0.73683  -0.66546  -0.62672  -0.61371  -0.59428
 Alpha  occ. eigenvalues --   -0.56526  -0.55452  -0.51404  -0.49669  -0.49367
 Alpha  occ. eigenvalues --   -0.48473  -0.47023  -0.43566  -0.33466  -0.22824
 Alpha  occ. eigenvalues --   -0.20892
 Alpha virt. eigenvalues --    0.02922   0.04257   0.05041   0.05253   0.05827
 Alpha virt. eigenvalues --    0.05914   0.06556   0.06857   0.07107   0.08146
 Alpha virt. eigenvalues --    0.08835   0.09015   0.09425   0.10830   0.12507

 Mulliken charges:
               1
     1  C    2.072120
     2  S    0.863713
     3  N   -2.990068
     4  N   -2.990068
     5  C   -2.315326
     6  C   -2.315326
     7  H    1.437466
     8  H    1.762687
     9  C   -3.959680
    10  H    1.437466
    11  H    1.762687
    12  C   -3.959680
    13  H    1.411514
    14  H    1.122337
    15  H    1.337001
    16  H    1.122337
    17  H    1.337001
    18  H    1.411514
    19  H    0.726152
    20  H    0.726152
 Sum of Mulliken charges =  -0.00000

 Dipole moment (field-independent basis, Debye):
    X=             -0.0000    Y=             -0.0000    Z=             -2.3203  Tot=              2.3203

 Test job not archived.
 1\1\GINC-SE168\SP\RHF\Aug-CC-pVDZ\C5H12N2S1\OHZDE\06-Apr-2025\0\\#t hf
  aug-cc-pvdz iop(5/13=1,5/36=2,99/5=2) pseudo=read geom=check guess=(r
 ead,tcheck) scf=(maxcycle=1)\\title\\0,1\C,0,0.,0.,-0.14093\S,0,0.,0.,
 1.541614\N,0,-0.517952,-1.01653,-0.880814\N,0,0.517952,1.01653,-0.8808
 14\C,0,-1.052435,-2.261346,-0.344065\C,0,1.052435,2.261346,-0.344065\H
 ,0,1.838995,2.59356,-1.024235\H,0,1.51277,2.026931,0.612762\C,0,0.,3.3
 53187,-0.170351\H,0,-1.838995,-2.59356,-1.024235\H,0,-1.51277,-2.02693
 1,0.612762\C,0,0.,-3.353187,-0.170351\H,0,0.475134,-3.601948,-1.121155

 Normal termination of Gaussian 16 at Sun Apr  6 07:59:10 2025.
