 Gaussian 16, Revision C.01,

 ----------------------------------------------------------------------
 #t hf aug-cc-pvdz symm=none int=(grid=ultrafine) guess=(read,tcheck) s
 table=(opt,rrhf)
 ----------------------------------------------------------------------
 -----
 title
 -----
 Symbolic Z-matrix:
 Charge =  0 Multiplicity = 1

 SCF Done:  E(RHF) =  -1039.74696310     A.U. after   14 cycles
 Normal termination of Gaussian 16 at Sun Apr  6 07:58:35 2025.
 Gaussian 16:  ES64L-G16RevC.01  3-Jul-2019

 ----------------------------------------------------------------------
 #t hf aug-cc-pvdz iop(5/13=1,5/36=2,99/5=2) pseudo=read geom=check gue
 ss=(read,tcheck) scf=(maxcycle=1)
 ----------------------------------------------------------------------
 -----
 title
 -----
 Structure from the checkpoint file:  "1-3-oxazolidine-2-5-dithione.chk"
 Charge =  0 Multiplicity = 1

                         Standard orientation:
 ---------------------------------------------------------------------
 Center     Atomic      Atomic             Coordinates (Angstroms)
 Number     Number       Type             X           Y           Z
 ---------------------------------------------------------------------
      1         16           0       -2.641922   -0.576015    0.000004
      2         16           0        2.636269   -0.592371   -0.000006
      3          8           0        0.011190   -0.739778   -0.000001
      4          7           0       -0.727198    1.331855    0.000004
      5          6           0       -1.137706    0.051692    0.000002
      6          6           0        1.141741    0.018753   -0.000002
      7          6           0        0.712543    1.468811    0.000000
      8          1           0       -1.390465    2.086210    0.000006
      9          1           0        1.091158    1.983830    0.885264
     10          1           0        1.091154    1.983833   -0.885262
 ---------------------------------------------------------------------

 SCF Done:  E(RHF) =  -1041.26210374     A.U. after    2 cycles

 The electronic state is 1-A.
 Alpha  occ. eigenvalues --  -75.69095 -75.66249 -21.16188 -15.82288 -13.21685
 Alpha  occ. eigenvalues --  -13.16408 -13.02861 -13.00207 -13.00162 -12.97235
 Alpha  occ. eigenvalues --  -11.55784 -11.54218 -11.47921  -8.03345  -8.00497
 Alpha  occ. eigenvalues --   -1.90728  -1.46228  -1.25113  -1.13896  -1.04870
 Alpha  occ. eigenvalues --   -0.88684  -0.84845  -0.71716  -0.70811  -0.63009
 Alpha  occ. eigenvalues --   -0.57262  -0.53437  -0.48810  -0.48573  -0.46178
 Alpha  occ. eigenvalues --   -0.31227  -0.26283  -0.25829  -0.23189
 Alpha virt. eigenvalues --    0.01534   0.04361   0.04691   0.06255   0.06284
 Alpha virt. eigenvalues --    0.06833   0.07547   0.10846   0.11864   0.12043
 Alpha virt. eigenvalues --    0.12692   0.13239   0.13313   0.14963   0.15526

 Mulliken charges:
               1
     1  S    1.784400
     2  S    1.675943
     3  O   -3.511834
     4  N   -2.336209
     5  C    0.553639
     6  C    0.917456
     7  C   -2.700267
     8  H    0.817545
     9  H    1.399663
    10  H    1.399663
 Sum of Mulliken charges =   0.00000

 Dipole moment (field-independent basis, Debye):
    X=              0.9584    Y=              1.4018    Z=             -0.0000  Tot=              1.6982

 Test job not archived.
 1\1\GINC-SE023\SP\RHF\Aug-CC-pVDZ\C3H3N1O1S2\OHZDE\06-Apr-2025\0\\#t h
 f aug-cc-pvdz iop(5/13=1,5/36=2,99/5=2) pseudo=read geom=check guess=(
 read,tcheck) scf=(maxcycle=1)\\title\\0,1\S,0,-2.641922,-0.576015,0.00
 0004\S,0,2.636269,-0.592371,-0.000006\O,0,0.01119,-0.739778,-0.000001\
 N,0,-0.727198,1.331855,0.000004\C,0,-1.137706,0.051692,0.000002\C,0,1.
 141741,0.018753,-0.000002\C,0,0.712543,1.468811,0.\H,0,-1.390465,2.086
 21,0.000006\H,0,1.091158,1.98383,0.885264\H,0,1.091154,1.983833,-0.885
 262\\Version=ES64L-G16RevC.01\State=1-A\HF=-1041.2621037\RMSD=3.231e-0

 Normal termination of Gaussian 16 at Sun Apr  6 07:58:40 2025.
