 Gaussian 16, Revision C.01,

 ----------------------------------------------------------------------
 #t hf aug-cc-pvdz symm=none int=(grid=ultrafine) guess=(read,tcheck) s
 table=(opt,rrhf)
 ----------------------------------------------------------------------
 -----
 title
 -----
 Symbolic Z-matrix:
 Charge =  0 Multiplicity = 1

 SCF Done:  E(RHF) =  -1308.53120845     A.U. after   15 cycles
 Normal termination of Gaussian 16 at Sun Apr  6 07:58:34 2025.
 Gaussian 16:  ES64L-G16RevC.01  3-Jul-2019

 ----------------------------------------------------------------------
 #t hf aug-cc-pvdz iop(5/13=1,5/36=2,99/5=2) pseudo=read geom=check gue
 ss=(read,tcheck) scf=(maxcycle=1)
 ----------------------------------------------------------------------
 -----
 title
 -----
 Structure from the checkpoint file:  "1-3-dithiolane-2-thione.chk"
 Charge =  0 Multiplicity = 1

                         Standard orientation:
 ---------------------------------------------------------------------
 Center     Atomic      Atomic             Coordinates (Angstroms)
 Number     Number       Type             X           Y           Z
 ---------------------------------------------------------------------
      1          1           0        0.649149    1.161865   -2.677287
      2          1           0       -0.649149   -1.161865   -2.677287
      3         16           0        0.000000    0.000000    2.320077
      4          6           0        0.000000    0.000000    0.684261
      5         16           0       -0.642955   -1.323450   -0.281165
      6         16           0        0.642955    1.323450   -0.281165
      7          1           0        1.004355   -1.158971   -2.032629
      8          6           0        0.000000   -0.759876   -1.900808
      9          1           0       -1.004355    1.158971   -2.032629
     10          6           0       -0.000000    0.759876   -1.900808
 ---------------------------------------------------------------------

 SCF Done:  E(RHF) =  -1309.77286536     A.U. after    2 cycles

 The electronic state is 1-A.
 Alpha  occ. eigenvalues --  -75.72282 -75.72257 -75.66298 -13.16723 -13.15945
 Alpha  occ. eigenvalues --  -13.14479 -13.13912 -13.12299 -13.06035 -13.05048
 Alpha  occ. eigenvalues --  -12.99251 -12.97526 -11.49598 -11.46550 -11.42352
 Alpha  occ. eigenvalues --   -8.06677  -8.06305  -8.00460  -1.38121  -1.18210
 Alpha  occ. eigenvalues --   -1.14553  -1.03533  -0.89155  -0.74364  -0.68656
 Alpha  occ. eigenvalues --   -0.65104  -0.56838  -0.52051  -0.46185  -0.45893
 Alpha  occ. eigenvalues --   -0.43232  -0.36017  -0.25263  -0.22370  -0.20474
 Alpha virt. eigenvalues --    0.01662   0.04106   0.04698   0.04824   0.06451
 Alpha virt. eigenvalues --    0.07459   0.07912   0.09175   0.09861   0.11532
 Alpha virt. eigenvalues --    0.11913   0.13141   0.14088   0.14789   0.15130

 Mulliken charges:
               1
     1  H    1.358873
     2  H    1.358873
     3  S    1.541256
     4  C   -2.685309
     5  S    1.311957
     6  S    1.311957
     7  H    1.480154
     8  C   -3.578957
     9  H    1.480154
    10  C   -3.578957
 Sum of Mulliken charges =  -0.00000

 Dipole moment (field-independent basis, Debye):
    X=              0.0000    Y=              0.0000    Z=             -1.1907  Tot=              1.1907

 Test job not archived.
 1\1\GINC-SE009\SP\RHF\Aug-CC-pVDZ\C3H4S3\OHZDE\06-Apr-2025\0\\#t hf au
 g-cc-pvdz iop(5/13=1,5/36=2,99/5=2) pseudo=read geom=check guess=(read
 ,tcheck) scf=(maxcycle=1)\\title\\0,1\H,0,0.649149,1.161865,-2.677287\
 H,0,-0.649149,-1.161865,-2.677287\S,0,0.,0.,2.320077\C,0,0.,0.,0.68426
 1\S,0,-0.642955,-1.32345,-0.281165\S,0,0.642955,1.32345,-0.281165\H,0,
 1.004355,-1.158971,-2.032629\C,0,0.,-0.759876,-1.900808\H,0,-1.004355,
 1.158971,-2.032629\C,0,0.,0.759876,-1.900808\\Version=ES64L-G16RevC.01
 \State=1-A\HF=-1309.7728654\RMSD=2.115e-01\Dipole=0.,0.,-0.4684571\Qua

 Normal termination of Gaussian 16 at Sun Apr  6 07:58:37 2025.
