 Gaussian 16, Revision C.01,

 ----------------------------------------------------------------------
 #t hf aug-cc-pvdz symm=none int=(grid=ultrafine) guess=(read,tcheck) s
 table=(opt,rrhf)
 ----------------------------------------------------------------------
 -----
 title
 -----
 Symbolic Z-matrix:
 Charge =  0 Multiplicity = 1

 SCF Done:  E(RHF) =  -1307.34420842     A.U. after   14 cycles
 Normal termination of Gaussian 16 at Sun Apr  6 07:58:30 2025.
 Gaussian 16:  ES64L-G16RevC.01  3-Jul-2019

 ----------------------------------------------------------------------
 #t hf aug-cc-pvdz iop(5/13=1,5/36=2,99/5=2) pseudo=read geom=check gue
 ss=(read,tcheck) scf=(maxcycle=1)
 ----------------------------------------------------------------------
 -----
 title
 -----
 Structure from the checkpoint file:  "1-3-dithiole-2-thione.chk"
 Charge =  0 Multiplicity = 1

                         Standard orientation:
 ---------------------------------------------------------------------
 Center     Atomic      Atomic             Coordinates (Angstroms)
 Number     Number       Type             X           Y           Z
 ---------------------------------------------------------------------
      1         16           0        0.000000    0.000000    2.271299
      2          6           0        0.000000    0.000000    0.630759
      3         16           0        0.000000    1.453602   -0.360432
      4          6           0        0.000000    0.668708   -1.915944
      5          6           0       -0.000000   -0.668708   -1.915944
      6         16           0       -0.000000   -1.453602   -0.360432
      7          1           0        0.000000    1.287666   -2.800087
      8          1           0       -0.000000   -1.287666   -2.800087
 ---------------------------------------------------------------------

 SCF Done:  E(RHF) =  -1308.55187800     A.U. after    2 cycles

 The electronic state is 1-A1.
 Alpha  occ. eigenvalues --  -75.74617 -75.74321 -75.66421 -13.19848 -13.18802
 Alpha  occ. eigenvalues --  -13.15944 -13.14346 -13.12905 -13.06337 -13.06139
 Alpha  occ. eigenvalues --  -13.00154 -12.97458 -11.50295 -11.48154 -11.43174
 Alpha  occ. eigenvalues --   -8.08967  -8.08797  -8.00553  -1.40351  -1.17901
 Alpha  occ. eigenvalues --   -1.16529  -1.03536  -0.83206  -0.76656  -0.70536
 Alpha  occ. eigenvalues --   -0.53399  -0.52731  -0.49046  -0.45755  -0.41741
 Alpha  occ. eigenvalues --   -0.38252  -0.30733  -0.21251  -0.19668
 Alpha virt. eigenvalues --    0.01404   0.04331   0.05118   0.06278   0.07430
 Alpha virt. eigenvalues --    0.08769   0.08867   0.10128   0.11480   0.11569
 Alpha virt. eigenvalues --    0.13767   0.14144   0.14454   0.15205   0.15502

 Mulliken charges:
               1
     1  S    1.343836
     2  C   -2.520084
     3  S    1.714613
     4  C   -2.417475
     5  C   -2.417475
     6  S    1.714613
     7  H    1.290986
     8  H    1.290986
 Sum of Mulliken charges =   0.00000

 Dipole moment (field-independent basis, Debye):
    X=             -0.0000    Y=             -0.0000    Z=             -1.0498  Tot=              1.0498

 Test job not archived.
 1\1\GINC-SE013\SP\RHF\Aug-CC-pVDZ\C3H2S3\OHZDE\06-Apr-2025\0\\#t hf au
 g-cc-pvdz iop(5/13=1,5/36=2,99/5=2) pseudo=read geom=check guess=(read
 ,tcheck) scf=(maxcycle=1)\\title\\0,1\S,0,0.,0.,2.271299\C,0,0.,0.,0.6
 30759\S,0,0.,1.453602,-0.360432\C,0,0.,0.668708,-1.915944\C,0,0.,-0.66
 8708,-1.915944\S,0,0.,-1.453602,-0.360432\H,0,0.,1.287666,-2.800087\H,
 0,0.,-1.287666,-2.800087\\Version=ES64L-G16RevC.01\State=1-A1\HF=-1308
 .551878\RMSD=6.262e-01\Dipole=0.,0.,-0.4130146\Quadrupole=-6.136831,3.
 8584413,2.2783896,0.,0.,0.\PG=C02V [C2(C1S1),SGV(C2H2S2)]\\@

 Normal termination of Gaussian 16 at Sun Apr  6 07:58:33 2025.
