 Gaussian 16, Revision C.01,

 ----------------------------------------------------------------------
 #t hf aug-cc-pvdz symm=none int=(grid=ultrafine) guess=(read,tcheck) s
 table=(opt,rrhf)
 ----------------------------------------------------------------------
 -----
 title
 -----
 Symbolic Z-matrix:
 Charge =  0 Multiplicity = 1

 SCF Done:  E(RHF) =  -450.324303471     A.U. after   14 cycles
 Normal termination of Gaussian 16 at Sun Apr  6 07:59:05 2025.
 Gaussian 16:  ES64L-G16RevC.01  3-Jul-2019

 ----------------------------------------------------------------------
 #t hf aug-cc-pvdz iop(5/13=1,5/36=2,99/5=2) pseudo=read geom=check gue
 ss=(read,tcheck) scf=(maxcycle=1)
 ----------------------------------------------------------------------
 -----
 title
 -----
 Structure from the checkpoint file:  "1-3dioxolo4-5-dpyrimidine.chk"
 Charge =  0 Multiplicity = 1

                         Standard orientation:
 ---------------------------------------------------------------------
 Center     Atomic      Atomic             Coordinates (Angstroms)
 Number     Number       Type             X           Y           Z
 ---------------------------------------------------------------------
      1          6           0       -0.718665   -1.555127    0.000000
      2          6           0       -2.163694    0.226359    0.000000
      3          6           0        0.315607   -0.659942    0.000000
      4          6           0        0.000000    0.695721    0.000000
      5          6           0        2.228992    0.497352    0.000000
      6          7           0       -1.985417   -1.080489    0.000000
      7          7           0       -1.205174    1.183491    0.000000
      8          8           0        1.668909   -0.830309    0.000000
      9          8           0        1.140201    1.432865    0.000000
     10          1           0       -0.576225   -2.627468    0.000000
     11          1           0       -3.184942    0.584348    0.000000
     12          1           0        2.824495    0.637741    0.902050
     13          1           0        2.824495    0.637741   -0.902050
 ---------------------------------------------------------------------

 SCF Done:  E(RHF) =  -452.269642379     A.U. after    2 cycles

 The electronic state is 1-A'.
 Alpha  occ. eigenvalues --  -21.11686 -21.10934 -15.75613 -15.74646 -11.52565
 Alpha  occ. eigenvalues --  -11.49549 -11.47990 -11.44507 -11.43057  -1.92283
 Alpha  occ. eigenvalues --   -1.73382  -1.50648  -1.30998  -1.16294  -0.99284
 Alpha  occ. eigenvalues --   -0.92614  -0.90526  -0.72943  -0.71929  -0.71226
 Alpha  occ. eigenvalues --   -0.63806  -0.61134  -0.60036  -0.55873  -0.52915
 Alpha  occ. eigenvalues --   -0.48199  -0.47145  -0.43052  -0.41690  -0.36444
 Alpha  occ. eigenvalues --   -0.35407  -0.26513
 Alpha virt. eigenvalues --    0.03162   0.05070   0.05209   0.05853   0.08164
 Alpha virt. eigenvalues --    0.08696   0.10376   0.10480   0.10562   0.11950
 Alpha virt. eigenvalues --    0.12244   0.12717   0.12766   0.13546   0.14592

 Mulliken charges:
               1
     1  C   -0.936430
     2  C    0.914114
     3  C    4.813278
     4  C    4.428122
     5  C   -1.712567
     6  N   -3.161216
     7  N   -3.481150
     8  O   -3.922309
     9  O   -3.494928
    10  H    1.548449
    11  H    1.652222
    12  H    1.676207
    13  H    1.676207
 Sum of Mulliken charges =   0.00000

 Dipole moment (field-independent basis, Debye):
    X=              3.0662    Y=             -0.2622    Z=             -0.0000  Tot=              3.0774

 Test job not archived.
 1\1\GINC-SE177\SP\RHF\Aug-CC-pVDZ\C5H4N2O2\OHZDE\06-Apr-2025\0\\#t hf
 aug-cc-pvdz iop(5/13=1,5/36=2,99/5=2) pseudo=read geom=check guess=(re
 ad,tcheck) scf=(maxcycle=1)\\title\\0,1\C,0,-0.718665,-1.555127,0.\C,0
 ,-2.163694,0.226359,0.\C,0,0.315607,-0.659942,0.\C,0,0.,0.695721,0.\C,
 0,2.228992,0.497352,0.\N,0,-1.985417,-1.080489,0.\N,0,-1.205174,1.1834
 91,0.\O,0,1.668909,-0.830309,0.\O,0,1.140201,1.432865,0.\H,0,-0.576224
 ,-2.627468,0.\H,0,-3.184942,0.584348,0.\H,0,2.824495,0.637742,0.90205\
 H,0,2.824495,0.637742,-0.90205\\Version=ES64L-G16RevC.01\State=1-A'\HF

 Normal termination of Gaussian 16 at Sun Apr  6 07:59:11 2025.
