 Gaussian 16, Revision C.01,

 ----------------------------------------------------------------------
 #t hf aug-cc-pvdz symm=none int=(grid=ultrafine) guess=(read,tcheck) s
 table=(opt,rrhf)
 ----------------------------------------------------------------------
 -----
 title
 -----
 Symbolic Z-matrix:
 Charge =  0 Multiplicity = 1

 SCF Done:  E(RHF) =  -1095.65802709     A.U. after   16 cycles
 Normal termination of Gaussian 16 at Sun Apr  6 07:59:20 2025.
 Gaussian 16:  ES64L-G16RevC.01  3-Jul-2019

 ----------------------------------------------------------------------
 #t hf aug-cc-pvdz iop(5/13=1,5/36=2,99/5=2) pseudo=read geom=check gue
 ss=(read,tcheck) scf=(maxcycle=1)
 ----------------------------------------------------------------------
 -----
 title
 -----
 Structure from the checkpoint file:  "1-3dithiolo4-5-dpyrimidine.chk"
 Charge =  0 Multiplicity = 1

                         Standard orientation:
 ---------------------------------------------------------------------
 Center     Atomic      Atomic             Coordinates (Angstroms)
 Number     Number       Type             X           Y           Z
 ---------------------------------------------------------------------
      1          6           0       -1.485210    1.351731    0.043199
      2          6           0       -2.539465   -0.658119    0.027515
      3          6           0       -0.256809    0.716701   -0.007150
      4          6           0       -0.286056   -0.686804   -0.018776
      5          6           0        2.255116   -0.024472    0.324269
      6          7           0       -2.633772    0.663231    0.061234
      7          7           0       -1.410366   -1.376466   -0.006097
      8         16           0        1.321934    1.487763   -0.135275
      9         16           0        1.275421   -1.509988   -0.105022
     10          1           0       -1.560649    2.432329    0.064669
     11          1           0       -3.465024   -1.219916    0.032889
     12          1           0        3.180774   -0.038599   -0.242667
     13          1           0        2.470711   -0.019780    1.389566
 ---------------------------------------------------------------------

 SCF Done:  E(RHF) =  -1097.48179632     A.U. after    2 cycles

 The electronic state is 1-A.
 Alpha  occ. eigenvalues --  -75.71831 -75.71638 -15.75793 -15.75216 -13.22128
 Alpha  occ. eigenvalues --  -13.16465 -13.14376 -13.14050 -13.05114 -13.04385
 Alpha  occ. eigenvalues --  -11.50702 -11.48100 -11.44732 -11.44665 -11.42120
 Alpha  occ. eigenvalues --   -8.06062  -8.05797  -1.54043  -1.34089  -1.30385
 Alpha  occ. eigenvalues --   -1.15316  -1.12128  -0.96481  -0.89546  -0.88910
 Alpha  occ. eigenvalues --   -0.71576  -0.68053  -0.65206  -0.60240  -0.59137
 Alpha  occ. eigenvalues --   -0.56285  -0.51790  -0.50306  -0.44047  -0.42815
 Alpha  occ. eigenvalues --   -0.40975  -0.36885  -0.34542  -0.26637  -0.22197
 Alpha virt. eigenvalues --    0.02534   0.03376   0.05014   0.05736   0.06630
 Alpha virt. eigenvalues --    0.08183   0.08639   0.09321   0.10011   0.10389
 Alpha virt. eigenvalues --    0.11319   0.11527   0.11964   0.13312   0.13727

 Mulliken charges:
               1
     1  C   -1.190362
     2  C    1.049186
     3  C    0.670181
     4  C    0.932505
     5  C   -4.463991
     6  N   -3.246490
     7  N   -3.742882
     8  S    1.676859
     9  S    1.938942
    10  H    1.594225
    11  H    1.645021
    12  H    1.540208
    13  H    1.596599
 Sum of Mulliken charges =  -0.00000

 Dipole moment (field-independent basis, Debye):
    X=              3.5596    Y=              0.5151    Z=             -0.2875  Tot=              3.6082

 Test job not archived.
 1\1\GINC-SE200\SP\RHF\Aug-CC-pVDZ\C5H4N2S2\OHZDE\06-Apr-2025\0\\#t hf
 aug-cc-pvdz iop(5/13=1,5/36=2,99/5=2) pseudo=read geom=check guess=(re
 ad,tcheck) scf=(maxcycle=1)\\title\\0,1\C,0,-1.485209,1.351731,0.04319
 9\C,0,-2.539465,-0.658118,0.027515\C,0,-0.256809,0.716701,-0.00715\C,0
 ,-0.286056,-0.686804,-0.018776\C,0,2.255116,-0.024473,0.324269\N,0,-2.
 633772,0.663232,0.061234\N,0,-1.410366,-1.376466,-0.006097\S,0,1.32193
 5,1.487762,-0.135275\S,0,1.275421,-1.509989,-0.105022\H,0,-1.560648,2.
 432329,0.064669\H,0,-3.465024,-1.219915,0.032889\H,0,3.180774,-0.0386,

 Normal termination of Gaussian 16 at Sun Apr  6 07:59:28 2025.
