 Gaussian 16, Revision C.01,

 ----------------------------------------------------------------------
 #t hf aug-cc-pvdz symm=none int=(grid=ultrafine) guess=(read,tcheck) s
 table=(opt,rrhf)
 ----------------------------------------------------------------------
 -----
 title
 -----
 Symbolic Z-matrix:
 Charge =  0 Multiplicity = 1

 SCF Done:  E(RHF) =  -350.171457365     A.U. after   11 cycles
 Normal termination of Gaussian 16 at Sun Apr  6 08:00:33 2025.
 Gaussian 16:  ES64L-G16RevC.01  3-Jul-2019

 ----------------------------------------------------------------------
 #t hf aug-cc-pvdz iop(5/13=1,5/36=2,99/5=2) pseudo=read geom=check gue
 ss=(read,tcheck) scf=(maxcycle=1)
 ----------------------------------------------------------------------
 -----
 title
 -----
 Structure from the checkpoint file:  "1-4-dimethylnorborane.chk"
 Charge =  0 Multiplicity = 1

                         Standard orientation:
 ---------------------------------------------------------------------
 Center     Atomic      Atomic             Coordinates (Angstroms)
 Number     Number       Type             X           Y           Z
 ---------------------------------------------------------------------
      1          6           0        0.000000    0.000000    1.162215
      2          6           0        0.000000    1.146150    0.130119
      3          6           0       -0.000000   -1.146150    0.130119
      4          6           0        1.246419    0.777460   -0.711377
      5          6           0       -1.246419    0.777460   -0.711377
      6          6           0       -1.246419   -0.777460   -0.711377
      7          6           0        1.246419   -0.777460   -0.711377
      8          1           0       -0.887511    0.000000    1.799660
      9          1           0        0.887511   -0.000000    1.799660
     10          6           0        0.000000    2.567261    0.662990
     11          6           0       -0.000000   -2.567261    0.662990
     12          1           0        2.149630    1.169313   -0.239900
     13          1           0       -2.149630   -1.169313   -0.239900
     14          1           0        2.149630   -1.169313   -0.239900
     15          1           0       -2.149630    1.169313   -0.239900
     16          1           0        1.195920   -1.204338   -1.714197
     17          1           0       -1.195920    1.204338   -1.714197
     18          1           0        1.195920    1.204338   -1.714197
     19          1           0       -1.195920   -1.204338   -1.714197
     20          1           0        0.882939   -2.760591    1.276063
     21          1           0        0.000000   -3.294790   -0.152370
     22          1           0       -0.882939   -2.760591    1.276063
     23          1           0       -0.882939    2.760591    1.276063
     24          1           0        0.000000    3.294790   -0.152370
     25          1           0        0.882939    2.760591    1.276063
 ---------------------------------------------------------------------

 SCF Done:  E(RHF) =  -351.981589231     A.U. after    2 cycles

 The electronic state is 1-A1.
 Alpha  occ. eigenvalues --  -11.48881 -11.48326 -11.43317 -11.38796 -11.38762
 Alpha  occ. eigenvalues --  -11.37351 -11.36542 -11.36007 -11.32459  -1.41857
 Alpha  occ. eigenvalues --   -1.14596  -1.09435  -1.04192  -1.00062  -0.93517
 Alpha  occ. eigenvalues --   -0.87727  -0.77800  -0.73640  -0.66162  -0.64140
 Alpha  occ. eigenvalues --   -0.63125  -0.57744  -0.55863  -0.55210  -0.54415
 Alpha  occ. eigenvalues --   -0.54333  -0.51341  -0.48441  -0.46190  -0.43085
 Alpha  occ. eigenvalues --   -0.42560  -0.40529  -0.38918  -0.36829  -0.36139
 Alpha virt. eigenvalues --    0.04277   0.04666   0.04714   0.04840   0.05128
 Alpha virt. eigenvalues --    0.05303   0.05864   0.07020   0.07081   0.07953
 Alpha virt. eigenvalues --    0.07990   0.08407   0.08446   0.08562   0.08903

 Mulliken charges:
               1
     1  C   -6.106253
     2  C    6.566625
     3  C    6.566625
     4  C   -3.978842
     5  C   -3.978842
     6  C   -3.978842
     7  C   -3.978842
     8  H    1.169876
     9  H    1.169876
    10  C   -5.983294
    11  C   -5.983294
    12  H    1.298965
    13  H    1.298965
    14  H    1.298965
    15  H    1.298965
    16  H    1.364918
    17  H    1.364918
    18  H    1.364918
    19  H    1.364918
    20  H    1.291765
    21  H    1.346309
    22  H    1.291765
    23  H    1.291765
    24  H    1.346309
    25  H    1.291765
 Sum of Mulliken charges =  -0.00000

 Dipole moment (field-independent basis, Debye):
    X=             -0.0000    Y=             -0.0000    Z=              0.0579  Tot=              0.0579

 Test job not archived.
 1\1\GINC-SE106\SP\RHF\Aug-CC-pVDZ\C9H16\OHZDE\06-Apr-2025\0\\#t hf aug
 -cc-pvdz iop(5/13=1,5/36=2,99/5=2) pseudo=read geom=check guess=(read,
 tcheck) scf=(maxcycle=1)\\title\\0,1\C,0,0.,0.,1.162215\C,0,0.,1.14615
 ,0.130119\C,0,0.,-1.14615,0.130119\C,0,1.246419,0.77746,-0.711377\C,0,
 -1.246419,0.77746,-0.711377\C,0,-1.246419,-0.77746,-0.711377\C,0,1.246
 419,-0.77746,-0.711377\H,0,-0.887511,0.,1.79966\H,0,0.887511,0.,1.7996
 6\C,0,0.,2.567261,0.66299\C,0,0.,-2.567261,0.66299\H,0,2.14963,1.16931
 3,-0.2399\H,0,-2.14963,-1.169313,-0.2399\H,0,2.14963,-1.169313,-0.2399

 Normal termination of Gaussian 16 at Sun Apr  6 08:00:45 2025.
