 Gaussian 16, Revision C.01,

 ----------------------------------------------------------------------
 #t hf aug-cc-pvdz symm=none int=(grid=ultrafine) guess=(read,tcheck) s
 table=(opt,rrhf)
 ----------------------------------------------------------------------
 -----
 title
 -----
 Symbolic Z-matrix:
 Charge =  0 Multiplicity = 1

 SCF Done:  E(RHF) =  -343.092356964     A.U. after   11 cycles

 1\1\GINC-SE208\Stability\RHF\Aug-CC-pVDZ\C6H12N2\OHZDE\06-Apr-2025\0\\
 #t hf aug-cc-pvdz symm=none int=(grid=ultrafine) guess=(read,tcheck) s
 table=(opt,rrhf)\\title\\0,1\N,0,0.000164,1.282141,0.000519\N,0,-0.000
 164,-1.282141,0.000519\C,0,0.000164,0.780285,1.382256\C,0,-1.196693,0.
 781006,-0.691218\C,0,1.196818,0.780687,-0.691334\C,0,-0.000164,-0.7802
 85,1.382256\C,0,1.196693,-0.781006,-0.691218\C,0,-1.196818,-0.780687,-
 0.691334\H,0,-0.879522,1.179699,1.890037\H,0,0.880122,1.179356,1.88983
 \H,0,-1.194813,1.179661,-1.707165\H,0,-2.076388,1.180253,-0.183417\H,0

 Normal termination of Gaussian 16 at Sun Apr  6 07:59:29 2025.
 Gaussian 16:  ES64L-G16RevC.01  3-Jul-2019

 ----------------------------------------------------------------------
 #t hf aug-cc-pvdz iop(5/13=1,5/36=2,99/5=2) pseudo=read geom=check gue
 ss=(read,tcheck) scf=(maxcycle=1)
 ----------------------------------------------------------------------
 -----
 title
 -----
 Structure from the checkpoint file:  "1-4-diazabicyclo2-2-2octane.chk"
 Charge =  0 Multiplicity = 1

                         Standard orientation:
 ---------------------------------------------------------------------
 Center     Atomic      Atomic             Coordinates (Angstroms)
 Number     Number       Type             X           Y           Z
 ---------------------------------------------------------------------
      1          7           0        0.000164    1.282141    0.000519
      2          7           0       -0.000164   -1.282141    0.000519
      3          6           0        0.000164    0.780285    1.382256
      4          6           0       -1.196693    0.781006   -0.691218
      5          6           0        1.196818    0.780687   -0.691334
      6          6           0       -0.000164   -0.780285    1.382256
      7          6           0        1.196693   -0.781006   -0.691218
      8          6           0       -1.196818   -0.780687   -0.691334
      9          1           0       -0.879522    1.179699    1.890037
     10          1           0        0.880122    1.179356    1.889830
     11          1           0       -1.194813    1.179661   -1.707165
     12          1           0       -2.076388    1.180253   -0.183417
     13          1           0        2.076725    1.179835   -0.183814
     14          1           0        1.194755    1.179230   -1.707324
     15          1           0        0.879522   -1.179699    1.890037
     16          1           0       -0.880122   -1.179356    1.889830
     17          1           0        1.194813   -1.179661   -1.707165
     18          1           0        2.076388   -1.180253   -0.183417
     19          1           0       -2.076725   -1.179835   -0.183814
     20          1           0       -1.194755   -1.179230   -1.707324
 ---------------------------------------------------------------------

 SCF Done:  E(RHF) =  -344.795792948     A.U. after    2 cycles

 The electronic state is 1-A.
 Alpha  occ. eigenvalues --  -15.69661 -15.69445 -11.48980 -11.48970 -11.41197
 Alpha  occ. eigenvalues --  -11.36391 -11.36383 -11.35483  -1.51543  -1.32215
 Alpha  occ. eigenvalues --   -1.12560  -1.12526  -0.92214  -0.92199  -0.89945
 Alpha  occ. eigenvalues --   -0.71119  -0.69072  -0.68688  -0.68679  -0.57112
 Alpha  occ. eigenvalues --   -0.55710  -0.55690  -0.52793  -0.52768  -0.48741
 Alpha  occ. eigenvalues --   -0.48711  -0.45153  -0.41499  -0.41482  -0.37302
 Alpha  occ. eigenvalues --   -0.24540
 Alpha virt. eigenvalues --    0.04049   0.05152   0.05153   0.05593   0.05594
 Alpha virt. eigenvalues --    0.06420   0.06421   0.06621   0.07934   0.08371
 Alpha virt. eigenvalues --    0.08373   0.10513   0.11025   0.11882   0.13363

 Mulliken charges:
               1
     1  N   -1.597862
     2  N   -1.597862
     3  C   -2.311413
     4  C   -2.313598
     5  C   -2.313533
     6  C   -2.311413
     7  C   -2.313598
     8  C   -2.313533
     9  H    1.423004
    10  H    1.423114
    11  H    1.422474
    12  H    1.422666
    13  H    1.422548
    14  H    1.422600
    15  H    1.423004
    16  H    1.423114
    17  H    1.422474
    18  H    1.422666
    19  H    1.422548
    20  H    1.422600
 Sum of Mulliken charges =  -0.00000

 Dipole moment (field-independent basis, Debye):
    X=             -0.0000    Y=              0.0000    Z=             -0.0004  Tot=              0.0004

 Test job not archived.
 1\1\GINC-SE208\SP\RHF\Aug-CC-pVDZ\C6H12N2\OHZDE\06-Apr-2025\0\\#t hf a
 ug-cc-pvdz iop(5/13=1,5/36=2,99/5=2) pseudo=read geom=check guess=(rea
 d,tcheck) scf=(maxcycle=1)\\title\\0,1\N,0,0.000164,1.282141,0.000519\
 N,0,-0.000164,-1.282141,0.000519\C,0,0.000164,0.780285,1.382256\C,0,-1
 .196693,0.781006,-0.691218\C,0,1.196818,0.780687,-0.691334\C,0,-0.0001
 64,-0.780285,1.382256\C,0,1.196693,-0.781006,-0.691218\C,0,-1.196818,-
 0.780687,-0.691334\H,0,-0.879522,1.179699,1.890037\H,0,0.880122,1.1793
 56,1.88983\H,0,-1.194813,1.179661,-1.707165\H,0,-2.076388,1.180253,-0.

 Normal termination of Gaussian 16 at Sun Apr  6 07:59:35 2025.
