 Gaussian 16, Revision C.01,

 ----------------------------------------------------------------------
 #t hf aug-cc-pvdz symm=none int=(grid=ultrafine) guess=(read,tcheck) s
 table=(opt,rrhf)
 ----------------------------------------------------------------------
 -----
 title
 -----
 Symbolic Z-matrix:
 Charge =  0 Multiplicity = 1

 SCF Done:  E(RHF) =  -952.380153463     A.U. after   12 cycles

 1\1\GINC-SE047\Stability\RHF\Aug-CC-pVDZ\C4H10S2\OHZDE\06-Apr-2025\0\\
 #t hf aug-cc-pvdz symm=none int=(grid=ultrafine) guess=(read,tcheck) s
 table=(opt,rrhf)\\title\\0,1\S,0,1.472597,3.116152,0.\S,0,-1.472597,-3
 .116152,0.\C,0,1.472597,1.273536,0.\C,0,-1.472597,-1.273536,0.\C,0,0.0
 34763,0.765028,0.\C,0,-0.034763,-0.765028,0.\H,0,2.807152,3.283532,0.\
 H,0,-2.807152,-3.283532,0.\H,0,-0.487695,1.15642,0.876726\H,0,-0.48769
 5,1.15642,-0.876726\H,0,0.487695,-1.15642,0.876726\H,0,0.487695,-1.156
 42,-0.876726\H,0,-2.001588,-0.922653,-0.88465\H,0,-2.001588,-0.922653,

 Normal termination of Gaussian 16 at Sun Apr  6 07:58:54 2025.
 Gaussian 16:  ES64L-G16RevC.01  3-Jul-2019

 ----------------------------------------------------------------------
 #t hf aug-cc-pvdz iop(5/13=1,5/36=2,99/5=2) pseudo=read geom=check gue
 ss=(read,tcheck) scf=(maxcycle=1)
 ----------------------------------------------------------------------
 -----
 title
 -----
 Structure from the checkpoint file:  "1-4-butanedithiol.chk"
 Charge =  0 Multiplicity = 1

                         Standard orientation:
 ---------------------------------------------------------------------
 Center     Atomic      Atomic             Coordinates (Angstroms)
 Number     Number       Type             X           Y           Z
 ---------------------------------------------------------------------
      1         16           0        1.472597    3.116152    0.000000
      2         16           0       -1.472597   -3.116152    0.000000
      3          6           0        1.472597    1.273536    0.000000
      4          6           0       -1.472597   -1.273536    0.000000
      5          6           0        0.034763    0.765028    0.000000
      6          6           0       -0.034763   -0.765028    0.000000
      7          1           0        2.807152    3.283532    0.000000
      8          1           0       -2.807152   -3.283532    0.000000
      9          1           0       -0.487695    1.156420    0.876726
     10          1           0       -0.487695    1.156420   -0.876726
     11          1           0        0.487695   -1.156420    0.876726
     12          1           0        0.487695   -1.156420   -0.876726
     13          1           0       -2.001588   -0.922653   -0.884650
     14          1           0       -2.001588   -0.922653    0.884650
     15          1           0        2.001588    0.922653   -0.884650
     16          1           0        2.001588    0.922653    0.884650
 ---------------------------------------------------------------------

 SCF Done:  E(RHF) =  -953.652484962     A.U. after    2 cycles

 The electronic state is 1-AG.
 Alpha  occ. eigenvalues --  -75.68489 -75.68462 -13.15003 -13.13936 -13.07968
 Alpha  occ. eigenvalues --  -13.07623 -13.01107 -13.00862 -11.44160 -11.42976
 Alpha  occ. eigenvalues --  -11.40487 -11.37035  -8.02337  -8.02311  -1.29727
 Alpha  occ. eigenvalues --   -1.19152  -1.09059  -0.98929  -0.87992  -0.84469
 Alpha  occ. eigenvalues --   -0.68068  -0.61715  -0.60461  -0.56841  -0.53216
 Alpha  occ. eigenvalues --   -0.52107  -0.49035  -0.47941  -0.43173  -0.38607
 Alpha  occ. eigenvalues --   -0.36948  -0.23961  -0.23782
 Alpha virt. eigenvalues --    0.03324   0.03726   0.04190   0.05318   0.05659
 Alpha virt. eigenvalues --    0.05802   0.06215   0.07105   0.07599   0.09918
 Alpha virt. eigenvalues --    0.10038   0.10068   0.11392   0.12918   0.13725

 Mulliken charges:
               1
     1  S   -0.420248
     2  S   -0.420248
     3  C   -3.824526
     4  C   -3.824526
     5  C   -2.449656
     6  C   -2.449656
     7  H    0.839827
     8  H    0.839827
     9  H    1.544662
    10  H    1.544662
    11  H    1.544662
    12  H    1.544662
    13  H    1.382640
    14  H    1.382640
    15  H    1.382640
    16  H    1.382640
 Sum of Mulliken charges =   0.00000

 Dipole moment (field-independent basis, Debye):
    X=             -0.0000    Y=             -0.0000    Z=              0.0000  Tot=              0.0000

 Test job not archived.
 1\1\GINC-SE047\SP\RHF\Aug-CC-pVDZ\C4H10S2\OHZDE\06-Apr-2025\0\\#t hf a
 ug-cc-pvdz iop(5/13=1,5/36=2,99/5=2) pseudo=read geom=check guess=(rea
 d,tcheck) scf=(maxcycle=1)\\title\\0,1\S,0,1.472597,3.116152,0.\S,0,-1
 .472597,-3.116152,0.\C,0,1.472597,1.273536,0.\C,0,-1.472597,-1.273536,
 0.\C,0,0.034763,0.765028,0.\C,0,-0.034763,-0.765028,0.\H,0,2.807152,3.
 283532,0.\H,0,-2.807152,-3.283532,0.\H,0,-0.487695,1.15642,0.876726\H,
 0,-0.487695,1.15642,-0.876726\H,0,0.487695,-1.15642,0.876726\H,0,0.487
 695,-1.15642,-0.876726\H,0,-2.001588,-0.922653,-0.88465\H,0,-2.001588,

 Normal termination of Gaussian 16 at Sun Apr  6 07:59:00 2025.
