 Gaussian 16, Revision C.01,

 ----------------------------------------------------------------------
 #t hf aug-cc-pvdz symm=none int=(grid=ultrafine) guess=(read,tcheck) s
 table=(opt,rrhf)
 ----------------------------------------------------------------------
 -----
 title
 -----
 Symbolic Z-matrix:
 Charge =  0 Multiplicity = 1

 SCF Done:  E(RHF) =  -1075.16860273     A.U. after   12 cycles

 1\1\GINC-SE209\Stability\RHF\Aug-CC-pVDZ\C4H8Cl2\OHZDE\06-Apr-2025\0\\
 #t hf aug-cc-pvdz symm=none int=(grid=ultrafine) guess=(read,tcheck) s
 table=(opt,rrhf)\\title\\0,1\C,0,-0.72187,0.24903,0.685981\C,0,0.72187
 ,-0.24903,0.685981\C,0,-1.761587,-0.853628,0.754122\C,0,1.761587,0.853
 628,0.754122\Cl,0,-1.761587,-1.906934,-0.730679\Cl,0,1.761587,1.906934
 ,-0.730679\H,0,-0.904673,0.868385,-0.192246\H,0,-0.885885,0.888194,1.5
 61267\H,0,0.904673,-0.868385,-0.192246\H,0,0.885885,-0.888194,1.561267
 \H,0,-1.591489,-1.52711,1.590678\H,0,-2.766336,-0.447769,0.82123\H,0,1

 Normal termination of Gaussian 16 at Sun Apr  6 07:58:53 2025.
 Gaussian 16:  ES64L-G16RevC.01  3-Jul-2019

 ----------------------------------------------------------------------
 #t hf aug-cc-pvdz iop(5/13=1,5/36=2,99/5=2) pseudo=read geom=check gue
 ss=(read,tcheck) scf=(maxcycle=1)
 ----------------------------------------------------------------------
 -----
 title
 -----
 Structure from the checkpoint file:  "1-4-dichlorobutane.chk"
 Charge =  0 Multiplicity = 1

                         Standard orientation:
 ---------------------------------------------------------------------
 Center     Atomic      Atomic             Coordinates (Angstroms)
 Number     Number       Type             X           Y           Z
 ---------------------------------------------------------------------
      1          6           0       -0.721870    0.249030    0.685981
      2          6           0        0.721870   -0.249030    0.685981
      3          6           0       -1.761587   -0.853628    0.754122
      4          6           0        1.761587    0.853628    0.754122
      5         17           0       -1.761587   -1.906934   -0.730679
      6         17           0        1.761587    1.906934   -0.730679
      7          1           0       -0.904673    0.868385   -0.192246
      8          1           0       -0.885885    0.888194    1.561267
      9          1           0        0.904673   -0.868385   -0.192246
     10          1           0        0.885885   -0.888194    1.561267
     11          1           0       -1.591489   -1.527110    1.590678
     12          1           0       -2.766336   -0.447769    0.821230
     13          1           0        1.591489    1.527110    1.590678
     14          1           0        2.766336    0.447769    0.821230
 ---------------------------------------------------------------------

 SCF Done:  E(RHF) =  -1076.46491149     A.U. after    2 cycles

 The electronic state is 1-A.
 Alpha  occ. eigenvalues --  -99.87529 -99.87528 -11.46316 -11.45828 -11.42349
 Alpha  occ. eigenvalues --  -11.37936 -10.44786 -10.44779  -9.64713  -9.64650
 Alpha  occ. eigenvalues --   -9.64067  -9.64041  -9.63954  -9.63920  -1.36123
 Alpha  occ. eigenvalues --   -1.31471  -1.19712  -1.06727  -0.93240  -0.85398
 Alpha  occ. eigenvalues --   -0.68906  -0.66162  -0.65328  -0.62931  -0.57753
 Alpha  occ. eigenvalues --   -0.55126  -0.54139  -0.50201  -0.49256  -0.47713
 Alpha  occ. eigenvalues --   -0.46917  -0.46038  -0.44255
 Alpha virt. eigenvalues --    0.03400   0.04011   0.05319   0.05669   0.06311
 Alpha virt. eigenvalues --    0.06345   0.07196   0.07234   0.09478   0.09505
 Alpha virt. eigenvalues --    0.10847   0.11217   0.12839   0.13010   0.15516

 Mulliken charges:
               1
     1  C   -2.197036
     2  C   -2.197036
     3  C   -3.841043
     4  C   -3.841043
     5  Cl   0.059307
     6  Cl   0.059307
     7  H    1.457955
     8  H    1.387390
     9  H    1.457955
    10  H    1.387390
    11  H    1.677777
    12  H    1.455650
    13  H    1.677777
    14  H    1.455650
 Sum of Mulliken charges =  -0.00000

 Dipole moment (field-independent basis, Debye):
    X=              0.0000    Y=             -0.0000    Z=              3.6799  Tot=              3.6799

 Test job not archived.
 1\1\GINC-SE209\SP\RHF\Aug-CC-pVDZ\C4H8Cl2\OHZDE\06-Apr-2025\0\\#t hf a
 ug-cc-pvdz iop(5/13=1,5/36=2,99/5=2) pseudo=read geom=check guess=(rea
 d,tcheck) scf=(maxcycle=1)\\title\\0,1\C,0,-0.72187,0.24903,0.685981\C
 ,0,0.72187,-0.24903,0.685981\C,0,-1.761587,-0.853628,0.754122\C,0,1.76
 1587,0.853628,0.754122\Cl,0,-1.761587,-1.906934,-0.730679\Cl,0,1.76158
 7,1.906934,-0.730679\H,0,-0.904673,0.868385,-0.192246\H,0,-0.885885,0.
 888194,1.561267\H,0,0.904673,-0.868385,-0.192246\H,0,0.885885,-0.88819
 4,1.561267\H,0,-1.591489,-1.52711,1.590678\H,0,-2.766336,-0.447769,0.8

 Normal termination of Gaussian 16 at Sun Apr  6 07:58:57 2025.
