 Gaussian 16, Revision C.01,

 ----------------------------------------------------------------------
 #t hf aug-cc-pvdz symm=none int=(grid=ultrafine) guess=(read,tcheck) s
 table=(opt,rrhf)
 ----------------------------------------------------------------------
 -----
 title
 -----
 Symbolic Z-matrix:
 Charge =  0 Multiplicity = 1

 SCF Done:  E(RHF) =  -312.312087385     A.U. after   11 cycles
 Normal termination of Gaussian 16 at Sun Apr  6 08:00:01 2025.
 Gaussian 16:  ES64L-G16RevC.01  3-Jul-2019

 ----------------------------------------------------------------------
 #t hf aug-cc-pvdz iop(5/13=1,5/36=2,99/5=2) pseudo=read geom=check gue
 ss=(read,tcheck) scf=(maxcycle=1)
 ----------------------------------------------------------------------
 -----
 title
 -----
 Structure from the checkpoint file:  "1-4-dimethylcyclohexane.chk"
 Charge =  0 Multiplicity = 1

                         Standard orientation:
 ---------------------------------------------------------------------
 Center     Atomic      Atomic             Coordinates (Angstroms)
 Number     Number       Type             X           Y           Z
 ---------------------------------------------------------------------
      1          6           0       -0.128603    0.754635    1.257237
      2          6           0        0.128603   -0.754635    1.257237
      3          6           0       -0.128603    0.754635   -1.257237
      4          6           0        0.128603   -0.754635   -1.257237
      5          6           0        0.420511    1.441390    0.000000
      6          6           0       -0.420511   -1.441390    0.000000
      7          6           0        0.128603    2.941424    0.000000
      8          6           0       -0.128603   -2.941424    0.000000
      9          1           0       -1.207697    0.938689    1.316247
     10          1           0        0.309333    1.209266    2.149736
     11          1           0        1.207697   -0.938689    1.316247
     12          1           0       -0.309333   -1.209266    2.149736
     13          1           0        0.309333    1.209266   -2.149736
     14          1           0       -1.207697    0.938689   -1.316247
     15          1           0       -0.309333   -1.209266   -2.149736
     16          1           0        1.207697   -0.938689   -1.316247
     17          1           0        1.509662    1.308301    0.000000
     18          1           0       -1.509662   -1.308301    0.000000
     19          1           0        0.549005    3.428483   -0.881999
     20          1           0       -0.948008    3.128721    0.000000
     21          1           0        0.549005    3.428483    0.881999
     22          1           0        0.948008   -3.128721    0.000000
     23          1           0       -0.549005   -3.428483    0.881999
     24          1           0       -0.549005   -3.428483   -0.881999
 ---------------------------------------------------------------------

 SCF Done:  E(RHF) =  -313.944913160     A.U. after    2 cycles

 The electronic state is 1-AG.
 Alpha  occ. eigenvalues --  -11.44003 -11.42631 -11.41672 -11.39269 -11.37736
 Alpha  occ. eigenvalues --  -11.37599 -11.35386 -11.32826  -1.33745  -1.17253
 Alpha  occ. eigenvalues --   -1.09688  -1.02895  -0.93841  -0.88031  -0.82047
 Alpha  occ. eigenvalues --   -0.77293  -0.64725  -0.60795  -0.60706  -0.60561
 Alpha  occ. eigenvalues --   -0.57776  -0.54556  -0.53627  -0.51529  -0.50732
 Alpha  occ. eigenvalues --   -0.47029  -0.46166  -0.43714  -0.43088  -0.42900
 Alpha  occ. eigenvalues --   -0.37056  -0.37052
 Alpha virt. eigenvalues --    0.04596   0.04682   0.05026   0.05360   0.05412
 Alpha virt. eigenvalues --    0.05574   0.05754   0.06344   0.06820   0.07647
 Alpha virt. eigenvalues --    0.07956   0.08163   0.08493   0.08738   0.10415

 Mulliken charges:
               1
     1  C   -3.395454
     2  C   -3.395454
     3  C   -3.395454
     4  C   -3.395454
     5  C    0.298810
     6  C    0.298810
     7  C   -4.707483
     8  C   -4.707483
     9  H    1.401722
    10  H    1.358512
    11  H    1.401722
    12  H    1.358512
    13  H    1.358512
    14  H    1.401722
    15  H    1.358512
    16  H    1.401722
    17  H    1.898190
    18  H    1.898190
    19  H    1.211874
    20  H    1.357175
    21  H    1.211874
    22  H    1.357175
    23  H    1.211874
    24  H    1.211874
 Sum of Mulliken charges =   0.00000

 Dipole moment (field-independent basis, Debye):
    X=              0.0000    Y=             -0.0000    Z=              0.0000  Tot=              0.0000

 Test job not archived.
 1\1\GINC-SE107\SP\RHF\Aug-CC-pVDZ\C8H16\OHZDE\06-Apr-2025\0\\#t hf aug
 -cc-pvdz iop(5/13=1,5/36=2,99/5=2) pseudo=read geom=check guess=(read,
 tcheck) scf=(maxcycle=1)\\title\\0,1\C,0,-0.128603,0.754635,1.257237\C
 ,0,0.128603,-0.754635,1.257237\C,0,-0.128603,0.754635,-1.257237\C,0,0.
 128603,-0.754635,-1.257237\C,0,0.420511,1.44139,0.\C,0,-0.420511,-1.44
 139,0.\C,0,0.128603,2.941424,0.\C,0,-0.128603,-2.941424,0.\H,0,-1.2076
 97,0.938689,1.316247\H,0,0.309333,1.209266,2.149736\H,0,1.207697,-0.93
 8689,1.316247\H,0,-0.309333,-1.209266,2.149736\H,0,0.309333,1.209266,-

 Normal termination of Gaussian 16 at Sun Apr  6 08:00:11 2025.
