 Gaussian 16, Revision C.01,

 ----------------------------------------------------------------------
 #t hf aug-cc-pvdz symm=none int=(grid=ultrafine) guess=(read,tcheck) s
 table=(opt,rrhf)
 ----------------------------------------------------------------------
 -----
 title
 -----
 Symbolic Z-matrix:
 Charge =  0 Multiplicity = 1

 SCF Done:  E(RHF) =  -531.969158878     A.U. after   15 cycles

 1\1\GINC-SE085\Stability\RHF\Aug-CC-pVDZ\C10H6O2\OHZDE\06-Apr-2025\0\\
 #t hf aug-cc-pvdz symm=none int=(grid=ultrafine) guess=(read,tcheck) s
 table=(opt,rrhf)\\title\\0,1\O,0,-1.061346,-2.675415,0.000027\C,0,-1.0
 22143,-1.45709,0.000009\C,0,0.261151,-0.70165,-0.000016\C,0,0.261151,0
 .70165,0.000016\C,0,-1.022143,1.45709,-0.000009\O,0,-1.061346,2.675415
 ,-0.000027\C,0,-2.274483,0.66794,-0.000007\C,0,-2.274483,-0.66794,0.00
 0007\C,0,1.470163,1.394082,0.000035\C,0,2.669385,0.69678,0.00002\C,0,2
 .669385,-0.69678,-0.00002\C,0,1.470163,-1.394082,-0.000035\H,0,-3.1893

 Normal termination of Gaussian 16 at Sun Apr  6 08:00:23 2025.
 Gaussian 16:  ES64L-G16RevC.01  3-Jul-2019

 ----------------------------------------------------------------------
 #t hf aug-cc-pvdz iop(5/13=1,5/36=2,99/5=2) pseudo=read geom=check gue
 ss=(read,tcheck) scf=(maxcycle=1)
 ----------------------------------------------------------------------
 -----
 title
 -----
 Structure from the checkpoint file:  "1-4-naphthalenedione.chk"
 Charge =  0 Multiplicity = 1

                         Standard orientation:
 ---------------------------------------------------------------------
 Center     Atomic      Atomic             Coordinates (Angstroms)
 Number     Number       Type             X           Y           Z
 ---------------------------------------------------------------------
      1          8           0       -1.061346   -2.675415    0.000027
      2          6           0       -1.022143   -1.457090    0.000009
      3          6           0        0.261151   -0.701650   -0.000016
      4          6           0        0.261151    0.701650    0.000016
      5          6           0       -1.022143    1.457090   -0.000009
      6          8           0       -1.061346    2.675415   -0.000027
      7          6           0       -2.274483    0.667940   -0.000007
      8          6           0       -2.274483   -0.667940    0.000007
      9          6           0        1.470163    1.394082    0.000035
     10          6           0        2.669385    0.696780    0.000020
     11          6           0        2.669385   -0.696780   -0.000020
     12          6           0        1.470163   -1.394082   -0.000035
     13          1           0       -3.189344    1.246182    0.000000
     14          1           0       -3.189344   -1.246182   -0.000001
     15          1           0        1.449164    2.474559    0.000078
     16          1           0        3.606515    1.236642    0.000045
     17          1           0        3.606515   -1.236642   -0.000045
     18          1           0        1.449163   -2.474559   -0.000077
 ---------------------------------------------------------------------

 SCF Done:  E(RHF) =  -534.341917932     A.U. after    2 cycles

 The electronic state is 1-A.
 Alpha  occ. eigenvalues --  -21.07182 -21.07159 -11.56934 -11.53529 -11.51165
 Alpha  occ. eigenvalues --  -11.48259 -11.47343 -11.45756 -11.44041 -11.43716
 Alpha  occ. eigenvalues --  -11.42819 -11.39070  -1.73677  -1.71802  -1.38119
 Alpha  occ. eigenvalues --   -1.24412  -1.13145  -1.12329  -1.00299  -0.91934
 Alpha  occ. eigenvalues --   -0.90985  -0.82285  -0.75079  -0.72188  -0.66472
 Alpha  occ. eigenvalues --   -0.64133  -0.62660  -0.58960  -0.58475  -0.57492
 Alpha  occ. eigenvalues --   -0.52118  -0.52038  -0.49509  -0.49454  -0.47477
 Alpha  occ. eigenvalues --   -0.45138  -0.37242  -0.34410  -0.33092  -0.30795
 Alpha  occ. eigenvalues --   -0.30436
 Alpha virt. eigenvalues --    0.02664   0.04781   0.05265   0.05364   0.05782
 Alpha virt. eigenvalues --    0.06232   0.07739   0.08667   0.08829   0.09742
 Alpha virt. eigenvalues --    0.09973   0.10621   0.11572   0.12002   0.12466

 Mulliken charges:
               1
     1  O   -4.617075
     2  C    4.268846
     3  C    4.447172
     4  C    4.447182
     5  C    4.268844
     6  O   -4.617074
     7  C   -3.132374
     8  C   -3.132377
     9  C   -3.388711
    10  C   -2.560021
    11  C   -2.560017
    12  C   -3.388708
    13  H    1.635457
    14  H    1.635457
    15  H    1.823591
    16  H    1.523108
    17  H    1.523108
    18  H    1.823591
 Sum of Mulliken charges =  -0.00000

 Dipole moment (field-independent basis, Debye):
    X=              1.0873    Y=              0.0000    Z=              0.0000  Tot=              1.0873

 Test job not archived.
 1\1\GINC-SE085\SP\RHF\Aug-CC-pVDZ\C10H6O2\OHZDE\06-Apr-2025\0\\#t hf a
 ug-cc-pvdz iop(5/13=1,5/36=2,99/5=2) pseudo=read geom=check guess=(rea
 d,tcheck) scf=(maxcycle=1)\\title\\0,1\O,0,-1.061346,-2.675415,0.00002
 7\C,0,-1.022143,-1.45709,0.000009\C,0,0.261151,-0.70165,-0.000016\C,0,
 0.261151,0.70165,0.000016\C,0,-1.022143,1.45709,-0.000009\O,0,-1.06134
 6,2.675415,-0.000027\C,0,-2.274483,0.66794,-0.000007\C,0,-2.274483,-0.
 66794,0.000007\C,0,1.470163,1.394082,0.000035\C,0,2.669385,0.69678,0.0
 0002\C,0,2.669385,-0.69678,-0.00002\C,0,1.470163,-1.394082,-0.000035\H

 Normal termination of Gaussian 16 at Sun Apr  6 08:00:45 2025.
