 Gaussian 16, Revision C.01,

 ----------------------------------------------------------------------
 #t hf aug-cc-pvdz symm=none int=(grid=ultrafine) guess=(read,tcheck) s
 table=(opt,rrhf)
 ----------------------------------------------------------------------
 -----
 title
 -----
 Symbolic Z-matrix:
 Charge =  0 Multiplicity = 1

 SCF Done:  E(RHF) =  -461.472650549     A.U. after   16 cycles
 Normal termination of Gaussian 16 at Sun Apr  6 08:02:26 2025.
 Gaussian 16:  ES64L-G16RevC.01  3-Jul-2019

 ----------------------------------------------------------------------
 #t hf aug-cc-pvdz iop(5/13=1,5/36=2,99/5=2) pseudo=read geom=check gue
 ss=(read,tcheck) scf=(maxcycle=1)
 ----------------------------------------------------------------------
 -----
 title
 -----
 Structure from the checkpoint file:  "1-4-dimethylnaphthalene.chk"
 Charge =  0 Multiplicity = 1

                         Standard orientation:
 ---------------------------------------------------------------------
 Center     Atomic      Atomic             Coordinates (Angstroms)
 Number     Number       Type             X           Y           Z
 ---------------------------------------------------------------------
      1          6           0        0.000000    0.703009    2.671994
      2          6           0       -0.000000   -0.703009    2.671994
      3          6           0        0.000000    1.389843    1.484704
      4          6           0       -0.000000   -1.389843    1.484704
      5          6           0        0.000000    0.704380   -2.165927
      6          6           0       -0.000000   -0.704380   -2.165927
      7          6           0        0.000000    0.715972    0.238733
      8          6           0       -0.000000   -0.715972    0.238733
      9          6           0        0.000000    1.427436   -1.000485
     10          6           0       -0.000000   -1.427436   -1.000485
     11          6           0        0.000000    2.932491   -1.037034
     12          6           0       -0.000000   -2.932491   -1.037034
     13          1           0        0.000000    1.242469    3.609860
     14          1           0       -0.000000   -1.242469    3.609860
     15          1           0        0.000000    2.470177    1.499421
     16          1           0       -0.000000   -2.470177    1.499421
     17          1           0        0.000000    1.226313   -3.114870
     18          1           0       -0.000000   -1.226313   -3.114870
     19          1           0        0.000000    3.288434   -2.065976
     20          1           0       -0.878303    3.350821   -0.540170
     21          1           0        0.878303    3.350821   -0.540170
     22          1           0       -0.878303   -3.350821   -0.540170
     23          1           0       -0.000000   -3.288434   -2.065976
     24          1           0        0.878303   -3.350821   -0.540170
 ---------------------------------------------------------------------

 SCF Done:  E(RHF) =  -463.729022061     A.U. after    2 cycles

 The electronic state is 1-A1.
 Alpha  occ. eigenvalues --  -11.52420 -11.48925 -11.45067 -11.43551 -11.43074
 Alpha  occ. eigenvalues --  -11.42367 -11.41466 -11.40776 -11.39582 -11.38789
 Alpha  occ. eigenvalues --  -11.38483 -11.35390  -1.40417  -1.24513  -1.19424
 Alpha  occ. eigenvalues --   -1.07536  -1.07239  -1.05060  -0.94797  -0.88288
 Alpha  occ. eigenvalues --   -0.87201  -0.79696  -0.71941  -0.68945  -0.64928
 Alpha  occ. eigenvalues --   -0.60917  -0.60801  -0.58326  -0.57182  -0.57011
 Alpha  occ. eigenvalues --   -0.53382  -0.52288  -0.51371  -0.50912  -0.50033
 Alpha  occ. eigenvalues --   -0.47143  -0.43319  -0.40723  -0.39938  -0.36383
 Alpha  occ. eigenvalues --   -0.31023  -0.26432
 Alpha virt. eigenvalues --    0.03409   0.04551   0.04645   0.05418   0.06119
 Alpha virt. eigenvalues --    0.06239   0.06324   0.06679   0.07357   0.07948
 Alpha virt. eigenvalues --    0.08668   0.09439   0.09697   0.09757   0.11716

 Mulliken charges:
               1
     1  C   -4.399386
     2  C   -4.399386
     3  C   -2.753958
     4  C   -2.753958
     5  C   -3.868490
     6  C   -3.868490
     7  C    5.394012
     8  C    5.394012
     9  C    2.917379
    10  C    2.917379
    11  C   -5.763613
    12  C   -5.763613
    13  H    1.561067
    14  H    1.561067
    15  H    1.846047
    16  H    1.846047
    17  H    1.884686
    18  H    1.884686
    19  H    1.195147
    20  H    0.993554
    21  H    0.993554
    22  H    0.993554
    23  H    1.195147
    24  H    0.993554
 Sum of Mulliken charges =  -0.00000

 Dipole moment (field-independent basis, Debye):
    X=              0.0000    Y=             -0.0000    Z=              0.0326  Tot=              0.0326

 Test job not archived.
 1\1\GINC-SE106\SP\RHF\Aug-CC-pVDZ\C12H12\OHZDE\06-Apr-2025\0\\#t hf au
 g-cc-pvdz iop(5/13=1,5/36=2,99/5=2) pseudo=read geom=check guess=(read
 ,tcheck) scf=(maxcycle=1)\\title\\0,1\C,0,-2.671994,-0.703009,0.\C,0,-
 2.671994,0.703009,0.\C,0,-1.484704,-1.389843,0.\C,0,-1.484704,1.389843
 ,0.\C,0,2.165927,-0.70438,0.\C,0,2.165927,0.70438,0.\C,0,-0.238733,-0.
 715972,0.\C,0,-0.238733,0.715972,0.\C,0,1.000485,-1.427436,0.\C,0,1.00
 0485,1.427436,0.\C,0,1.037034,-2.932491,0.\C,0,1.037034,2.932491,0.\H,
 0,-3.60986,-1.242469,0.\H,0,-3.60986,1.242469,0.\H,0,-1.499421,-2.4701

 Normal termination of Gaussian 16 at Sun Apr  6 08:03:02 2025.
