 Gaussian 16, Revision C.01,

 ----------------------------------------------------------------------
 #t hf aug-cc-pvdz symm=none int=(grid=ultrafine) guess=(read,tcheck) s
 table=(opt,rrhf)
 ----------------------------------------------------------------------
 -----
 title
 -----
 Symbolic Z-matrix:
 Charge =  0 Multiplicity = 1

 SCF Done:  E(RHF) =  -951.212378677     A.U. after   12 cycles
 Normal termination of Gaussian 16 at Sun Apr  6 07:58:50 2025.
 Gaussian 16:  ES64L-G16RevC.01  3-Jul-2019

 ----------------------------------------------------------------------
 #t hf aug-cc-pvdz iop(5/13=1,5/36=2,99/5=2) pseudo=read geom=check gue
 ss=(read,tcheck) scf=(maxcycle=1)
 ----------------------------------------------------------------------
 -----
 title
 -----
 Structure from the checkpoint file:  "1-4-dithiane.chk"
 Charge =  0 Multiplicity = 1

                         Standard orientation:
 ---------------------------------------------------------------------
 Center     Atomic      Atomic             Coordinates (Angstroms)
 Number     Number       Type             X           Y           Z
 ---------------------------------------------------------------------
      1          6           0        0.285090    0.705076    1.402750
      2          6           0       -0.285090   -0.705076    1.402750
      3          6           0        0.285090    0.705076   -1.402750
      4          6           0       -0.285090   -0.705076   -1.402750
      5         16           0       -0.285090    1.732970    0.000000
      6         16           0        0.285090   -1.732970    0.000000
      7          1           0       -0.049188    1.244965    2.289919
      8          1           0        1.374611    0.679803    1.411268
      9          1           0        0.049188   -1.244965    2.289919
     10          1           0       -1.374611   -0.679803    1.411268
     11          1           0        1.374611    0.679803   -1.411268
     12          1           0       -0.049188    1.244965   -2.289919
     13          1           0       -1.374611   -0.679803   -1.411268
     14          1           0        0.049188   -1.244965   -2.289919
 ---------------------------------------------------------------------

 SCF Done:  E(RHF) =  -952.464656489     A.U. after    2 cycles

 The electronic state is 1-AG.
 Alpha  occ. eigenvalues --  -75.67465 -75.67426 -13.13325 -13.10714 -13.09631
 Alpha  occ. eigenvalues --  -13.09089 -13.03480 -13.00761 -11.44438 -11.43133
 Alpha  occ. eigenvalues --  -11.39125 -11.39039  -8.01515  -8.01491  -1.31787
 Alpha  occ. eigenvalues --   -1.15148  -1.14423  -0.93523  -0.90860  -0.80207
 Alpha  occ. eigenvalues --   -0.64580  -0.63923  -0.62851  -0.58391  -0.55661
 Alpha  occ. eigenvalues --   -0.52081  -0.47009  -0.38399  -0.37477  -0.35028
 Alpha  occ. eigenvalues --   -0.23487  -0.21869
 Alpha virt. eigenvalues --    0.03560   0.03619   0.04885   0.05576   0.05953
 Alpha virt. eigenvalues --    0.06651   0.07281   0.07882   0.08453   0.10391
 Alpha virt. eigenvalues --    0.12266   0.13240   0.13463   0.13699   0.15158

 Mulliken charges:
               1
     1  C   -3.521051
     2  C   -3.521051
     3  C   -3.521051
     4  C   -3.521051
     5  S    1.235373
     6  S    1.235373
     7  H    1.441154
     8  H    1.462210
     9  H    1.441154
    10  H    1.462210
    11  H    1.462210
    12  H    1.441154
    13  H    1.462210
    14  H    1.441154
 Sum of Mulliken charges =   0.00000

 Dipole moment (field-independent basis, Debye):
    X=             -0.0000    Y=              0.0000    Z=             -0.0000  Tot=              0.0000

 Test job not archived.
 1\1\GINC-SE085\SP\RHF\Aug-CC-pVDZ\C4H8S2\OHZDE\06-Apr-2025\0\\#t hf au
 g-cc-pvdz iop(5/13=1,5/36=2,99/5=2) pseudo=read geom=check guess=(read
 ,tcheck) scf=(maxcycle=1)\\title\\0,1\C,0,0.28509,0.705076,1.40275\C,0
 ,-0.28509,-0.705076,1.40275\C,0,0.28509,0.705076,-1.40275\C,0,-0.28509
 ,-0.705076,-1.40275\S,0,-0.28509,1.73297,0.\S,0,0.28509,-1.73297,0.\H,
 0,-0.049188,1.244965,2.289919\H,0,1.374611,0.679803,1.411268\H,0,0.049
 188,-1.244965,2.289919\H,0,-1.374611,-0.679803,1.411268\H,0,1.374611,0
 .679803,-1.411268\H,0,-0.049188,1.244965,-2.289919\H,0,-1.374611,-0.67

 Normal termination of Gaussian 16 at Sun Apr  6 07:58:54 2025.
