 Gaussian 16, Revision C.01,

 ----------------------------------------------------------------------
 #t hf aug-cc-pvdz symm=none int=(grid=ultrafine) guess=(read,tcheck) s
 table=(opt,rrhf)
 ----------------------------------------------------------------------
 -----
 title
 -----
 Symbolic Z-matrix:
 Charge =  0 Multiplicity = 1

 SCF Done:  E(RHF) =  -305.867684309     A.U. after   11 cycles
 Normal termination of Gaussian 16 at Sun Apr  6 07:58:48 2025.
 Gaussian 16:  ES64L-G16RevC.01  3-Jul-2019

 ----------------------------------------------------------------------
 #t hf aug-cc-pvdz iop(5/13=1,5/36=2,99/5=2) pseudo=read geom=check gue
 ss=(read,tcheck) scf=(maxcycle=1)
 ----------------------------------------------------------------------
 -----
 title
 -----
 Structure from the checkpoint file:  "1-4-dioxane.chk"
 Charge =  0 Multiplicity = 1

                         Standard orientation:
 ---------------------------------------------------------------------
 Center     Atomic      Atomic             Coordinates (Angstroms)
 Number     Number       Type             X           Y           Z
 ---------------------------------------------------------------------
      1          6           0        0.225402    0.725379    1.173820
      2          6           0       -0.225402   -0.725379    1.173820
      3          6           0        0.225402    0.725379   -1.173820
      4          6           0       -0.225402   -0.725379   -1.173820
      5          8           0       -0.225402    1.393629    0.000000
      6          8           0        0.225402   -1.393629    0.000000
      7          1           0       -0.194991    1.264433    2.022632
      8          1           0        1.320586    0.773781    1.230887
      9          1           0        0.194991   -1.264433    2.022632
     10          1           0       -1.320586   -0.773781    1.230887
     11          1           0        1.320586    0.773781   -1.230887
     12          1           0       -0.194991    1.264433   -2.022632
     13          1           0       -1.320586   -0.773781   -1.230887
     14          1           0        0.194991   -1.264433   -2.022632
 ---------------------------------------------------------------------

 SCF Done:  E(RHF) =  -307.254186322     A.U. after    2 cycles

 The electronic state is 1-AG.
 Alpha  occ. eigenvalues --  -21.04326 -21.04323 -11.50225 -11.43853 -11.39432
 Alpha  occ. eigenvalues --  -11.38417  -1.79412  -1.70554  -1.14282  -1.01682
 Alpha  occ. eigenvalues --   -0.92821  -0.81074  -0.69389  -0.65479  -0.64375
 Alpha  occ. eigenvalues --   -0.59703  -0.56135  -0.53704  -0.50293  -0.44918
 Alpha  occ. eigenvalues --   -0.42299  -0.36418  -0.32170  -0.26801
 Alpha virt. eigenvalues --    0.03957   0.05075   0.05181   0.05251   0.06019
 Alpha virt. eigenvalues --    0.06550   0.06878   0.09416   0.10357   0.10783
 Alpha virt. eigenvalues --    0.13279   0.13515   0.14721   0.15262   0.15664

 Mulliken charges:
               1
     1  C   -1.384898
     2  C   -1.384898
     3  C   -1.384898
     4  C   -1.384898
     5  O   -2.919590
     6  O   -2.919590
     7  H    1.336575
     8  H    1.508118
     9  H    1.336575
    10  H    1.508118
    11  H    1.508118
    12  H    1.336575
    13  H    1.508118
    14  H    1.336575
 Sum of Mulliken charges =   0.00000

 Dipole moment (field-independent basis, Debye):
    X=              0.0000    Y=              0.0000    Z=              0.0000  Tot=              0.0000

 Test job not archived.
 1\1\GINC-SE084\SP\RHF\Aug-CC-pVDZ\C4H8O2\OHZDE\06-Apr-2025\0\\#t hf au
 g-cc-pvdz iop(5/13=1,5/36=2,99/5=2) pseudo=read geom=check guess=(read
 ,tcheck) scf=(maxcycle=1)\\title\\0,1\C,0,0.225402,0.725379,1.17382\C,
 0,-0.225402,-0.725379,1.17382\C,0,0.225402,0.725379,-1.17382\C,0,-0.22
 5402,-0.725379,-1.17382\O,0,-0.225402,1.393629,0.\O,0,0.225402,-1.3936
 29,0.\H,0,-0.194991,1.264433,2.022632\H,0,1.320586,0.773781,1.230887\H
 ,0,0.194991,-1.264433,2.022632\H,0,-1.320586,-0.773781,1.230887\H,0,1.
 320586,0.773781,-1.230887\H,0,-0.194991,1.264433,-2.022632\H,0,-1.3205

 Normal termination of Gaussian 16 at Sun Apr  6 07:58:52 2025.
