 Gaussian 16, Revision C.01,

 ----------------------------------------------------------------------
 #t hf aug-cc-pvdz symm=none int=(grid=ultrafine) guess=(read,tcheck) s
 table=(opt,rrhf)
 ----------------------------------------------------------------------
 -----
 title
 -----
 Symbolic Z-matrix:
 Charge =  0 Multiplicity = 1

 SCF Done:  E(RHF) =  -307.051746329     A.U. after   12 cycles

 1\1\GINC-SE222\Stability\RHF\Aug-CC-pVDZ\C4H10O2\OHZDE\06-Apr-2025\0\\
 #t hf aug-cc-pvdz symm=none int=(grid=ultrafine) guess=(read,tcheck) s
 table=(opt,rrhf)\\title\\0,1\O,0,1.498061,2.666221,0.\O,0,-1.498061,-2
 .666221,0.\C,0,1.498061,1.237514,0.\C,0,-1.498061,-1.237514,0.\C,0,0.0
 56538,0.762057,0.\C,0,-0.056538,-0.762057,0.\H,0,2.406126,2.980641,0.\
 H,0,-2.406126,-2.980641,0.\H,0,-0.445072,1.179692,0.876807\H,0,-0.4450
 72,1.179692,-0.876807\H,0,0.445072,-1.179692,0.876807\H,0,0.445072,-1.
 179692,-0.876807\H,0,-2.018661,-0.854825,-0.885586\H,0,-2.018661,-0.85

 Normal termination of Gaussian 16 at Sun Apr  6 07:58:47 2025.
 Gaussian 16:  ES64L-G16RevC.01  3-Jul-2019

 ----------------------------------------------------------------------
 #t hf aug-cc-pvdz iop(5/13=1,5/36=2,99/5=2) pseudo=read geom=check gue
 ss=(read,tcheck) scf=(maxcycle=1)
 ----------------------------------------------------------------------
 -----
 title
 -----
 Structure from the checkpoint file:  "1-4-butanediol.chk"
 Charge =  0 Multiplicity = 1

                         Standard orientation:
 ---------------------------------------------------------------------
 Center     Atomic      Atomic             Coordinates (Angstroms)
 Number     Number       Type             X           Y           Z
 ---------------------------------------------------------------------
      1          8           0        1.498061    2.666221    0.000000
      2          8           0       -1.498061   -2.666221    0.000000
      3          6           0        1.498061    1.237514    0.000000
      4          6           0       -1.498061   -1.237514    0.000000
      5          6           0        0.056538    0.762057    0.000000
      6          6           0       -0.056538   -0.762057    0.000000
      7          1           0        2.406126    2.980641    0.000000
      8          1           0       -2.406126   -2.980641    0.000000
      9          1           0       -0.445072    1.179692    0.876807
     10          1           0       -0.445072    1.179692   -0.876807
     11          1           0        0.445072   -1.179692    0.876807
     12          1           0        0.445072   -1.179692   -0.876807
     13          1           0       -2.018661   -0.854825   -0.885586
     14          1           0       -2.018661   -0.854825    0.885586
     15          1           0        2.018661    0.854825   -0.885586
     16          1           0        2.018661    0.854825    0.885586
 ---------------------------------------------------------------------

 SCF Done:  E(RHF) =  -308.473531271     A.U. after    2 cycles

 The electronic state is 1-AG.
 Alpha  occ. eigenvalues --  -21.06433 -21.06432 -11.43497 -11.43332 -11.39649
 Alpha  occ. eigenvalues --  -11.35158  -1.70687  -1.69758  -1.20904  -1.02872
 Alpha  occ. eigenvalues --   -0.88425  -0.83443  -0.67462  -0.65029  -0.62046
 Alpha  occ. eigenvalues --   -0.60731  -0.55610  -0.53064  -0.48299  -0.46641
 Alpha  occ. eigenvalues --   -0.42900  -0.41255  -0.40265  -0.31913  -0.31567
 Alpha virt. eigenvalues --    0.04111   0.04923   0.05214   0.05893   0.06233
 Alpha virt. eigenvalues --    0.06504   0.07316   0.07369   0.08037   0.09242
 Alpha virt. eigenvalues --    0.10110   0.12886   0.14743   0.15178   0.15900

 Mulliken charges:
               1
     1  O   -2.868802
     2  O   -2.868802
     3  C   -0.696771
     4  C   -0.696771
     5  C   -2.970771
     6  C   -2.970771
     7  H    0.832124
     8  H    0.832124
     9  H    1.420088
    10  H    1.420088
    11  H    1.420088
    12  H    1.420088
    13  H    1.432022
    14  H    1.432022
    15  H    1.432022
    16  H    1.432022
 Sum of Mulliken charges =  -0.00000

 Dipole moment (field-independent basis, Debye):
    X=              0.0000    Y=              0.0000    Z=             -0.0000  Tot=              0.0000

 Test job not archived.
 1\1\GINC-SE222\SP\RHF\Aug-CC-pVDZ\C4H10O2\OHZDE\06-Apr-2025\0\\#t hf a
 ug-cc-pvdz iop(5/13=1,5/36=2,99/5=2) pseudo=read geom=check guess=(rea
 d,tcheck) scf=(maxcycle=1)\\title\\0,1\O,0,1.498061,2.666221,0.\O,0,-1
 .498061,-2.666221,0.\C,0,1.498061,1.237514,0.\C,0,-1.498061,-1.237514,
 0.\C,0,0.056538,0.762057,0.\C,0,-0.056538,-0.762057,0.\H,0,2.406126,2.
 980641,0.\H,0,-2.406126,-2.980641,0.\H,0,-0.445072,1.179692,0.876807\H
 ,0,-0.445072,1.179692,-0.876807\H,0,0.445072,-1.179692,0.876807\H,0,0.
 445072,-1.179692,-0.876807\H,0,-2.018661,-0.854825,-0.885586\H,0,-2.01

 Normal termination of Gaussian 16 at Sun Apr  6 07:58:52 2025.
