 Gaussian 16, Revision C.01,

 ----------------------------------------------------------------------
 #t hf aug-cc-pvdz symm=none int=(grid=ultrafine) guess=(read,tcheck) s
 table=(opt,rrhf)
 ----------------------------------------------------------------------
 -----
 title
 -----
 Symbolic Z-matrix:
 Charge =  0 Multiplicity = 1

 SCF Done:  E(RHF) =  -344.273036740     A.U. after   12 cycles

 1\1\GINC-SE084\Stability\RHF\Aug-CC-pVDZ\C6H14N2\OHZDE\06-Apr-2025\0\\
 #t hf aug-cc-pvdz symm=none int=(grid=ultrafine) guess=(read,tcheck) s
 table=(opt,rrhf)\\title\\0,1\C,0,-0.156412,0.744515,1.19888\C,0,0.1564
 12,-0.744515,1.19888\C,0,-0.156412,0.744515,-1.19888\C,0,0.156412,-0.7
 44515,-1.19888\C,0,0.156412,2.817089,0.\C,0,-0.156412,-2.817089,0.\N,0
 ,0.372203,1.382577,0.\N,0,-0.372203,-1.382577,0.\H,0,-1.249175,0.88253
 5,1.278396\H,0,0.300386,1.211676,2.073396\H,0,1.249175,-0.882535,1.278
 396\H,0,-0.300386,-1.211676,2.073396\H,0,0.300386,1.211676,-2.073396\H

 Normal termination of Gaussian 16 at Sun Apr  6 07:59:48 2025.
 Gaussian 16:  ES64L-G16RevC.01  3-Jul-2019

 ----------------------------------------------------------------------
 #t hf aug-cc-pvdz iop(5/13=1,5/36=2,99/5=2) pseudo=read geom=check gue
 ss=(read,tcheck) scf=(maxcycle=1)
 ----------------------------------------------------------------------
 -----
 title
 -----
 Structure from the checkpoint file:  "1-4-dimethylpiperazine.chk"
 Charge =  0 Multiplicity = 1

                         Standard orientation:
 ---------------------------------------------------------------------
 Center     Atomic      Atomic             Coordinates (Angstroms)
 Number     Number       Type             X           Y           Z
 ---------------------------------------------------------------------
      1          6           0       -0.156412    0.744515    1.198880
      2          6           0        0.156412   -0.744515    1.198880
      3          6           0       -0.156412    0.744515   -1.198880
      4          6           0        0.156412   -0.744515   -1.198880
      5          6           0        0.156412    2.817089   -0.000000
      6          6           0       -0.156412   -2.817089   -0.000000
      7          7           0        0.372203    1.382577   -0.000000
      8          7           0       -0.372203   -1.382577   -0.000000
      9          1           0       -1.249175    0.882535    1.278396
     10          1           0        0.300386    1.211676    2.073396
     11          1           0        1.249175   -0.882535    1.278396
     12          1           0       -0.300386   -1.211676    2.073396
     13          1           0        0.300386    1.211676   -2.073396
     14          1           0       -1.249175    0.882535   -1.278396
     15          1           0       -0.300386   -1.211676   -2.073396
     16          1           0        1.249175   -0.882535   -1.278396
     17          1           0        0.618271    3.260208    0.882966
     18          1           0       -0.912825    3.090807   -0.000000
     19          1           0        0.618271    3.260208   -0.882966
     20          1           0        0.912825   -3.090807   -0.000000
     21          1           0       -0.618271   -3.260208   -0.882966
     22          1           0       -0.618271   -3.260208    0.882966
 ---------------------------------------------------------------------

 SCF Done:  E(RHF) =  -345.999058452     A.U. after    2 cycles

 The electronic state is 1-AG.
 Alpha  occ. eigenvalues --  -15.69540 -15.69510 -11.47213 -11.42368 -11.37925
 Alpha  occ. eigenvalues --  -11.37719 -11.36696 -11.35778  -1.48307  -1.36438
 Alpha  occ. eigenvalues --   -1.13342  -1.08092  -0.97368  -0.92143  -0.86878
 Alpha  occ. eigenvalues --   -0.77475  -0.66532  -0.63780  -0.63441  -0.62304
 Alpha  occ. eigenvalues --   -0.61681  -0.56115  -0.54971  -0.53688  -0.52940
 Alpha  occ. eigenvalues --   -0.51358  -0.48102  -0.45466  -0.42173  -0.41105
 Alpha  occ. eigenvalues --   -0.30963  -0.30230
 Alpha virt. eigenvalues --    0.04613   0.05238   0.05441   0.05529   0.05816
 Alpha virt. eigenvalues --    0.06084   0.06281   0.06711   0.06982   0.07706
 Alpha virt. eigenvalues --    0.08053   0.08282   0.08896   0.10323   0.12289

 Mulliken charges:
               1
     1  C   -2.082866
     2  C   -2.082866
     3  C   -2.082866
     4  C   -2.082866
     5  C   -4.203882
     6  C   -4.203882
     7  N   -1.773090
     8  N   -1.773090
     9  H    1.608110
    10  H    1.388031
    11  H    1.608110
    12  H    1.388031
    13  H    1.388031
    14  H    1.608110
    15  H    1.388031
    16  H    1.608110
    17  H    1.345423
    18  H    1.459576
    19  H    1.345423
    20  H    1.459576
    21  H    1.345423
    22  H    1.345423
 Sum of Mulliken charges =  -0.00000

 Dipole moment (field-independent basis, Debye):
    X=             -0.0000    Y=             -0.0000    Z=              0.0000  Tot=              0.0000

 Test job not archived.
 1\1\GINC-SE084\SP\RHF\Aug-CC-pVDZ\C6H14N2\OHZDE\06-Apr-2025\0\\#t hf a
 ug-cc-pvdz iop(5/13=1,5/36=2,99/5=2) pseudo=read geom=check guess=(rea
 d,tcheck) scf=(maxcycle=1)\\title\\0,1\C,0,-0.156412,0.744515,1.19888\
 C,0,0.156412,-0.744515,1.19888\C,0,-0.156412,0.744515,-1.19888\C,0,0.1
 56412,-0.744515,-1.19888\C,0,0.156412,2.817089,0.\C,0,-0.156412,-2.817
 089,0.\N,0,0.372203,1.382577,0.\N,0,-0.372203,-1.382577,0.\H,0,-1.2491
 75,0.882535,1.278396\H,0,0.300386,1.211676,2.073396\H,0,1.249175,-0.88
 2535,1.278396\H,0,-0.300386,-1.211676,2.073396\H,0,0.300386,1.211676,-

 Normal termination of Gaussian 16 at Sun Apr  6 07:59:57 2025.
