 Gaussian 16, Revision C.01,

 ----------------------------------------------------------------------
 #t hf aug-cc-pvdz symm=none int=(grid=ultrafine) guess=(read,tcheck) s
 table=(opt,rrhf)
 ----------------------------------------------------------------------
 -----
 title
 -----
 Symbolic Z-matrix:
 Charge =  0 Multiplicity = 1

 SCF Done:  E(RHF) =  -398.513978898     A.U. after   15 cycles
 Normal termination of Gaussian 16 at Sun Apr  6 07:59:49 2025.
 Gaussian 16:  ES64L-G16RevC.01  3-Jul-2019

 ----------------------------------------------------------------------
 #t hf aug-cc-pvdz iop(5/13=1,5/36=2,99/5=2) pseudo=read geom=check gue
 ss=(read,tcheck) scf=(maxcycle=1)
 ----------------------------------------------------------------------
 -----
 title
 -----
 Structure from the checkpoint file:  "1-4-pyridylethanone.chk"
 Charge =  0 Multiplicity = 1

                         Standard orientation:
 ---------------------------------------------------------------------
 Center     Atomic      Atomic             Coordinates (Angstroms)
 Number     Number       Type             X           Y           Z
 ---------------------------------------------------------------------
      1          6           0       -1.004320   -0.762666    0.000000
      2          6           0        1.322736   -0.237244    0.000000
      3          6           0       -0.645499   -2.106337    0.000000
      4          6           0        1.576679   -1.600518    0.000000
      5          6           0        0.000000    0.203071    0.000000
      6          6           0       -0.278823    1.682041    0.000000
      7          6           0       -1.715872    2.149965    0.000000
      8          7           0        0.617006   -2.529678    0.000000
      9          8           0        0.639001    2.474708    0.000000
     10          1           0       -2.050239   -0.492383    0.000000
     11          1           0        2.126827    0.484056    0.000000
     12          1           0       -1.409957   -2.874662    0.000000
     13          1           0        2.596288   -1.967380    0.000000
     14          1           0       -2.245005    1.777377    0.878947
     15          1           0       -2.245005    1.777377   -0.878947
     16          1           0       -1.733367    3.235824    0.000000
 ---------------------------------------------------------------------

 SCF Done:  E(RHF) =  -400.341406556     A.U. after    2 cycles

 The electronic state is 1-A'.
 Alpha  occ. eigenvalues --  -21.06319 -15.75212 -11.52382 -11.48786 -11.46081
 Alpha  occ. eigenvalues --  -11.44994 -11.43307 -11.40785 -11.39024  -1.72273
 Alpha  occ. eigenvalues --   -1.45841  -1.22634  -1.12957  -1.10549  -0.93750
 Alpha  occ. eigenvalues --   -0.90239  -0.79587  -0.70722  -0.66112  -0.62605
 Alpha  occ. eigenvalues --   -0.61224  -0.61168  -0.60365  -0.55394  -0.54648
 Alpha  occ. eigenvalues --   -0.50136  -0.46936  -0.45801  -0.37243  -0.36185
 Alpha  occ. eigenvalues --   -0.35002  -0.29833
 Alpha virt. eigenvalues --    0.02839   0.04707   0.05758   0.05869   0.05921
 Alpha virt. eigenvalues --    0.07102   0.07374   0.08220   0.08300   0.10809
 Alpha virt. eigenvalues --    0.11105   0.11295   0.11821   0.12533   0.12696

 Mulliken charges:
               1
     1  C    0.370610
     2  C   -2.959864
     3  C   -2.022278
     4  C   -1.358295
     5  C    4.187822
     6  C    4.561240
     7  C   -5.430819
     8  N   -3.615449
     9  O   -3.798963
    10  H    1.705938
    11  H    1.658759
    12  H    1.484184
    13  H    1.462736
    14  H    1.304459
    15  H    1.304459
    16  H    1.145462
 Sum of Mulliken charges =   0.00000

 Dipole moment (field-independent basis, Debye):
    X=             -1.2533    Y=              0.7988    Z=             -0.0000  Tot=              1.4862

 Test job not archived.
 1\1\GINC-SE028\SP\RHF\Aug-CC-pVDZ\C7H7N1O1\OHZDE\06-Apr-2025\0\\#t hf
 aug-cc-pvdz iop(5/13=1,5/36=2,99/5=2) pseudo=read geom=check guess=(re
 ad,tcheck) scf=(maxcycle=1)\\title\\0,1\C,0,-1.00432,-0.762666,0.\C,0,
 1.322736,-0.237243,0.\C,0,-0.645498,-2.106337,0.\C,0,1.57668,-1.600517
 ,0.\C,0,0.,0.203071,0.\C,0,-0.278823,1.682041,0.\C,0,-1.715873,2.14996
 5,0.\N,0,0.617007,-2.529678,0.\O,0,0.639,2.474708,0.\H,0,-2.050239,-0.
 492383,0.\H,0,2.126827,0.484057,0.\H,0,-1.409956,-2.874662,0.\H,0,2.59
 6289,-1.967379,0.\H,0,-2.245005,1.777376,0.878947\H,0,-2.245005,1.7773

 Normal termination of Gaussian 16 at Sun Apr  6 07:59:57 2025.
