 Gaussian 16, Revision C.01,

 ----------------------------------------------------------------------
 #t hf aug-cc-pvdz symm=none int=(grid=ultrafine) guess=(read,tcheck) s
 table=(opt,rrhf)
 ----------------------------------------------------------------------
 -----
 title
 -----
 Symbolic Z-matrix:
 Charge =  0 Multiplicity = 1

 SCF Done:  E(RHF) =  -231.861152032     A.U. after   11 cycles
 Normal termination of Gaussian 16 at Sun Apr  6 07:58:43 2025.
 Gaussian 16:  ES64L-G16RevC.01  3-Jul-2019

 ----------------------------------------------------------------------
 #t hf aug-cc-pvdz iop(5/13=1,5/36=2,99/5=2) pseudo=read geom=check gue
 ss=(read,tcheck) scf=(maxcycle=1)
 ----------------------------------------------------------------------
 -----
 title
 -----
 Structure from the checkpoint file:  "1-4-cyclohexadiene.chk"
 Charge =  0 Multiplicity = 1

                         Standard orientation:
 ---------------------------------------------------------------------
 Center     Atomic      Atomic             Coordinates (Angstroms)
 Number     Number       Type             X           Y           Z
 ---------------------------------------------------------------------
      1          6           0        1.494187   -0.000000   -0.000000
      2          6           0       -1.494187    0.000000   -0.000000
      3          6           0       -0.664224    1.251037    0.000000
      4          6           0        0.664224    1.251037    0.000000
      5          6           0       -0.664224   -1.251037   -0.000000
      6          6           0        0.664224   -1.251037    0.000000
      7          1           0        1.198840   -2.194197    0.000000
      8          1           0       -1.198840   -2.194197   -0.000000
      9          1           0        1.198840    2.194197    0.000000
     10          1           0       -1.198840    2.194197    0.000000
     11          1           0        2.167593   -0.000000    0.866807
     12          1           0       -2.167593    0.000000    0.866807
     13          1           0        2.167593   -0.000000   -0.866807
     14          1           0       -2.167593   -0.000000   -0.866807
 ---------------------------------------------------------------------

 SCF Done:  E(RHF) =  -233.009226816     A.U. after    2 cycles

 The electronic state is 1-AG.
 Alpha  occ. eigenvalues --  -11.48568 -11.41653 -11.40440 -11.40350 -11.37613
 Alpha  occ. eigenvalues --  -11.35094  -1.31096  -1.09564  -1.08431  -0.90284
 Alpha  occ. eigenvalues --   -0.82093  -0.69282  -0.67022  -0.59698  -0.57820
 Alpha  occ. eigenvalues --   -0.56389  -0.53129  -0.52634  -0.44269  -0.40389
 Alpha  occ. eigenvalues --   -0.35085  -0.31333
 Alpha virt. eigenvalues --    0.03395   0.05001   0.05582   0.05624   0.06236
 Alpha virt. eigenvalues --    0.06276   0.07768   0.07927   0.10077   0.12565
 Alpha virt. eigenvalues --    0.13113   0.14171   0.14239   0.14284   0.15229

 Mulliken charges:
               1
     1  C   -5.008554
     2  C   -5.008554
     3  C   -0.076567
     4  C   -0.076567
     5  C   -0.076567
     6  C   -0.076567
     7  H    1.408725
     8  H    1.408725
     9  H    1.408725
    10  H    1.408725
    11  H    1.172119
    12  H    1.172119
    13  H    1.172119
    14  H    1.172119
 Sum of Mulliken charges =  -0.00000

 Dipole moment (field-independent basis, Debye):
    X=             -0.0000    Y=              0.0000    Z=             -0.0000  Tot=              0.0000

 Test job not archived.
 1\1\GINC-SE047\SP\RHF\Aug-CC-pVDZ\C6H8\OHZDE\06-Apr-2025\0\\#t hf aug-
 cc-pvdz iop(5/13=1,5/36=2,99/5=2) pseudo=read geom=check guess=(read,t
 check) scf=(maxcycle=1)\\title\\0,1\C,0,1.494187,0.,0.\C,0,-1.494187,0
 .,0.\C,0,-0.664224,1.251037,0.\C,0,0.664224,1.251037,0.\C,0,-0.664224,
 -1.251037,0.\C,0,0.664224,-1.251037,0.\H,0,1.19884,-2.194197,0.\H,0,-1
 .19884,-2.194197,0.\H,0,1.19884,2.194197,0.\H,0,-1.19884,2.194197,0.\H
 ,0,2.167593,0.,0.866807\H,0,-2.167593,0.,0.866807\H,0,2.167593,0.,-0.8
 66807\H,0,-2.167593,0.,-0.866807\\Version=ES64L-G16RevC.01\State=1-AG\

 Normal termination of Gaussian 16 at Sun Apr  6 07:58:51 2025.
