 Gaussian 16, Revision C.01,

 ----------------------------------------------------------------------
 #t hf aug-cc-pvdz symm=none int=(grid=ultrafine) guess=(read,tcheck) s
 table=(opt,rrhf)
 ----------------------------------------------------------------------
 -----
 title
 -----
 Symbolic Z-matrix:
 Charge =  0 Multiplicity = 1

 SCF Done:  E(RHF) =  -193.973105702     A.U. after   12 cycles
 Normal termination of Gaussian 16 at Sun Apr  6 07:58:58 2025.
 Gaussian 16:  ES64L-G16RevC.01  3-Jul-2019

 ----------------------------------------------------------------------
 #t hf aug-cc-pvdz iop(5/13=1,5/36=2,99/5=2) pseudo=read geom=check gue
 ss=(read,tcheck) scf=(maxcycle=1)
 ----------------------------------------------------------------------
 -----
 title
 -----
 Structure from the checkpoint file:  "1-4-pentadiene.chk"
 Charge =  0 Multiplicity = 1

                         Standard orientation:
 ---------------------------------------------------------------------
 Center     Atomic      Atomic             Coordinates (Angstroms)
 Number     Number       Type             X           Y           Z
 ---------------------------------------------------------------------
      1          6           0       -0.175224    0.514096    2.220039
      2          6           0       -0.175224    0.514096   -2.220039
      3          6           0       -0.175224   -0.393919    1.253232
      4          6           0       -0.175224   -0.393919   -1.253232
      5          6           0        0.654344   -0.322824    0.000000
      6          1           0       -0.793280    0.403263    3.100778
      7          1           0        0.443638    1.401787    2.165483
      8          1           0       -0.793280    0.403263   -3.100778
      9          1           0        0.443638    1.401787   -2.165483
     10          1           0       -0.815578   -1.266462    1.348079
     11          1           0       -0.815578   -1.266462   -1.348079
     12          1           0        1.352792   -1.169518    0.000000
     13          1           0        1.256964    0.587167    0.000000
 ---------------------------------------------------------------------

 SCF Done:  E(RHF) =  -194.945978665     A.U. after    2 cycles

 The electronic state is 1-A'.
 Alpha  occ. eigenvalues --  -11.43682 -11.41093 -11.39001 -11.37623 -11.36119
 Alpha  occ. eigenvalues --   -1.25433  -1.11480  -0.98001  -0.80488  -0.78284
 Alpha  occ. eigenvalues --   -0.64003  -0.63776  -0.57760  -0.53873  -0.52649
 Alpha  occ. eigenvalues --   -0.47608  -0.46502  -0.34446  -0.34205
 Alpha virt. eigenvalues --    0.03827   0.05374   0.05701   0.06042   0.06115
 Alpha virt. eigenvalues --    0.06390   0.07248   0.07420   0.10674   0.12423
 Alpha virt. eigenvalues --    0.12673   0.13148   0.13291   0.14834   0.14856

 Mulliken charges:
               1
     1  C   -3.362043
     2  C   -3.362043
     3  C    0.041411
     4  C    0.041411
     5  C   -4.288272
     6  H    1.355664
     7  H    1.417895
     8  H    1.355664
     9  H    1.417895
    10  H    1.350679
    11  H    1.350679
    12  H    1.270869
    13  H    1.410190
 Sum of Mulliken charges =   0.00000

 Dipole moment (field-independent basis, Debye):
    X=              0.1145    Y=             -0.2550    Z=             -0.0000  Tot=              0.2796

 Test job not archived.
 1\1\GINC-SE023\SP\RHF\Aug-CC-pVDZ\C5H8\OHZDE\06-Apr-2025\0\\#t hf aug-
 cc-pvdz iop(5/13=1,5/36=2,99/5=2) pseudo=read geom=check guess=(read,t
 check) scf=(maxcycle=1)\\title\\0,1\C,0,-0.175224,0.514096,2.220039\C,
 0,-0.175224,0.514096,-2.220039\C,0,-0.175224,-0.393919,1.253232\C,0,-0
 .175224,-0.393919,-1.253232\C,0,0.654344,-0.322824,0.\H,0,-0.79328,0.4
 03263,3.100778\H,0,0.443638,1.401787,2.165483\H,0,-0.79328,0.403263,-3
 .100778\H,0,0.443638,1.401787,-2.165483\H,0,-0.815578,-1.266462,1.3480
 79\H,0,-0.815578,-1.266462,-1.348079\H,0,1.352792,-1.169518,0.\H,0,1.2

 Normal termination of Gaussian 16 at Sun Apr  6 07:59:01 2025.
