 Gaussian 16, Revision C.01,

 ----------------------------------------------------------------------
 #t hf aug-cc-pvdz symm=none int=(grid=ultrafine) guess=(read,tcheck) s
 table=(opt,rrhf)
 ----------------------------------------------------------------------
 -----
 title
 -----
 Symbolic Z-matrix:
 Charge =  0 Multiplicity = 1

 SCF Done:  E(RHF) =  -269.641728422     A.U. after   13 cycles
 Normal termination of Gaussian 16 at Sun Apr  6 07:59:20 2025.
 Gaussian 16:  ES64L-G16RevC.01  3-Jul-2019

 ----------------------------------------------------------------------
 #t hf aug-cc-pvdz iop(5/13=1,5/36=2,99/5=2) pseudo=read geom=check gue
 ss=(read,tcheck) scf=(maxcycle=1)
 ----------------------------------------------------------------------
 -----
 title
 -----
 Structure from the checkpoint file:  "1-5-heptadiyne.chk"
 Charge =  0 Multiplicity = 1

                         Standard orientation:
 ---------------------------------------------------------------------
 Center     Atomic      Atomic             Coordinates (Angstroms)
 Number     Number       Type             X           Y           Z
 ---------------------------------------------------------------------
      1          6           0       -2.375167    1.623271   -0.199143
      2          6           0       -2.007050    0.527064    0.118833
      3          6           0        1.874986   -0.008026   -0.044601
      4          6           0        0.850272   -0.614152   -0.202794
      5          6           0        3.114009    0.734257    0.139370
      6          6           0       -1.564604   -0.810976    0.487974
      7          6           0       -0.398446   -1.345731   -0.378509
      8          1           0       -2.697409    2.595513   -0.476233
      9          1           0        3.585287    0.955741   -0.819838
     10          1           0        2.929194    1.683095    0.646012
     11          1           0        3.828780    0.168899    0.739903
     12          1           0       -2.406200   -1.502168    0.396639
     13          1           0       -1.262452   -0.817791    1.537388
     14          1           0       -0.697428   -1.320675   -1.428857
     15          1           0       -0.243770   -2.396855   -0.121794
 ---------------------------------------------------------------------

 SCF Done:  E(RHF) =  -270.963991017     A.U. after    2 cycles

 The electronic state is 1-A.
 Alpha  occ. eigenvalues --  -11.47559 -11.44217 -11.43267 -11.40050 -11.39375
 Alpha  occ. eigenvalues --  -11.37953 -11.37849  -1.26186  -1.15458  -1.07463
 Alpha  occ. eigenvalues --   -0.98926  -0.91361  -0.73265  -0.67531  -0.64242
 Alpha  occ. eigenvalues --   -0.60771  -0.58103  -0.57965  -0.54852  -0.53111
 Alpha  occ. eigenvalues --   -0.52620  -0.36877  -0.36259  -0.34115  -0.33541
 Alpha virt. eigenvalues --    0.03000   0.04565   0.05287   0.05866   0.06234
 Alpha virt. eigenvalues --    0.06586   0.06811   0.07285   0.09735   0.10572
 Alpha virt. eigenvalues --    0.11380   0.11897   0.12346   0.13209   0.13379

 Mulliken charges:
               1
     1  C   -4.471432
     2  C    4.821836
     3  C    1.996811
     4  C    3.170255
     5  C   -5.261913
     6  C   -3.810266
     7  C   -4.032670
     8  H    0.772005
     9  H    0.877702
    10  H    0.879274
    11  H    0.891066
    12  H    1.147312
    13  H    1.266274
    14  H    0.929931
    15  H    0.823815
 Sum of Mulliken charges =   0.00000

 Dipole moment (field-independent basis, Debye):
    X=              0.4370    Y=             -0.2911    Z=              0.1099  Tot=              0.5365

 Test job not archived.
 1\1\GINC-SE038\SP\RHF\Aug-CC-pVDZ\C7H8\OHZDE\06-Apr-2025\0\\#t hf aug-
 cc-pvdz iop(5/13=1,5/36=2,99/5=2) pseudo=read geom=check guess=(read,t
 check) scf=(maxcycle=1)\\title\\0,1\C,0,-2.375167,1.623271,-0.199143\C
 ,0,-2.00705,0.527064,0.118833\C,0,1.874986,-0.008026,-0.044601\C,0,0.8
 50272,-0.614152,-0.202794\C,0,3.114009,0.734257,0.13937\C,0,-1.564604,
 -0.810976,0.487974\C,0,-0.398446,-1.345731,-0.378509\H,0,-2.697409,2.5
 95513,-0.476233\H,0,3.585287,0.955741,-0.819838\H,0,2.929194,1.683095,
 0.646012\H,0,3.82878,0.168899,0.739903\H,0,-2.4062,-1.502168,0.396639\

 Normal termination of Gaussian 16 at Sun Apr  6 07:59:26 2025.
