 Gaussian 16, Revision C.01,

 ----------------------------------------------------------------------
 #t hf aug-cc-pvdz symm=none int=(grid=ultrafine) guess=(read,tcheck) s
 table=(opt,rrhf)
 ----------------------------------------------------------------------
 -----
 title
 -----
 Symbolic Z-matrix:
 Charge =  0 Multiplicity = 1

 SCF Done:  E(RHF) =  -233.011801707     A.U. after   12 cycles
 Normal termination of Gaussian 16 at Sun Apr  6 07:59:12 2025.
 Gaussian 16:  ES64L-G16RevC.01  3-Jul-2019

 ----------------------------------------------------------------------
 #t hf aug-cc-pvdz iop(5/13=1,5/36=2,99/5=2) pseudo=read geom=check gue
 ss=(read,tcheck) scf=(maxcycle=1)
 ----------------------------------------------------------------------
 -----
 title
 -----
 Structure from the checkpoint file:  "1-5-hexadiene.chk"
 Charge =  0 Multiplicity = 1

                         Standard orientation:
 ---------------------------------------------------------------------
 Center     Atomic      Atomic             Coordinates (Angstroms)
 Number     Number       Type             X           Y           Z
 ---------------------------------------------------------------------
      1          6           0        0.143509    2.259213   -0.972760
      2          6           0       -0.143509   -2.259213   -0.972760
      3          6           0       -0.493542    1.494787   -0.095250
      4          6           0        0.493542   -1.494787   -0.095250
      5          6           0        0.143509    0.758656    1.044302
      6          6           0       -0.143509   -0.758656    1.044302
      7          1           0       -0.382876    2.769274   -1.768280
      8          1           0        1.216623    2.403065   -0.926974
      9          1           0        0.382876   -2.769274   -1.768280
     10          1           0       -1.216623   -2.403065   -0.926974
     11          1           0       -1.570475    1.377799   -0.187498
     12          1           0        1.570475   -1.377799   -0.187498
     13          1           0       -0.232692    1.168727    1.987200
     14          1           0        1.222919    0.929600    1.037802
     15          1           0       -1.222919   -0.929600    1.037802
     16          1           0        0.232692   -1.168727    1.987200
 ---------------------------------------------------------------------

 SCF Done:  E(RHF) =  -234.190437713     A.U. after    2 cycles

 The electronic state is 1-A.
 Alpha  occ. eigenvalues --  -11.44517 -11.41571 -11.39569 -11.38374 -11.36754
 Alpha  occ. eigenvalues --  -11.35448  -1.26664  -1.15017  -1.03610  -0.91144
 Alpha  occ. eigenvalues --   -0.79178  -0.77864  -0.64607  -0.62680  -0.59493
 Alpha  occ. eigenvalues --   -0.58614  -0.53734  -0.50096  -0.47958  -0.45756
 Alpha  occ. eigenvalues --   -0.44502  -0.34429  -0.33490
 Alpha virt. eigenvalues --    0.04027   0.05405   0.05469   0.05691   0.05704
 Alpha virt. eigenvalues --    0.06057   0.06210   0.06576   0.08241   0.08659
 Alpha virt. eigenvalues --    0.11155   0.11320   0.12234   0.13538   0.14247

 Mulliken charges:
               1
     1  C   -3.286939
     2  C   -3.286939
     3  C   -0.035601
     4  C   -0.035601
     5  C   -3.529437
     6  C   -3.529437
     7  H    1.389484
     8  H    1.402561
     9  H    1.389484
    10  H    1.402561
    11  H    1.388166
    12  H    1.388166
    13  H    1.264088
    14  H    1.407679
    15  H    1.407679
    16  H    1.264088
 Sum of Mulliken charges =  -0.00000

 Dipole moment (field-independent basis, Debye):
    X=              0.0000    Y=              0.0000    Z=              0.4286  Tot=              0.4286

 Test job not archived.
 1\1\GINC-SE041\SP\RHF\Aug-CC-pVDZ\C6H10\OHZDE\06-Apr-2025\0\\#t hf aug
 -cc-pvdz iop(5/13=1,5/36=2,99/5=2) pseudo=read geom=check guess=(read,
 tcheck) scf=(maxcycle=1)\\title\\0,1\C,0,0.143509,2.259213,-0.97276\C,
 0,-0.143509,-2.259213,-0.97276\C,0,-0.493542,1.494787,-0.09525\C,0,0.4
 93542,-1.494787,-0.09525\C,0,0.143509,0.758656,1.044302\C,0,-0.143509,
 -0.758656,1.044302\H,0,-0.382876,2.769274,-1.76828\H,0,1.216623,2.4030
 65,-0.926974\H,0,0.382876,-2.769274,-1.76828\H,0,-1.216623,-2.403065,-
 0.926974\H,0,-1.570475,1.377799,-0.187498\H,0,1.570475,-1.377799,-0.18

 Normal termination of Gaussian 16 at Sun Apr  6 07:59:16 2025.
