 Gaussian 16, Revision C.01,

 ----------------------------------------------------------------------
 #t hf aug-cc-pvdz symm=none int=(grid=ultrafine) guess=(read,tcheck) s
 table=(opt,rrhf)
 ----------------------------------------------------------------------
 -----
 title
 -----
 Symbolic Z-matrix:
 Charge =  0 Multiplicity = 1

 SCF Done:  E(RHF) =  -461.476556854     A.U. after   15 cycles
 Normal termination of Gaussian 16 at Sun Apr  6 08:02:36 2025.
 Gaussian 16:  ES64L-G16RevC.01  3-Jul-2019

 ----------------------------------------------------------------------
 #t hf aug-cc-pvdz iop(5/13=1,5/36=2,99/5=2) pseudo=read geom=check gue
 ss=(read,tcheck) scf=(maxcycle=1)
 ----------------------------------------------------------------------
 -----
 title
 -----
 Structure from the checkpoint file:  "1-6-dimethylnaphthalene.chk"
 Charge =  0 Multiplicity = 1

                         Standard orientation:
 ---------------------------------------------------------------------
 Center     Atomic      Atomic             Coordinates (Angstroms)
 Number     Number       Type             X           Y           Z
 ---------------------------------------------------------------------
      1          6           0       -0.072264    1.827345   -0.349034
      2          6           0        0.072264   -1.827345    0.349034
      3          6           0       -1.374617    2.108960   -0.034074
      4          6           0        1.374617   -2.108960    0.034074
      5          6           0        1.779072    0.182743   -0.544682
      6          6           0       -1.779072   -0.182743    0.544682
      7          6           0        0.438570    0.512106   -0.228855
      8          6           0       -0.438570   -0.512106    0.228855
      9          6           0       -2.259063    1.098577    0.422509
     10          6           0        2.259063   -1.098577   -0.422509
     11          6           0       -3.684425    1.447260    0.756865
     12          6           0        3.684425   -1.447260   -0.756865
     13          1           0        0.585539    2.614560   -0.696015
     14          1           0       -0.585539   -2.614560    0.696015
     15          1           0       -1.742638    3.122803   -0.134031
     16          1           0        1.742638   -3.122803    0.134031
     17          1           0        2.435555    0.972293   -0.891642
     18          1           0       -2.435555   -0.972293    0.891642
     19          1           0       -4.237087    0.574737    1.102510
     20          1           0       -3.731712    2.207391    1.539862
     21          1           0       -4.206005    1.852269   -0.113324
     22          1           0        4.206005   -1.852269    0.113324
     23          1           0        3.731712   -2.207391   -1.539862
     24          1           0        4.237087   -0.574737   -1.102510
 ---------------------------------------------------------------------

 SCF Done:  E(RHF) =  -463.727888046     A.U. after    2 cycles

 The electronic state is 1-AG.
 Alpha  occ. eigenvalues --  -11.51118 -11.48616 -11.43796 -11.43432 -11.43205
 Alpha  occ. eigenvalues --  -11.42687 -11.41439 -11.40701 -11.39933 -11.38590
 Alpha  occ. eigenvalues --  -11.38548 -11.35514  -1.40085  -1.26425  -1.14369
 Alpha  occ. eigenvalues --   -1.14070  -1.04963  -1.03211  -0.95928  -0.88564
 Alpha  occ. eigenvalues --   -0.84471  -0.82547  -0.70764  -0.68360  -0.63916
 Alpha  occ. eigenvalues --   -0.62662  -0.58205  -0.57703  -0.57673  -0.57229
 Alpha  occ. eigenvalues --   -0.56046  -0.52741  -0.51521  -0.51222  -0.48841
 Alpha  occ. eigenvalues --   -0.45501  -0.42344  -0.41215  -0.40623  -0.37406
 Alpha  occ. eigenvalues --   -0.29967  -0.26763
 Alpha virt. eigenvalues --    0.03443   0.04456   0.05225   0.05447   0.05823
 Alpha virt. eigenvalues --    0.06101   0.06581   0.06763   0.07504   0.07527
 Alpha virt. eigenvalues --    0.08699   0.09164   0.09642   0.10324   0.11069

 Mulliken charges:
               1
     1  C   -4.880258
     2  C   -4.880258
     3  C   -5.464707
     4  C   -5.464707
     5  C   -0.714408
     6  C   -0.714408
     7  C    7.075003
     8  C    7.075003
     9  C    0.970661
    10  C    0.970661
    11  C   -5.876811
    12  C   -5.876811
    13  H    1.852115
    14  H    1.852115
    15  H    1.771327
    16  H    1.771327
    17  H    1.979814
    18  H    1.979814
    19  H    1.305524
    20  H    0.989813
    21  H    0.991927
    22  H    0.991927
    23  H    0.989813
    24  H    1.305524
 Sum of Mulliken charges =   0.00000

 Dipole moment (field-independent basis, Debye):
    X=             -0.0000    Y=             -0.0000    Z=             -0.0000  Tot=              0.0000

 Test job not archived.
 1\1\GINC-SE155\SP\RHF\Aug-CC-pVDZ\C12H12\OHZDE\06-Apr-2025\0\\#t hf au
 g-cc-pvdz iop(5/13=1,5/36=2,99/5=2) pseudo=read geom=check guess=(read
 ,tcheck) scf=(maxcycle=1)\\title\\0,1\C,0,-0.072264,1.827345,-0.349034
 \C,0,0.072264,-1.827345,0.349034\C,0,-1.374617,2.10896,-0.034074\C,0,1
 .374617,-2.10896,0.034074\C,0,1.779072,0.182743,-0.544682\C,0,-1.77907
 2,-0.182743,0.544682\C,0,0.43857,0.512106,-0.228855\C,0,-0.43857,-0.51
 2106,0.228855\C,0,-2.259063,1.098577,0.422509\C,0,2.259063,-1.098577,-
 0.422509\C,0,-3.684425,1.44726,0.756865\C,0,3.684425,-1.44726,-0.75686

 Normal termination of Gaussian 16 at Sun Apr  6 08:02:56 2025.
