 Gaussian 16, Revision C.01,

 ----------------------------------------------------------------------
 #t hf aug-cc-pvdz symm=none int=(grid=ultrafine) guess=(read,tcheck) s
 table=(opt,rrhf)
 ----------------------------------------------------------------------
 -----
 title
 -----
 Symbolic Z-matrix:
 Charge =  0 Multiplicity = 1

 SCF Done:  E(RHF) =  -316.573701508     A.U. after   16 cycles
 Normal termination of Gaussian 16 at Sun Apr  6 07:58:58 2025.
 Gaussian 16:  ES64L-G16RevC.01  3-Jul-2019

 ----------------------------------------------------------------------
 #t hf aug-cc-pvdz iop(5/13=1,5/36=2,99/5=2) pseudo=read geom=check gue
 ss=(read,tcheck) scf=(maxcycle=1)
 ----------------------------------------------------------------------
 -----
 title
 -----
 Structure from the checkpoint file:  "1-amino-1-2-dicyanoethene.chk"
 Charge =  0 Multiplicity = 1

                         Standard orientation:
 ---------------------------------------------------------------------
 Center     Atomic      Atomic             Coordinates (Angstroms)
 Number     Number       Type             X           Y           Z
 ---------------------------------------------------------------------
      1          7           0       -0.215113    1.497969   -0.037148
      2          7           0       -2.925719   -0.543036    0.011247
      3          7           0        2.995579   -0.108089    0.011842
      4          6           0       -0.435847    0.155615   -0.006082
      5          6           0        0.526381   -0.803968   -0.007016
      6          6           0       -1.814276   -0.244776   -0.000475
      7          6           0        1.891978   -0.450754    0.001475
      8          1           0        0.725085    1.844501    0.057268
      9          1           0       -0.969933    2.136882    0.130733
     10          1           0        0.252209   -1.846001   -0.016996
 ---------------------------------------------------------------------

 SCF Done:  E(RHF) =  -317.989440584     A.U. after    2 cycles

 The electronic state is 1-A.
 Alpha  occ. eigenvalues --  -15.82259 -15.80580 -15.77473 -11.56679 -11.47426
 Alpha  occ. eigenvalues --  -11.46944 -11.43940  -1.47337  -1.33058  -1.32235
 Alpha  occ. eigenvalues --   -1.16849  -0.99056  -0.79702  -0.75219  -0.67980
 Alpha  occ. eigenvalues --   -0.63688  -0.59859  -0.55894  -0.52967  -0.49786
 Alpha  occ. eigenvalues --   -0.48527  -0.46301  -0.45375  -0.32536
 Alpha virt. eigenvalues --    0.02364   0.05200   0.06280   0.07198   0.08470
 Alpha virt. eigenvalues --    0.09174   0.10188   0.11147   0.11746   0.12049
 Alpha virt. eigenvalues --    0.12256   0.13439   0.13634   0.14284   0.15906

 Mulliken charges:
               1
     1  N   -3.514964
     2  N   -2.412925
     3  N   -2.285139
     4  C    2.841339
     5  C   -1.073219
     6  C    1.275005
     7  C    1.915683
     8  H    0.676854
     9  H    0.766022
    10  H    1.811344
 Sum of Mulliken charges =   0.00000

 Dipole moment (field-independent basis, Debye):
    X=             -1.2524    Y=              2.0244    Z=              0.2714  Tot=              2.3959

 Test job not archived.
 1\1\GINC-SE212\SP\RHF\Aug-CC-pVDZ\C4H3N3\OHZDE\06-Apr-2025\0\\#t hf au
 g-cc-pvdz iop(5/13=1,5/36=2,99/5=2) pseudo=read geom=check guess=(read
 ,tcheck) scf=(maxcycle=1)\\title\\0,1\N,0,-0.215113,1.497969,-0.037148
 \N,0,-2.925719,-0.543036,0.011247\N,0,2.995579,-0.108089,0.011842\C,0,
 -0.435847,0.155615,-0.006082\C,0,0.526381,-0.803968,-0.007016\C,0,-1.8
 14276,-0.244776,-0.000475\C,0,1.891978,-0.450754,0.001475\H,0,0.725085
 ,1.844501,0.057268\H,0,-0.969933,2.136882,0.130733\H,0,0.252209,-1.846
 001,-0.016996\\Version=ES64L-G16RevC.01\State=1-A\HF=-317.9894406\RMSD

 Normal termination of Gaussian 16 at Sun Apr  6 07:59:02 2025.
