 Gaussian 16, Revision C.01,

 ----------------------------------------------------------------------
 #t hf aug-cc-pvdz symm=none int=(grid=ultrafine) guess=(read,tcheck) s
 table=(opt,rrhf)
 ----------------------------------------------------------------------
 -----
 title
 -----
 Symbolic Z-matrix:
 Charge =  0 Multiplicity = 1

 SCF Done:  E(RHF) =  -700.864344222     A.U. after   15 cycles
 Normal termination of Gaussian 16 at Sun Apr  6 07:58:54 2025.
 Gaussian 16:  ES64L-G16RevC.01  3-Jul-2019

 ----------------------------------------------------------------------
 #t hf aug-cc-pvdz iop(5/13=1,5/36=2,99/5=2) pseudo=read geom=check gue
 ss=(read,tcheck) scf=(maxcycle=1)
 ----------------------------------------------------------------------
 -----
 title
 -----
 Structure from the checkpoint file:  "1-azido-2-chloroethane.chk"
 Charge =  0 Multiplicity = 1

                         Standard orientation:
 ---------------------------------------------------------------------
 Center     Atomic      Atomic             Coordinates (Angstroms)
 Number     Number       Type             X           Y           Z
 ---------------------------------------------------------------------
      1         17           0        1.571721   -0.909942    0.008496
      2          7           0       -1.173896    0.820814   -0.448314
      3          7           0       -1.762173   -0.193172   -0.081847
      4          7           0       -2.396372   -1.096686    0.152096
      5          6           0       -0.060470    1.285982    0.393333
      6          6           0        1.295650    0.872078   -0.145488
      7          1           0       -0.103030    2.376437    0.375286
      8          1           0       -0.177806    0.958752    1.427891
      9          1           0        2.090432    1.359964    0.413029
     10          1           0        1.387147    1.108808   -1.201250
 ---------------------------------------------------------------------

 SCF Done:  E(RHF) =  -702.234814872     A.U. after    2 cycles

 The electronic state is 1-A.
 Alpha  occ. eigenvalues --  -99.88491 -15.96585 -15.85163 -15.77352 -11.48250
 Alpha  occ. eigenvalues --  -11.42587 -10.45780  -9.65639  -9.64962  -9.64870
 Alpha  occ. eigenvalues --   -1.68129  -1.39937  -1.32254  -1.12957  -0.93984
 Alpha  occ. eigenvalues --   -0.76133  -0.70688  -0.68240  -0.66213  -0.63292
 Alpha  occ. eigenvalues --   -0.61158  -0.58341  -0.53652  -0.48878  -0.48341
 Alpha  occ. eigenvalues --   -0.40620  -0.34992
 Alpha virt. eigenvalues --    0.03155   0.05358   0.05849   0.06252   0.07370
 Alpha virt. eigenvalues --    0.10003   0.10854   0.11376   0.11563   0.12766
 Alpha virt. eigenvalues --    0.14493   0.14695   0.15548   0.16278   0.17604

 Mulliken charges:
               1
     1  Cl   0.070359
     2  N   -1.521870
     3  N    2.260348
     4  N   -1.614466
     5  C   -1.933937
     6  C   -3.358324
     7  H    1.393278
     8  H    1.555028
     9  H    1.505293
    10  H    1.644291
 Sum of Mulliken charges =  -0.00000

 Dipole moment (field-independent basis, Debye):
    X=              0.8136    Y=              2.8611    Z=              0.6166  Tot=              3.0378

 Test job not archived.
 1\1\GINC-SE223\SP\RHF\Aug-CC-pVDZ\C2H4Cl1N3\OHZDE\06-Apr-2025\0\\#t hf
  aug-cc-pvdz iop(5/13=1,5/36=2,99/5=2) pseudo=read geom=check guess=(r
 ead,tcheck) scf=(maxcycle=1)\\title\\0,1\Cl,0,1.571721,-0.909942,0.008
 496\N,0,-1.173896,0.820814,-0.448314\N,0,-1.762173,-0.193172,-0.081847
 \N,0,-2.396372,-1.096686,0.152096\C,0,-0.06047,1.285982,0.393333\C,0,1
 .29565,0.872078,-0.145488\H,0,-0.10303,2.376437,0.375286\H,0,-0.177806
 ,0.958752,1.427891\H,0,2.090432,1.359964,0.413029\H,0,1.387147,1.10880
 8,-1.20125\\Version=ES64L-G16RevC.01\State=1-A\HF=-702.2348149\RMSD=2.

 Normal termination of Gaussian 16 at Sun Apr  6 07:58:58 2025.
