 Gaussian 16, Revision C.01,

 ----------------------------------------------------------------------
 #t hf aug-cc-pvdz symm=none int=(grid=ultrafine) guess=(read,tcheck) s
 table=(opt,rrhf)
 ----------------------------------------------------------------------
 -----
 title
 -----
 Symbolic Z-matrix:
 Charge =  0 Multiplicity = 1

 SCF Done:  E(RHF) =  -814.774738763     A.U. after   16 cycles
 Normal termination of Gaussian 16 at Sun Apr  6 07:59:26 2025.
 Gaussian 16:  ES64L-G16RevC.01  3-Jul-2019

 ----------------------------------------------------------------------
 #t hf aug-cc-pvdz iop(5/13=1,5/36=2,99/5=2) pseudo=read geom=check gue
 ss=(read,tcheck) scf=(maxcycle=1)
 ----------------------------------------------------------------------
 -----
 title
 -----
 Structure from the checkpoint file:  "1-azido-3-chloro-2-propanol.chk"
 Charge =  0 Multiplicity = 1

                         Standard orientation:
 ---------------------------------------------------------------------
 Center     Atomic      Atomic             Coordinates (Angstroms)
 Number     Number       Type             X           Y           Z
 ---------------------------------------------------------------------
      1         17           0        2.984399   -0.417879   -0.152987
      2          8           0        0.545008    1.604346   -0.451726
      3          7           0       -1.674474   -0.203357   -0.321610
      4          7           0       -2.891489   -0.320120   -0.222649
      5          7           0       -4.011018   -0.462784   -0.239944
      6          6           0        0.486114    0.564884    0.505089
      7          6           0       -0.961721    0.258054    0.891001
      8          6           0        1.212507   -0.698086    0.052682
      9          1           0        0.985966    0.954778    1.392928
     10          1           0       -1.421537    1.170797    1.275391
     11          1           0       -0.999608   -0.510498    1.668236
     12          1           0        1.110587   -1.489064    0.791667
     13          1           0        0.836499   -1.050422   -0.903648
     14          1           0        0.010714    1.348290   -1.213192
 ---------------------------------------------------------------------

 SCF Done:  E(RHF) =  -816.642273657     A.U. after    2 cycles

 The electronic state is 1-A.
 Alpha  occ. eigenvalues --  -99.87690 -21.07876 -15.98144 -15.86735 -15.78561
 Alpha  occ. eigenvalues --  -11.49034 -11.46915 -11.41760 -10.44949  -9.64901
 Alpha  occ. eigenvalues --   -9.64138  -9.64073  -1.73570  -1.69253  -1.39811
 Alpha  occ. eigenvalues --   -1.32583  -1.15603  -1.02605  -0.88492  -0.77131
 Alpha  occ. eigenvalues --   -0.71152  -0.69586  -0.67865  -0.65710  -0.63829
 Alpha  occ. eigenvalues --   -0.62161  -0.59174  -0.54944  -0.53335  -0.48024
 Alpha  occ. eigenvalues --   -0.47519  -0.42198  -0.40983  -0.36273  -0.33414
 Alpha virt. eigenvalues --    0.03440   0.05401   0.05728   0.05942   0.06453
 Alpha virt. eigenvalues --    0.06713   0.07691   0.08800   0.10909   0.11441
 Alpha virt. eigenvalues --    0.11962   0.12748   0.13519   0.14332   0.14808

 Mulliken charges:
               1
     1  Cl  -0.025676
     2  O   -3.182507
     3  N   -1.460065
     4  N    1.988798
     5  N   -1.385930
     6  C    2.167515
     7  C   -2.764870
     8  C   -3.922135
     9  H    1.769264
    10  H    1.425743
    11  H    1.476338
    12  H    1.503919
    13  H    1.639902
    14  H    0.769704
 Sum of Mulliken charges =   0.00000

 Dipole moment (field-independent basis, Debye):
    X=             -1.7670    Y=             -0.0571    Z=              1.2944  Tot=              2.1911

 Test job not archived.
 1\1\GINC-SE009\SP\RHF\Aug-CC-pVDZ\C3H6Cl1N3O1\OHZDE\06-Apr-2025\0\\#t
 hf aug-cc-pvdz iop(5/13=1,5/36=2,99/5=2) pseudo=read geom=check guess=
 (read,tcheck) scf=(maxcycle=1)\\title\\0,1\Cl,0,2.984399,-0.417879,-0.
 152987\O,0,0.545008,1.604346,-0.451726\N,0,-1.674474,-0.203357,-0.3216
 1\N,0,-2.891489,-0.32012,-0.222649\N,0,-4.011018,-0.462784,-0.239944\C
 ,0,0.486114,0.564884,0.505089\C,0,-0.961721,0.258054,0.891001\C,0,1.21
 2507,-0.698086,0.052682\H,0,0.985966,0.954778,1.392928\H,0,-1.421537,1
 .170797,1.275391\H,0,-0.999608,-0.510498,1.668236\H,0,1.110587,-1.4890

 Normal termination of Gaussian 16 at Sun Apr  6 07:59:32 2025.
