 Gaussian 16, Revision C.01,

 ----------------------------------------------------------------------
 #t hf aug-cc-pvdz symm=none int=(grid=ultrafine) guess=(read,tcheck) s
 table=(opt,rrhf)
 ----------------------------------------------------------------------
 -----
 title
 -----
 Symbolic Z-matrix:
 Charge =  0 Multiplicity = 1

 SCF Done:  E(RHF) =  -212.350192265     A.U. after   12 cycles

 1\1\GINC-SE010\Stability\RHF\Aug-CC-pVDZ\C4H11N1\OHZDE\06-Apr-2025\0\\
 #t hf aug-cc-pvdz symm=none int=(grid=ultrafine) guess=(read,tcheck) s
 table=(opt,rrhf)\\title\\0,1\C,0,2.533757,-0.30622,-0.014186\C,0,1.251
 222,0.522342,0.039823\C,0,-0.016716,-0.327791,-0.039403\C,0,-1.300133,
 0.493422,0.01585\N,0,-2.480785,-0.370083,-0.090337\H,0,3.420315,0.3265
 93,0.045198\H,0,2.57819,-1.017755,0.812928\H,0,2.5949,-0.87728,-0.9426
 85\H,0,1.237543,1.111057,0.961985\H,0,1.251521,1.245452,-0.781337\H,0,
 -0.017096,-0.915524,-0.961024\H,0,-0.0189,-1.049862,0.78514\H,0,-1.293

 Normal termination of Gaussian 16 at Sun Apr  6 07:59:08 2025.
 Gaussian 16:  ES64L-G16RevC.01  3-Jul-2019

 ----------------------------------------------------------------------
 #t hf aug-cc-pvdz iop(5/13=1,5/36=2,99/5=2) pseudo=read geom=check gue
 ss=(read,tcheck) scf=(maxcycle=1)
 ----------------------------------------------------------------------
 -----
 title
 -----
 Structure from the checkpoint file:  "1-butanamine.chk"
 Charge =  0 Multiplicity = 1

                         Standard orientation:
 ---------------------------------------------------------------------
 Center     Atomic      Atomic             Coordinates (Angstroms)
 Number     Number       Type             X           Y           Z
 ---------------------------------------------------------------------
      1          6           0        2.533757   -0.306220   -0.014186
      2          6           0        1.251222    0.522342    0.039823
      3          6           0       -0.016716   -0.327791   -0.039403
      4          6           0       -1.300133    0.493422    0.015850
      5          7           0       -2.480785   -0.370083   -0.090337
      6          1           0        3.420315    0.326593    0.045198
      7          1           0        2.578190   -1.017755    0.812928
      8          1           0        2.594900   -0.877280   -0.942685
      9          1           0        1.237543    1.111057    0.961985
     10          1           0        1.251521    1.245452   -0.781337
     11          1           0       -0.017096   -0.915524   -0.961024
     12          1           0       -0.018900   -1.049862    0.785140
     13          1           0       -1.293033    1.109193    0.926922
     14          1           0       -1.321845    1.185998   -0.829220
     15          1           0       -3.332664    0.176428   -0.103509
     16          1           0       -2.542214   -0.994236    0.705456
 ---------------------------------------------------------------------

 SCF Done:  E(RHF) =  -213.445304222     A.U. after    2 cycles

 The electronic state is 1-A.
 Alpha  occ. eigenvalues --  -15.72255 -11.41739 -11.40308 -11.36847 -11.33858
 Alpha  occ. eigenvalues --   -1.33776  -1.19346  -1.03019  -0.88918  -0.82396
 Alpha  occ. eigenvalues --   -0.66458  -0.63286  -0.59668  -0.56579  -0.55729
 Alpha  occ. eigenvalues --   -0.51066  -0.48657  -0.45267  -0.44939  -0.41699
 Alpha  occ. eigenvalues --   -0.34521
 Alpha virt. eigenvalues --    0.04242   0.04931   0.05606   0.05847   0.05969
 Alpha virt. eigenvalues --    0.06150   0.06538   0.07041   0.08648   0.09356
 Alpha virt. eigenvalues --    0.09813   0.10358   0.13873   0.14801   0.15106

 Mulliken charges:
               1
     1  C   -3.759421
     2  C   -2.838029
     3  C   -2.397546
     4  C   -2.079047
     5  N   -2.503470
     6  H    1.085681
     7  H    1.287143
     8  H    1.278273
     9  H    1.418281
    10  H    1.432124
    11  H    1.462143
    12  H    1.529432
    13  H    1.442615
    14  H    1.471385
    15  H    0.579621
    16  H    0.590814
 Sum of Mulliken charges =  -0.00000

 Dipole moment (field-independent basis, Debye):
    X=             -0.1847    Y=              0.5647    Z=              0.8284  Tot=              1.0194

 Test job not archived.
 1\1\GINC-SE010\SP\RHF\Aug-CC-pVDZ\C4H11N1\OHZDE\06-Apr-2025\0\\#t hf a
 ug-cc-pvdz iop(5/13=1,5/36=2,99/5=2) pseudo=read geom=check guess=(rea
 d,tcheck) scf=(maxcycle=1)\\title\\0,1\C,0,2.533757,-0.30622,-0.014186
 \C,0,1.251222,0.522342,0.039823\C,0,-0.016716,-0.327791,-0.039403\C,0,
 -1.300133,0.493422,0.01585\N,0,-2.480785,-0.370083,-0.090337\H,0,3.420
 315,0.326593,0.045198\H,0,2.57819,-1.017755,0.812928\H,0,2.5949,-0.877
 28,-0.942685\H,0,1.237543,1.111057,0.961985\H,0,1.251521,1.245452,-0.7
 81337\H,0,-0.017096,-0.915524,-0.961024\H,0,-0.0189,-1.049862,0.78514\

 Normal termination of Gaussian 16 at Sun Apr  6 07:59:12 2025.
