 Gaussian 16, Revision C.01,

 ----------------------------------------------------------------------
 #t hf aug-cc-pvdz symm=none int=(grid=ultrafine) guess=(read,tcheck) s
 table=(opt,rrhf)
 ----------------------------------------------------------------------
 -----
 title
 -----
 Symbolic Z-matrix:
 Charge =  0 Multiplicity = 1

 SCF Done:  E(RHF) =  -153.726467764     A.U. after   14 cycles
 Normal termination of Gaussian 16 at Sun Apr  6 07:58:47 2025.
 Gaussian 16:  ES64L-G16RevC.01  3-Jul-2019

 ----------------------------------------------------------------------
 #t hf aug-cc-pvdz iop(5/13=1,5/36=2,99/5=2) pseudo=read geom=check gue
 ss=(read,tcheck) scf=(maxcycle=1)
 ----------------------------------------------------------------------
 -----
 title
 -----
 Structure from the checkpoint file:  "1-buten-3-yne.chk"
 Charge =  0 Multiplicity = 1

                         Standard orientation:
 ---------------------------------------------------------------------
 Center     Atomic      Atomic             Coordinates (Angstroms)
 Number     Number       Type             X           Y           Z
 ---------------------------------------------------------------------
      1          6           0        0.575831   -0.555754    0.000000
      2          6           0       -0.000000    0.742606   -0.000000
      3          6           0       -0.120645   -1.693322    0.000000
      4          6           0       -0.451906    1.856856   -0.000000
      5          1           0        1.660286   -0.592176    0.000000
      6          1           0        0.382293   -2.649906    0.000000
      7          1           0       -1.201790   -1.696289   -0.000000
      8          1           0       -0.860469    2.836051   -0.000000
 ---------------------------------------------------------------------

 SCF Done:  E(RHF) =  -154.465808011     A.U. after    2 cycles

 The electronic state is 1-A'.
 Alpha  occ. eigenvalues --  -11.44929 -11.41903 -11.40143 -11.39533  -1.21968
 Alpha  occ. eigenvalues --   -1.05651  -0.87367  -0.73400  -0.66345  -0.58923
 Alpha  occ. eigenvalues --   -0.52510  -0.45462  -0.37488  -0.32209
 Alpha virt. eigenvalues --    0.03163   0.05067   0.05811   0.06381   0.08993
 Alpha virt. eigenvalues --    0.10850   0.11411   0.11580   0.12337   0.12864
 Alpha virt. eigenvalues --    0.15123   0.15203   0.16591   0.17045   0.17418

 Mulliken charges:
               1
     1  C   -0.888821
     2  C    2.886561
     3  C   -3.642126
     4  C   -3.090949
     5  H    1.266634
     6  H    1.358449
     7  H    1.370832
     8  H    0.739421
 Sum of Mulliken charges =   0.00000

 Dipole moment (field-independent basis, Debye):
    X=              0.0253    Y=             -0.3622    Z=              0.0000  Tot=              0.3631

 Test job not archived.
 1\1\GINC-SE046\SP\RHF\Aug-CC-pVDZ\C4H4\OHZDE\06-Apr-2025\0\\#t hf aug-
 cc-pvdz iop(5/13=1,5/36=2,99/5=2) pseudo=read geom=check guess=(read,t
 check) scf=(maxcycle=1)\\title\\0,1\C,0,0.575831,-0.555754,0.\C,0,0.,0
 .742606,0.\C,0,-0.120645,-1.693322,0.\C,0,-0.451906,1.856856,0.\H,0,1.
 660286,-0.592176,0.\H,0,0.382293,-2.649906,0.\H,0,-1.20179,-1.696289,0
 .\H,0,-0.860469,2.836051,0.\\Version=ES64L-G16RevC.01\State=1-A'\HF=-1
 54.465808\RMSD=9.918e-01\Dipole=0.0099462,-0.1424965,0.\Quadrupole=0.0
 482113,3.2292926,-3.2775039,-1.3053002,0.,0.\PG=CS [SG(C4H4)]\\@

 Normal termination of Gaussian 16 at Sun Apr  6 07:58:50 2025.
