 Gaussian 16, Revision C.01,

 ----------------------------------------------------------------------
 #t hf aug-cc-pvdz symm=none int=(grid=ultrafine) guess=(read,tcheck) s
 table=(opt,rrhf)
 ----------------------------------------------------------------------
 -----
 title
 -----
 Symbolic Z-matrix:
 Charge =  0 Multiplicity = 1

 SCF Done:  E(RHF) =  -860.673041534     A.U. after   13 cycles
 Normal termination of Gaussian 16 at Sun Apr  6 08:04:11 2025.
 Gaussian 16:  ES64L-G16RevC.01  3-Jul-2019

 ----------------------------------------------------------------------
 #t hf aug-cc-pvdz iop(5/13=1,5/36=2,99/5=2) pseudo=read geom=check gue
 ss=(read,tcheck) scf=(maxcycle=1)
 ----------------------------------------------------------------------
 -----
 title
 -----
 Structure from the checkpoint file:  "1-butylsulfonylbutane.chk"
 Charge =  0 Multiplicity = 1

                         Standard orientation:
 ---------------------------------------------------------------------
 Center     Atomic      Atomic             Coordinates (Angstroms)
 Number     Number       Type             X           Y           Z
 ---------------------------------------------------------------------
      1          6           0       -4.547650   -1.705638    0.272597
      2          6           0       -3.795689   -0.553081   -0.390005
      3          6           0       -2.349515   -0.430093    0.100464
      4          6           0       -1.615268    0.722413   -0.573309
      5         16           0        0.037748    1.077404    0.089018
      6          8           0        0.541910    2.249760   -0.624888
      7          6           0        1.055947   -0.348493   -0.390800
      8          6           0        2.496572   -0.170036    0.080449
      9          6           0        3.378082   -1.358055   -0.315035
     10          6           0        4.824517   -1.194420    0.147764
     11          8           0       -0.048573    1.105880    1.548995
     12          1           0       -4.067320   -2.663473    0.063479
     13          1           0       -4.581440   -1.582093    1.356437
     14          1           0       -5.575090   -1.764796   -0.087565
     15          1           0       -4.320256    0.386228   -0.194738
     16          1           0       -3.803321   -0.687023   -1.475548
     17          1           0       -1.826735   -1.371038   -0.089908
     18          1           0       -2.336575   -0.275264    1.180431
     19          1           0       -2.130655    1.672755   -0.422484
     20          1           0       -1.487390    0.579358   -1.646641
     21          1           0        0.990394   -0.416247   -1.477160
     22          1           0        0.591980   -1.227121    0.056620
     23          1           0        2.505188   -0.047615    1.164989
     24          1           0        2.901550    0.749170   -0.346134
     25          1           0        3.354143   -1.481736   -1.401693
     26          1           0        2.960814   -2.276931    0.107216
     27          1           0        5.277008   -0.300011   -0.284003
     28          1           0        4.882665   -1.102883    1.233779
     29          1           0        5.432396   -2.050455   -0.146968
 ---------------------------------------------------------------------

 SCF Done:  E(RHF) =  -863.208700297     A.U. after    2 cycles

 The electronic state is 1-A.
 Alpha  occ. eigenvalues --  -75.86661 -21.02791 -21.02735 -13.48238 -13.39963
 Alpha  occ. eigenvalues --  -13.35954 -11.46048 -11.44694 -11.43145 -11.42479
 Alpha  occ. eigenvalues --  -11.39548 -11.38983 -11.36748 -11.36047  -8.21627
 Alpha  occ. eigenvalues --   -1.80639  -1.62986  -1.28465  -1.25671  -1.14389
 Alpha  occ. eigenvalues --   -1.10192  -0.99874  -0.94629  -0.86371  -0.85055
 Alpha  occ. eigenvalues --   -0.83271  -0.68820  -0.68095  -0.63888  -0.61803
 Alpha  occ. eigenvalues --   -0.61471  -0.60507  -0.58614  -0.56664  -0.54181
 Alpha  occ. eigenvalues --   -0.53366  -0.52502  -0.51244  -0.48612  -0.47720
 Alpha  occ. eigenvalues --   -0.47123  -0.46961  -0.46685  -0.44834  -0.41523
 Alpha  occ. eigenvalues --   -0.37491  -0.35774  -0.33413  -0.32778
 Alpha virt. eigenvalues --    0.03392   0.03867   0.04256   0.04791   0.05446
 Alpha virt. eigenvalues --    0.05813   0.05882   0.06076   0.06347   0.06597
 Alpha virt. eigenvalues --    0.06760   0.07110   0.08331   0.08464   0.09141

 Mulliken charges:
               1
     1  C   -4.417997
     2  C   -2.936188
     3  C   -2.315201
     4  C   -4.625286
     5  S    6.323872
     6  O   -2.560788
     7  C   -3.870362
     8  C   -2.063645
     9  C   -3.165086
    10  C   -4.462870
    11  O   -2.538322
    12  H    1.342769
    13  H    1.300567
    14  H    1.091642
    15  H    1.474935
    16  H    1.389121
    17  H    1.814723
    18  H    1.721548
    19  H    1.573622
    20  H    1.578225
    21  H    1.578813
    22  H    1.910538
    23  H    1.598434
    24  H    1.617800
    25  H    1.436771
    26  H    1.444585
    27  H    1.339546
    28  H    1.341114
    29  H    1.077120
 Sum of Mulliken charges =  -0.00000

 Dipole moment (field-independent basis, Debye):
    X=             -0.6482    Y=             -2.2878    Z=             -0.9658  Tot=              2.5665

 Test job not archived.
 1\1\GINC-SE013\SP\RHF\Aug-CC-pVDZ\C8H18O2S1\OHZDE\06-Apr-2025\0\\#t hf
  aug-cc-pvdz iop(5/13=1,5/36=2,99/5=2) pseudo=read geom=check guess=(r
 ead,tcheck) scf=(maxcycle=1)\\title\\0,1\C,0,-4.54765,-1.705638,0.2725
 97\C,0,-3.795689,-0.553081,-0.390005\C,0,-2.349515,-0.430093,0.100464\
 C,0,-1.615268,0.722413,-0.573309\S,0,0.037748,1.077404,0.089018\O,0,0.
 54191,2.24976,-0.624888\C,0,1.055947,-0.348493,-0.3908\C,0,2.496572,-0
 .170036,0.080449\C,0,3.378082,-1.358055,-0.315035\C,0,4.824517,-1.1944
 2,0.147764\O,0,-0.048573,1.10588,1.548995\H,0,-4.06732,-2.663473,0.063

 Normal termination of Gaussian 16 at Sun Apr  6 08:04:35 2025.
