 Gaussian 16, Revision C.01,

 ----------------------------------------------------------------------
 #t hf aug-cc-pvdz symm=none int=(grid=ultrafine) guess=(read,tcheck) s
 table=(opt,rrhf)
 ----------------------------------------------------------------------
 -----
 title
 -----
 Symbolic Z-matrix:
 Charge =  0 Multiplicity = 1

 SCF Done:  E(RHF) =  -232.183029835     A.U. after   12 cycles

 1\1\GINC-SE046\Stability\RHF\Aug-CC-pVDZ\C4H10O1\OHZDE\06-Apr-2025\0\\
 #t hf aug-cc-pvdz symm=none int=(grid=ultrafine) guess=(read,tcheck) s
 table=(opt,rrhf)\\title\\0,1\C,0,2.514552,-0.302534,-0.010159\C,0,1.22
 8558,0.521535,0.028293\C,0,-0.036512,-0.336644,-0.027812\C,0,-1.316665
 ,0.487981,0.016814\O,0,-2.500646,-0.301127,-0.09206\H,0,2.565348,-0.99
 3371,0.833797\H,0,2.57528,-0.895054,-0.925011\H,0,3.397647,0.336304,0.
 030805\H,0,1.214362,1.13096,0.936793\H,0,1.223025,1.225237,-0.809202\H
 ,0,-0.039872,-0.939383,-0.939874\H,0,-0.034575,-1.041035,0.812011\H,0,

 Normal termination of Gaussian 16 at Sun Apr  6 07:59:02 2025.
 Gaussian 16:  ES64L-G16RevC.01  3-Jul-2019

 ----------------------------------------------------------------------
 #t hf aug-cc-pvdz iop(5/13=1,5/36=2,99/5=2) pseudo=read geom=check gue
 ss=(read,tcheck) scf=(maxcycle=1)
 ----------------------------------------------------------------------
 -----
 title
 -----
 Structure from the checkpoint file:  "1-butanol.chk"
 Charge =  0 Multiplicity = 1

                         Standard orientation:
 ---------------------------------------------------------------------
 Center     Atomic      Atomic             Coordinates (Angstroms)
 Number     Number       Type             X           Y           Z
 ---------------------------------------------------------------------
      1          6           0        2.514552   -0.302534   -0.010159
      2          6           0        1.228558    0.521535    0.028293
      3          6           0       -0.036512   -0.336644   -0.027812
      4          6           0       -1.316665    0.487981    0.016814
      5          8           0       -2.500646   -0.301127   -0.092060
      6          1           0        2.565348   -0.993371    0.833797
      7          1           0        2.575280   -0.895054   -0.925011
      8          1           0        3.397647    0.336304    0.030805
      9          1           0        1.214362    1.130960    0.936793
     10          1           0        1.223025    1.225237   -0.809202
     11          1           0       -0.039872   -0.939383   -0.939874
     12          1           0       -0.034575   -1.041035    0.812011
     13          1           0       -1.343796    1.095071    0.929885
     14          1           0       -1.352146    1.175054   -0.829661
     15          1           0       -2.539703   -0.906796    0.654122
 ---------------------------------------------------------------------

 SCF Done:  E(RHF) =  -233.317053540     A.U. after    2 cycles

 The electronic state is 1-A.
 Alpha  occ. eigenvalues --  -21.06212 -11.43096 -11.40994 -11.37659 -11.34732
 Alpha  occ. eigenvalues --   -1.69927  -1.22563  -1.05003  -0.90127  -0.83391
 Alpha  occ. eigenvalues --   -0.67223  -0.61240  -0.59671  -0.56910  -0.52379
 Alpha  occ. eigenvalues --   -0.51280  -0.48141  -0.46119  -0.45865  -0.38598
 Alpha  occ. eigenvalues --   -0.30701
 Alpha virt. eigenvalues --    0.04048   0.05086   0.05314   0.05798   0.06001
 Alpha virt. eigenvalues --    0.06206   0.06889   0.07292   0.08660   0.09537
 Alpha virt. eigenvalues --    0.09993   0.13304   0.14140   0.15440   0.15928

 Mulliken charges:
               1
     1  C   -3.731932
     2  C   -2.863353
     3  C   -2.745028
     4  C   -0.954698
     5  O   -2.632236
     6  H    1.283242
     7  H    1.271338
     8  H    1.113179
     9  H    1.425198
    10  H    1.426855
    11  H    1.463140
    12  H    1.495508
    13  H    1.324359
    14  H    1.400998
    15  H    0.723431
 Sum of Mulliken charges =  -0.00000

 Dipole moment (field-independent basis, Debye):
    X=              0.6992    Y=              0.0355    Z=              0.4935  Tot=              0.8565

 Test job not archived.
 1\1\GINC-SE046\SP\RHF\Aug-CC-pVDZ\C4H10O1\OHZDE\06-Apr-2025\0\\#t hf a
 ug-cc-pvdz iop(5/13=1,5/36=2,99/5=2) pseudo=read geom=check guess=(rea
 d,tcheck) scf=(maxcycle=1)\\title\\0,1\C,0,2.514552,-0.302534,-0.01015
 9\C,0,1.228558,0.521535,0.028293\C,0,-0.036512,-0.336644,-0.027812\C,0
 ,-1.316665,0.487981,0.016814\O,0,-2.500646,-0.301127,-0.09206\H,0,2.56
 5348,-0.993371,0.833797\H,0,2.57528,-0.895054,-0.925011\H,0,3.397647,0
 .336304,0.030805\H,0,1.214362,1.13096,0.936793\H,0,1.223025,1.225237,-
 0.809202\H,0,-0.039872,-0.939383,-0.939874\H,0,-0.034575,-1.041035,0.8

 Normal termination of Gaussian 16 at Sun Apr  6 07:59:06 2025.
