 Gaussian 16, Revision C.01,

 ----------------------------------------------------------------------
 #t hf aug-cc-pvdz symm=none int=(grid=ultrafine) guess=(read,tcheck) s
 table=(opt,rrhf)
 ----------------------------------------------------------------------
 -----
 title
 -----
 Symbolic Z-matrix:
 Charge =  0 Multiplicity = 1

 SCF Done:  E(RHF) =  -156.125337973     A.U. after   12 cycles
 Normal termination of Gaussian 16 at Sun Apr  6 07:58:52 2025.
 Gaussian 16:  ES64L-G16RevC.01  3-Jul-2019

 ----------------------------------------------------------------------
 #t hf aug-cc-pvdz iop(5/13=1,5/36=2,99/5=2) pseudo=read geom=check gue
 ss=(read,tcheck) scf=(maxcycle=1)
 ----------------------------------------------------------------------
 -----
 title
 -----
 Structure from the checkpoint file:  "1-butene.chk"
 Charge =  0 Multiplicity = 1

                         Standard orientation:
 ---------------------------------------------------------------------
 Center     Atomic      Atomic             Coordinates (Angstroms)
 Number     Number       Type             X           Y           Z
 ---------------------------------------------------------------------
      1          6           0       -1.857174    0.019065   -0.276434
      2          6           0       -0.721381   -0.297100    0.333323
      3          6           0        1.726840   -0.243467   -0.291830
      4          6           0        0.536972    0.517277    0.306749
      5          1           0       -2.729067   -0.618792   -0.220189
      6          1           0       -1.956005    0.931088   -0.853592
      7          1           0       -0.671041   -1.224905    0.898141
      8          1           0        2.633033    0.362779   -0.261767
      9          1           0        1.534052   -0.514731   -1.330436
     10          1           0        1.923869   -1.164107    0.260591
     11          1           0        0.363340    1.438791   -0.253243
     12          1           0        0.790277    0.815231    1.329652
 ---------------------------------------------------------------------

 SCF Done:  E(RHF) =  -156.931778657     A.U. after    2 cycles

 The electronic state is 1-A.
 Alpha  occ. eigenvalues --  -11.42353 -11.39145 -11.37194 -11.35108  -1.23166
 Alpha  occ. eigenvalues --   -1.06578  -0.89997  -0.78145  -0.64293  -0.59839
 Alpha  occ. eigenvalues --   -0.57881  -0.51881  -0.50027  -0.47155  -0.44392
 Alpha  occ. eigenvalues --   -0.33973
 Alpha virt. eigenvalues --    0.03878   0.05344   0.05867   0.06167   0.06271
 Alpha virt. eigenvalues --    0.06458   0.06877   0.08364   0.10839   0.12235
 Alpha virt. eigenvalues --    0.13159   0.13887   0.15376   0.15517   0.16043

 Mulliken charges:
               1
     1  C   -3.055290
     2  C   -0.102685
     3  C   -3.609158
     4  C   -3.836416
     5  H    1.362878
     6  H    1.407869
     7  H    1.381528
     8  H    1.164802
     9  H    1.319369
    10  H    1.264568
    11  H    1.362612
    12  H    1.339922
 Sum of Mulliken charges =   0.00000

 Dipole moment (field-independent basis, Debye):
    X=              0.3233    Y=              0.0715    Z=              0.1330  Tot=              0.3568

 Test job not archived.
 1\1\GINC-SE012\SP\RHF\Aug-CC-pVDZ\C4H8\OHZDE\06-Apr-2025\0\\#t hf aug-
 cc-pvdz iop(5/13=1,5/36=2,99/5=2) pseudo=read geom=check guess=(read,t
 check) scf=(maxcycle=1)\\title\\0,1\C,0,-1.857174,0.019065,-0.276434\C
 ,0,-0.721381,-0.2971,0.333323\C,0,1.72684,-0.243467,-0.29183\C,0,0.536
 972,0.517277,0.306749\H,0,-2.729067,-0.618792,-0.220189\H,0,-1.956005,
 0.931088,-0.853592\H,0,-0.671041,-1.224905,0.898141\H,0,2.633033,0.362
 779,-0.261767\H,0,1.534052,-0.514731,-1.330436\H,0,1.923869,-1.164107,
 0.260591\H,0,0.36334,1.438791,-0.253243\H,0,0.790277,0.815231,1.329652

 Normal termination of Gaussian 16 at Sun Apr  6 07:58:56 2025.
