 Gaussian 16, Revision C.01,

 ----------------------------------------------------------------------
 #t hf aug-cc-pvdz symm=none int=(grid=ultrafine) guess=(read,tcheck) s
 table=(opt,rrhf)
 ----------------------------------------------------------------------
 -----
 title
 -----
 Symbolic Z-matrix:
 Charge =  0 Multiplicity = 1

 SCF Done:  E(RHF) =  -154.917114444     A.U. after   13 cycles
 Normal termination of Gaussian 16 at Sun Apr  6 07:58:49 2025.
 Gaussian 16:  ES64L-G16RevC.01  3-Jul-2019

 ----------------------------------------------------------------------
 #t hf aug-cc-pvdz iop(5/13=1,5/36=2,99/5=2) pseudo=read geom=check gue
 ss=(read,tcheck) scf=(maxcycle=1)
 ----------------------------------------------------------------------
 -----
 title
 -----
 Structure from the checkpoint file:  "1-butyne.chk"
 Charge =  0 Multiplicity = 1

                         Standard orientation:
 ---------------------------------------------------------------------
 Center     Atomic      Atomic             Coordinates (Angstroms)
 Number     Number       Type             X           Y           Z
 ---------------------------------------------------------------------
      1          6           0        1.328755   -1.459271    0.000000
      2          6           0        0.738939   -0.414592    0.000000
      3          6           0       -1.523500    0.649784    0.000000
      4          6           0        0.000000    0.843190    0.000000
      5          1           0        1.855677   -2.379937    0.000000
      6          1           0       -1.844031    0.095387    0.881353
      7          1           0       -1.844031    0.095387   -0.881353
      8          1           0       -2.027340    1.616676    0.000000
      9          1           0        0.297280    1.428911    0.873961
     10          1           0        0.297280    1.428911   -0.873961
 ---------------------------------------------------------------------

 SCF Done:  E(RHF) =  -155.694328102     A.U. after    2 cycles

 The electronic state is 1-A'.
 Alpha  occ. eigenvalues --  -11.44119 -11.40155 -11.39144 -11.37021  -1.22177
 Alpha  occ. eigenvalues --   -1.05057  -0.91675  -0.72839  -0.62871  -0.62499
 Alpha  occ. eigenvalues --   -0.52856  -0.50865  -0.50553  -0.36054  -0.35884
 Alpha virt. eigenvalues --    0.03239   0.05039   0.05894   0.06423   0.06430
 Alpha virt. eigenvalues --    0.06851   0.10545   0.11182   0.12242   0.12621
 Alpha virt. eigenvalues --    0.13235   0.14637   0.15107   0.15638   0.16247

 Mulliken charges:
               1
     1  C   -3.894029
     2  C    4.567725
     3  C   -3.629576
     4  C   -4.016703
     5  H    0.766272
     6  H    1.269831
     7  H    1.269831
     8  H    1.149093
     9  H    1.258778
    10  H    1.258778
 Sum of Mulliken charges =  -0.00000

 Dipole moment (field-independent basis, Debye):
    X=             -0.3840    Y=              0.5396    Z=              0.0000  Tot=              0.6623

 Test job not archived.
 1\1\GINC-SE107\SP\RHF\Aug-CC-pVDZ\C4H6\OHZDE\06-Apr-2025\0\\#t hf aug-
 cc-pvdz iop(5/13=1,5/36=2,99/5=2) pseudo=read geom=check guess=(read,t
 check) scf=(maxcycle=1)\\title\\0,1\C,0,1.328756,-1.459271,0.\C,0,0.73
 8939,-0.414592,0.\C,0,-1.5235,0.649784,0.\C,0,0.,0.84319,0.\H,0,1.8556
 78,-2.379936,0.\H,0,-1.844031,0.095387,0.881353\H,0,-1.844031,0.095387
 ,-0.881353\H,0,-2.02734,1.616676,0.\H,0,0.29728,1.428911,0.873961\H,0,
 0.29728,1.428911,-0.873961\\Version=ES64L-G16RevC.01\State=1-A'\HF=-15
 5.6943281\RMSD=9.474e-01\Dipole=-0.1510779,0.2122824,0.\Quadrupole=-0.

 Normal termination of Gaussian 16 at Sun Apr  6 07:58:52 2025.
