 Gaussian 16, Revision C.01,

 ----------------------------------------------------------------------
 #t hf aug-cc-pvdz symm=none int=(grid=ultrafine) guess=(read,tcheck) s
 table=(opt,rrhf)
 ----------------------------------------------------------------------
 -----
 title
 -----
 Symbolic Z-matrix:
 Charge =  0 Multiplicity = 1

 SCF Done:  E(RHF) =  -388.329746749     A.U. after   11 cycles

 1\1\GINC-SE013\Stability\RHF\Aug-CC-pVDZ\C8H18O1\OHZDE\06-Apr-2025\0\\
 #t hf aug-cc-pvdz symm=none int=(grid=ultrafine) guess=(read,tcheck) s
 table=(opt,rrhf)\\title\\0,1\C,0,0.,4.931161,0.525769\C,0,0.,-4.931161
 ,0.525769\C,0,0.,3.71796,-0.402856\C,0,0.,-3.71796,-0.402856\C,0,0.,2.
 388987,0.353309\C,0,0.,-2.388987,0.353309\C,0,0.,1.184688,-0.571073\C,
 0,0.,-1.184688,-0.571073\O,0,0.,0.,0.205597\H,0,-0.880623,4.932775,1.1
 71072\H,0,0.880623,4.932775,1.171072\H,0,0.,5.864641,-0.038469\H,0,0.8
 80623,-4.932775,1.171072\H,0,-0.880623,-4.932775,1.171072\H,0,0.,-5.86

 Normal termination of Gaussian 16 at Sun Apr  6 08:01:14 2025.
 Gaussian 16:  ES64L-G16RevC.01  3-Jul-2019

 ----------------------------------------------------------------------
 #t hf aug-cc-pvdz iop(5/13=1,5/36=2,99/5=2) pseudo=read geom=check gue
 ss=(read,tcheck) scf=(maxcycle=1)
 ----------------------------------------------------------------------
 -----
 title
 -----
 Structure from the checkpoint file:  "1-butoxybutane.chk"
 Charge =  0 Multiplicity = 1

                         Standard orientation:
 ---------------------------------------------------------------------
 Center     Atomic      Atomic             Coordinates (Angstroms)
 Number     Number       Type             X           Y           Z
 ---------------------------------------------------------------------
      1          6           0        0.000000    4.931161    0.525769
      2          6           0       -0.000000   -4.931161    0.525769
      3          6           0        0.000000    3.717960   -0.402856
      4          6           0       -0.000000   -3.717960   -0.402856
      5          6           0        0.000000    2.388987    0.353309
      6          6           0       -0.000000   -2.388987    0.353309
      7          6           0        0.000000    1.184688   -0.571073
      8          6           0       -0.000000   -1.184688   -0.571073
      9          8           0       -0.000000   -0.000000    0.205597
     10          1           0       -0.880623    4.932775    1.171072
     11          1           0        0.880623    4.932775    1.171072
     12          1           0        0.000000    5.864641   -0.038469
     13          1           0        0.880623   -4.932775    1.171072
     14          1           0       -0.880623   -4.932775    1.171072
     15          1           0       -0.000000   -5.864641   -0.038469
     16          1           0       -0.874418    3.763393   -1.058921
     17          1           0        0.874418    3.763393   -1.058921
     18          1           0        0.874418   -3.763393   -1.058921
     19          1           0       -0.874418   -3.763393   -1.058921
     20          1           0        0.876326    2.331130    1.004232
     21          1           0       -0.876326    2.331130    1.004232
     22          1           0       -0.876326   -2.331130    1.004232
     23          1           0        0.876326   -2.331130    1.004232
     24          1           0       -0.884669    1.203511   -1.223789
     25          1           0        0.884669    1.203511   -1.223789
     26          1           0        0.884669   -1.203511   -1.223789
     27          1           0       -0.884669   -1.203511   -1.223789
 ---------------------------------------------------------------------

 SCF Done:  E(RHF) =  -390.278027564     A.U. after    2 cycles

 The electronic state is 1-A1.
 Alpha  occ. eigenvalues --  -21.03146 -11.44794 -11.42380 -11.40991 -11.40604
 Alpha  occ. eigenvalues --  -11.37287 -11.37259 -11.34888 -11.34116  -1.74514
 Alpha  occ. eigenvalues --   -1.23256  -1.21506  -1.07378  -1.02196  -0.91479
 Alpha  occ. eigenvalues --   -0.86853  -0.83495  -0.82141  -0.67746  -0.64810
 Alpha  occ. eigenvalues --   -0.60440  -0.60264  -0.60133  -0.57374  -0.56205
 Alpha  occ. eigenvalues --   -0.54725  -0.51260  -0.51177  -0.49273  -0.46718
 Alpha  occ. eigenvalues --   -0.45747  -0.45536  -0.45138  -0.44742  -0.38575
 Alpha  occ. eigenvalues --   -0.37628  -0.29108
 Alpha virt. eigenvalues --    0.04106   0.04600   0.04776   0.05353   0.05380
 Alpha virt. eigenvalues --    0.05728   0.06445   0.06497   0.06817   0.06918
 Alpha virt. eigenvalues --    0.07154   0.07247   0.08375   0.09157   0.09213

 Mulliken charges:
               1
     1  C   -4.077038
     2  C   -4.077038
     3  C   -2.977770
     4  C   -2.977770
     5  C   -3.874115
     6  C   -3.874115
     7  C   -0.718413
     8  C   -0.718413
     9  O   -3.559135
    10  H    1.336093
    11  H    1.336093
    12  H    1.071943
    13  H    1.336093
    14  H    1.336093
    15  H    1.071943
    16  H    1.422625
    17  H    1.422625
    18  H    1.422625
    19  H    1.422625
    20  H    1.611212
    21  H    1.611212
    22  H    1.611212
    23  H    1.611212
    24  H    1.807550
    25  H    1.807550
    26  H    1.807550
    27  H    1.807550
 Sum of Mulliken charges =   0.00000

 Dipole moment (field-independent basis, Debye):
    X=              0.0000    Y=              0.0000    Z=             -0.2905  Tot=              0.2905

 Test job not archived.
 1\1\GINC-SE013\SP\RHF\Aug-CC-pVDZ\C8H18O1\OHZDE\06-Apr-2025\0\\#t hf a
 ug-cc-pvdz iop(5/13=1,5/36=2,99/5=2) pseudo=read geom=check guess=(rea
 d,tcheck) scf=(maxcycle=1)\\title\\0,1\C,0,0.,4.931161,0.525769\C,0,0.
 ,-4.931161,0.525769\C,0,0.,3.71796,-0.402856\C,0,0.,-3.71796,-0.402856
 \C,0,0.,2.388987,0.353309\C,0,0.,-2.388987,0.353309\C,0,0.,1.184688,-0
 .571073\C,0,0.,-1.184688,-0.571073\O,0,0.,0.,0.205597\H,0,-0.880623,4.
 932775,1.171072\H,0,0.880623,4.932775,1.171072\H,0,0.,5.864641,-0.0384
 69\H,0,0.880623,-4.932775,1.171072\H,0,-0.880623,-4.932775,1.171072\H,

 Normal termination of Gaussian 16 at Sun Apr  6 08:01:28 2025.
