 Gaussian 16, Revision C.01,

 ----------------------------------------------------------------------
 #t hf aug-cc-pvdz symm=none int=(grid=ultrafine) guess=(read,tcheck) s
 table=(opt,rrhf)
 ----------------------------------------------------------------------
 -----
 title
 -----
 Symbolic Z-matrix:
 Charge =  0 Multiplicity = 1

 SCF Done:  E(RHF) =  -542.368336614     A.U. after   16 cycles
 Normal termination of Gaussian 16 at Sun Apr  6 07:59:44 2025.
 Gaussian 16:  ES64L-G16RevC.01  3-Jul-2019

 ----------------------------------------------------------------------
 #t hf aug-cc-pvdz iop(5/13=1,5/36=2,99/5=2) pseudo=read geom=check gue
 ss=(read,tcheck) scf=(maxcycle=1)
 ----------------------------------------------------------------------
 -----
 title
 -----
 Structure from the checkpoint file:  "1-carboxymethylamino-2-diazonioethenolate.chk"
 Charge =  0 Multiplicity = 1

                         Standard orientation:
 ---------------------------------------------------------------------
 Center     Atomic      Atomic             Coordinates (Angstroms)
 Number     Number       Type             X           Y           Z
 ---------------------------------------------------------------------
      1          8           0        2.042882    1.386061   -0.306059
      2          8           0       -0.918032   -1.066477   -0.827288
      3          8           0        3.605054   -0.221660   -0.468251
      4          7           0        0.250255   -0.222810    0.941283
      5          7           0       -3.135574    0.325904   -0.031872
      6          7           0       -4.076826    0.233940   -0.637842
      7          6           0        1.503935   -0.802214    0.535266
      8          6           0       -0.876835   -0.354541    0.164605
      9          6           0        2.504443    0.128212   -0.134773
     10          6           0       -2.026017    0.411410    0.648141
     11          1           0        2.017669   -1.255971    1.383817
     12          1           0        1.288572   -1.598028   -0.176598
     13          1           0        0.261728    0.487240    1.652644
     14          1           0       -2.050184    1.041177    1.521965
     15          1           0        2.744845    1.885755   -0.749461
 ---------------------------------------------------------------------

 SCF Done:  E(RHF) =  -544.693808932     A.U. after    2 cycles

 The electronic state is 1-A.
 Alpha  occ. eigenvalues --  -21.13468 -21.06125 -21.02842 -15.95339 -15.88354
 Alpha  occ. eigenvalues --  -15.77621 -11.53930 -11.52759 -11.44016 -11.43674
 Alpha  occ. eigenvalues --   -1.83903  -1.72118  -1.66379  -1.62993  -1.41163
 Alpha  occ. eigenvalues --   -1.21353  -1.08778  -0.88811  -0.81988  -0.77119
 Alpha  occ. eigenvalues --   -0.74738  -0.67000  -0.66738  -0.64295  -0.63273
 Alpha  occ. eigenvalues --   -0.62270  -0.57849  -0.57131  -0.53509  -0.51255
 Alpha  occ. eigenvalues --   -0.48791  -0.47093  -0.36133  -0.34747  -0.31126
 Alpha  occ. eigenvalues --   -0.30770  -0.29114
 Alpha virt. eigenvalues --    0.03017   0.04279   0.05348   0.06200   0.07942
 Alpha virt. eigenvalues --    0.09092   0.09270   0.09677   0.10470   0.11574
 Alpha virt. eigenvalues --    0.11745   0.12531   0.12778   0.13504   0.13868

 Mulliken charges:
               1
     1  O   -2.913336
     2  O   -3.747500
     3  O   -3.117896
     4  N   -2.593474
     5  N    0.705001
     6  N   -1.730801
     7  C   -3.079171
     8  C    5.923544
     9  C    5.879102
    10  C   -1.273249
    11  H    1.254208
    12  H    1.541497
    13  H    0.835084
    14  H    1.375995
    15  H    0.940997
 Sum of Mulliken charges =   0.00000

 Dipole moment (field-independent basis, Debye):
    X=             -0.6412    Y=              2.1958    Z=              2.2427  Tot=              3.2035

 Test job not archived.
 1\1\GINC-SE108\SP\RHF\Aug-CC-pVDZ\C4H5N3O3\OHZDE\06-Apr-2025\0\\#t hf
 aug-cc-pvdz iop(5/13=1,5/36=2,99/5=2) pseudo=read geom=check guess=(re
 ad,tcheck) scf=(maxcycle=1)\\title\\0,1\O,0,2.042882,1.386061,-0.30605
 9\O,0,-0.918032,-1.066477,-0.827288\O,0,3.605054,-0.22166,-0.468251\N,
 0,0.250255,-0.22281,0.941283\N,0,-3.135574,0.325904,-0.031872\N,0,-4.0
 76826,0.23394,-0.637842\C,0,1.503935,-0.802214,0.535266\C,0,-0.876835,
 -0.354541,0.164605\C,0,2.504443,0.128212,-0.134773\C,0,-2.026017,0.411
 41,0.648141\H,0,2.017669,-1.255971,1.383817\H,0,1.288572,-1.598028,-0.

 Normal termination of Gaussian 16 at Sun Apr  6 07:59:53 2025.
