 Gaussian 16, Revision C.01,

 ----------------------------------------------------------------------
 #t hf aug-cc-pvdz symm=none int=(grid=ultrafine) guess=(read,tcheck) s
 table=(opt,rrhf)
 ----------------------------------------------------------------------
 -----
 title
 -----
 Symbolic Z-matrix:
 Charge =  0 Multiplicity = 1

 SCF Done:  E(RHF) =  -758.586739173     A.U. after   16 cycles
 Normal termination of Gaussian 16 at Sun Apr  6 07:58:58 2025.
 Gaussian 16:  ES64L-G16RevC.01  3-Jul-2019

 ----------------------------------------------------------------------
 #t hf aug-cc-pvdz iop(5/13=1,5/36=2,99/5=2) pseudo=read geom=check gue
 ss=(read,tcheck) scf=(maxcycle=1)
 ----------------------------------------------------------------------
 -----
 title
 -----
 Structure from the checkpoint file:  "1-chloro-3-diazo-2-propanone.chk"
 Charge =  0 Multiplicity = 1

                         Standard orientation:
 ---------------------------------------------------------------------
 Center     Atomic      Atomic             Coordinates (Angstroms)
 Number     Number       Type             X           Y           Z
 ---------------------------------------------------------------------
      1         17           0        2.615902   -0.172641   -0.000080
      2          8           0       -0.165508   -1.237912    0.000142
      3          7           0       -2.509366    0.187022   -0.000312
      4          7           0       -3.469270   -0.391475   -0.000476
      5          6           0       -0.149899   -0.026948    0.000164
      6          6           0       -1.350968    0.797979   -0.000120
      7          6           0        1.130742    0.811941    0.000604
      8          1           0       -1.378265    1.874748   -0.000193
      9          1           0        1.151566    1.448971   -0.881951
     10          1           0        1.151625    1.447808    0.884002
 ---------------------------------------------------------------------

 SCF Done:  E(RHF) =  -760.147717066     A.U. after    2 cycles

 The electronic state is 1-A.
 Alpha  occ. eigenvalues --  -99.88692 -21.05522 -15.96517 -15.89874 -11.52402
 Alpha  occ. eigenvalues --  -11.46161 -11.43929 -10.45981  -9.65929  -9.65097
 Alpha  occ. eigenvalues --   -9.65013  -1.72536  -1.64229  -1.33996  -1.22634
 Alpha  occ. eigenvalues --   -1.08240  -0.87544  -0.75689  -0.71154  -0.68484
 Alpha  occ. eigenvalues --   -0.66387  -0.66159  -0.60201  -0.58310  -0.51181
 Alpha  occ. eigenvalues --   -0.50098  -0.47431  -0.46446  -0.31796  -0.31113
 Alpha virt. eigenvalues --    0.02543   0.04812   0.05924   0.07222   0.08864
 Alpha virt. eigenvalues --    0.09235   0.09254   0.10392   0.11698   0.12049
 Alpha virt. eigenvalues --    0.12644   0.14000   0.14056   0.15087   0.15570

 Mulliken charges:
               1
     1  Cl   0.163137
     2  O   -3.455370
     3  N    0.573086
     4  N   -1.689970
     5  C    4.743948
     6  C   -0.705514
     7  C   -4.269801
     8  H    1.329014
     9  H    1.655871
    10  H    1.655598
 Sum of Mulliken charges =   0.00000

 Dipole moment (field-independent basis, Debye):
    X=             -2.1750    Y=              2.5478    Z=              0.0007  Tot=              3.3499

 Test job not archived.
 1\1\GINC-SE398\SP\RHF\Aug-CC-pVDZ\C3H3Cl1N2O1\OHZDE\06-Apr-2025\0\\#t
 hf aug-cc-pvdz iop(5/13=1,5/36=2,99/5=2) pseudo=read geom=check guess=
 (read,tcheck) scf=(maxcycle=1)\\title\\0,1\Cl,0,2.615902,-0.172641,-0.
 00008\O,0,-0.165508,-1.237912,0.000142\N,0,-2.509366,0.187022,-0.00031
 2\N,0,-3.46927,-0.391475,-0.000476\C,0,-0.149899,-0.026948,0.000164\C,
 0,-1.350968,0.797979,-0.00012\C,0,1.130742,0.811941,0.000604\H,0,-1.37
 8265,1.874748,-0.000193\H,0,1.151566,1.448971,-0.881951\H,0,1.151625,1
 .447808,0.884002\\Version=ES64L-G16RevC.01\State=1-A\HF=-760.1477171\R

 Normal termination of Gaussian 16 at Sun Apr  6 07:59:02 2025.
