 Gaussian 16, Revision C.01,

 ----------------------------------------------------------------------
 #t hf aug-cc-pvdz symm=none int=(grid=ultrafine) guess=(read,tcheck) s
 table=(opt,rrhf)
 ----------------------------------------------------------------------
 -----
 title
 -----
 Symbolic Z-matrix:
 Charge =  0 Multiplicity = 1

 SCF Done:  E(RHF) =  -1102.29441295     A.U. after   15 cycles
 Normal termination of Gaussian 16 at Sun Apr  6 07:58:59 2025.
 Gaussian 16:  ES64L-G16RevC.01  3-Jul-2019

 ----------------------------------------------------------------------
 #t hf aug-cc-pvdz iop(5/13=1,5/36=2,99/5=2) pseudo=read geom=check gue
 ss=(read,tcheck) scf=(maxcycle=1)
 ----------------------------------------------------------------------
 -----
 title
 -----
 Structure from the checkpoint file:  "1-chloroethylsulfanyliminomethanone.chk"
 Charge =  0 Multiplicity = 1

                         Standard orientation:
 ---------------------------------------------------------------------
 Center     Atomic      Atomic             Coordinates (Angstroms)
 Number     Number       Type             X           Y           Z
 ---------------------------------------------------------------------
      1         17           0        1.561680    1.458583   -0.139280
      2         16           0       -0.199332   -0.989403   -0.363561
      3          8           0       -3.703891    0.379365   -0.024728
      4          7           0       -1.406676   -0.052559    0.379697
      5          6           0        1.249977   -0.250731    0.422674
      6          6           0       -2.570828    0.137435    0.120568
      7          6           0        2.453915   -1.127919    0.131443
      8          1           0        1.049046   -0.158737    1.484752
      9          1           0        2.308548   -2.119331    0.561143
     10          1           0        3.342765   -0.681353    0.571677
     11          1           0        2.619862   -1.225756   -0.940992
 ---------------------------------------------------------------------

 SCF Done:  E(RHF) =  -1103.85345087     A.U. after    2 cycles

 The electronic state is 1-A.
 Alpha  occ. eigenvalues --  -99.88996 -75.75436 -21.13364 -15.78723 -13.21836
 Alpha  occ. eigenvalues --  -13.16868 -13.08048 -11.59111 -11.48911 -11.40827
 Alpha  occ. eigenvalues --  -10.46241  -9.66138  -9.65462  -9.65363  -8.09408
 Alpha  occ. eigenvalues --   -1.77878  -1.44454  -1.34732  -1.18583  -1.07860
 Alpha  occ. eigenvalues --   -0.89740  -0.73123  -0.67652  -0.64915  -0.62506
 Alpha  occ. eigenvalues --   -0.61237  -0.58796  -0.57321  -0.55425  -0.52523
 Alpha  occ. eigenvalues --   -0.48721  -0.44199  -0.40468  -0.35438  -0.24102
 Alpha virt. eigenvalues --    0.02654   0.04835   0.05341   0.05878   0.06330
 Alpha virt. eigenvalues --    0.07549   0.08806   0.09643   0.11113   0.11359
 Alpha virt. eigenvalues --    0.11767   0.12881   0.14086   0.14611   0.15353

 Mulliken charges:
               1
     1  Cl   0.010687
     2  S    2.007487
     3  O   -2.562748
     4  N   -2.229489
     5  C   -3.288416
     6  C    3.702067
     7  C   -3.279410
     8  H    1.755497
     9  H    1.354487
    10  H    1.173012
    11  H    1.356826
 Sum of Mulliken charges =   0.00000

 Dipole moment (field-independent basis, Debye):
    X=             -0.1185    Y=             -3.3846    Z=             -0.4084  Tot=              3.4112

 Test job not archived.
 1\1\GINC-SE275\SP\RHF\Aug-CC-pVDZ\C3H4Cl1N1O1S1\OHZDE\06-Apr-2025\0\\#
 t hf aug-cc-pvdz iop(5/13=1,5/36=2,99/5=2) pseudo=read geom=check gues
 s=(read,tcheck) scf=(maxcycle=1)\\title\\0,1\Cl,0,1.56168,1.458583,-0.
 13928\S,0,-0.199332,-0.989403,-0.363561\O,0,-3.703891,0.379365,-0.0247
 28\N,0,-1.406676,-0.052559,0.379697\C,0,1.249977,-0.250731,0.422674\C,
 0,-2.570828,0.137435,0.120568\C,0,2.453915,-1.127919,0.131443\H,0,1.04
 9046,-0.158737,1.484752\H,0,2.308548,-2.119331,0.561143\H,0,3.342765,-
 0.681353,0.571677\H,0,2.619862,-1.225756,-0.940992\\Version=ES64L-G16R

 Normal termination of Gaussian 16 at Sun Apr  6 07:59:04 2025.
