 Gaussian 16, Revision C.01,

 ----------------------------------------------------------------------
 #t hf aug-cc-pvdz symm=none int=(grid=ultrafine) guess=(read,tcheck) s
 table=(opt,rrhf)
 ----------------------------------------------------------------------
 -----
 title
 -----
 Symbolic Z-matrix:
 Charge =  0 Multiplicity = 1

 SCF Done:  E(RHF) =  -683.692880731     A.U. after   14 cycles
 Normal termination of Gaussian 16 at Sun Apr  6 07:58:56 2025.
 Gaussian 16:  ES64L-G16RevC.01  3-Jul-2019

 ----------------------------------------------------------------------
 #t hf aug-cc-pvdz iop(5/13=1,5/36=2,99/5=2) pseudo=read geom=check gue
 ss=(read,tcheck) scf=(maxcycle=1)
 ----------------------------------------------------------------------
 -----
 title
 -----
 Structure from the checkpoint file:  "1-chloropyrazole.chk"
 Charge =  0 Multiplicity = 1

                         Standard orientation:
 ---------------------------------------------------------------------
 Center     Atomic      Atomic             Coordinates (Angstroms)
 Number     Number       Type             X           Y           Z
 ---------------------------------------------------------------------
      1         17           0       -1.906509   -0.012464   -0.000003
      2          7           0       -0.208360    0.009411   -0.000000
      3          7           0        0.477354   -1.136970   -0.000000
      4          6           0        0.568717    1.122667    0.000002
      5          6           0        1.748562   -0.743730    0.000002
      6          6           0        1.865057    0.659271    0.000004
      7          1           0        0.143298    2.109292    0.000002
      8          1           0        2.528586   -1.486330    0.000002
      9          1           0        2.761801    1.252584    0.000006
 ---------------------------------------------------------------------

 SCF Done:  E(RHF) =  -684.976858404     A.U. after    2 cycles

 The electronic state is 1-A.
 Alpha  occ. eigenvalues --  -99.94659 -15.83908 -15.76432 -11.46618 -11.43935
 Alpha  occ. eigenvalues --  -11.38733 -10.51830  -9.72082  -9.70794  -9.70541
 Alpha  occ. eigenvalues --   -1.65676  -1.37036  -1.17463  -1.11972  -0.84704
 Alpha  occ. eigenvalues --   -0.83007  -0.76347  -0.67157  -0.60780  -0.59916
 Alpha  occ. eigenvalues --   -0.55318  -0.54117  -0.51404  -0.42600  -0.35125
 Alpha  occ. eigenvalues --   -0.34445
 Alpha virt. eigenvalues --    0.03424   0.04250   0.05342   0.05775   0.09140
 Alpha virt. eigenvalues --    0.09416   0.10528   0.11441   0.12150   0.13623
 Alpha virt. eigenvalues --    0.13902   0.14185   0.14795   0.16216   0.16406

 Mulliken charges:
               1
     1  Cl   0.703097
     2  N   -1.176225
     3  N   -2.438683
     4  C   -0.341697
     5  C    0.292352
     6  C   -0.756110
     7  H    1.137349
     8  H    1.417037
     9  H    1.162880
 Sum of Mulliken charges =  -0.00000

 Dipole moment (field-independent basis, Debye):
    X=              1.0554    Y=              1.7563    Z=              0.0000  Tot=              2.0490

 Test job not archived.
 1\1\GINC-SE343\SP\RHF\Aug-CC-pVDZ\C3H3Cl1N2\OHZDE\06-Apr-2025\0\\#t hf
  aug-cc-pvdz iop(5/13=1,5/36=2,99/5=2) pseudo=read geom=check guess=(r
 ead,tcheck) scf=(maxcycle=1)\\title\\0,1\Cl,0,-1.906509,-0.012464,-0.0
 00003\N,0,-0.20836,0.009411,0.\N,0,0.477354,-1.13697,0.\C,0,0.568717,1
 .122667,0.000002\C,0,1.748562,-0.74373,0.000002\C,0,1.865057,0.659271,
 0.000004\H,0,0.143298,2.109292,0.000002\H,0,2.528586,-1.48633,0.000002
 \H,0,2.761801,1.252584,0.000006\\Version=ES64L-G16RevC.01\State=1-A\HF
 =-684.9768584\RMSD=7.126e-01\Dipole=0.4152205,0.6909649,0.000001\Quadr

 Normal termination of Gaussian 16 at Sun Apr  6 07:58:58 2025.
