 Gaussian 16, Revision C.01,

 ----------------------------------------------------------------------
 #t hf aug-cc-pvdz symm=none int=(grid=ultrafine) guess=(read,tcheck) s
 table=(opt,rrhf)
 ----------------------------------------------------------------------
 -----
 title
 -----
 Symbolic Z-matrix:
 Charge =  0 Multiplicity = 1

 SCF Done:  E(RHF) =  -700.832559443     A.U. after   16 cycles
 Normal termination of Gaussian 16 at Sun Apr  6 07:58:52 2025.
 Gaussian 16:  ES64L-G16RevC.01  3-Jul-2019

 ----------------------------------------------------------------------
 #t hf aug-cc-pvdz iop(5/13=1,5/36=2,99/5=2) pseudo=read geom=check gue
 ss=(read,tcheck) scf=(maxcycle=1)
 ----------------------------------------------------------------------
 -----
 title
 -----
 Structure from the checkpoint file:  "1-chloro-4-5-dihydro-1H-1-2-3-triazole.chk"
 Charge =  0 Multiplicity = 1

                         Standard orientation:
 ---------------------------------------------------------------------
 Center     Atomic      Atomic             Coordinates (Angstroms)
 Number     Number       Type             X           Y           Z
 ---------------------------------------------------------------------
      1         17           0       -1.920947    0.002248    0.086589
      2          7           0       -0.262504    0.015809   -0.439109
      3          7           0        0.411868   -1.174015   -0.049153
      4          7           0        1.602483   -0.955892    0.169301
      5          6           0        0.539461    1.153832    0.050933
      6          6           0        1.913135    0.495408    0.023525
      7          1           0        0.436411    1.995512   -0.626647
      8          1           0        0.234666    1.446107    1.058692
      9          1           0        2.588289    0.800194    0.817850
     10          1           0        2.418220    0.623228   -0.935934
 ---------------------------------------------------------------------

 SCF Done:  E(RHF) =  -702.187052046     A.U. after    2 cycles

 The electronic state is 1-A.
 Alpha  occ. eigenvalues --  -99.92119 -15.83346 -15.80264 -15.79638 -11.48166
 Alpha  occ. eigenvalues --  -11.40962 -10.49289  -9.69254  -9.68271  -9.68140
 Alpha  occ. eigenvalues --   -1.67498  -1.41487  -1.22187  -1.17643  -0.91942
 Alpha  occ. eigenvalues --   -0.83958  -0.73533  -0.72532  -0.61511  -0.60339
 Alpha  occ. eigenvalues --   -0.57135  -0.56540  -0.51289  -0.49729  -0.48134
 Alpha  occ. eigenvalues --   -0.38483  -0.35706
 Alpha virt. eigenvalues --    0.03142   0.04999   0.05609   0.05746   0.06198
 Alpha virt. eigenvalues --    0.09135   0.10780   0.11142   0.13207   0.13426
 Alpha virt. eigenvalues --    0.13646   0.14953   0.15322   0.16842   0.17369

 Mulliken charges:
               1
     1  Cl   0.442564
     2  N   -0.850885
     3  N   -0.346003
     4  N   -0.569590
     5  C   -2.110895
     6  C   -2.229998
     7  H    1.333908
     8  H    1.382818
     9  H    1.458283
    10  H    1.489799
 Sum of Mulliken charges =  -0.00000

 Dipole moment (field-independent basis, Debye):
    X=              2.0049    Y=              2.7593    Z=              0.0316  Tot=              3.4109

 Test job not archived.
 1\1\GINC-SE412\SP\RHF\Aug-CC-pVDZ\C2H4Cl1N3\OHZDE\06-Apr-2025\0\\#t hf
  aug-cc-pvdz iop(5/13=1,5/36=2,99/5=2) pseudo=read geom=check guess=(r
 ead,tcheck) scf=(maxcycle=1)\\title\\0,1\Cl,0,-1.920947,0.002248,0.086
 589\N,0,-0.262504,0.015809,-0.439109\N,0,0.411868,-1.174015,-0.049153\
 N,0,1.602483,-0.955892,0.169301\C,0,0.539461,1.153832,0.050933\C,0,1.9
 13135,0.495408,0.023525\H,0,0.436411,1.995512,-0.626647\H,0,0.234666,1
 .446107,1.058692\H,0,2.588289,0.800194,0.81785\H,0,2.41822,0.623228,-0
 .935934\\Version=ES64L-G16RevC.01\State=1-A\HF=-702.187052\RMSD=3.220e

 Normal termination of Gaussian 16 at Sun Apr  6 07:58:56 2025.
