 Gaussian 16, Revision C.01,

 ----------------------------------------------------------------------
 #t hf aug-cc-pvdz symm=none int=(grid=ultrafine) guess=(read,tcheck) s
 table=(opt,rrhf)
 ----------------------------------------------------------------------
 -----
 title
 -----
 Symbolic Z-matrix:
 Charge =  0 Multiplicity = 1

 SCF Done:  E(RHF) =  -735.904644288     A.U. after   12 cycles
 Normal termination of Gaussian 16 at Sun Apr  6 07:58:50 2025.
 Gaussian 16:  ES64L-G16RevC.01  3-Jul-2019

 ----------------------------------------------------------------------
 #t hf aug-cc-pvdz iop(5/13=1,5/36=2,99/5=2) pseudo=read geom=check gue
 ss=(read,tcheck) scf=(maxcycle=1)
 ----------------------------------------------------------------------
 -----
 title
 -----
 Structure from the checkpoint file:  "1-chloro-1-1-difluoroethane.chk"
 Charge =  0 Multiplicity = 1

                         Standard orientation:
 ---------------------------------------------------------------------
 Center     Atomic      Atomic             Coordinates (Angstroms)
 Number     Number       Type             X           Y           Z
 ---------------------------------------------------------------------
      1          6           0       -0.355891    0.007246    0.000000
      2          6           0       -0.817838    1.438371    0.000000
      3         17           0        1.445175   -0.130990    0.000000
      4          9           0       -0.817838   -0.654552    1.085396
      5          9           0       -0.817838   -0.654552   -1.085396
      6          1           0       -1.907414    1.446254    0.000000
      7          1           0       -0.448549    1.944401    0.887913
      8          1           0       -0.448549    1.944401   -0.887913
 ---------------------------------------------------------------------

 SCF Done:  E(RHF) =  -737.206063815     A.U. after    2 cycles

 The electronic state is 1-A'.
 Alpha  occ. eigenvalues --  -99.90457 -29.30714 -29.30670 -11.58751 -11.41035
 Alpha  occ. eigenvalues --  -10.47914  -9.67744  -9.66913  -9.66873  -1.43713
 Alpha  occ. eigenvalues --   -1.23709  -1.04363  -0.86248  -0.75553  -0.68886
 Alpha  occ. eigenvalues --   -0.58798  -0.58437  -0.53222  -0.51780  -0.46073
 Alpha  occ. eigenvalues --   -0.40014  -0.35405  -0.30465  -0.30445  -0.23258
 Alpha virt. eigenvalues --    0.03907   0.05761   0.06332   0.07909   0.09718
 Alpha virt. eigenvalues --    0.10693   0.11874   0.13159   0.14036   0.15672
 Alpha virt. eigenvalues --    0.16044   0.18105   0.18122   0.21252   0.22537

 Mulliken charges:
               1
     1  C   -0.923717
     2  C   -3.446735
     3  Cl  -0.498985
     4  F    0.624097
     5  F    0.624097
     6  H    1.158851
     7  H    1.231196
     8  H    1.231196
 Sum of Mulliken charges =  -0.00000

 Dipole moment (field-independent basis, Debye):
    X=             -3.9909    Y=             -1.0605    Z=             -0.0000  Tot=              4.1294

 Test job not archived.
 1\1\GINC-SE108\SP\RHF\Aug-CC-pVDZ\C2H3Cl1F2\OHZDE\06-Apr-2025\0\\#t hf
  aug-cc-pvdz iop(5/13=1,5/36=2,99/5=2) pseudo=read geom=check guess=(r
 ead,tcheck) scf=(maxcycle=1)\\title\\0,1\C,0,-0.355891,0.007246,0.\C,0
 ,-0.817838,1.438371,0.\Cl,0,1.445175,-0.13099,0.\F,0,-0.817838,-0.6545
 52,1.085396\F,0,-0.817838,-0.654552,-1.085396\H,0,-1.907414,1.446254,0
 .\H,0,-0.448549,1.944401,0.887913\H,0,-0.448549,1.944401,-0.887913\\Ve
 rsion=ES64L-G16RevC.01\State=1-A'\HF=-737.2060638\RMSD=1.729e-01\Dipol
 e=-1.5701392,-0.4172254,0.\Quadrupole=-0.7963846,0.0977112,0.6986734,0

 Normal termination of Gaussian 16 at Sun Apr  6 07:58:53 2025.
