 Gaussian 16, Revision C.01,

 ----------------------------------------------------------------------
 #t hf aug-cc-pvdz symm=none int=(grid=ultrafine) guess=(read,tcheck) s
 table=(opt,rrhf)
 ----------------------------------------------------------------------
 -----
 title
 -----
 Symbolic Z-matrix:
 Charge =  0 Multiplicity = 1

 SCF Done:  E(RHF) =  -796.514571006     A.U. after   16 cycles
 Normal termination of Gaussian 16 at Sun Apr  6 07:59:09 2025.
 Gaussian 16:  ES64L-G16RevC.01  3-Jul-2019

 ----------------------------------------------------------------------
 #t hf aug-cc-pvdz iop(5/13=1,5/36=2,99/5=2) pseudo=read geom=check gue
 ss=(read,tcheck) scf=(maxcycle=1)
 ----------------------------------------------------------------------
 -----
 title
 -----
 Structure from the checkpoint file:  "1-chloro-1-cyano-2-isocyanatoethane.chk"
 Charge =  0 Multiplicity = 1

                         Standard orientation:
 ---------------------------------------------------------------------
 Center     Atomic      Atomic             Coordinates (Angstroms)
 Number     Number       Type             X           Y           Z
 ---------------------------------------------------------------------
      1         17           0       -0.676413    1.647673   -0.198839
      2          8           0        2.973312   -0.003864   -0.788694
      3          7           0        1.171490   -0.909893    0.447772
      4          7           0       -2.183834   -1.569197   -1.071477
      5          6           0        0.125081   -0.508516    1.336558
      6          6           0       -1.098061    0.085661    0.622655
      7          6           0       -1.695846   -0.827966   -0.341528
      8          6           0        2.065665   -0.383032   -0.161385
      9          1           0        0.479121    0.224746    2.062267
     10          1           0       -0.217303   -1.388512    1.882361
     11          1           0       -1.843922    0.340978    1.373321
 ---------------------------------------------------------------------

 SCF Done:  E(RHF) =  -798.230274450     A.U. after    2 cycles

 The electronic state is 1-A.
 Alpha  occ. eigenvalues --  -99.92348 -21.13201 -15.78824 -15.78220 -11.59721
 Alpha  occ. eigenvalues --  -11.54821 -11.49033 -11.45542 -10.49597  -9.69500
 Alpha  occ. eigenvalues --   -9.68810  -9.68727  -1.77939  -1.46421  -1.37472
 Alpha  occ. eigenvalues --   -1.31337  -1.16545  -1.00971  -0.80125  -0.73312
 Alpha  occ. eigenvalues --   -0.70358  -0.68061  -0.63241  -0.61912  -0.58836
 Alpha  occ. eigenvalues --   -0.57171  -0.54756  -0.53025  -0.51463  -0.46400
 Alpha  occ. eigenvalues --   -0.46044  -0.37243  -0.34976
 Alpha virt. eigenvalues --    0.01881   0.04171   0.05109   0.05500   0.07351
 Alpha virt. eigenvalues --    0.09155   0.09575   0.10161   0.10796   0.11141
 Alpha virt. eigenvalues --    0.11803   0.13022   0.13604   0.13969   0.14289

 Mulliken charges:
               1
     1  Cl   0.068768
     2  O   -2.610681
     3  N   -2.373057
     4  N   -2.383350
     5  C   -1.695722
     6  C   -2.124745
     7  C    2.563313
     8  C    3.955077
     9  H    1.576346
    10  H    1.406494
    11  H    1.617556
 Sum of Mulliken charges =   0.00000

 Dipole moment (field-independent basis, Debye):
    X=              0.7049    Y=              1.0519    Z=              3.2199  Tot=              3.4599

 Test job not archived.
 1\1\GINC-SE169\SP\RHF\Aug-CC-pVDZ\C4H3Cl1N2O1\OHZDE\06-Apr-2025\0\\#t
 hf aug-cc-pvdz iop(5/13=1,5/36=2,99/5=2) pseudo=read geom=check guess=
 (read,tcheck) scf=(maxcycle=1)\\title\\0,1\Cl,0,-0.676413,1.647673,-0.
 198839\O,0,2.973312,-0.003864,-0.788694\N,0,1.17149,-0.909893,0.447772
 \N,0,-2.183834,-1.569197,-1.071477\C,0,0.125081,-0.508516,1.336558\C,0
 ,-1.098061,0.085661,0.622655\C,0,-1.695846,-0.827966,-0.341528\C,0,2.0
 65665,-0.383032,-0.161385\H,0,0.479121,0.224746,2.062267\H,0,-0.217303
 ,-1.388512,1.882361\H,0,-1.843922,0.340978,1.373321\\Version=ES64L-G16

 Normal termination of Gaussian 16 at Sun Apr  6 07:59:14 2025.
