 Gaussian 16, Revision C.01,

 ----------------------------------------------------------------------
 #t hf aug-cc-pvdz symm=none int=(grid=ultrafine) guess=(read,tcheck) s
 table=(opt,rrhf)
 ----------------------------------------------------------------------
 -----
 title
 -----
 Symbolic Z-matrix:
 Charge =  0 Multiplicity = 1

 SCF Done:  E(RHF) =  -616.243060960     A.U. after   12 cycles

 1\1\GINC-SE422\Stability\RHF\Aug-CC-pVDZ\C4H9Cl1\OHZDE\06-Apr-2025\0\\
 #t hf aug-cc-pvdz symm=none int=(grid=ultrafine) guess=(read,tcheck) s
 table=(opt,rrhf)\\title\\0,1\C,0,1.161089,2.783469,0.\C,0,1.336413,1.2
 65667,0.\C,0,0.,0.516511,0.\C,0,0.195757,-0.9872,0.\Cl,0,-1.389892,-1.
 875231,0.\H,0,0.609343,3.116554,0.880936\H,0,2.125518,3.29244,0.\H,0,0
 .609343,3.116554,-0.880936\H,0,1.921195,0.966651,0.874698\H,0,1.921195
 ,0.966651,-0.874698\H,0,-0.585899,0.802883,0.876235\H,0,-0.585899,0.80
 2883,-0.876235\H,0,0.72691,-1.328188,0.885109\H,0,0.72691,-1.328188,-0

 Normal termination of Gaussian 16 at Sun Apr  6 07:59:02 2025.
 Gaussian 16:  ES64L-G16RevC.01  3-Jul-2019

 ----------------------------------------------------------------------
 #t hf aug-cc-pvdz iop(5/13=1,5/36=2,99/5=2) pseudo=read geom=check gue
 ss=(read,tcheck) scf=(maxcycle=1)
 ----------------------------------------------------------------------
 -----
 title
 -----
 Structure from the checkpoint file:  "1-chlorobutane.chk"
 Charge =  0 Multiplicity = 1

                         Standard orientation:
 ---------------------------------------------------------------------
 Center     Atomic      Atomic             Coordinates (Angstroms)
 Number     Number       Type             X           Y           Z
 ---------------------------------------------------------------------
      1          6           0        1.161090    2.783469    0.000000
      2          6           0        1.336413    1.265667    0.000000
      3          6           0        0.000000    0.516511    0.000000
      4          6           0        0.195757   -0.987200    0.000000
      5         17           0       -1.389893   -1.875231    0.000000
      6          1           0        0.609344    3.116554    0.880936
      7          1           0        2.125519    3.292440    0.000000
      8          1           0        0.609344    3.116554   -0.880936
      9          1           0        1.921195    0.966651    0.874698
     10          1           0        1.921195    0.966651   -0.874698
     11          1           0       -0.585899    0.802883    0.876235
     12          1           0       -0.585899    0.802883   -0.876235
     13          1           0        0.726910   -1.328188    0.885109
     14          1           0        0.726910   -1.328188   -0.885109
 ---------------------------------------------------------------------

 SCF Done:  E(RHF) =  -617.313864759     A.U. after    2 cycles

 The electronic state is 1-A'.
 Alpha  occ. eigenvalues --  -99.87030 -11.44773 -11.42115 -11.38835 -11.35754
 Alpha  occ. eigenvalues --  -10.44274  -9.64211  -9.63469  -9.63392  -1.33729
 Alpha  occ. eigenvalues --   -1.21633  -1.06569  -0.92151  -0.84526  -0.68148
 Alpha  occ. eigenvalues --   -0.61644  -0.61196  -0.59805  -0.54992  -0.52860
 Alpha  occ. eigenvalues --   -0.49376  -0.47388  -0.46904  -0.46322  -0.42902
 Alpha virt. eigenvalues --    0.03667   0.04705   0.05604   0.05759   0.06212
 Alpha virt. eigenvalues --    0.06293   0.06481   0.07273   0.08748   0.10010
 Alpha virt. eigenvalues --    0.10221   0.12902   0.13656   0.14314   0.15700

 Mulliken charges:
               1
     1  C   -3.706333
     2  C   -2.972163
     3  C   -1.866278
     4  C   -4.154520
     5  Cl  -0.011829
     6  H    1.284495
     7  H    1.090468
     8  H    1.284495
     9  H    1.461125
    10  H    1.461125
    11  H    1.509753
    12  H    1.509753
    13  H    1.554955
    14  H    1.554955
 Sum of Mulliken charges =  -0.00000

 Dipole moment (field-independent basis, Debye):
    X=              2.2209    Y=              1.7056    Z=              0.0000  Tot=              2.8003

 Test job not archived.
 1\1\GINC-SE422\SP\RHF\Aug-CC-pVDZ\C4H9Cl1\OHZDE\06-Apr-2025\0\\#t hf a
 ug-cc-pvdz iop(5/13=1,5/36=2,99/5=2) pseudo=read geom=check guess=(rea
 d,tcheck) scf=(maxcycle=1)\\title\\0,1\C,0,1.161089,2.783469,0.\C,0,1.
 336413,1.265667,0.\C,0,0.,0.516511,0.\C,0,0.195757,-0.9872,0.\Cl,0,-1.
 389892,-1.875231,0.\H,0,0.609343,3.116554,0.880936\H,0,2.125518,3.2924
 4,0.\H,0,0.609343,3.116554,-0.880936\H,0,1.921195,0.966651,0.874698\H,
 0,1.921195,0.966651,-0.874698\H,0,-0.585899,0.802883,0.876235\H,0,-0.5
 85899,0.802883,-0.876235\H,0,0.72691,-1.328188,0.885109\H,0,0.72691,-1

 Normal termination of Gaussian 16 at Sun Apr  6 07:59:06 2025.
