 Gaussian 16, Revision C.01,

 ----------------------------------------------------------------------
 #t hf aug-cc-pvdz symm=none int=(grid=ultrafine) guess=(read,tcheck) s
 table=(opt,rrhf)
 ----------------------------------------------------------------------
 -----
 title
 -----
 Symbolic Z-matrix:
 Charge =  0 Multiplicity = 1

 SCF Done:  E(RHF) =  -1065.27174283     A.U. after   15 cycles
 Normal termination of Gaussian 16 at Sun Apr  6 07:58:59 2025.
 Gaussian 16:  ES64L-G16RevC.01  3-Jul-2019

 ----------------------------------------------------------------------
 #t hf aug-cc-pvdz iop(5/13=1,5/36=2,99/5=2) pseudo=read geom=check gue
 ss=(read,tcheck) scf=(maxcycle=1)
 ----------------------------------------------------------------------
 -----
 title
 -----
 Structure from the checkpoint file:  "1-chloroallyl_isothiocyanate.chk"
 Charge =  0 Multiplicity = 1

                         Standard orientation:
 ---------------------------------------------------------------------
 Center     Atomic      Atomic             Coordinates (Angstroms)
 Number     Number       Type             X           Y           Z
 ---------------------------------------------------------------------
      1         17           0        1.206649    1.711643   -0.227494
      2         16           0       -3.019563   -0.139639   -0.082460
      3          7           0       -0.291654   -0.495146    0.196818
      4          6           0        0.951475    0.047369    0.568780
      5          6           0        2.117266   -0.819228    0.224719
      6          6           0        2.032356   -1.986494   -0.395802
      7          6           0       -1.463636   -0.293893    0.095615
      8          1           0        0.943371    0.294738    1.629473
      9          1           0        3.072452   -0.416382    0.534896
     10          1           0        2.918954   -2.568416   -0.603567
     11          1           0        1.082018   -2.394155   -0.711641
 ---------------------------------------------------------------------

 SCF Done:  E(RHF) =  -1066.71353695     A.U. after    2 cycles

 The electronic state is 1-A.
 Alpha  occ. eigenvalues --  -99.89347 -75.70372 -15.79924 -13.23833 -13.01903
 Alpha  occ. eigenvalues --  -13.01620 -11.56423 -11.53373 -11.44152 -11.40303
 Alpha  occ. eigenvalues --  -10.46534  -9.66446  -9.65788  -9.65682  -8.04668
 Alpha  occ. eigenvalues --   -1.48447  -1.31616  -1.20800  -1.15422  -1.02202
 Alpha  occ. eigenvalues --   -0.85820  -0.75837  -0.67986  -0.67500  -0.60687
 Alpha  occ. eigenvalues --   -0.56775  -0.54371  -0.53933  -0.51764  -0.50620
 Alpha  occ. eigenvalues --   -0.47933  -0.38457  -0.28795  -0.26973
 Alpha virt. eigenvalues --    0.02359   0.04539   0.05106   0.05546   0.06195
 Alpha virt. eigenvalues --    0.06515   0.08687   0.09821   0.10040   0.10466
 Alpha virt. eigenvalues --    0.11227   0.12571   0.13093   0.13944   0.14829

 Mulliken charges:
               1
     1  Cl   0.180658
     2  S    1.610647
     3  N   -2.586560
     4  C   -3.900395
     5  C    0.828195
     6  C   -3.052538
     7  C    1.021354
     8  H    1.642063
     9  H    1.339360
    10  H    1.415924
    11  H    1.501292
 Sum of Mulliken charges =  -0.00000

 Dipole moment (field-independent basis, Debye):
    X=             -2.2669    Y=             -1.7485    Z=              0.6338  Tot=              2.9322

 Test job not archived.
 1\1\GINC-SE422\SP\RHF\Aug-CC-pVDZ\C4H4Cl1N1S1\OHZDE\06-Apr-2025\0\\#t
 hf aug-cc-pvdz iop(5/13=1,5/36=2,99/5=2) pseudo=read geom=check guess=
 (read,tcheck) scf=(maxcycle=1)\\title\\0,1\Cl,0,1.206649,1.711643,-0.2
 27494\S,0,-3.019563,-0.139639,-0.08246\N,0,-0.291654,-0.495146,0.19681
 8\C,0,0.951475,0.047369,0.56878\C,0,2.117266,-0.819228,0.224719\C,0,2.
 032356,-1.986494,-0.395802\C,0,-1.463636,-0.293893,0.095615\H,0,0.9433
 71,0.294738,1.629473\H,0,3.072452,-0.416382,0.534896\H,0,2.918954,-2.5
 68416,-0.603567\H,0,1.082018,-2.394155,-0.711641\\Version=ES64L-G16Rev

 Normal termination of Gaussian 16 at Sun Apr  6 07:59:05 2025.
