 Gaussian 16, Revision C.01,

 ----------------------------------------------------------------------
 #t hf aug-cc-pvdz symm=none int=(grid=ultrafine) guess=(read,tcheck) s
 table=(opt,rrhf)
 ----------------------------------------------------------------------
 -----
 title
 -----
 Symbolic Z-matrix:
 Charge =  0 Multiplicity = 1

 SCF Done:  E(RHF) =  -889.607750589     A.U. after   17 cycles
 Normal termination of Gaussian 16 at Sun Apr  6 07:59:44 2025.
 Gaussian 16:  ES64L-G16RevC.01  3-Jul-2019

 ----------------------------------------------------------------------
 #t hf aug-cc-pvdz iop(5/13=1,5/36=2,99/5=2) pseudo=read geom=check gue
 ss=(read,tcheck) scf=(maxcycle=1)
 ----------------------------------------------------------------------
 -----
 title
 -----
 Structure from the checkpoint file:  "1-chloro-1-ethyl-3-nitrosourea.chk"
 Charge =  0 Multiplicity = 1

                         Standard orientation:
 ---------------------------------------------------------------------
 Center     Atomic      Atomic             Coordinates (Angstroms)
 Number     Number       Type             X           Y           Z
 ---------------------------------------------------------------------
      1         17           0        2.286656   -0.909638   -0.094329
      2          8           0       -0.348592   -1.741340    0.570157
      3          8           0       -3.591259    0.368778   -0.156789
      4          7           0        0.834131   -0.041900   -0.440896
      5          7           0       -1.480456    0.074394   -0.263918
      6          7           0       -2.680962   -0.317585    0.233515
      7          6           0        1.034960    1.411899   -0.556362
      8          6           0        1.208429    2.133260    0.774373
      9          6           0       -0.314225   -0.670944    0.029846
     10          1           0        0.193913    1.822214   -1.115508
     11          1           0        1.908061    1.546450   -1.191269
     12          1           0        1.383554    3.194973    0.597832
     13          1           0        0.320409    2.034185    1.398486
     14          1           0        2.061221    1.735025    1.322072
     15          1           0       -1.505481    0.861831   -0.903010
 ---------------------------------------------------------------------

 SCF Done:  E(RHF) =  -891.749687755     A.U. after    2 cycles

 The electronic state is 1-A.
 Alpha  occ. eigenvalues --  -99.93437 -21.12350 -21.05917 -15.91549 -15.82514
 Alpha  occ. eigenvalues --  -15.81132 -11.55477 -11.47353 -11.39699 -10.50615
 Alpha  occ. eigenvalues --   -9.70607  -9.69751  -9.69451  -1.90226  -1.75926
 Alpha  occ. eigenvalues --   -1.52029  -1.43920  -1.26297  -1.14715  -1.01041
 Alpha  occ. eigenvalues --   -0.94747  -0.85343  -0.75848  -0.70733  -0.68029
 Alpha  occ. eigenvalues --   -0.65775  -0.63687  -0.61757  -0.57107  -0.56701
 Alpha  occ. eigenvalues --   -0.54657  -0.52696  -0.52350  -0.51668  -0.50547
 Alpha  occ. eigenvalues --   -0.37372  -0.35714  -0.33875  -0.29927
 Alpha virt. eigenvalues --    0.02809   0.04237   0.04683   0.05182   0.05860
 Alpha virt. eigenvalues --    0.06466   0.07777   0.09809   0.10044   0.10433
 Alpha virt. eigenvalues --    0.11747   0.11911   0.13183   0.13509   0.14361

 Mulliken charges:
               1
     1  Cl   0.345686
     2  O   -3.010977
     3  O   -2.115708
     4  N   -2.153000
     5  N   -1.278264
     6  N    1.140062
     7  C   -2.748400
     8  C   -3.491577
     9  C    5.521260
    10  H    1.787434
    11  H    1.315515
    12  H    1.153066
    13  H    1.279978
    14  H    1.342084
    15  H    0.912840
 Sum of Mulliken charges =  -0.00000

 Dipole moment (field-independent basis, Debye):
    X=              0.7461    Y=              3.7067    Z=             -1.3275  Tot=              4.0073

 Test job not archived.
 1\1\GINC-SE167\SP\RHF\Aug-CC-pVDZ\C3H6Cl1N3O2\OHZDE\06-Apr-2025\0\\#t
 hf aug-cc-pvdz iop(5/13=1,5/36=2,99/5=2) pseudo=read geom=check guess=
 (read,tcheck) scf=(maxcycle=1)\\title\\0,1\Cl,0,2.286656,-0.909638,-0.
 094329\O,0,-0.348592,-1.74134,0.570157\O,0,-3.591259,0.368778,-0.15678
 9\N,0,0.834131,-0.0419,-0.440896\N,0,-1.480456,0.074394,-0.263918\N,0,
 -2.680962,-0.317585,0.233515\C,0,1.03496,1.411899,-0.556362\C,0,1.2084
 29,2.13326,0.774373\C,0,-0.314225,-0.670944,0.029846\H,0,0.193913,1.82
 2214,-1.115508\H,0,1.908061,1.54645,-1.191269\H,0,1.383554,3.194973,0.

 Normal termination of Gaussian 16 at Sun Apr  6 07:59:52 2025.
