 Gaussian 16, Revision C.01,

 ----------------------------------------------------------------------
 #t hf aug-cc-pvdz symm=none int=(grid=ultrafine) guess=(read,tcheck) s
 table=(opt,rrhf)
 ----------------------------------------------------------------------
 -----
 title
 -----
 Symbolic Z-matrix:
 Charge =  0 Multiplicity = 1

 SCF Done:  E(RHF) =  -613.863491435     A.U. after   14 cycles

 1\1\GINC-SE168\Stability\RHF\Aug-CC-pVDZ\C4H5Cl1\OHZDE\06-Apr-2025\0\\
 #t hf aug-cc-pvdz symm=none int=(grid=ultrafine) guess=(read,tcheck) s
 table=(opt,rrhf)\\title\\0,1\C,0,0.,1.019263,0.\C,0,1.348969,0.492686,
 0.\C,0,-1.138067,0.325279,0.\C,0,2.440288,1.261794,0.\H,0,-0.108466,2.
 099001,0.\H,0,1.454409,-0.585078,0.\H,0,-2.111345,0.788809,0.\Cl,0,-1.
 232208,-1.416011,0.\H,0,3.43203,0.832553,0.\H,0,2.373763,2.34277,0.\\V
 ersion=ES64L-G16RevC.01\HF=-613.8634914\RMSD=5.979e-09\Dipole=0.204703
 5,0.6745358,0.\Quadrupole=2.0813126,1.2460746,-3.3273873,-1.1382457,0.

 Normal termination of Gaussian 16 at Sun Apr  6 07:58:57 2025.
 Gaussian 16:  ES64L-G16RevC.01  3-Jul-2019

 ----------------------------------------------------------------------
 #t hf aug-cc-pvdz iop(5/13=1,5/36=2,99/5=2) pseudo=read geom=check gue
 ss=(read,tcheck) scf=(maxcycle=1)
 ----------------------------------------------------------------------
 -----
 title
 -----
 Structure from the checkpoint file:  "1-chloro-1-3-butadiene.chk"
 Charge =  0 Multiplicity = 1

                         Standard orientation:
 ---------------------------------------------------------------------
 Center     Atomic      Atomic             Coordinates (Angstroms)
 Number     Number       Type             X           Y           Z
 ---------------------------------------------------------------------
      1          6           0        0.000000    1.019263    0.000000
      2          6           0        1.348969    0.492686    0.000000
      3          6           0       -1.138067    0.325279    0.000000
      4          6           0        2.440288    1.261794    0.000000
      5          1           0       -0.108466    2.099001    0.000000
      6          1           0        1.454409   -0.585078    0.000000
      7          1           0       -2.111345    0.788809    0.000000
      8         17           0       -1.232208   -1.416011    0.000000
      9          1           0        3.432030    0.832553    0.000000
     10          1           0        2.373763    2.342770    0.000000
 ---------------------------------------------------------------------

 SCF Done:  E(RHF) =  -614.860864185     A.U. after    2 cycles

 The electronic state is 1-A'.
 Alpha  occ. eigenvalues --  -99.89518 -11.46551 -11.44079 -11.41060 -11.38543
 Alpha  occ. eigenvalues --  -10.46894  -9.66717  -9.66062  -9.65840  -1.36118
 Alpha  occ. eigenvalues --   -1.21616  -1.06811  -0.87880  -0.78977  -0.68585
 Alpha  occ. eigenvalues --   -0.64968  -0.56176  -0.55911  -0.54783  -0.51307
 Alpha  occ. eigenvalues --   -0.47198  -0.43943  -0.31698
 Alpha virt. eigenvalues --    0.03421   0.04837   0.05672   0.06175   0.06681
 Alpha virt. eigenvalues --    0.08261   0.08856   0.10959   0.11280   0.13020
 Alpha virt. eigenvalues --    0.13530   0.14002   0.14718   0.14790   0.16099

 Mulliken charges:
               1
     1  C    1.600844
     2  C   -0.034125
     3  C   -4.371003
     4  C   -3.518390
     5  H    1.336638
     6  H    1.534737
     7  H    1.199372
     8  Cl  -0.501686
     9  H    1.315576
    10  H    1.438037
 Sum of Mulliken charges =  -0.00000

 Dipole moment (field-independent basis, Debye):
    X=              0.7826    Y=              1.9330    Z=              0.0000  Tot=              2.0854

 Test job not archived.
 1\1\GINC-SE168\SP\RHF\Aug-CC-pVDZ\C4H5Cl1\OHZDE\06-Apr-2025\0\\#t hf a
 ug-cc-pvdz iop(5/13=1,5/36=2,99/5=2) pseudo=read geom=check guess=(rea
 d,tcheck) scf=(maxcycle=1)\\title\\0,1\C,0,0.,1.019263,0.\C,0,1.348969
 ,0.492686,0.\C,0,-1.138067,0.325279,0.\C,0,2.440288,1.261794,0.\H,0,-0
 .108466,2.099001,0.\H,0,1.454409,-0.585078,0.\H,0,-2.111345,0.788809,0
 .\Cl,0,-1.232208,-1.416011,0.\H,0,3.43203,0.832553,0.\H,0,2.373763,2.3
 4277,0.\\Version=ES64L-G16RevC.01\State=1-A'\HF=-614.8608642\RMSD=9.77
 5e-01\Dipole=0.3078946,0.7605089,0.\Quadrupole=1.6656951,1.6927249,-3.

 Normal termination of Gaussian 16 at Sun Apr  6 07:59:01 2025.
