 Gaussian 16, Revision C.01,

 ----------------------------------------------------------------------
 #t hf aug-cc-pvdz symm=none int=(grid=ultrafine) guess=(read,tcheck) s
 table=(opt,rrhf)
 ----------------------------------------------------------------------
 -----
 title
 -----
 Symbolic Z-matrix:
 Charge =  0 Multiplicity = 1

 SCF Done:  E(RHF) =  -842.314408286     A.U. after   18 cycles
 Normal termination of Gaussian 16 at Sun Apr  6 08:00:48 2025.
 Gaussian 16:  ES64L-G16RevC.01  3-Jul-2019

 ----------------------------------------------------------------------
 #t hf aug-cc-pvdz iop(5/13=1,5/36=2,99/5=2) pseudo=read geom=check gue
 ss=(read,tcheck) scf=(maxcycle=1)
 ----------------------------------------------------------------------
 -----
 title
 -----
 Structure from the checkpoint file:  "1-chloronaphthalene.chk"
 Charge =  0 Multiplicity = 1

                         Standard orientation:
 ---------------------------------------------------------------------
 Center     Atomic      Atomic             Coordinates (Angstroms)
 Number     Number       Type             X           Y           Z
 ---------------------------------------------------------------------
      1          6           0        1.134283   -0.569029    0.000000
      2          6           0        1.016492   -1.932922    0.000000
      3          6           0       -0.261594   -2.526193    0.000000
      4          6           0       -1.387179   -1.747660    0.000000
      5          6           0       -2.441560    0.487066    0.000000
      6          6           0       -2.335638    1.852213    0.000000
      7          6           0       -1.064302    2.461445    0.000000
      8          6           0        0.074645    1.699051    0.000000
      9          6           0        0.000000    0.285851    0.000000
     10          6           0       -1.289332   -0.336021    0.000000
     11         17           0        2.747884    0.124724    0.000000
     12          1           0        1.904173   -2.548108    0.000000
     13          1           0       -0.340512   -3.604770    0.000000
     14          1           0       -2.369483   -2.201792    0.000000
     15          1           0       -3.414600    0.012616    0.000000
     16          1           0       -3.225734    2.466898    0.000000
     17          1           0       -0.988024    3.540457    0.000000
     18          1           0        1.045261    2.171590    0.000000
 ---------------------------------------------------------------------

 SCF Done:  E(RHF) =  -844.391676205     A.U. after    2 cycles

 The electronic state is 1-A'.
 Alpha  occ. eigenvalues --  -99.89384 -11.53311 -11.50761 -11.46647 -11.45908
 Alpha  occ. eigenvalues --  -11.43984 -11.43290 -11.42442 -11.42012 -11.40263
 Alpha  occ. eigenvalues --  -11.37781 -10.46750  -9.66771  -9.66067  -9.65719
 Alpha  occ. eigenvalues --   -1.43350  -1.31790  -1.23930  -1.13639  -1.09450
 Alpha  occ. eigenvalues --   -1.04841  -0.90584  -0.88960  -0.84941  -0.74001
 Alpha  occ. eigenvalues --   -0.71570  -0.68706  -0.64276  -0.60939  -0.58775
 Alpha  occ. eigenvalues --   -0.58128  -0.56124  -0.54851  -0.52181  -0.50781
 Alpha  occ. eigenvalues --   -0.49078  -0.45159  -0.44012  -0.43154  -0.38641
 Alpha  occ. eigenvalues --   -0.32554  -0.28530
 Alpha virt. eigenvalues --    0.03109   0.04529   0.04902   0.05728   0.06495
 Alpha virt. eigenvalues --    0.06741   0.07467   0.07556   0.08666   0.09866
 Alpha virt. eigenvalues --    0.10918   0.11355   0.11372   0.12124   0.13297

 Mulliken charges:
               1
     1  C    0.426575
     2  C   -3.796327
     3  C   -2.726845
     4  C   -4.256478
     5  C   -3.106896
     6  C   -4.127217
     7  C   -2.858156
     8  C    0.264437
     9  C    7.131307
    10  C    2.777357
    11  Cl  -0.949573
    12  H    1.596882
    13  H    1.517063
    14  H    1.656403
    15  H    1.649947
    16  H    1.464642
    17  H    1.496013
    18  H    1.840864
 Sum of Mulliken charges =   0.00000

 Dipole moment (field-independent basis, Debye):
    X=             -2.3578    Y=             -0.6800    Z=              0.0000  Tot=              2.4539

 Test job not archived.
 1\1\GINC-SE276\SP\RHF\Aug-CC-pVDZ\C10H7Cl1\OHZDE\06-Apr-2025\0\\#t hf
 aug-cc-pvdz iop(5/13=1,5/36=2,99/5=2) pseudo=read geom=check guess=(re
 ad,tcheck) scf=(maxcycle=1)\\title\\0,1\C,0,1.134283,-0.569029,0.\C,0,
 1.016492,-1.932922,0.\C,0,-0.261594,-2.526193,0.\C,0,-1.387179,-1.7476
 6,0.\C,0,-2.44156,0.487066,0.\C,0,-2.335638,1.852213,0.\C,0,-1.064302,
 2.461445,0.\C,0,0.074645,1.699051,0.\C,0,0.,0.285851,0.\C,0,-1.289332,
 -0.336021,0.\Cl,0,2.747884,0.124724,0.\H,0,1.904173,-2.548108,0.\H,0,-
 0.340512,-3.60477,0.\H,0,-2.369483,-2.201792,0.\H,0,-3.4146,0.012616,0

 Normal termination of Gaussian 16 at Sun Apr  6 08:01:21 2025.
