 Gaussian 16, Revision C.01,

 ----------------------------------------------------------------------
 #t hf aug-cc-pvdz symm=none int=(grid=ultrafine) guess=(read,tcheck) s
 table=(opt,rrhf)
 ----------------------------------------------------------------------
 -----
 title
 -----
 Symbolic Z-matrix:
 Charge =  0 Multiplicity = 1

 SCF Done:  E(RHF) =  -691.101346237     A.U. after   12 cycles
 Normal termination of Gaussian 16 at Sun Apr  6 07:59:07 2025.
 Gaussian 16:  ES64L-G16RevC.01  3-Jul-2019

 ----------------------------------------------------------------------
 #t hf aug-cc-pvdz iop(5/13=1,5/36=2,99/5=2) pseudo=read geom=check gue
 ss=(read,tcheck) scf=(maxcycle=1)
 ----------------------------------------------------------------------
 -----
 title
 -----
 Structure from the checkpoint file:  "1-chloro-2-ethoxyethane.chk"
 Charge =  0 Multiplicity = 1

                         Standard orientation:
 ---------------------------------------------------------------------
 Center     Atomic      Atomic             Coordinates (Angstroms)
 Number     Number       Type             X           Y           Z
 ---------------------------------------------------------------------
      1          6           0       -1.364294   -0.257422    0.000000
      2         17           0       -2.663967    1.000357    0.000000
      3          6           0        0.000000    0.402791    0.000000
      4          6           0        3.235965   -1.355048    0.000000
      5          6           0        2.301786   -0.163749    0.000000
      6          8           0        0.959835   -0.634578    0.000000
      7          1           0        4.273451   -1.018738    0.000000
      8          1           0       -1.508982   -0.865324    0.887556
      9          1           0       -1.508982   -0.865324   -0.887556
     10          1           0        0.111166    1.038659   -0.886420
     11          1           0        0.111166    1.038659    0.886420
     12          1           0        3.073565   -1.971524   -0.883887
     13          1           0        3.073565   -1.971524    0.883887
     14          1           0        2.471534    0.463118    0.884863
     15          1           0        2.471534    0.463118   -0.884863
 ---------------------------------------------------------------------

 SCF Done:  E(RHF) =  -692.456785346     A.U. after    2 cycles

 The electronic state is 1-A'.
 Alpha  occ. eigenvalues --  -99.87759 -21.05002 -11.46386 -11.43528 -11.41025
 Alpha  occ. eigenvalues --  -11.36781 -10.45011  -9.64938  -9.64190  -9.64112
 Alpha  occ. eigenvalues --   -1.76404  -1.32775  -1.14807  -1.06245  -0.89982
 Alpha  occ. eigenvalues --   -0.87188  -0.69543  -0.64142  -0.64067  -0.61210
 Alpha  occ. eigenvalues --   -0.57621  -0.56508  -0.52359  -0.50420  -0.50418
 Alpha  occ. eigenvalues --   -0.47136  -0.43834  -0.39797  -0.30974
 Alpha virt. eigenvalues --    0.03859   0.04954   0.05582   0.05617   0.05797
 Alpha virt. eigenvalues --    0.06049   0.06410   0.07211   0.08122   0.09883
 Alpha virt. eigenvalues --    0.10294   0.12518   0.14074   0.14363   0.14985

 Mulliken charges:
               1
     1  C   -4.652417
     2  Cl   0.041414
     3  C   -0.045318
     4  C   -4.036301
     5  C   -1.365797
     6  O   -3.302056
     7  H    1.104423
     8  H    1.610887
     9  H    1.610887
    10  H    1.610411
    11  H    1.610411
    12  H    1.311563
    13  H    1.311563
    14  H    1.595165
    15  H    1.595165
 Sum of Mulliken charges =  -0.00000

 Dipole moment (field-independent basis, Debye):
    X=              2.3005    Y=             -1.2098    Z=              0.0000  Tot=              2.5992

 Test job not archived.
 1\1\GINC-SE249\SP\RHF\Aug-CC-pVDZ\C4H9Cl1O1\OHZDE\06-Apr-2025\0\\#t hf
  aug-cc-pvdz iop(5/13=1,5/36=2,99/5=2) pseudo=read geom=check guess=(r
 ead,tcheck) scf=(maxcycle=1)\\title\\0,1\C,0,-1.364294,-0.257422,0.\Cl
 ,0,-2.663967,1.000357,0.\C,0,0.,0.402791,0.\C,0,3.235965,-1.355048,0.\
 C,0,2.301786,-0.163749,0.\O,0,0.959835,-0.634578,0.\H,0,4.273451,-1.01
 8738,0.\H,0,-1.508982,-0.865324,0.887556\H,0,-1.508982,-0.865324,-0.88
 7556\H,0,0.111166,1.038659,-0.88642\H,0,0.111166,1.038659,0.88642\H,0,
 3.073565,-1.971524,-0.883887\H,0,3.073565,-1.971524,0.883887\H,0,2.471

 Normal termination of Gaussian 16 at Sun Apr  6 07:59:11 2025.
