 Gaussian 16, Revision C.01,

 ----------------------------------------------------------------------
 #t hf aug-cc-pvdz symm=none int=(grid=ultrafine) guess=(read,tcheck) s
 table=(opt,rrhf)
 ----------------------------------------------------------------------
 -----
 title
 -----
 Symbolic Z-matrix:
 Charge =  0 Multiplicity = 1

 SCF Done:  E(RHF) =  -694.320199346     A.U. after   12 cycles
 Normal termination of Gaussian 16 at Sun Apr  6 07:59:36 2025.
 Gaussian 16:  ES64L-G16RevC.01  3-Jul-2019

 ----------------------------------------------------------------------
 #t hf aug-cc-pvdz iop(5/13=1,5/36=2,99/5=2) pseudo=read geom=check gue
 ss=(read,tcheck) scf=(maxcycle=1)
 ----------------------------------------------------------------------
 -----
 title
 -----
 Structure from the checkpoint file:  "1-chlorohexane.chk"
 Charge =  0 Multiplicity = 1

                         Standard orientation:
 ---------------------------------------------------------------------
 Center     Atomic      Atomic             Coordinates (Angstroms)
 Number     Number       Type             X           Y           Z
 ---------------------------------------------------------------------
      1          6           0        4.107657   -0.250205   -0.215211
      2          6           0        2.717325   -0.521399    0.356513
      3          6           0        1.636426    0.390420   -0.225173
      4          6           0        0.242168    0.120079    0.340479
      5          6           0       -0.829692    1.038232   -0.244879
      6          6           0       -2.225201    0.823188    0.309411
      7         17           0       -2.919780   -0.797045   -0.154599
      8          1           0        4.124179   -0.394646   -1.297420
      9          1           0        4.854124   -0.916596    0.218969
     10          1           0        4.423588    0.775876   -0.015423
     11          1           0        2.443823   -1.564425    0.172169
     12          1           0        2.740755   -0.402685    1.443977
     13          1           0        1.613418    0.271434   -1.313552
     14          1           0        1.909906    1.435111   -0.040928
     15          1           0        0.262024    0.239696    1.428936
     16          1           0       -0.032215   -0.919987    0.150936
     17          1           0       -0.857119    0.939470   -1.332660
     18          1           0       -0.568928    2.082139   -0.035424
     19          1           0       -2.240983    0.846311    1.396326
     20          1           0       -2.928401    1.556175   -0.074565
 ---------------------------------------------------------------------

 SCF Done:  E(RHF) =  -695.800396785     A.U. after    2 cycles

 The electronic state is 1-A.
 Alpha  occ. eigenvalues --  -99.86908 -11.45503 -11.42396 -11.41395 -11.38785
 Alpha  occ. eigenvalues --  -11.36650 -11.34342 -10.44158  -9.64067  -9.63458
 Alpha  occ. eigenvalues --   -9.63323  -1.33886  -1.25062  -1.14885  -1.03919
 Alpha  occ. eigenvalues --   -0.93405  -0.85221  -0.82566  -0.67534  -0.64967
 Alpha  occ. eigenvalues --   -0.63008  -0.59685  -0.57365  -0.55891  -0.53903
 Alpha  occ. eigenvalues --   -0.51809  -0.48879  -0.47718  -0.47024  -0.45775
 Alpha  occ. eigenvalues --   -0.45279  -0.44735  -0.39972
 Alpha virt. eigenvalues --    0.03875   0.04435   0.05001   0.05512   0.05821
 Alpha virt. eigenvalues --    0.06022   0.06284   0.06996   0.07620   0.08153
 Alpha virt. eigenvalues --    0.08460   0.08777   0.09459   0.10732   0.11212

 Mulliken charges:
               1
     1  C   -4.362364
     2  C   -3.087820
     3  C   -2.203139
     4  C   -2.180244
     5  C   -2.536748
     6  C   -4.526197
     7  Cl   0.085294
     8  H    1.322221
     9  H    1.075795
    10  H    1.323348
    11  H    1.459256
    12  H    1.446603
    13  H    1.597314
    14  H    1.556912
    15  H    1.513968
    16  H    1.536163
    17  H    1.480863
    18  H    1.383463
    19  H    1.697374
    20  H    1.417939
 Sum of Mulliken charges =  -0.00000

 Dipole moment (field-independent basis, Debye):
    X=              1.3729    Y=              2.0055    Z=              0.5428  Tot=              2.4903

 Test job not archived.
 1\1\GINC-SE275\SP\RHF\Aug-CC-pVDZ\C6H13Cl1\OHZDE\06-Apr-2025\0\\#t hf
 aug-cc-pvdz iop(5/13=1,5/36=2,99/5=2) pseudo=read geom=check guess=(re
 ad,tcheck) scf=(maxcycle=1)\\title\\0,1\C,0,4.107657,-0.250205,-0.2152
 11\C,0,2.717325,-0.521399,0.356513\C,0,1.636426,0.39042,-0.225173\C,0,
 0.242168,0.120079,0.340479\C,0,-0.829692,1.038232,-0.244879\C,0,-2.225
 201,0.823188,0.309411\Cl,0,-2.91978,-0.797045,-0.154599\H,0,4.124179,-
 0.394646,-1.29742\H,0,4.854124,-0.916596,0.218969\H,0,4.423588,0.77587
 6,-0.015423\H,0,2.443823,-1.564425,0.172169\H,0,2.740755,-0.402685,1.4

 Normal termination of Gaussian 16 at Sun Apr  6 07:59:44 2025.
