 Gaussian 16, Revision C.01,

 ----------------------------------------------------------------------
 #t hf aug-cc-pvdz symm=none int=(grid=ultrafine) guess=(read,tcheck) s
 table=(opt,rrhf)
 ----------------------------------------------------------------------
 -----
 title
 -----
 Symbolic Z-matrix:
 Charge =  0 Multiplicity = 1

 SCF Done:  E(RHF) =  -577.203689264     A.U. after   12 cycles

 1\1\GINC-SE343\Stability\RHF\Aug-CC-pVDZ\C3H7Cl1\OHZDE\06-Apr-2025\0\\
 #t hf aug-cc-pvdz symm=none int=(grid=ultrafine) guess=(read,tcheck) s
 table=(opt,rrhf)\\title\\0,1\C,0,-1.818641,-0.717279,0.144096\C,0,-1.1
 50092,0.559242,-0.35835\C,0,0.172758,0.883165,0.310034\Cl,0,1.464599,-
 0.345613,-0.067396\H,0,-2.003786,-0.667711,1.219027\H,0,-2.776988,-0.8
 72261,-0.351812\H,0,-1.195361,-1.589705,-0.048379\H,0,-1.001591,0.5096
 88,-1.438752\H,0,-1.806916,1.416179,-0.174399\H,0,0.089223,0.894421,1.
 394122\H,0,0.57309,1.83404,-0.028754\\Version=ES64L-G16RevC.01\HF=-577

 Normal termination of Gaussian 16 at Sun Apr  6 07:58:52 2025.
 Gaussian 16:  ES64L-G16RevC.01  3-Jul-2019

 ----------------------------------------------------------------------
 #t hf aug-cc-pvdz iop(5/13=1,5/36=2,99/5=2) pseudo=read geom=check gue
 ss=(read,tcheck) scf=(maxcycle=1)
 ----------------------------------------------------------------------
 -----
 title
 -----
 Structure from the checkpoint file:  "1-chloropropane.chk"
 Charge =  0 Multiplicity = 1

                         Standard orientation:
 ---------------------------------------------------------------------
 Center     Atomic      Atomic             Coordinates (Angstroms)
 Number     Number       Type             X           Y           Z
 ---------------------------------------------------------------------
      1          6           0       -1.818641   -0.717279    0.144096
      2          6           0       -1.150092    0.559242   -0.358350
      3          6           0        0.172758    0.883165    0.310034
      4         17           0        1.464599   -0.345613   -0.067396
      5          1           0       -2.003786   -0.667711    1.219027
      6          1           0       -2.776988   -0.872261   -0.351812
      7          1           0       -1.195361   -1.589705   -0.048379
      8          1           0       -1.001591    0.509688   -1.438752
      9          1           0       -1.806916    1.416179   -0.174399
     10          1           0        0.089223    0.894421    1.394122
     11          1           0        0.573090    1.834040   -0.028754
 ---------------------------------------------------------------------

 SCF Done:  E(RHF) =  -578.069279324     A.U. after    2 cycles

 The electronic state is 1-A.
 Alpha  occ. eigenvalues --  -99.86979 -11.45092 -11.40473 -11.36179 -10.44234
 Alpha  occ. eigenvalues --   -9.64111  -9.63472  -9.63381  -1.33227  -1.17811
 Alpha  occ. eigenvalues --   -0.99747  -0.85572  -0.66200  -0.65171  -0.59253
 Alpha  occ. eigenvalues --   -0.56019  -0.51861  -0.49642  -0.48169  -0.45829
 Alpha  occ. eigenvalues --   -0.44782
 Alpha virt. eigenvalues --    0.03418   0.05148   0.05757   0.06174   0.06580
 Alpha virt. eigenvalues --    0.06815   0.07134   0.08294   0.11351   0.12277
 Alpha virt. eigenvalues --    0.14104   0.14579   0.15846   0.16425   0.16800

 Mulliken charges:
               1
     1  C   -3.427002
     2  C   -2.614735
     3  C   -3.608534
     4  Cl   0.051531
     5  H    1.221813
     6  H    1.194072
     7  H    1.297344
     8  H    1.370125
     9  H    1.335460
    10  H    1.666814
    11  H    1.513113
 Sum of Mulliken charges =  -0.00000

 Dipole moment (field-independent basis, Debye):
    X=             -2.0373    Y=              1.5090    Z=              0.3290  Tot=              2.5565

 Test job not archived.
 1\1\GINC-SE343\SP\RHF\Aug-CC-pVDZ\C3H7Cl1\OHZDE\06-Apr-2025\0\\#t hf a
 ug-cc-pvdz iop(5/13=1,5/36=2,99/5=2) pseudo=read geom=check guess=(rea
 d,tcheck) scf=(maxcycle=1)\\title\\0,1\C,0,-1.818641,-0.717279,0.14409
 6\C,0,-1.150092,0.559242,-0.35835\C,0,0.172758,0.883165,0.310034\Cl,0,
 1.464599,-0.345613,-0.067396\H,0,-2.003786,-0.667711,1.219027\H,0,-2.7
 76988,-0.872261,-0.351812\H,0,-1.195361,-1.589705,-0.048379\H,0,-1.001
 591,0.509688,-1.438752\H,0,-1.806916,1.416179,-0.174399\H,0,0.089223,0
 .894421,1.394122\H,0,0.57309,1.83404,-0.028754\\Version=ES64L-G16RevC.

 Normal termination of Gaussian 16 at Sun Apr  6 07:58:56 2025.
