 Gaussian 16, Revision C.01,

 ----------------------------------------------------------------------
 #t hf aug-cc-pvdz symm=none int=(grid=ultrafine) guess=(read,tcheck) s
 table=(opt,rrhf)
 ----------------------------------------------------------------------
 -----
 title
 -----
 Symbolic Z-matrix:
 Charge =  0 Multiplicity = 1

 SCF Done:  E(RHF) =  -728.691425957     A.U. after   15 cycles

 1\1\GINC-SE398\Stability\RHF\Aug-CC-pVDZ\C7H7Cl1\OHZDE\06-Apr-2025\0\\
 #t hf aug-cc-pvdz symm=none int=(grid=ultrafine) guess=(read,tcheck) s
 table=(opt,rrhf)\\title\\0,1\C,0,1.683448,-1.663575,0.\C,0,2.220125,-0
 .382943,0.\C,0,0.305726,-1.835687,0.\C,0,1.373807,0.717619,0.\C,0,-0.5
 7387,-0.75119,0.\C,0,0.,0.522425,0.\C,0,-2.061411,-0.96093,0.\Cl,0,-1.
 036566,1.943162,0.\H,0,2.334268,-2.527315,0.\H,0,3.291363,-0.235053,0.
 \H,0,-0.108141,-2.835976,0.\H,0,1.769429,1.722783,0.\H,0,-2.526446,-0.
 504646,0.875379\H,0,-2.526446,-0.504646,-0.875379\H,0,-2.299351,-2.023

 Normal termination of Gaussian 16 at Sun Apr  6 07:59:32 2025.
 Gaussian 16:  ES64L-G16RevC.01  3-Jul-2019

 ----------------------------------------------------------------------
 #t hf aug-cc-pvdz iop(5/13=1,5/36=2,99/5=2) pseudo=read geom=check gue
 ss=(read,tcheck) scf=(maxcycle=1)
 ----------------------------------------------------------------------
 -----
 title
 -----
 Structure from the checkpoint file:  "1-chloro-2-methylbenzene.chk"
 Charge =  0 Multiplicity = 1

                         Standard orientation:
 ---------------------------------------------------------------------
 Center     Atomic      Atomic             Coordinates (Angstroms)
 Number     Number       Type             X           Y           Z
 ---------------------------------------------------------------------
      1          6           0        1.683448   -1.663575    0.000000
      2          6           0        2.220125   -0.382944    0.000000
      3          6           0        0.305726   -1.835687    0.000000
      4          6           0        1.373807    0.717619    0.000000
      5          6           0       -0.573870   -0.751190    0.000000
      6          6           0        0.000000    0.522425    0.000000
      7          6           0       -2.061411   -0.960930    0.000000
      8         17           0       -1.036566    1.943162    0.000000
      9          1           0        2.334268   -2.527316    0.000000
     10          1           0        3.291363   -0.235054    0.000000
     11          1           0       -0.108141   -2.835976    0.000000
     12          1           0        1.769429    1.722783    0.000000
     13          1           0       -2.526446   -0.504646    0.875379
     14          1           0       -2.526446   -0.504646   -0.875379
     15          1           0       -2.299351   -2.023197    0.000000
 ---------------------------------------------------------------------

 SCF Done:  E(RHF) =  -730.252771961     A.U. after    2 cycles

 The electronic state is 1-A'.
 Alpha  occ. eigenvalues --  -99.89037 -11.51844 -11.46178 -11.44841 -11.42194
 Alpha  occ. eigenvalues --  -11.41764 -11.39175 -11.37425 -10.46408  -9.66404
 Alpha  occ. eigenvalues --   -9.65667  -9.65394  -1.40790  -1.28126  -1.15513
 Alpha  occ. eigenvalues --   -1.08494  -1.00399  -0.87455  -0.84449  -0.71222
 Alpha  occ. eigenvalues --   -0.65762  -0.63386  -0.59703  -0.59460  -0.56576
 Alpha  occ. eigenvalues --   -0.54582  -0.53396  -0.50238  -0.48554  -0.45995
 Alpha  occ. eigenvalues --   -0.44245  -0.33690  -0.32825
 Alpha virt. eigenvalues --    0.03203   0.04835   0.05093   0.05767   0.06521
 Alpha virt. eigenvalues --    0.07100   0.07755   0.08527   0.10396   0.10567
 Alpha virt. eigenvalues --    0.11002   0.12352   0.12522   0.12985   0.13660

 Mulliken charges:
               1
     1  C   -2.885802
     2  C   -1.585894
     3  C   -1.127571
     4  C   -2.083678
     5  C    4.677787
     6  C   -1.519912
     7  C   -4.474856
     8  Cl  -0.904318
     9  H    1.509083
    10  H    1.505898
    11  H    1.684224
    12  H    1.690651
    13  H    1.106366
    14  H    1.106366
    15  H    1.301655
 Sum of Mulliken charges =   0.00000

 Dipole moment (field-independent basis, Debye):
    X=              1.0531    Y=             -2.0011    Z=             -0.0000  Tot=              2.2612

 Test job not archived.
 1\1\GINC-SE398\SP\RHF\Aug-CC-pVDZ\C7H7Cl1\OHZDE\06-Apr-2025\0\\#t hf a
 ug-cc-pvdz iop(5/13=1,5/36=2,99/5=2) pseudo=read geom=check guess=(rea
 d,tcheck) scf=(maxcycle=1)\\title\\0,1\C,0,1.683448,-1.663575,0.\C,0,2
 .220125,-0.382943,0.\C,0,0.305726,-1.835687,0.\C,0,1.373807,0.717619,0
 .\C,0,-0.57387,-0.75119,0.\C,0,0.,0.522425,0.\C,0,-2.061411,-0.96093,0
 .\Cl,0,-1.036566,1.943162,0.\H,0,2.334268,-2.527315,0.\H,0,3.291363,-0
 .235053,0.\H,0,-0.108141,-2.835976,0.\H,0,1.769429,1.722783,0.\H,0,-2.
 526446,-0.504646,0.875379\H,0,-2.526446,-0.504646,-0.875379\H,0,-2.299

 Normal termination of Gaussian 16 at Sun Apr  6 07:59:38 2025.
