 Gaussian 16, Revision C.01,

 ----------------------------------------------------------------------
 #t hf aug-cc-pvdz symm=none int=(grid=ultrafine) guess=(read,tcheck) s
 table=(opt,rrhf)
 ----------------------------------------------------------------------
 -----
 title
 -----
 Symbolic Z-matrix:
 Charge =  0 Multiplicity = 1

 SCF Done:  E(RHF) =  -615.054845393     A.U. after   14 cycles

 1\1\GINC-SE249\Stability\RHF\Aug-CC-pVDZ\C4H7Cl1\OHZDE\06-Apr-2025\0\\
 #t hf aug-cc-pvdz symm=none int=(grid=ultrafine) guess=(read,tcheck) s
 table=(opt,rrhf)\\title\\0,1\C,0,2.920911,-0.389382,0.000288\H,0,2.911
 727,-0.857297,0.984172\H,0,3.71282,0.363693,-0.014052\H,0,3.197836,-1.
 147075,-0.737175\C,0,0.524673,0.206787,0.450874\H,0,1.523663,0.702405,
 -1.30571\C,0,1.597085,0.217659,-0.335522\H,0,-1.130829,1.516651,0.8568
 98\H,0,-0.71593,1.36214,-0.864008\C,0,-0.765272,0.84204,0.087533\Cl,0,
 -2.101674,-0.407151,-0.091662\H,0,0.564791,-0.281572,1.419098\\Version

 Normal termination of Gaussian 16 at Sun Apr  6 07:58:57 2025.
 Gaussian 16:  ES64L-G16RevC.01  3-Jul-2019

 ----------------------------------------------------------------------
 #t hf aug-cc-pvdz iop(5/13=1,5/36=2,99/5=2) pseudo=read geom=check gue
 ss=(read,tcheck) scf=(maxcycle=1)
 ----------------------------------------------------------------------
 -----
 title
 -----
 Structure from the checkpoint file:  "1-chloro-2-butene.chk"
 Charge =  0 Multiplicity = 1

                         Standard orientation:
 ---------------------------------------------------------------------
 Center     Atomic      Atomic             Coordinates (Angstroms)
 Number     Number       Type             X           Y           Z
 ---------------------------------------------------------------------
      1          6           0        2.920911   -0.389382    0.000288
      2          1           0        2.911727   -0.857297    0.984172
      3          1           0        3.712820    0.363693   -0.014052
      4          1           0        3.197836   -1.147075   -0.737175
      5          6           0        0.524673    0.206787    0.450874
      6          1           0        1.523663    0.702405   -1.305710
      7          6           0        1.597085    0.217659   -0.335522
      8          1           0       -1.130829    1.516651    0.856898
      9          1           0       -0.715930    1.362140   -0.864008
     10          6           0       -0.765272    0.842040    0.087533
     11         17           0       -2.101674   -0.407151   -0.091662
     12          1           0        0.564791   -0.281572    1.419098
 ---------------------------------------------------------------------

 SCF Done:  E(RHF) =  -616.088773539     A.U. after    2 cycles

 The electronic state is 1-A.
 Alpha  occ. eigenvalues --  -99.86956 -11.45755 -11.43857 -11.40155 -11.37491
 Alpha  occ. eigenvalues --  -10.44155  -9.64059  -9.63357  -9.63310  -1.33130
 Alpha  occ. eigenvalues --   -1.21273  -1.06707  -0.93082  -0.79759  -0.65454
 Alpha  occ. eigenvalues --   -0.63700  -0.60054  -0.56983  -0.55855  -0.51951
 Alpha  occ. eigenvalues --   -0.49762  -0.46978  -0.45226  -0.35197
 Alpha virt. eigenvalues --    0.03390   0.04737   0.05895   0.06146   0.06220
 Alpha virt. eigenvalues --    0.06285   0.07532   0.08561   0.09867   0.11723
 Alpha virt. eigenvalues --    0.11991   0.13094   0.14154   0.15524   0.16273

 Mulliken charges:
               1
     1  C   -4.343638
     2  H    1.271631
     3  H    1.150718
     4  H    1.163162
     5  C    0.125940
     6  H    1.403569
     7  C   -0.362786
     8  H    1.369563
     9  H    1.558969
    10  C   -4.765787
    11  Cl   0.082084
    12  H    1.346577
 Sum of Mulliken charges =  -0.00000

 Dipole moment (field-independent basis, Debye):
    X=              2.6618    Y=              1.3984    Z=              0.0856  Tot=              3.0080

 Test job not archived.
 1\1\GINC-SE249\SP\RHF\Aug-CC-pVDZ\C4H7Cl1\OHZDE\06-Apr-2025\0\\#t hf a
 ug-cc-pvdz iop(5/13=1,5/36=2,99/5=2) pseudo=read geom=check guess=(rea
 d,tcheck) scf=(maxcycle=1)\\title\\0,1\C,0,2.920911,-0.389382,0.000288
 \H,0,2.911727,-0.857297,0.984172\H,0,3.71282,0.363693,-0.014052\H,0,3.
 197836,-1.147075,-0.737175\C,0,0.524673,0.206787,0.450874\H,0,1.523663
 ,0.702405,-1.30571\C,0,1.597085,0.217659,-0.335522\H,0,-1.130829,1.516
 651,0.856898\H,0,-0.71593,1.36214,-0.864008\C,0,-0.765272,0.84204,0.08
 7533\Cl,0,-2.101674,-0.407151,-0.091662\H,0,0.564791,-0.281572,1.41909

 Normal termination of Gaussian 16 at Sun Apr  6 07:59:01 2025.
