 Gaussian 16, Revision C.01,

 ----------------------------------------------------------------------
 #t hf aug-cc-pvdz symm=none int=(grid=ultrafine) guess=(read,tcheck) s
 table=(opt,rrhf)
 ----------------------------------------------------------------------
 -----
 title
 -----
 Symbolic Z-matrix:
 Charge =  0 Multiplicity = 1

 SCF Done:  E(RHF) =  -635.827201760     A.U. after   13 cycles
 Normal termination of Gaussian 16 at Sun Apr  6 07:58:46 2025.
 Gaussian 16:  ES64L-G16RevC.01  3-Jul-2019

 ----------------------------------------------------------------------
 #t hf aug-cc-pvdz iop(5/13=1,5/36=2,99/5=2) pseudo=read geom=check gue
 ss=(read,tcheck) scf=(maxcycle=1)
 ----------------------------------------------------------------------
 -----
 title
 -----
 Structure from the checkpoint file:  "1-chloro-1-fluoroethene.chk"
 Charge =  0 Multiplicity = 1

                         Standard orientation:
 ---------------------------------------------------------------------
 Center     Atomic      Atomic             Coordinates (Angstroms)
 Number     Number       Type             X           Y           Z
 ---------------------------------------------------------------------
      1         17           0        1.271311   -0.098836   -0.000000
      2          9           0       -0.891538    1.237651   -0.000000
      3          6           0       -0.455870   -0.024081   -0.000000
      4          6           0       -1.271817   -1.059180    0.000002
      5          1           0       -0.883624   -2.063138    0.000003
      6          1           0       -2.338704   -0.895954    0.000003
 ---------------------------------------------------------------------

 SCF Done:  E(RHF) =  -636.775923850     A.U. after    2 cycles

 The electronic state is 1-A.
 Alpha  occ. eigenvalues --  -99.91880 -29.31286 -11.52028 -11.40505 -10.49351
 Alpha  occ. eigenvalues --   -9.69208  -9.68290  -9.68194  -1.40461  -1.18188
 Alpha  occ. eigenvalues --   -0.95131  -0.74932  -0.66950  -0.60932  -0.57536
 Alpha  occ. eigenvalues --   -0.52920  -0.46441  -0.41613  -0.30919  -0.26805
 Alpha virt. eigenvalues --    0.03774   0.05924   0.07561   0.09789   0.10404
 Alpha virt. eigenvalues --    0.11503   0.12856   0.12896   0.15063   0.16292
 Alpha virt. eigenvalues --    0.17051   0.17833   0.18761   0.20628   0.21801

 Mulliken charges:
               1
     1  Cl  -0.298334
     2  F    0.875175
     3  C   -1.472189
     4  C   -2.002139
     5  H    1.420871
     6  H    1.476616
 Sum of Mulliken charges =   0.00000

 Dipole moment (field-independent basis, Debye):
    X=             -2.2409    Y=              2.1802    Z=              0.0000  Tot=              3.1265

 Test job not archived.
 1\1\GINC-SE388\SP\RHF\Aug-CC-pVDZ\C2H2Cl1F1\OHZDE\06-Apr-2025\0\\#t hf
  aug-cc-pvdz iop(5/13=1,5/36=2,99/5=2) pseudo=read geom=check guess=(r
 ead,tcheck) scf=(maxcycle=1)\\title\\0,1\Cl,0,1.271311,-0.098836,0.\F,
 0,-0.891537,1.237652,0.\C,0,-0.45587,-0.024081,0.\C,0,-1.271818,-1.059
 179,0.000002\H,0,-0.883625,-2.063137,0.000003\H,0,-2.338704,-0.895953,
 0.000003\\Version=ES64L-G16RevC.01\State=1-A\HF=-636.7759238\RMSD=2.96
 6e-01\Dipole=-0.8816451,0.8577502,0.0000007\Quadrupole=1.1774148,1.348
 8282,-2.526243,-1.2843329,-0.0000027,-0.0000039\PG=C01 [X(C2H2Cl1F1)]\

 Normal termination of Gaussian 16 at Sun Apr  6 07:58:50 2025.
