 Gaussian 16, Revision C.01,

 ----------------------------------------------------------------------
 #t hf aug-cc-pvdz symm=none int=(grid=ultrafine) guess=(read,tcheck) s
 table=(opt,rrhf)
 ----------------------------------------------------------------------
 -----
 title
 -----
 Symbolic Z-matrix:
 Charge =  0 Multiplicity = 1

 SCF Done:  E(RHF) =  -655.281363046     A.U. after   12 cycles
 Normal termination of Gaussian 16 at Sun Apr  6 07:59:14 2025.
 Gaussian 16:  ES64L-G16RevC.01  3-Jul-2019

 ----------------------------------------------------------------------
 #t hf aug-cc-pvdz iop(5/13=1,5/36=2,99/5=2) pseudo=read geom=check gue
 ss=(read,tcheck) scf=(maxcycle=1)
 ----------------------------------------------------------------------
 -----
 title
 -----
 Structure from the checkpoint file:  "1-chloropentane.chk"
 Charge =  0 Multiplicity = 1

                         Standard orientation:
 ---------------------------------------------------------------------
 Center     Atomic      Atomic             Coordinates (Angstroms)
 Number     Number       Type             X           Y           Z
 ---------------------------------------------------------------------
      1          6           0        3.289623   -0.683161    0.151762
      2          6           0        2.227943    0.295481   -0.346814
      3          6           0        0.848628    0.047344    0.264611
      4          6           0       -0.212368    1.027510   -0.233040
      5          6           0       -1.589905    0.838545    0.373045
      6         17           0       -2.363950   -0.734686   -0.125608
      7          1           0        3.018596   -1.713424   -0.086887
      8          1           0        3.409472   -0.616939    1.235067
      9          1           0        4.260930   -0.481964   -0.301814
     10          1           0        2.544221    1.319704   -0.126280
     11          1           0        2.154297    0.228978   -1.436338
     12          1           0        0.918418    0.115557    1.355563
     13          1           0        0.530695   -0.973458    0.040898
     14          1           0       -0.289842    0.977813   -1.321766
     15          1           0        0.095882    2.051249    0.008963
     16          1           0       -1.558172    0.815998    1.459589
     17          1           0       -2.280876    1.611830    0.050962
 ---------------------------------------------------------------------

 SCF Done:  E(RHF) =  -656.556493947     A.U. after    2 cycles

 The electronic state is 1-A.
 Alpha  occ. eigenvalues --  -99.86920 -11.45432 -11.42125 -11.40236 -11.37359
 Alpha  occ. eigenvalues --  -11.34700 -10.44170  -9.64076  -9.63462  -9.63332
 Alpha  occ. eigenvalues --   -1.33767  -1.23426  -1.11474  -0.98787  -0.87849
 Alpha  occ. eigenvalues --   -0.82978  -0.67278  -0.64889  -0.61661  -0.58330
 Alpha  occ. eigenvalues --   -0.57600  -0.54902  -0.51159  -0.48944  -0.48160
 Alpha  occ. eigenvalues --   -0.46487  -0.45720  -0.44894  -0.41520
 Alpha virt. eigenvalues --    0.03831   0.04547   0.05236   0.05802   0.05889
 Alpha virt. eigenvalues --    0.06067   0.06389   0.07216   0.08484   0.08823
 Alpha virt. eigenvalues --    0.09029   0.09850   0.10221   0.12358   0.13778

 Mulliken charges:
               1
     1  C   -4.138310
     2  C   -2.769089
     3  C   -2.233381
     4  C   -2.236400
     5  C   -4.342151
     6  Cl   0.077954
     7  H    1.309385
     8  H    1.302171
     9  H    1.078138
    10  H    1.446206
    11  H    1.474519
    12  H    1.518797
    13  H    1.539105
    14  H    1.487893
    15  H    1.390412
    16  H    1.679305
    17  H    1.415445
 Sum of Mulliken charges =  -0.00000

 Dipole moment (field-independent basis, Debye):
    X=              1.4729    Y=              2.0396    Z=              0.4782  Tot=              2.5609

 Test job not archived.
 1\1\GINC-SE276\SP\RHF\Aug-CC-pVDZ\C5H11Cl1\OHZDE\06-Apr-2025\0\\#t hf
 aug-cc-pvdz iop(5/13=1,5/36=2,99/5=2) pseudo=read geom=check guess=(re
 ad,tcheck) scf=(maxcycle=1)\\title\\0,1\C,0,3.289623,-0.683161,0.15176
 2\C,0,2.227943,0.295481,-0.346814\C,0,0.848628,0.047344,0.264611\C,0,-
 0.212368,1.02751,-0.23304\C,0,-1.589905,0.838545,0.373045\Cl,0,-2.3639
 5,-0.734686,-0.125608\H,0,3.018596,-1.713424,-0.086887\H,0,3.409472,-0
 .616939,1.235067\H,0,4.26093,-0.481964,-0.301814\H,0,2.544221,1.319704
 ,-0.12628\H,0,2.154297,0.228978,-1.436338\H,0,0.918418,0.115557,1.3555

 Normal termination of Gaussian 16 at Sun Apr  6 07:59:20 2025.
