 Gaussian 16, Revision C.01,

 ----------------------------------------------------------------------
 #t hf aug-cc-pvdz symm=none int=(grid=ultrafine) guess=(read,tcheck) s
 table=(opt,rrhf)
 ----------------------------------------------------------------------
 -----
 title
 -----
 Symbolic Z-matrix:
 Charge =  0 Multiplicity = 1

 SCF Done:  E(RHF) =  -1103.10342604     A.U. after   16 cycles
 Normal termination of Gaussian 16 at Sun Apr  6 07:59:08 2025.
 Gaussian 16:  ES64L-G16RevC.01  3-Jul-2019

 ----------------------------------------------------------------------
 #t hf aug-cc-pvdz iop(5/13=1,5/36=2,99/5=2) pseudo=read geom=check gue
 ss=(read,tcheck) scf=(maxcycle=1)
 ----------------------------------------------------------------------
 -----
 title
 -----
 Structure from the checkpoint file:  "1-chloro-4-isothiocyanato-2-butyne.chk"
 Charge =  0 Multiplicity = 1

                         Standard orientation:
 ---------------------------------------------------------------------
 Center     Atomic      Atomic             Coordinates (Angstroms)
 Number     Number       Type             X           Y           Z
 ---------------------------------------------------------------------
      1         17           0       -3.572987   -0.567278   -0.510317
      2         16           0        3.299035   -1.317260   -0.006901
      3          7           0        2.079494    1.156701   -0.250864
      4          6           0        0.857173    1.910593   -0.125215
      5          6           0       -2.394964   -0.380030    0.871471
      6          6           0       -0.304421    1.103913    0.230165
      7          6           0       -1.256817    0.432000    0.515067
      8          6           0        2.559311    0.073133   -0.131631
      9          1           0        0.675175    2.422451   -1.072973
     10          1           0        1.016661    2.691477    0.622020
     11          1           0       -2.961711    0.058649    1.688357
     12          1           0       -2.092050   -1.387238    1.145296
 ---------------------------------------------------------------------

 SCF Done:  E(RHF) =  -1104.71289971     A.U. after    2 cycles

 The electronic state is 1-A.
 Alpha  occ. eigenvalues --  -99.89367 -75.69237 -15.79211 -13.21731 -13.00763
 Alpha  occ. eigenvalues --  -13.00514 -11.55390 -11.53016 -11.50398 -11.43495
 Alpha  occ. eigenvalues --  -11.42664 -10.46551  -9.66458  -9.65737  -9.65650
 Alpha  occ. eigenvalues --   -8.03512  -1.45295  -1.34820  -1.21057  -1.15046
 Alpha  occ. eigenvalues --   -1.08549  -0.98463  -0.76798  -0.70762  -0.67771
 Alpha  occ. eigenvalues --   -0.67046  -0.65695  -0.62021  -0.56059  -0.51892
 Alpha  occ. eigenvalues --   -0.51767  -0.49804  -0.49772  -0.39547  -0.39048
 Alpha  occ. eigenvalues --   -0.27623  -0.25647
 Alpha virt. eigenvalues --    0.01626   0.04017   0.05778   0.05937   0.06046
 Alpha virt. eigenvalues --    0.06479   0.08202   0.08563   0.09665   0.10267
 Alpha virt. eigenvalues --    0.11358   0.11891   0.12118   0.12945   0.13361

 Mulliken charges:
               1
     1  Cl   0.066074
     2  S    1.524732
     3  N   -2.902852
     4  C   -3.679332
     5  C   -4.995308
     6  C    2.147880
     7  C    3.010662
     8  C    0.723902
     9  H    1.054323
    10  H    1.008051
    11  H    1.030897
    12  H    1.010972
 Sum of Mulliken charges =  -0.00000

 Dipole moment (field-independent basis, Debye):
    X=              1.0120    Y=             -0.8699    Z=              1.8294  Tot=              2.2644

 Test job not archived.
 1\1\GINC-SE412\SP\RHF\Aug-CC-pVDZ\C5H4Cl1N1S1\OHZDE\06-Apr-2025\0\\#t
 hf aug-cc-pvdz iop(5/13=1,5/36=2,99/5=2) pseudo=read geom=check guess=
 (read,tcheck) scf=(maxcycle=1)\\title\\0,1\Cl,0,-3.572987,-0.567278,-0
 .510317\S,0,3.299035,-1.31726,-0.006901\N,0,2.079494,1.156701,-0.25086
 4\C,0,0.857173,1.910593,-0.125215\C,0,-2.394964,-0.38003,0.871471\C,0,
 -0.304421,1.103913,0.230165\C,0,-1.256817,0.432,0.515067\C,0,2.559311,
 0.073133,-0.131631\H,0,0.675175,2.422451,-1.072973\H,0,1.016661,2.6914
 77,0.62202\H,0,-2.961711,0.058649,1.688357\H,0,-2.09205,-1.387238,1.14

 Normal termination of Gaussian 16 at Sun Apr  6 07:59:14 2025.
