 Gaussian 16, Revision C.01,

 ----------------------------------------------------------------------
 #t hf aug-cc-pvdz symm=none int=(grid=ultrafine) guess=(read,tcheck) s
 table=(opt,rrhf)
 ----------------------------------------------------------------------
 -----
 title
 -----
 Symbolic Z-matrix:
 Charge =  0 Multiplicity = 1

 SCF Done:  E(RHF) =  -368.709081984     A.U. after   13 cycles
 Normal termination of Gaussian 16 at Sun Apr  6 07:58:50 2025.
 Gaussian 16:  ES64L-G16RevC.01  3-Jul-2019

 ----------------------------------------------------------------------
 #t hf aug-cc-pvdz iop(5/13=1,5/36=2,99/5=2) pseudo=read geom=check gue
 ss=(read,tcheck) scf=(maxcycle=1)
 ----------------------------------------------------------------------
 -----
 title
 -----
 Structure from the checkpoint file:  "1-cyano-1-1-difluoroethane.chk"
 Charge =  0 Multiplicity = 1

                         Standard orientation:
 ---------------------------------------------------------------------
 Center     Atomic      Atomic             Coordinates (Angstroms)
 Number     Number       Type             X           Y           Z
 ---------------------------------------------------------------------
      1          9           0       -0.675349   -0.769946    1.097109
      2          9           0       -0.675515   -0.770081   -1.096910
      3          7           0        2.321971    0.174000   -0.000189
      4          6           0       -0.299060   -0.045692    0.000026
      5          6           0       -0.986636    1.297029   -0.000005
      6          6           0        1.181140    0.048530   -0.000093
      7          1           0       -2.061714    1.126864    0.000085
      8          1           0       -0.703552    1.858035   -0.887970
      9          1           0       -0.703421    1.858143    0.887851
 ---------------------------------------------------------------------

 SCF Done:  E(RHF) =  -370.164146655     A.U. after    2 cycles

 The electronic state is 1-A.
 Alpha  occ. eigenvalues --  -29.31443 -29.31401 -15.79964 -11.60521 -11.46206
 Alpha  occ. eigenvalues --  -11.42789  -1.42222  -1.30203  -1.06235  -0.86168
 Alpha  occ. eigenvalues --   -0.86019  -0.69246  -0.60645  -0.59568  -0.55723
 Alpha  occ. eigenvalues --   -0.49050  -0.48092  -0.46387  -0.40347  -0.34727
 Alpha  occ. eigenvalues --   -0.31554  -0.30176  -0.24360
 Alpha virt. eigenvalues --    0.03714   0.05547   0.05868   0.09110   0.09782
 Alpha virt. eigenvalues --    0.10887   0.11635   0.12505   0.13754   0.14261
 Alpha virt. eigenvalues --    0.15090   0.16731   0.17835   0.18900   0.19076

 Mulliken charges:
               1
     1  F    0.282092
     2  F    0.282093
     3  N   -2.237546
     4  C    1.156115
     5  C   -3.903144
     6  C    0.772902
     7  H    1.255657
     8  H    1.195917
     9  H    1.195915
 Sum of Mulliken charges =   0.00000

 Dipole moment (field-independent basis, Debye):
    X=             -4.0608    Y=             -1.2430    Z=              0.0004  Tot=              4.2468

 Test job not archived.
 1\1\GINC-SE344\SP\RHF\Aug-CC-pVDZ\C3H3F2N1\OHZDE\06-Apr-2025\0\\#t hf
 aug-cc-pvdz iop(5/13=1,5/36=2,99/5=2) pseudo=read geom=check guess=(re
 ad,tcheck) scf=(maxcycle=1)\\title\\0,1\F,0,-0.675349,-0.769946,1.0971
 09\F,0,-0.675515,-0.770081,-1.09691\N,0,2.321971,0.174,-0.000189\C,0,-
 0.29906,-0.045692,0.000026\C,0,-0.986636,1.297029,-0.000005\C,0,1.1811
 4,0.04853,-0.000093\H,0,-2.061714,1.126864,0.000085\H,0,-0.703552,1.85
 8035,-0.88797\H,0,-0.703421,1.858143,0.887851\\Version=ES64L-G16RevC.0
 1\State=1-A\HF=-370.1641467\RMSD=2.783e-01\Dipole=-1.5976498,-0.489015

 Normal termination of Gaussian 16 at Sun Apr  6 07:58:53 2025.
