 Gaussian 16, Revision C.01,

 ----------------------------------------------------------------------
 #t hf aug-cc-pvdz symm=none int=(grid=ultrafine) guess=(read,tcheck) s
 table=(opt,rrhf)
 ----------------------------------------------------------------------
 -----
 title
 -----
 Symbolic Z-matrix:
 Charge =  0 Multiplicity = 1

 SCF Done:  E(RHF) =  -386.021708710     A.U. after   14 cycles

 1\1\GINC-SE453\Stability\RHF\Aug-CC-pVDZ\C8H14O1\OHZDE\06-Apr-2025\0\\
 #t hf aug-cc-pvdz symm=none int=(grid=ultrafine) guess=(read,tcheck) s
 table=(opt,rrhf)\\title\\0,1\C,0,1.811591,-0.159551,-0.096424\C,0,-2.5
 56321,0.066825,-0.240521\C,0,-1.75119,1.356259,-0.059733\C,0,-1.921204
 ,-1.099327,0.52149\C,0,-0.281229,1.164125,-0.442828\C,0,-0.451165,-1.2
 9352,0.140424\C,0,0.359157,-0.006631,0.338914\C,0,2.843613,0.624195,0.
 685597\O,0,2.127563,-0.8614,-1.032\H,0,-3.586727,0.21757,0.088357\H,0,
 -2.602212,-0.181621,-1.305799\H,0,-2.183986,2.161109,-0.657926\H,0,-1.

 Normal termination of Gaussian 16 at Sun Apr  6 08:00:32 2025.
 Gaussian 16:  ES64L-G16RevC.01  3-Jul-2019

 ----------------------------------------------------------------------
 #t hf aug-cc-pvdz iop(5/13=1,5/36=2,99/5=2) pseudo=read geom=check gue
 ss=(read,tcheck) scf=(maxcycle=1)
 ----------------------------------------------------------------------
 -----
 title
 -----
 Structure from the checkpoint file:  "1-cyclohexylethanone.chk"
 Charge =  0 Multiplicity = 1

                         Standard orientation:
 ---------------------------------------------------------------------
 Center     Atomic      Atomic             Coordinates (Angstroms)
 Number     Number       Type             X           Y           Z
 ---------------------------------------------------------------------
      1          6           0        1.811591   -0.159551   -0.096424
      2          6           0       -2.556321    0.066825   -0.240521
      3          6           0       -1.751190    1.356259   -0.059733
      4          6           0       -1.921204   -1.099327    0.521490
      5          6           0       -0.281229    1.164125   -0.442828
      6          6           0       -0.451165   -1.293520    0.140424
      7          6           0        0.359157   -0.006631    0.338914
      8          6           0        2.843613    0.624195    0.685597
      9          8           0        2.127563   -0.861400   -1.032000
     10          1           0       -3.586727    0.217570    0.088357
     11          1           0       -2.602212   -0.181621   -1.305799
     12          1           0       -2.183986    2.161109   -0.657926
     13          1           0       -1.812407    1.678111    0.985184
     14          1           0       -1.997578   -0.910144    1.597770
     15          1           0       -2.475926   -2.020574    0.331373
     16          1           0       -0.204618    0.946364   -1.511824
     17          1           0        0.274902    2.088076   -0.268004
     18          1           0       -0.011128   -2.101922    0.728414
     19          1           0       -0.371415   -1.596118   -0.905549
     20          1           0        0.351723    0.262560    1.401185
     21          1           0        2.520697    1.654562    0.843527
     22          1           0        2.957113    0.173697    1.675299
     23          1           0        3.801543    0.605286    0.172476
 ---------------------------------------------------------------------

 SCF Done:  E(RHF) =  -387.907428303     A.U. after    2 cycles

 The electronic state is 1-A.
 Alpha  occ. eigenvalues --  -21.04229 -11.49760 -11.44417 -11.43677 -11.42611
 Alpha  occ. eigenvalues --  -11.39140 -11.38035 -11.37682 -11.34471  -1.70113
 Alpha  occ. eigenvalues --   -1.32529  -1.14869  -1.10691  -1.07435  -0.90911
 Alpha  occ. eigenvalues --   -0.88770  -0.79631  -0.74019  -0.65787  -0.63785
 Alpha  occ. eigenvalues --   -0.61847  -0.61472  -0.59082  -0.58334  -0.53524
 Alpha  occ. eigenvalues --   -0.52883  -0.49447  -0.48913  -0.47229  -0.45879
 Alpha  occ. eigenvalues --   -0.44047  -0.41395  -0.39956  -0.37595  -0.27179
 Alpha virt. eigenvalues --    0.03778   0.04458   0.04761   0.05099   0.05277
 Alpha virt. eigenvalues --    0.05504   0.06100   0.06833   0.07061   0.07847
 Alpha virt. eigenvalues --    0.07901   0.08443   0.08907   0.09232   0.11850

 Mulliken charges:
               1
     1  C    5.048147
     2  C   -2.722132
     3  C   -3.127074
     4  C   -2.990551
     5  C   -3.273228
     6  C   -3.259244
     7  C   -0.535630
     8  C   -5.146299
     9  O   -3.721328
    10  H    1.356223
    11  H    1.408094
    12  H    1.237804
    13  H    1.381593
    14  H    1.372168
    15  H    1.225071
    16  H    1.453295
    17  H    1.501943
    18  H    1.375094
    19  H    1.470434
    20  H    2.084100
    21  H    1.335411
    22  H    1.220918
    23  H    1.305191
 Sum of Mulliken charges =  -0.00000

 Dipole moment (field-independent basis, Debye):
    X=             -0.8427    Y=              0.7900    Z=              0.9347  Tot=              1.4859

 Test job not archived.
 1\1\GINC-SE453\SP\RHF\Aug-CC-pVDZ\C8H14O1\OHZDE\06-Apr-2025\0\\#t hf a
 ug-cc-pvdz iop(5/13=1,5/36=2,99/5=2) pseudo=read geom=check guess=(rea
 d,tcheck) scf=(maxcycle=1)\\title\\0,1\C,0,1.811591,-0.159551,-0.09642
 4\C,0,-2.556321,0.066825,-0.240521\C,0,-1.75119,1.356259,-0.059733\C,0
 ,-1.921204,-1.099327,0.52149\C,0,-0.281229,1.164125,-0.442828\C,0,-0.4
 51165,-1.29352,0.140424\C,0,0.359157,-0.006631,0.338914\C,0,2.843613,0
 .624195,0.685597\O,0,2.127563,-0.8614,-1.032\H,0,-3.586727,0.21757,0.0
 88357\H,0,-2.602212,-0.181621,-1.305799\H,0,-2.183986,2.161109,-0.6579

 Normal termination of Gaussian 16 at Sun Apr  6 08:00:45 2025.
