 Gaussian 16, Revision C.01,

 ----------------------------------------------------------------------
 #t hf aug-cc-pvdz symm=none int=(grid=ultrafine) guess=(read,tcheck) s
 table=(opt,rrhf)
 ----------------------------------------------------------------------
 -----
 title
 -----
 Symbolic Z-matrix:
 Charge =  0 Multiplicity = 1

 SCF Done:  E(RHF) =  -268.649526978     A.U. after   13 cycles
 Normal termination of Gaussian 16 at Sun Apr  6 07:58:49 2025.
 Gaussian 16:  ES64L-G16RevC.01  3-Jul-2019

 ----------------------------------------------------------------------
 #t hf aug-cc-pvdz iop(5/13=1,5/36=2,99/5=2) pseudo=read geom=check gue
 ss=(read,tcheck) scf=(maxcycle=1)
 ----------------------------------------------------------------------
 -----
 title
 -----
 Structure from the checkpoint file:  "1-cyano-2-fluoroethene.chk"
 Charge =  0 Multiplicity = 1

                         Standard orientation:
 ---------------------------------------------------------------------
 Center     Atomic      Atomic             Coordinates (Angstroms)
 Number     Number       Type             X           Y           Z
 ---------------------------------------------------------------------
      1          9           0        2.208132    0.011420   -0.000000
      2          7           0       -2.522866   -0.216097    0.000001
      3          6           0       -0.054551    0.505268   -0.000000
      4          6           0        0.934896   -0.381578   -0.000000
      5          6           0       -1.412545    0.093056   -0.000000
      6          1           0        0.158393    1.565950    0.000001
      7          1           0        0.821683   -1.456525   -0.000000
 ---------------------------------------------------------------------

 SCF Done:  E(RHF) =  -269.747511518     A.U. after    2 cycles

 The electronic state is 1-A.
 Alpha  occ. eigenvalues --  -29.33001 -15.77345 -11.53029 -11.46893 -11.43977
 Alpha  occ. eigenvalues --   -1.34916  -1.25543  -1.01526  -0.78699  -0.72653
 Alpha  occ. eigenvalues --   -0.63310  -0.55631  -0.53174  -0.46186  -0.46080
 Alpha  occ. eigenvalues --   -0.42670  -0.31569  -0.27984
 Alpha virt. eigenvalues --    0.03436   0.05181   0.08531   0.09453   0.10866
 Alpha virt. eigenvalues --    0.11567   0.12006   0.12287   0.13243   0.13767
 Alpha virt. eigenvalues --    0.15169   0.16050   0.16518   0.19220   0.20645

 Mulliken charges:
               1
     1  F    0.696414
     2  N   -2.223522
     3  C   -1.211148
     4  C   -1.229632
     5  C    1.153399
     6  H    1.425368
     7  H    1.389123
 Sum of Mulliken charges =  -0.00000

 Dipole moment (field-independent basis, Debye):
    X=              6.1364    Y=              0.5980    Z=             -0.0000  Tot=              6.1655

 Test job not archived.
 1\1\GINC-SE453\SP\RHF\Aug-CC-pVDZ\C3H2F1N1\OHZDE\06-Apr-2025\0\\#t hf
 aug-cc-pvdz iop(5/13=1,5/36=2,99/5=2) pseudo=read geom=check guess=(re
 ad,tcheck) scf=(maxcycle=1)\\title\\0,1\F,0,2.208132,0.01142,0.\N,0,-2
 .522866,-0.216097,0.000001\C,0,-0.054551,0.505268,0.\C,0,0.934896,-0.3
 81578,0.\C,0,-1.412545,0.093056,0.\H,0,0.158393,1.56595,0.000001\H,0,0
 .821683,-1.456525,0.\\Version=ES64L-G16RevC.01\State=1-A\HF=-269.74751
 15\RMSD=5.266e-01\Dipole=2.4142443,0.2352854,-0.0000001\Quadrupole=-1.
 6178917,2.2218809,-0.6039893,-1.0066291,0.0000019,0.0000016\PG=C01 [X(

 Normal termination of Gaussian 16 at Sun Apr  6 07:58:51 2025.
