 Gaussian 16, Revision C.01,

 ----------------------------------------------------------------------
 #t hf aug-cc-pvdz symm=none int=(grid=ultrafine) guess=(read,tcheck) s
 table=(opt,rrhf)
 ----------------------------------------------------------------------
 -----
 title
 -----
 Symbolic Z-matrix:
 Charge =  0 Multiplicity = 1

 SCF Done:  E(RHF) =  -368.697164884     A.U. after   13 cycles
 Normal termination of Gaussian 16 at Sun Apr  6 07:58:54 2025.
 Gaussian 16:  ES64L-G16RevC.01  3-Jul-2019

 ----------------------------------------------------------------------
 #t hf aug-cc-pvdz iop(5/13=1,5/36=2,99/5=2) pseudo=read geom=check gue
 ss=(read,tcheck) scf=(maxcycle=1)
 ----------------------------------------------------------------------
 -----
 title
 -----
 Structure from the checkpoint file:  "1-cyano-1-2-difluoroethane.chk"
 Charge =  0 Multiplicity = 1

                         Standard orientation:
 ---------------------------------------------------------------------
 Center     Atomic      Atomic             Coordinates (Angstroms)
 Number     Number       Type             X           Y           Z
 ---------------------------------------------------------------------
      1          9           0       -0.068610    1.517102   -0.198375
      2          9           0       -2.172960   -0.385347    0.136936
      3          7           0        2.539942   -0.590490   -0.068123
      4          6           0        0.095496    0.250121    0.339624
      5          6           0       -0.898581   -0.714336   -0.288536
      6          6           0        1.473579   -0.202694    0.110068
      7          1           0       -0.088862    0.322052    1.413853
      8          1           0       -0.677638   -1.735688    0.024438
      9          1           0       -0.861929   -0.637279   -1.375414
 ---------------------------------------------------------------------

 SCF Done:  E(RHF) =  -370.145197590     A.U. after    2 cycles

 The electronic state is 1-A.
 Alpha  occ. eigenvalues --  -29.30035 -29.28782 -15.79734 -11.55200 -11.49029
 Alpha  occ. eigenvalues --  -11.45583  -1.38901  -1.28902  -1.09857  -0.82675
 Alpha  occ. eigenvalues --   -0.78039  -0.71013  -0.66638  -0.63357  -0.55624
 Alpha  occ. eigenvalues --   -0.48550  -0.47573  -0.40673  -0.39806  -0.31177
 Alpha  occ. eigenvalues --   -0.30774  -0.27352  -0.26900
 Alpha virt. eigenvalues --    0.04031   0.05153   0.05747   0.09076   0.10313
 Alpha virt. eigenvalues --    0.11104   0.11766   0.12218   0.12609   0.14004
 Alpha virt. eigenvalues --    0.15633   0.16100   0.17002   0.17616   0.19454

 Mulliken charges:
               1
     1  F    0.425667
     2  F    0.342613
     3  N   -2.322981
     4  C   -1.498579
     5  C   -2.715986
     6  C    1.613440
     7  H    1.628698
     8  H    1.297302
     9  H    1.229826
 Sum of Mulliken charges =  -0.00000

 Dipole moment (field-independent basis, Debye):
    X=             -4.3101    Y=              2.1509    Z=              0.2656  Tot=              4.8243

 Test job not archived.
 1\1\GINC-SE344\SP\RHF\Aug-CC-pVDZ\C3H3F2N1\OHZDE\06-Apr-2025\0\\#t hf
 aug-cc-pvdz iop(5/13=1,5/36=2,99/5=2) pseudo=read geom=check guess=(re
 ad,tcheck) scf=(maxcycle=1)\\title\\0,1\F,0,-0.06861,1.517102,-0.19837
 5\F,0,-2.17296,-0.385347,0.136936\N,0,2.539942,-0.59049,-0.068123\C,0,
 0.095496,0.250121,0.339624\C,0,-0.898581,-0.714336,-0.288536\C,0,1.473
 579,-0.202694,0.110068\H,0,-0.088862,0.322052,1.413853\H,0,-0.677638,-
 1.735688,0.024438\H,0,-0.861929,-0.637279,-1.375414\\Version=ES64L-G16
 RevC.01\State=1-A\HF=-370.1451976\RMSD=2.483e-01\Dipole=-1.6957427,0.8

 Normal termination of Gaussian 16 at Sun Apr  6 07:58:57 2025.
