 Gaussian 16, Revision C.01,

 ----------------------------------------------------------------------
 #t hf aug-cc-pvdz symm=none int=(grid=ultrafine) guess=(read,tcheck) s
 table=(opt,rrhf)
 ----------------------------------------------------------------------
 -----
 title
 -----
 Symbolic Z-matrix:
 Charge =  0 Multiplicity = 1

 SCF Done:  E(RHF) =  -466.416267281     A.U. after   12 cycles
 Normal termination of Gaussian 16 at Sun Apr  6 08:03:40 2025.
 Gaussian 16:  ES64L-G16RevC.01  3-Jul-2019

 ----------------------------------------------------------------------
 #t hf aug-cc-pvdz iop(5/13=1,5/36=2,99/5=2) pseudo=read geom=check gue
 ss=(read,tcheck) scf=(maxcycle=1)
 ----------------------------------------------------------------------
 -----
 title
 -----
 Structure from the checkpoint file:  "1-decanol.chk"
 Charge =  0 Multiplicity = 1

                         Standard orientation:
 ---------------------------------------------------------------------
 Center     Atomic      Atomic             Coordinates (Angstroms)
 Number     Number       Type             X           Y           Z
 ---------------------------------------------------------------------
      1          6           0       -6.348463   -0.676838    0.000000
      2          6           0       -5.115500    0.225307    0.000000
      3          6           0       -3.797980   -0.550892    0.000000
      4          6           0       -2.557416    0.342637    0.000000
      5          6           0       -1.240689   -0.434878    0.000000
      6          6           0        0.000000    0.458845    0.000000
      7          6           0        1.316086   -0.319402    0.000000
      8          6           0        2.556349    0.575341    0.000000
      9          6           0        3.868290   -0.209696    0.000000
     10          6           0        5.092393    0.687237    0.000000
     11          8           0        6.258306   -0.139838    0.000000
     12          1           0       -6.364365   -1.322364    0.880634
     13          1           0       -6.364365   -1.322364   -0.880634
     14          1           0       -7.270587   -0.093915    0.000000
     15          1           0       -5.145071    0.883042   -0.873992
     16          1           0       -5.145071    0.883042    0.873992
     17          1           0       -3.769111   -1.209699    0.874515
     18          1           0       -3.769111   -1.209699   -0.874515
     19          1           0       -2.587308    1.001155    0.874567
     20          1           0       -2.587308    1.001155   -0.874567
     21          1           0       -1.210788   -1.093366    0.874472
     22          1           0       -1.210788   -1.093366   -0.874472
     23          1           0       -0.029832    1.117282    0.874617
     24          1           0       -0.029832    1.117282   -0.874617
     25          1           0        1.346921   -0.977463   -0.874449
     26          1           0        1.346921   -0.977463    0.874449
     27          1           0        2.524211    1.232959    0.875019
     28          1           0        2.524211    1.232959   -0.875019
     29          1           0        3.914692   -0.861511    0.876340
     30          1           0        3.914692   -0.861511   -0.876340
     31          1           0        5.083448    1.333838    0.885549
     32          1           0        5.083448    1.333838   -0.885549
     33          1           0        7.040122    0.418910    0.000000
 ---------------------------------------------------------------------

 SCF Done:  E(RHF) =  -468.779570021     A.U. after    2 cycles

 The electronic state is 1-A'.
 Alpha  occ. eigenvalues --  -21.06154 -11.43608 -11.42742 -11.42244 -11.41167
 Alpha  occ. eigenvalues --  -11.40583 -11.38841 -11.36992 -11.35778 -11.34834
 Alpha  occ. eigenvalues --  -11.33336  -1.69953  -1.29288  -1.22932  -1.15332
 Alpha  occ. eigenvalues --   -1.07536  -1.00154  -0.93272  -0.87011  -0.83080
 Alpha  occ. eigenvalues --   -0.81905  -0.81532  -0.67414  -0.65627  -0.63072
 Alpha  occ. eigenvalues --   -0.62636  -0.58975  -0.58554  -0.57361  -0.55073
 Alpha  occ. eigenvalues --   -0.54592  -0.52173  -0.51180  -0.49993  -0.47836
 Alpha  occ. eigenvalues --   -0.46084  -0.45670  -0.44800  -0.44595  -0.44169
 Alpha  occ. eigenvalues --   -0.44061  -0.43695  -0.40479  -0.35754  -0.31448
 Alpha virt. eigenvalues --    0.04180   0.04343   0.04562   0.05382   0.05637
 Alpha virt. eigenvalues --    0.05890   0.05905   0.06009   0.06204   0.06509
 Alpha virt. eigenvalues --    0.06712   0.07182   0.07307   0.08315   0.08756

 Mulliken charges:
               1
     1  C   -4.828603
     2  C   -3.728968
     3  C   -2.999661
     4  C   -2.700374
     5  C   -2.608156
     6  C   -2.171823
     7  C   -2.354208
     8  C   -2.745399
     9  C   -4.211706
    10  C   -1.874403
    11  O   -2.856181
    12  H    1.361479
    13  H    1.361479
    14  H    1.074981
    15  H    1.503768
    16  H    1.503768
    17  H    1.616785
    18  H    1.616785
    19  H    1.659574
    20  H    1.659574
    21  H    1.633462
    22  H    1.633462
    23  H    1.652730
    24  H    1.652730
    25  H    1.629955
    26  H    1.629955
    27  H    1.568415
    28  H    1.568415
    29  H    1.475319
    30  H    1.475319
    31  H    1.484154
    32  H    1.484154
    33  H    0.833218
 Sum of Mulliken charges =  -0.00000

 Dipole moment (field-independent basis, Debye):
    X=             -0.0889    Y=              0.6906    Z=              0.0000  Tot=              0.6963

 Test job not archived.
 1\1\GINC-SE454\SP\RHF\Aug-CC-pVDZ\C10H22O1\OHZDE\06-Apr-2025\0\\#t hf
 aug-cc-pvdz iop(5/13=1,5/36=2,99/5=2) pseudo=read geom=check guess=(re
 ad,tcheck) scf=(maxcycle=1)\\title\\0,1\C,0,-6.348463,-0.676838,0.\C,0
 ,-5.1155,0.225307,0.\C,0,-3.79798,-0.550892,0.\C,0,-2.557416,0.342637,
 0.\C,0,-1.240689,-0.434878,0.\C,0,0.,0.458845,0.\C,0,1.316086,-0.31940
 2,0.\C,0,2.556349,0.575341,0.\C,0,3.86829,-0.209696,0.\C,0,5.092393,0.
 687237,0.\O,0,6.258306,-0.139839,0.\H,0,-6.364365,-1.322364,0.880634\H
 ,0,-6.364365,-1.322364,-0.880634\H,0,-7.270587,-0.093915,0.\H,0,-5.145

 Normal termination of Gaussian 16 at Sun Apr  6 08:03:55 2025.
