 Gaussian 16, Revision C.01,

 ----------------------------------------------------------------------
 #t hf aug-cc-pvdz symm=none int=(grid=ultrafine) guess=(read,tcheck) s
 table=(opt,rrhf)
 ----------------------------------------------------------------------
 -----
 title
 -----
 Symbolic Z-matrix:
 Charge =  0 Multiplicity = 1

 SCF Done:  E(RHF) =  -1239.53930001     A.U. after   15 cycles
 Normal termination of Gaussian 16 at Sun Apr  6 07:59:56 2025.
 Gaussian 16:  ES64L-G16RevC.01  3-Jul-2019

 ----------------------------------------------------------------------
 #t hf aug-cc-pvdz iop(5/13=1,5/36=2,99/5=2) pseudo=read geom=check gue
 ss=(read,tcheck) scf=(maxcycle=1)
 ----------------------------------------------------------------------
 -----
 title
 -----
 Structure from the checkpoint file:  "1-dichloroamino-oxy-1-methoxyethene.chk"
 Charge =  0 Multiplicity = 1

                         Standard orientation:
 ---------------------------------------------------------------------
 Center     Atomic      Atomic             Coordinates (Angstroms)
 Number     Number       Type             X           Y           Z
 ---------------------------------------------------------------------
      1         17           0       -2.228128   -1.021501   -0.416681
      2         17           0       -1.176042    1.636902    0.087881
      3          8           0        0.217710   -0.557728   -0.248136
      4          8           0        2.451588   -0.549725   -0.247351
      5          7           0       -0.936161   -0.161967    0.426500
      6          6           0        1.373759   -0.430493    0.538916
      7          6           0        1.403284   -0.296492    1.855640
      8          6           0        2.597789    0.411824   -1.311164
      9          1           0        0.502906   -0.317994    2.444647
     10          1           0        2.358608   -0.182888    2.340675
     11          1           0        3.551083    0.185303   -1.778270
     12          1           0        1.794461    0.315767   -2.038707
     13          1           0        2.613575    1.422361   -0.900703
 ---------------------------------------------------------------------

 SCF Done:  E(RHF) =  -1241.45257493     A.U. after    2 cycles

 The electronic state is 1-A.
 Alpha  occ. eigenvalues --  -99.94101 -99.92958 -21.13556 -21.08842 -15.90365
 Alpha  occ. eigenvalues --  -11.50788 -11.42721 -11.38304 -10.51239 -10.49933
 Alpha  occ. eigenvalues --   -9.71143  -9.70263  -9.70111  -9.69746  -9.69135
 Alpha  occ. eigenvalues --   -9.68960  -1.92509  -1.77260  -1.42585  -1.31048
 Alpha  occ. eigenvalues --   -1.13484  -1.07594  -1.00380  -0.79834  -0.72149
 Alpha  occ. eigenvalues --   -0.70418  -0.68477  -0.64420  -0.62158  -0.60941
 Alpha  occ. eigenvalues --   -0.56959  -0.55897  -0.54663  -0.51562  -0.50950
 Alpha  occ. eigenvalues --   -0.49907  -0.41444  -0.40426  -0.34960  -0.30402
 Alpha virt. eigenvalues --   -0.00729   0.03562   0.04741   0.05384   0.06225
 Alpha virt. eigenvalues --    0.06428   0.06826   0.08724   0.10170   0.10568
 Alpha virt. eigenvalues --    0.11313   0.13140   0.13411   0.14202   0.14447

 Mulliken charges:
               1
     1  Cl   0.524264
     2  Cl   0.156888
     3  O   -2.756591
     4  O   -3.705166
     5  N    0.271721
     6  C    5.597115
     7  C   -3.663036
     8  C   -3.251146
     9  H    1.422307
    10  H    1.355868
    11  H    1.242345
    12  H    1.467547
    13  H    1.337886
 Sum of Mulliken charges =  -0.00000

 Dipole moment (field-independent basis, Debye):
    X=              2.5132    Y=             -0.6743    Z=             -0.7491  Tot=              2.7077

 Test job not archived.
 1\1\GINC-SE012\SP\RHF\Aug-CC-pVDZ\C3H5Cl2N1O2\OHZDE\06-Apr-2025\0\\#t
 hf aug-cc-pvdz iop(5/13=1,5/36=2,99/5=2) pseudo=read geom=check guess=
 (read,tcheck) scf=(maxcycle=1)\\title\\0,1\Cl,0,-2.228128,-1.021501,-0
 .416681\Cl,0,-1.176042,1.636902,0.087881\O,0,0.21771,-0.557728,-0.2481
 36\O,0,2.451588,-0.549725,-0.247351\N,0,-0.936161,-0.161967,0.4265\C,0
 ,1.373759,-0.430493,0.538916\C,0,1.403284,-0.296492,1.85564\C,0,2.5977
 89,0.411824,-1.311164\H,0,0.502906,-0.317994,2.444647\H,0,2.358608,-0.
 182888,2.340675\H,0,3.551083,0.185303,-1.77827\H,0,1.794461,0.315767,-

 Normal termination of Gaussian 16 at Sun Apr  6 08:00:02 2025.
