 Gaussian 16, Revision C.01,

 ----------------------------------------------------------------------
 #t hf aug-cc-pvdz symm=none int=(grid=ultrafine) guess=(read,tcheck) s
 table=(opt,rrhf)
 ----------------------------------------------------------------------
 -----
 title
 -----
 Symbolic Z-matrix:
 Charge =  0 Multiplicity = 1

 SCF Done:  E(RHF) =  -406.743039152     A.U. after   14 cycles
 Normal termination of Gaussian 16 at Sun Apr  6 07:59:26 2025.
 Gaussian 16:  ES64L-G16RevC.01  3-Jul-2019

 ----------------------------------------------------------------------
 #t hf aug-cc-pvdz iop(5/13=1,5/36=2,99/5=2) pseudo=read geom=check gue
 ss=(read,tcheck) scf=(maxcycle=1)
 ----------------------------------------------------------------------
 -----
 title
 -----
 Structure from the checkpoint file:  "1-difluoroaminoethanol.chk"
 Charge =  0 Multiplicity = 1

                         Standard orientation:
 ---------------------------------------------------------------------
 Center     Atomic      Atomic             Coordinates (Angstroms)
 Number     Number       Type             X           Y           Z
 ---------------------------------------------------------------------
      1          9           0       -1.669344    0.483858   -0.453523
      2          9           0       -0.788373   -1.103319    0.767200
      3          8           0        0.629635    1.223624    0.727671
      4          7           0       -0.619879   -0.472984   -0.472184
      5          6           0        0.621002    0.357868   -0.363789
      6          6           0        1.814672   -0.567909   -0.285540
      7          1           0       -0.126057    1.819060    0.668820
      8          1           0        0.599329    0.897393   -1.316545
      9          1           0        2.723091    0.026037   -0.362124
     10          1           0        1.817974   -1.095028    0.666070
     11          1           0        1.793148   -1.290166   -1.099425
 ---------------------------------------------------------------------

 SCF Done:  E(RHF) =  -408.357960896     A.U. after    2 cycles

 The electronic state is 1-A.
 Alpha  occ. eigenvalues --  -29.29542 -29.29431 -21.09852 -15.89016 -11.49105
 Alpha  occ. eigenvalues --  -11.39008  -1.76697  -1.50645  -1.13839  -0.93195
 Alpha  occ. eigenvalues --   -0.83222  -0.71902  -0.69670  -0.64398  -0.56221
 Alpha  occ. eigenvalues --   -0.55130  -0.52262  -0.45142  -0.43867  -0.39734
 Alpha  occ. eigenvalues --   -0.36133  -0.31224  -0.29062  -0.22720  -0.20931
 Alpha virt. eigenvalues --    0.04001   0.05531   0.05897   0.06076   0.06810
 Alpha virt. eigenvalues --    0.11497   0.11958   0.13184   0.14975   0.15826
 Alpha virt. eigenvalues --    0.16441   0.17108   0.18051   0.19378   0.21554

 Mulliken charges:
               1
     1  F   -0.164501
     2  F   -0.192496
     3  O   -3.025138
     4  N   -0.422284
     5  C    0.858244
     6  C   -3.054279
     7  H    0.702337
     8  H    1.728065
     9  H    1.162838
    10  H    1.216517
    11  H    1.190696
 Sum of Mulliken charges =  -0.00000

 Dipole moment (field-independent basis, Debye):
    X=             -0.6979    Y=              0.6738    Z=              0.9790  Tot=              1.3782

 Test job not archived.
 1\1\GINC-SE014\SP\RHF\Aug-CC-pVDZ\C2H5F2N1O1\OHZDE\06-Apr-2025\0\\#t h
 f aug-cc-pvdz iop(5/13=1,5/36=2,99/5=2) pseudo=read geom=check guess=(
 read,tcheck) scf=(maxcycle=1)\\title\\0,1\F,0,-1.669344,0.483858,-0.45
 3523\F,0,-0.788373,-1.103319,0.7672\O,0,0.629635,1.223624,0.727671\N,0
 ,-0.619879,-0.472984,-0.472184\C,0,0.621002,0.357868,-0.363789\C,0,1.8
 14672,-0.567909,-0.28554\H,0,-0.126057,1.81906,0.66882\H,0,0.599329,0.
 897393,-1.316545\H,0,2.723091,0.026037,-0.362124\H,0,1.817974,-1.09502
 8,0.66607\H,0,1.793148,-1.290166,-1.099425\\Version=ES64L-G16RevC.01\S

 Normal termination of Gaussian 16 at Sun Apr  6 07:59:29 2025.
