 Gaussian 16, Revision C.01,

 ----------------------------------------------------------------------
 #t hf aug-cc-pvdz symm=none int=(grid=ultrafine) guess=(read,tcheck) s
 table=(opt,rrhf)
 ----------------------------------------------------------------------
 -----
 title
 -----
 Symbolic Z-matrix:
 Charge =  0 Multiplicity = 1

 SCF Done:  E(RHF) =  -991.409658381     A.U. after   13 cycles

 1\1\GINC-SE209\Stability\RHF\Aug-CC-pVDZ\C5H12S2\OHZDE\06-Apr-2025\0\\
 #t hf aug-cc-pvdz symm=none int=(grid=ultrafine) guess=(read,tcheck) s
 table=(opt,rrhf)\\title\\0,1\C,0,4.257269,-0.037794,0.00003\C,0,-3.949
 908,-0.598011,0.000036\C,0,2.887553,0.627975,0.000013\C,0,-1.167307,-0
 .413074,-0.000018\C,0,0.091194,0.440608,-0.00002\S,0,-2.645575,0.67099
 8,-0.000005\S,0,1.568672,-0.643862,-0.000022\H,0,4.392436,-0.663324,0.
 882566\H,0,4.392468,-0.663306,-0.882513\H,0,5.04203,0.719953,0.000052\
 H,0,-3.88965,-1.219817,-0.891752\H,0,-4.901476,-0.07084,0.000059\H,0,-

 Normal termination of Gaussian 16 at Sun Apr  6 08:00:09 2025.
 Gaussian 16:  ES64L-G16RevC.01  3-Jul-2019

 ----------------------------------------------------------------------
 #t hf aug-cc-pvdz iop(5/13=1,5/36=2,99/5=2) pseudo=read geom=check gue
 ss=(read,tcheck) scf=(maxcycle=1)
 ----------------------------------------------------------------------
 -----
 title
 -----
 Structure from the checkpoint file:  "1-ethylsulfanyl-2-methylsulfanyl-ethane.chk"
 Charge =  0 Multiplicity = 1

                         Standard orientation:
 ---------------------------------------------------------------------
 Center     Atomic      Atomic             Coordinates (Angstroms)
 Number     Number       Type             X           Y           Z
 ---------------------------------------------------------------------
      1          6           0        4.257269   -0.037794    0.000030
      2          6           0       -3.949908   -0.598011    0.000036
      3          6           0        2.887553    0.627975    0.000013
      4          6           0       -1.167307   -0.413074   -0.000018
      5          6           0        0.091194    0.440608   -0.000020
      6         16           0       -2.645575    0.670998   -0.000005
      7         16           0        1.568672   -0.643862   -0.000022
      8          1           0        4.392436   -0.663324    0.882566
      9          1           0        4.392468   -0.663306   -0.882513
     10          1           0        5.042030    0.719953    0.000052
     11          1           0       -3.889650   -1.219817   -0.891752
     12          1           0       -4.901476   -0.070840    0.000059
     13          1           0       -3.889600   -1.219808    0.891826
     14          1           0        2.763247    1.254670   -0.883576
     15          1           0        2.763215    1.254650    0.883612
     16          1           0       -1.197075   -1.048863    0.885008
     17          1           0       -1.197083   -1.048856   -0.885049
     18          1           0        0.119565    1.076575   -0.884964
     19          1           0        0.119567    1.076572    0.884926
 ---------------------------------------------------------------------

 SCF Done:  E(RHF) =  -992.895665501     A.U. after    2 cycles

 The electronic state is 1-A.
 Alpha  occ. eigenvalues --  -75.67261 -75.66901 -13.13767 -13.09575 -13.07116
 Alpha  occ. eigenvalues --  -13.06706 -13.00625 -13.00352 -11.43394 -11.41397
 Alpha  occ. eigenvalues --  -11.39352 -11.38848 -11.36998  -8.01299  -8.00964
 Alpha  occ. eigenvalues --   -1.29028  -1.20989  -1.12036  -1.01912  -0.92973
 Alpha  occ. eigenvalues --   -0.86291  -0.83562  -0.65750  -0.62761  -0.60216
 Alpha  occ. eigenvalues --   -0.59206  -0.58428  -0.55383  -0.52502  -0.50935
 Alpha  occ. eigenvalues --   -0.50213  -0.49852  -0.38725  -0.35931  -0.35067
 Alpha  occ. eigenvalues --   -0.23041  -0.21212
 Alpha virt. eigenvalues --    0.03090   0.03643   0.04608   0.05105   0.05177
 Alpha virt. eigenvalues --    0.06308   0.06476   0.07029   0.07252   0.08373
 Alpha virt. eigenvalues --    0.08888   0.09729   0.10129   0.11283   0.11769

 Mulliken charges:
               1
     1  C   -3.899214
     2  C   -4.926509
     3  C   -3.765186
     4  C   -3.968810
     5  C   -3.336289
     6  S    1.161446
     7  S    1.480461
     8  H    1.357939
     9  H    1.357941
    10  H    1.056927
    11  H    1.430079
    12  H    1.326499
    13  H    1.430082
    14  H    1.528952
    15  H    1.528955
    16  H    1.552798
    17  H    1.552794
    18  H    1.565567
    19  H    1.565567
 Sum of Mulliken charges =  -0.00000

 Dipole moment (field-independent basis, Debye):
    X=              0.1555    Y=              0.1447    Z=              0.0000  Tot=              0.2124

 Test job not archived.
 1\1\GINC-SE209\SP\RHF\Aug-CC-pVDZ\C5H12S2\OHZDE\06-Apr-2025\0\\#t hf a
 ug-cc-pvdz iop(5/13=1,5/36=2,99/5=2) pseudo=read geom=check guess=(rea
 d,tcheck) scf=(maxcycle=1)\\title\\0,1\C,0,4.257269,-0.037794,0.00003\
 C,0,-3.949908,-0.598011,0.000036\C,0,2.887553,0.627975,0.000013\C,0,-1
 .167307,-0.413074,-0.000018\C,0,0.091194,0.440608,-0.00002\S,0,-2.6455
 75,0.670998,-0.000005\S,0,1.568672,-0.643862,-0.000022\H,0,4.392436,-0
 .663324,0.882566\H,0,4.392468,-0.663306,-0.882513\H,0,5.04203,0.719953
 ,0.000052\H,0,-3.88965,-1.219817,-0.891752\H,0,-4.901476,-0.07084,0.00

 Normal termination of Gaussian 16 at Sun Apr  6 08:00:17 2025.
