 Gaussian 16, Revision C.01,

 ----------------------------------------------------------------------
 #t hf aug-cc-pvdz symm=none int=(grid=ultrafine) guess=(read,tcheck) s
 table=(opt,rrhf)
 ----------------------------------------------------------------------
 -----
 title
 -----
 Symbolic Z-matrix:
 Charge =  0 Multiplicity = 1

 SCF Done:  E(RHF) =  -743.556782812     A.U. after   13 cycles
 Normal termination of Gaussian 16 at Sun Apr  6 08:00:29 2025.
 Gaussian 16:  ES64L-G16RevC.01  3-Jul-2019

 ----------------------------------------------------------------------
 #t hf aug-cc-pvdz iop(5/13=1,5/36=2,99/5=2) pseudo=read geom=check gue
 ss=(read,tcheck) scf=(maxcycle=1)
 ----------------------------------------------------------------------
 -----
 title
 -----
 Structure from the checkpoint file:  "1-ethylsulfonylpropane.chk"
 Charge =  0 Multiplicity = 1

                         Standard orientation:
 ---------------------------------------------------------------------
 Center     Atomic      Atomic             Coordinates (Angstroms)
 Number     Number       Type             X           Y           Z
 ---------------------------------------------------------------------
      1          6           0       -2.143446   -2.929295    0.000000
      2          6           0        1.157418    2.955149    0.000000
      3          6           0       -0.838198   -2.133417    0.000000
      4          6           0       -0.055932    2.033897    0.000000
      5          6           0       -1.094835   -0.628266    0.000000
      6          8           0        1.157418    0.026179    1.262499
      7          8           0        1.157418    0.026179   -1.262499
      8         16           0        0.468746    0.293929    0.000000
      9          1           0       -1.938473   -3.999896    0.000000
     10          1           0       -2.746355   -2.706824    0.882228
     11          1           0       -2.746355   -2.706824   -0.882228
     12          1           0        0.824711    3.992976    0.000000
     13          1           0        1.770380    2.790531    0.884210
     14          1           0        1.770380    2.790531   -0.884210
     15          1           0       -0.242657   -2.391528   -0.876212
     16          1           0       -0.242657   -2.391528    0.876212
     17          1           0       -0.670671    2.165871   -0.889878
     18          1           0       -0.670671    2.165871    0.889878
     19          1           0       -1.638152   -0.309656   -0.890168
     20          1           0       -1.638152   -0.309656    0.890168
 ---------------------------------------------------------------------

 SCF Done:  E(RHF) =  -745.476136676     A.U. after    2 cycles

 The electronic state is 1-A'.
 Alpha  occ. eigenvalues --  -75.86737 -21.02910 -21.02872 -13.48038 -13.39955
 Alpha  occ. eigenvalues --  -13.34530 -11.45638 -11.43544 -11.41115 -11.38795
 Alpha  occ. eigenvalues --  -11.37210  -8.21734  -1.80739  -1.63156  -1.25790
 Alpha  occ. eigenvalues --   -1.20350  -1.06980  -0.97006  -0.88306  -0.83275
 Alpha  occ. eigenvalues --   -0.67956  -0.66301  -0.65730  -0.60607  -0.57811
 Alpha  occ. eigenvalues --   -0.56575  -0.55356  -0.52474  -0.51311  -0.48807
 Alpha  occ. eigenvalues --   -0.48781  -0.47317  -0.41900  -0.37748  -0.36214
 Alpha  occ. eigenvalues --   -0.33797  -0.33394
 Alpha virt. eigenvalues --    0.03155   0.03675   0.04698   0.04876   0.06030
 Alpha virt. eigenvalues --    0.06399   0.06553   0.07045   0.07389   0.08425
 Alpha virt. eigenvalues --    0.08783   0.09203   0.10491   0.12274   0.13072

 Mulliken charges:
               1
     1  C   -4.162383
     2  C   -4.001144
     3  C   -2.719488
     4  C   -3.959428
     5  C   -3.410587
     6  O   -2.531013
     7  O   -2.531013
     8  S    6.719168
     9  H    1.121543
    10  H    1.278242
    11  H    1.278242
    12  H    1.065259
    13  H    1.374890
    14  H    1.374890
    15  H    1.499131
    16  H    1.499131
    17  H    1.496888
    18  H    1.496888
    19  H    1.555392
    20  H    1.555392
 Sum of Mulliken charges =  -0.00000

 Dipole moment (field-independent basis, Debye):
    X=             -2.0084    Y=              0.5899    Z=             -0.0000  Tot=              2.0932

 Test job not archived.
 1\1\GINC-SE084\SP\RHF\Aug-CC-pVDZ\C5H12O2S1\OHZDE\06-Apr-2025\0\\#t hf
  aug-cc-pvdz iop(5/13=1,5/36=2,99/5=2) pseudo=read geom=check guess=(r
 ead,tcheck) scf=(maxcycle=1)\\title\\0,1\C,0,-2.143446,-2.929295,0.\C,
 0,1.157418,2.955149,0.\C,0,-0.838198,-2.133417,0.\C,0,-0.055932,2.0338
 97,0.\C,0,-1.094835,-0.628266,0.\O,0,1.157418,0.026179,1.262499\O,0,1.
 157418,0.026179,-1.262499\S,0,0.468746,0.293929,0.\H,0,-1.938473,-3.99
 9896,0.\H,0,-2.746355,-2.706824,0.882228\H,0,-2.746355,-2.706824,-0.88
 2228\H,0,0.824711,3.992976,0.\H,0,1.77038,2.790531,0.88421\H,0,1.77038

 Normal termination of Gaussian 16 at Sun Apr  6 08:00:39 2025.
