 Gaussian 16, Revision C.01,

 ----------------------------------------------------------------------
 #t hf aug-cc-pvdz symm=none int=(grid=ultrafine) guess=(read,tcheck) s
 table=(opt,rrhf)
 ----------------------------------------------------------------------
 -----
 title
 -----
 Symbolic Z-matrix:
 Charge =  0 Multiplicity = 1

 SCF Done:  E(RHF) =  -668.700985297     A.U. after   14 cycles
 Normal termination of Gaussian 16 at Sun Apr  6 08:00:16 2025.
 Gaussian 16:  ES64L-G16RevC.01  3-Jul-2019

 ----------------------------------------------------------------------
 #t hf aug-cc-pvdz iop(5/13=1,5/36=2,99/5=2) pseudo=read geom=check gue
 ss=(read,tcheck) scf=(maxcycle=1)
 ----------------------------------------------------------------------
 -----
 title
 -----
 Structure from the checkpoint file:  "1-ethylsulfinylpropane.chk"
 Charge =  0 Multiplicity = 1

                         Standard orientation:
 ---------------------------------------------------------------------
 Center     Atomic      Atomic             Coordinates (Angstroms)
 Number     Number       Type             X           Y           Z
 ---------------------------------------------------------------------
      1          6           0        3.493846   -0.421699    0.204243
      2          6           0       -3.184549   -0.384832    0.026086
      3          6           0        2.208239    0.268987   -0.251395
      4          6           0       -1.762741   -0.898519    0.195965
      5          6           0        0.966634   -0.554479    0.069940
      6          8           0       -0.668107    1.544752    0.490797
      7         16           0       -0.558033    0.349232   -0.423484
      8          1           0        4.366226    0.187832   -0.033018
      9          1           0        3.490187   -0.590172    1.282549
     10          1           0        3.622266   -1.390088   -0.283365
     11          1           0       -3.313566    0.561793    0.548967
     12          1           0       -3.430342   -0.232732   -1.025459
     13          1           0       -3.894890   -1.102230    0.438056
     14          1           0        2.251096    0.456272   -1.327242
     15          1           0        2.117148    1.242262    0.233126
     16          1           0       -1.584775   -1.813954   -0.371007
     17          1           0       -1.518743   -1.069941    1.245101
     18          1           0        0.880940   -0.746643    1.141226
     19          1           0        0.959278   -1.504876   -0.468592
 ---------------------------------------------------------------------

 SCF Done:  E(RHF) =  -670.287783799     A.U. after    2 cycles

 The electronic state is 1-A.
 Alpha  occ. eigenvalues --  -75.77126 -20.98857 -13.31802 -13.23982 -13.16049
 Alpha  occ. eigenvalues --  -11.43681 -11.42090 -11.40089 -11.37678 -11.36399
 Alpha  occ. eigenvalues --   -8.11380  -1.66991  -1.25893  -1.18906  -1.06387
 Alpha  occ. eigenvalues --   -0.96104  -0.87257  -0.83798  -0.66785  -0.64088
 Alpha  occ. eigenvalues --   -0.62245  -0.59365  -0.56663  -0.54669  -0.53339
 Alpha  occ. eigenvalues --   -0.51236  -0.48050  -0.47789  -0.44797  -0.43227
 Alpha  occ. eigenvalues --   -0.36378  -0.31143  -0.24747
 Alpha virt. eigenvalues --    0.03619   0.03668   0.04954   0.05210   0.05954
 Alpha virt. eigenvalues --    0.06135   0.06425   0.07258   0.07323   0.08602
 Alpha virt. eigenvalues --    0.08997   0.09049   0.10704   0.11852   0.12506

 Mulliken charges:
               1
     1  C   -4.088218
     2  C   -3.982217
     3  C   -3.021048
     4  C   -3.847718
     5  C   -3.193788
     6  O   -2.376489
     7  S    3.699618
     8  H    1.138616
     9  H    1.293392
    10  H    1.263000
    11  H    1.381644
    12  H    1.346062
    13  H    1.056794
    14  H    1.449341
    15  H    1.523717
    16  H    1.552548
    17  H    1.540575
    18  H    1.644999
    19  H    1.619173
 Sum of Mulliken charges =   0.00000

 Dipole moment (field-independent basis, Debye):
    X=              0.2661    Y=             -1.2928    Z=             -0.8866  Tot=              1.5900

 Test job not archived.
 1\1\GINC-SE212\SP\RHF\Aug-CC-pVDZ\C5H12O1S1\OHZDE\06-Apr-2025\0\\#t hf
  aug-cc-pvdz iop(5/13=1,5/36=2,99/5=2) pseudo=read geom=check guess=(r
 ead,tcheck) scf=(maxcycle=1)\\title\\0,1\C,0,3.493846,-0.421699,0.2042
 43\C,0,-3.184549,-0.384832,0.026086\C,0,2.208239,0.268987,-0.251395\C,
 0,-1.762741,-0.898519,0.195965\C,0,0.966634,-0.554479,0.06994\O,0,-0.6
 68107,1.544752,0.490797\S,0,-0.558033,0.349232,-0.423484\H,0,4.366226,
 0.187832,-0.033018\H,0,3.490187,-0.590172,1.282549\H,0,3.622266,-1.390
 088,-0.283365\H,0,-3.313566,0.561793,0.548967\H,0,-3.430342,-0.232732,

 Normal termination of Gaussian 16 at Sun Apr  6 08:00:40 2025.
