 Gaussian 16, Revision C.01,

 ----------------------------------------------------------------------
 #t hf aug-cc-pvdz symm=none int=(grid=ultrafine) guess=(read,tcheck) s
 table=(opt,rrhf)
 ----------------------------------------------------------------------
 -----
 title
 -----
 Symbolic Z-matrix:
 Charge =  0 Multiplicity = 1

 SCF Done:  E(RHF) =  -461.470128723     A.U. after   16 cycles
 Normal termination of Gaussian 16 at Sun Apr  6 08:03:47 2025.
 Gaussian 16:  ES64L-G16RevC.01  3-Jul-2019

 ----------------------------------------------------------------------
 #t hf aug-cc-pvdz iop(5/13=1,5/36=2,99/5=2) pseudo=read geom=check gue
 ss=(read,tcheck) scf=(maxcycle=1)
 ----------------------------------------------------------------------
 -----
 title
 -----
 Structure from the checkpoint file:  "1-ethylnaphthalene.chk"
 Charge =  0 Multiplicity = 1

                         Standard orientation:
 ---------------------------------------------------------------------
 Center     Atomic      Atomic             Coordinates (Angstroms)
 Number     Number       Type             X           Y           Z
 ---------------------------------------------------------------------
      1          6           0        2.843382   -0.911793    0.095853
      2          6           0        1.865295   -1.900259   -0.134234
      3          6           0       -0.579750    2.511077    0.033711
      4          6           0        2.473262    0.403278    0.193327
      5          6           0        0.543571   -1.555480   -0.257841
      6          6           0        0.733917    2.152826    0.165181
      7          6           0       -1.562211    1.527220   -0.196166
      8          6           0        1.117464    0.793908    0.069366
      9          6           0        0.119466   -0.205263   -0.160726
     10          6           0       -1.248770    0.190590   -0.290811
     11          6           0       -2.802522   -1.523090    0.785080
     12          6           0       -2.351636   -0.819638   -0.504417
     13          1           0        3.882886   -1.194986    0.192496
     14          1           0        2.160956   -2.937871   -0.214193
     15          1           0       -0.872273    3.550458    0.101606
     16          1           0        3.218207    1.169736    0.366401
     17          1           0       -0.186369   -2.331752   -0.434482
     18          1           0        1.496318    2.901125    0.340027
     19          1           0       -2.595290    1.834475   -0.303229
     20          1           0       -1.982937   -2.067541    1.253974
     21          1           0       -3.604229   -2.233272    0.576827
     22          1           0       -3.173490   -0.797867    1.510083
     23          1           0       -3.209005   -0.305295   -0.941733
     24          1           0       -2.043584   -1.567462   -1.237707
 ---------------------------------------------------------------------

 SCF Done:  E(RHF) =  -463.727251774     A.U. after    2 cycles

 The electronic state is 1-A.
 Alpha  occ. eigenvalues --  -11.52732 -11.49248 -11.45282 -11.43588 -11.42696
 Alpha  occ. eigenvalues --  -11.41816 -11.41286 -11.40980 -11.40690 -11.38764
 Alpha  occ. eigenvalues --  -11.36975 -11.35644  -1.40172  -1.24844  -1.18957
 Alpha  occ. eigenvalues --   -1.10313  -1.07683  -1.03314  -0.91561  -0.88071
 Alpha  occ. eigenvalues --   -0.87018  -0.81109  -0.72242  -0.69562  -0.66914
 Alpha  occ. eigenvalues --   -0.62812  -0.61723  -0.58267  -0.56002  -0.54416
 Alpha  occ. eigenvalues --   -0.53950  -0.52893  -0.51637  -0.49415  -0.48344
 Alpha  occ. eigenvalues --   -0.46575  -0.43713  -0.41274  -0.40020  -0.37110
 Alpha  occ. eigenvalues --   -0.31129  -0.26812
 Alpha virt. eigenvalues --    0.03434   0.04529   0.04941   0.05887   0.06053
 Alpha virt. eigenvalues --    0.06212   0.06309   0.06511   0.06714   0.07095
 Alpha virt. eigenvalues --    0.08862   0.09465   0.09542   0.10176   0.11125

 Mulliken charges:
               1
     1  C   -3.119048
     2  C   -4.475136
     3  C   -2.383649
     4  C   -3.800124
     5  C   -1.409709
     6  C   -5.122242
     7  C   -4.220834
     8  C    6.183840
     9  C    5.778596
    10  C    2.632107
    11  C   -4.153300
    12  C   -4.048043
    13  H    1.543697
    14  H    1.476286
    15  H    1.526482
    16  H    1.661666
    17  H    2.230965
    18  H    1.737435
    19  H    1.820422
    20  H    1.427637
    21  H    1.162068
    22  H    1.377015
    23  H    1.054773
    24  H    1.119096
 Sum of Mulliken charges =  -0.00000

 Dipole moment (field-independent basis, Debye):
    X=             -0.1987    Y=             -0.1659    Z=             -0.0493  Tot=              0.2635

 Test job not archived.
 1\1\GINC-SE177\SP\RHF\Aug-CC-pVDZ\C12H12\OHZDE\06-Apr-2025\0\\#t hf au
 g-cc-pvdz iop(5/13=1,5/36=2,99/5=2) pseudo=read geom=check guess=(read
 ,tcheck) scf=(maxcycle=1)\\title\\0,1\C,0,2.843382,-0.911793,0.095853\
 C,0,1.865295,-1.900259,-0.134234\C,0,-0.57975,2.511077,0.033711\C,0,2.
 473262,0.403278,0.193327\C,0,0.543571,-1.55548,-0.257841\C,0,0.733917,
 2.152826,0.165181\C,0,-1.562211,1.52722,-0.196166\C,0,1.117464,0.79390
 8,0.069366\C,0,0.119466,-0.205263,-0.160726\C,0,-1.24877,0.19059,-0.29
 0811\C,0,-2.802522,-1.52309,0.78508\C,0,-2.351636,-0.819638,-0.504417\

 Normal termination of Gaussian 16 at Sun Apr  6 08:04:10 2025.
