 Gaussian 16, Revision C.01,

 ----------------------------------------------------------------------
 #t hf aug-cc-pvdz symm=none int=(grid=ultrafine) guess=(read,tcheck) s
 table=(opt,rrhf)
 ----------------------------------------------------------------------
 -----
 title
 -----
 Symbolic Z-matrix:
 Charge =  0 Multiplicity = 1

 SCF Done:  E(RHF) =  -271.213702317     A.U. after   12 cycles

 1\1\GINC-SE044\Stability\RHF\Aug-CC-pVDZ\C5H12O1\OHZDE\06-Apr-2025\0\\
 #t hf aug-cc-pvdz symm=none int=(grid=ultrafine) guess=(read,tcheck) s
 table=(opt,rrhf)\\title\\0,1\C,0,0.98919,2.876892,0.\H,0,1.934526,3.42
 1126,0.\H,0,0.422313,3.170372,0.883513\H,0,0.422313,3.170372,-0.883513
 \C,0,1.244016,1.383759,0.\H,0,1.827047,1.091952,-0.88441\H,0,1.827047,
 1.091952,0.88441\O,0,0.,0.70477,0.\C,0,0.125303,-0.705775,0.\H,0,0.691
 231,-1.031792,-0.884779\H,0,0.691231,-1.031792,0.884779\C,0,-1.257913,
 -1.331654,0.\H,0,-1.802831,-0.97298,0.875837\H,0,-1.802831,-0.97298,-0

 Normal termination of Gaussian 16 at Sun Apr  6 07:59:53 2025.
 Gaussian 16:  ES64L-G16RevC.01  3-Jul-2019

 ----------------------------------------------------------------------
 #t hf aug-cc-pvdz iop(5/13=1,5/36=2,99/5=2) pseudo=read geom=check gue
 ss=(read,tcheck) scf=(maxcycle=1)
 ----------------------------------------------------------------------
 -----
 title
 -----
 Structure from the checkpoint file:  "1-ethoxypropane.chk"
 Charge =  0 Multiplicity = 1

                         Standard orientation:
 ---------------------------------------------------------------------
 Center     Atomic      Atomic             Coordinates (Angstroms)
 Number     Number       Type             X           Y           Z
 ---------------------------------------------------------------------
      1          6           0        0.989190    2.876892    0.000000
      2          1           0        1.934526    3.421126    0.000000
      3          1           0        0.422313    3.170372    0.883513
      4          1           0        0.422313    3.170372   -0.883513
      5          6           0        1.244016    1.383759    0.000000
      6          1           0        1.827047    1.091952   -0.884410
      7          1           0        1.827047    1.091952    0.884410
      8          8           0        0.000000    0.704770    0.000000
      9          6           0        0.125303   -0.705775    0.000000
     10          1           0        0.691231   -1.031792   -0.884779
     11          1           0        0.691231   -1.031792    0.884779
     12          6           0       -1.257913   -1.331654    0.000000
     13          1           0       -1.802831   -0.972980    0.875837
     14          1           0       -1.802831   -0.972980   -0.875837
     15          6           0       -1.205589   -2.858427    0.000000
     16          1           0       -0.685547   -3.239386   -0.881267
     17          1           0       -0.685547   -3.239386    0.881267
     18          1           0       -2.208990   -3.284394    0.000000
 ---------------------------------------------------------------------

 SCF Done:  E(RHF) =  -272.547974656     A.U. after    2 cycles

 The electronic state is 1-A'.
 Alpha  occ. eigenvalues --  -21.03188 -11.43759 -11.41819 -11.38872 -11.35980
 Alpha  occ. eigenvalues --  -11.34795  -1.74524  -1.19135  -1.10969  -0.96363
 Alpha  occ. eigenvalues --   -0.86165  -0.84095  -0.66874  -0.62094  -0.61636
 Alpha  occ. eigenvalues --   -0.58612  -0.55297  -0.53473  -0.51872  -0.49649
 Alpha  occ. eigenvalues --   -0.47012  -0.46294  -0.41630  -0.37802  -0.29202
 Alpha virt. eigenvalues --    0.04145   0.04968   0.05411   0.05594   0.05855
 Alpha virt. eigenvalues --    0.06131   0.06383   0.06770   0.07701   0.08785
 Alpha virt. eigenvalues --    0.09068   0.09626   0.10218   0.13613   0.13777

 Mulliken charges:
               1
     1  C   -4.238761
     2  H    1.091005
     3  H    1.319239
     4  H    1.319239
     5  C   -1.780379
     6  H    1.567273
     7  H    1.567273
     8  O   -3.286851
     9  C   -0.096187
    10  H    1.700935
    11  H    1.700935
    12  C   -3.946288
    13  H    1.473789
    14  H    1.473789
    15  C   -3.518859
    16  H    1.266143
    17  H    1.266143
    18  H    1.121559
 Sum of Mulliken charges =  -0.00000

 Dipole moment (field-independent basis, Debye):
    X=              0.1648    Y=             -0.1446    Z=             -0.0000  Tot=              0.2193

 Test job not archived.
 1\1\GINC-SE044\SP\RHF\Aug-CC-pVDZ\C5H12O1\OHZDE\06-Apr-2025\0\\#t hf a
 ug-cc-pvdz iop(5/13=1,5/36=2,99/5=2) pseudo=read geom=check guess=(rea
 d,tcheck) scf=(maxcycle=1)\\title\\0,1\C,0,0.98919,2.876892,0.\H,0,1.9
 34526,3.421126,0.\H,0,0.422313,3.170372,0.883513\H,0,0.422313,3.170372
 ,-0.883513\C,0,1.244016,1.383759,0.\H,0,1.827047,1.091952,-0.88441\H,0
 ,1.827047,1.091952,0.88441\O,0,0.,0.70477,0.\C,0,0.125303,-0.705775,0.
 \H,0,0.691231,-1.031792,-0.884779\H,0,0.691231,-1.031792,0.884779\C,0,
 -1.257913,-1.331654,0.\H,0,-1.802831,-0.97298,0.875837\H,0,-1.802831,-

 Normal termination of Gaussian 16 at Sun Apr  6 07:59:58 2025.
