 Gaussian 16, Revision C.01,

 ----------------------------------------------------------------------
 #t hf aug-cc-pvdz symm=none int=(grid=ultrafine) guess=(read,tcheck) s
 table=(opt,rrhf)
 ----------------------------------------------------------------------
 -----
 title
 -----
 Symbolic Z-matrix:
 Charge =  0 Multiplicity = 1

 SCF Done:  E(RHF) =  -385.121683620     A.U. after   12 cycles

 1\1\GINC-SE042\Stability\RHF\Aug-CC-pVDZ\C6H14O2\OHZDE\06-Apr-2025\0\\
 #t hf aug-cc-pvdz symm=none int=(grid=ultrafine) guess=(read,tcheck) s
 table=(opt,rrhf)\\title\\0,1\C,0,2.945747,-1.326432,-0.272137\C,0,-3.2
 05462,-0.965279,-0.174465\C,0,0.235796,2.251178,-0.163046\C,0,2.11899,
 -0.25769,0.413385\C,0,-1.783395,-0.782436,0.311995\C,0,-0.023554,0.819
 576,0.264379\O,0,0.911871,-0.08384,-0.314715\O,0,-1.30245,0.472628,-0.
 168283\H,0,3.881046,-1.483282,0.266831\H,0,2.403192,-2.271186,-0.3049\
 H,0,3.18213,-1.03224,-1.294481\H,0,-3.603189,-1.917908,0.177985\H,0,-3

 Normal termination of Gaussian 16 at Sun Apr  6 08:00:33 2025.
 Gaussian 16:  ES64L-G16RevC.01  3-Jul-2019

 ----------------------------------------------------------------------
 #t hf aug-cc-pvdz iop(5/13=1,5/36=2,99/5=2) pseudo=read geom=check gue
 ss=(read,tcheck) scf=(maxcycle=1)
 ----------------------------------------------------------------------
 -----
 title
 -----
 Structure from the checkpoint file:  "1-ethoxyethoxyethane.chk"
 Charge =  0 Multiplicity = 1

                         Standard orientation:
 ---------------------------------------------------------------------
 Center     Atomic      Atomic             Coordinates (Angstroms)
 Number     Number       Type             X           Y           Z
 ---------------------------------------------------------------------
      1          6           0        2.945747   -1.326432   -0.272137
      2          6           0       -3.205462   -0.965279   -0.174465
      3          6           0        0.235796    2.251178   -0.163046
      4          6           0        2.118990   -0.257690    0.413385
      5          6           0       -1.783395   -0.782436    0.311995
      6          6           0       -0.023554    0.819576    0.264379
      7          8           0        0.911871   -0.083840   -0.314715
      8          8           0       -1.302450    0.472628   -0.168283
      9          1           0        3.881046   -1.483282    0.266831
     10          1           0        2.403192   -2.271186   -0.304900
     11          1           0        3.182130   -1.032240   -1.294481
     12          1           0       -3.603189   -1.917908    0.177985
     13          1           0       -3.848536   -0.165468    0.192996
     14          1           0       -3.241225   -0.960448   -1.263778
     15          1           0        0.138687    2.326594   -1.245260
     16          1           0        1.239390    2.563008    0.124892
     17          1           0       -0.483643    2.921348    0.306118
     18          1           0        2.680904    0.683225    0.457447
     19          1           0        1.890021   -0.550298    1.446690
     20          1           0       -1.139904   -1.586590   -0.051523
     21          1           0       -1.743586   -0.787738    1.409110
     22          1           0        0.040618    0.717179    1.361201
 ---------------------------------------------------------------------

 SCF Done:  E(RHF) =  -386.948716552     A.U. after    2 cycles

 The electronic state is 1-A.
 Alpha  occ. eigenvalues --  -21.03612 -21.03329 -11.47082 -11.43435 -11.42537
 Alpha  occ. eigenvalues --  -11.36663 -11.36341 -11.35717  -1.81247  -1.68488
 Alpha  occ. eigenvalues --   -1.15309  -1.10792  -1.06625  -0.89702  -0.87028
 Alpha  occ. eigenvalues --   -0.83440  -0.66876  -0.64835  -0.63998  -0.61572
 Alpha  occ. eigenvalues --   -0.59280  -0.55353  -0.54318  -0.52855  -0.51305
 Alpha  occ. eigenvalues --   -0.50524  -0.48710  -0.48016  -0.44757  -0.38325
 Alpha  occ. eigenvalues --   -0.37149  -0.30349  -0.29181
 Alpha virt. eigenvalues --    0.04116   0.04700   0.04951   0.05253   0.05400
 Alpha virt. eigenvalues --    0.05589   0.06204   0.06521   0.06890   0.07593
 Alpha virt. eigenvalues --    0.08402   0.08622   0.09681   0.10471   0.11875

 Mulliken charges:
               1
     1  C   -3.919108
     2  C   -3.995729
     3  C   -4.247386
     4  C   -1.723818
     5  C   -1.925304
     6  C    2.703082
     7  O   -3.492961
     8  O   -3.634402
     9  H    1.093463
    10  H    1.318642
    11  H    1.331907
    12  H    1.083251
    13  H    1.303225
    14  H    1.320317
    15  H    1.398671
    16  H    1.227195
    17  H    1.289972
    18  H    1.673926
    19  H    1.762585
    20  H    1.715057
    21  H    1.586307
    22  H    2.131110
 Sum of Mulliken charges =  -0.00000

 Dipole moment (field-independent basis, Debye):
    X=              0.2758    Y=             -0.3224    Z=              0.4886  Tot=              0.6471

 Test job not archived.
 1\1\GINC-SE042\SP\RHF\Aug-CC-pVDZ\C6H14O2\OHZDE\06-Apr-2025\0\\#t hf a
 ug-cc-pvdz iop(5/13=1,5/36=2,99/5=2) pseudo=read geom=check guess=(rea
 d,tcheck) scf=(maxcycle=1)\\title\\0,1\C,0,2.945747,-1.326432,-0.27213
 7\C,0,-3.205462,-0.965279,-0.174465\C,0,0.235796,2.251178,-0.163046\C,
 0,2.11899,-0.25769,0.413385\C,0,-1.783395,-0.782436,0.311995\C,0,-0.02
 3554,0.819576,0.264379\O,0,0.911871,-0.08384,-0.314715\O,0,-1.30245,0.
 472628,-0.168283\H,0,3.881046,-1.483282,0.266831\H,0,2.403192,-2.27118
 6,-0.3049\H,0,3.18213,-1.03224,-1.294481\H,0,-3.603189,-1.917908,0.177

 Normal termination of Gaussian 16 at Sun Apr  6 08:00:43 2025.
