 Gaussian 16, Revision C.01,

 ----------------------------------------------------------------------
 #t hf aug-cc-pvdz symm=none int=(grid=ultrafine) guess=(read,tcheck) s
 table=(opt,rrhf)
 ----------------------------------------------------------------------
 -----
 title
 -----
 Symbolic Z-matrix:
 Charge =  0 Multiplicity = 1

 SCF Done:  E(RHF) =  -346.064330657     A.U. after   12 cycles

 1\1\GINC-SE023\Stability\RHF\Aug-CC-pVDZ\C5H12O2\OHZDE\06-Apr-2025\0\\
 #t hf aug-cc-pvdz symm=none int=(grid=ultrafine) guess=(read,tcheck) s
 table=(opt,rrhf)\\title\\0,1\C,0,3.132473,0.770972,0.253731\C,0,-3.489
 777,0.102524,0.120232\C,0,2.46306,-0.488339,-0.280821\C,0,-1.182999,-0
 .374018,0.214782\C,0,0.153763,0.132123,-0.293733\O,0,-2.191518,0.48364
 5,-0.283274\O,0,1.15856,-0.710687,0.238596\H,0,4.155816,0.833282,-0.12
 0982\H,0,2.611059,1.675762,-0.058785\H,0,3.16746,0.751844,1.34334\H,0,
 -4.186566,0.819251,-0.309463\H,0,-3.589678,0.116485,1.212175\H,0,-3.74

 Normal termination of Gaussian 16 at Sun Apr  6 08:00:00 2025.
 Gaussian 16:  ES64L-G16RevC.01  3-Jul-2019

 ----------------------------------------------------------------------
 #t hf aug-cc-pvdz iop(5/13=1,5/36=2,99/5=2) pseudo=read geom=check gue
 ss=(read,tcheck) scf=(maxcycle=1)
 ----------------------------------------------------------------------
 -----
 title
 -----
 Structure from the checkpoint file:  "1-ethoxy-2-methoxyethane.chk"
 Charge =  0 Multiplicity = 1

                         Standard orientation:
 ---------------------------------------------------------------------
 Center     Atomic      Atomic             Coordinates (Angstroms)
 Number     Number       Type             X           Y           Z
 ---------------------------------------------------------------------
      1          6           0        3.132473    0.770972    0.253731
      2          6           0       -3.489777    0.102524    0.120232
      3          6           0        2.463060   -0.488339   -0.280821
      4          6           0       -1.182999   -0.374018    0.214782
      5          6           0        0.153763    0.132123   -0.293733
      6          8           0       -2.191518    0.483645   -0.283274
      7          8           0        1.158560   -0.710687    0.238596
      8          1           0        4.155816    0.833282   -0.120982
      9          1           0        2.611059    1.675762   -0.058785
     10          1           0        3.167460    0.751844    1.343340
     11          1           0       -4.186566    0.819251   -0.309463
     12          1           0       -3.589678    0.116485    1.212175
     13          1           0       -3.741954   -0.902048   -0.239929
     14          1           0        3.038609   -1.367952    0.008601
     15          1           0        2.422491   -0.463753   -1.377404
     16          1           0       -1.184178   -0.379223    1.312052
     17          1           0       -1.345961   -1.404224   -0.125418
     18          1           0        0.289010    1.172957    0.018531
     19          1           0        0.168426    0.104380   -1.390449
 ---------------------------------------------------------------------

 SCF Done:  E(RHF) =  -347.685208347     A.U. after    2 cycles

 The electronic state is 1-A.
 Alpha  occ. eigenvalues --  -21.04085 -21.03621 -11.45191 -11.42714 -11.39947
 Alpha  occ. eigenvalues --  -11.38359 -11.36133  -1.76814  -1.72562  -1.13706
 Alpha  occ. eigenvalues --   -1.07307  -0.96011  -0.87828  -0.84443  -0.67521
 Alpha  occ. eigenvalues --   -0.65273  -0.62495  -0.60270  -0.59242  -0.57146
 Alpha  occ. eigenvalues --   -0.54103  -0.52267  -0.51317  -0.49517  -0.43864
 Alpha  occ. eigenvalues --   -0.38855  -0.37043  -0.30379  -0.28590
 Alpha virt. eigenvalues --    0.04066   0.04891   0.05276   0.05507   0.06026
 Alpha virt. eigenvalues --    0.06298   0.06626   0.06782   0.07553   0.07993
 Alpha virt. eigenvalues --    0.08360   0.08694   0.11871   0.12712   0.13864

 Mulliken charges:
               1
     1  C   -3.620043
     2  C   -2.938888
     3  C   -1.899643
     4  C   -1.384873
     5  C   -1.257246
     6  O   -3.056114
     7  O   -3.264526
     8  H    1.191305
     9  H    1.335423
    10  H    1.367362
    11  H    1.301707
    12  H    1.335540
    13  H    1.346518
    14  H    1.394345
    15  H    1.626708
    16  H    1.610124
    17  H    1.594206
    18  H    1.653905
    19  H    1.664191
 Sum of Mulliken charges =  -0.00000

 Dipole moment (field-independent basis, Debye):
    X=              0.0858    Y=             -0.0704    Z=             -0.0940  Tot=              0.1455

 Test job not archived.
 1\1\GINC-SE023\SP\RHF\Aug-CC-pVDZ\C5H12O2\OHZDE\06-Apr-2025\0\\#t hf a
 ug-cc-pvdz iop(5/13=1,5/36=2,99/5=2) pseudo=read geom=check guess=(rea
 d,tcheck) scf=(maxcycle=1)\\title\\0,1\C,0,3.132473,0.770972,0.253731\
 C,0,-3.489777,0.102524,0.120232\C,0,2.46306,-0.488339,-0.280821\C,0,-1
 .182999,-0.374018,0.214782\C,0,0.153763,0.132123,-0.293733\O,0,-2.1915
 18,0.483645,-0.283274\O,0,1.15856,-0.710687,0.238596\H,0,4.155816,0.83
 3282,-0.120982\H,0,2.611059,1.675762,-0.058785\H,0,3.16746,0.751844,1.
 34334\H,0,-4.186566,0.819251,-0.309463\H,0,-3.589678,0.116485,1.212175

 Normal termination of Gaussian 16 at Sun Apr  6 08:00:07 2025.
