 Gaussian 16, Revision C.01,

 ----------------------------------------------------------------------
 #t hf aug-cc-pvdz symm=none int=(grid=ultrafine) guess=(read,tcheck) s
 table=(opt,rrhf)
 ----------------------------------------------------------------------
 -----
 title
 -----
 Symbolic Z-matrix:
 Charge =  0 Multiplicity = 1

 SCF Done:  E(RHF) =  -302.921734546     A.U. after   14 cycles
 Normal termination of Gaussian 16 at Sun Apr  6 07:59:49 2025.
 Gaussian 16:  ES64L-G16RevC.01  3-Jul-2019

 ----------------------------------------------------------------------
 #t hf aug-cc-pvdz iop(5/13=1,5/36=2,99/5=2) pseudo=read geom=check gue
 ss=(read,tcheck) scf=(maxcycle=1)
 ----------------------------------------------------------------------
 -----
 title
 -----
 Structure from the checkpoint file:  "1-ethyl-1H-imidazole.chk"
 Charge =  0 Multiplicity = 1

                         Standard orientation:
 ---------------------------------------------------------------------
 Center     Atomic      Atomic             Coordinates (Angstroms)
 Number     Number       Type             X           Y           Z
 ---------------------------------------------------------------------
      1          7           0        1.951229   -0.653592    0.274179
      2          6           0       -1.544566   -0.217982   -0.577174
      3          6           0        0.599777    1.081360   -0.202261
      4          1           0        0.156334    2.041637   -0.396652
      5          6           0        1.871547    0.709910    0.140798
      6          1           0        2.728958    1.343392    0.292022
      7          1           0        0.434363   -2.128670    0.020356
      8          6           0        0.743448   -1.095776    0.014974
      9          7           0       -0.123330   -0.087560   -0.284887
     10          1           0       -1.720891   -1.257639   -0.851818
     11          1           0       -1.770847    0.387341   -1.456142
     12          6           0       -2.439557    0.181938    0.592297
     13          1           0       -2.233726   -0.434183    1.467321
     14          1           0       -3.488111    0.054549    0.320622
     15          1           0       -2.285276    1.224935    0.867450
 ---------------------------------------------------------------------

 SCF Done:  E(RHF) =  -304.375049370     A.U. after    2 cycles

 The electronic state is 1-A.
 Alpha  occ. eigenvalues --  -15.77546 -15.70821 -11.45147 -11.43889 -11.41572
 Alpha  occ. eigenvalues --  -11.38329 -11.36614  -1.56971  -1.31226  -1.13160
 Alpha  occ. eigenvalues --   -1.07125  -0.93439  -0.81241  -0.79331  -0.72047
 Alpha  occ. eigenvalues --   -0.64967  -0.61958  -0.57251  -0.56101  -0.53683
 Alpha  occ. eigenvalues --   -0.51522  -0.50802  -0.50071  -0.37363  -0.34436
 Alpha  occ. eigenvalues --   -0.30016
 Alpha virt. eigenvalues --    0.03192   0.04964   0.05303   0.05522   0.05904
 Alpha virt. eigenvalues --    0.06190   0.06963   0.07345   0.10485   0.10955
 Alpha virt. eigenvalues --    0.12280   0.12494   0.13268   0.13927   0.14599

 Mulliken charges:
               1
     1  N   -3.466965
     2  C   -2.797768
     3  C   -0.319218
     4  H    1.288010
     5  C    0.347498
     6  H    1.256636
     7  H    1.667254
     8  C    1.160958
     9  N   -2.949075
    10  H    1.673162
    11  H    1.595816
    12  C   -3.365978
    13  H    1.394932
    14  H    1.123338
    15  H    1.391400
 Sum of Mulliken charges =   0.00000

 Dipole moment (field-independent basis, Debye):
    X=             -3.8347    Y=              0.6537    Z=             -0.8886  Tot=              3.9902

 Test job not archived.
 1\1\GINC-SE101\SP\RHF\Aug-CC-pVDZ\C5H8N2\OHZDE\06-Apr-2025\0\\#t hf au
 g-cc-pvdz iop(5/13=1,5/36=2,99/5=2) pseudo=read geom=check guess=(read
 ,tcheck) scf=(maxcycle=1)\\title\\0,1\N,0,1.951229,-0.653592,0.274179\
 C,0,-1.544566,-0.217982,-0.577174\C,0,0.599777,1.08136,-0.202261\H,0,0
 .156334,2.041637,-0.396652\C,0,1.871547,0.70991,0.140798\H,0,2.728958,
 1.343392,0.292022\H,0,0.434363,-2.12867,0.020356\C,0,0.743448,-1.09577
 6,0.014974\N,0,-0.12333,-0.08756,-0.284887\H,0,-1.720891,-1.257639,-0.
 851818\H,0,-1.770847,0.387341,-1.456142\C,0,-2.439557,0.181938,0.59229

 Normal termination of Gaussian 16 at Sun Apr  6 07:59:55 2025.
