 Gaussian 16, Revision C.01,

 ----------------------------------------------------------------------
 #t hf aug-cc-pvdz symm=none int=(grid=ultrafine) guess=(read,tcheck) s
 table=(opt,rrhf)
 ----------------------------------------------------------------------
 -----
 title
 -----
 Symbolic Z-matrix:
 Charge =  0 Multiplicity = 1

 SCF Done:  E(RHF) =  -347.845153932     A.U. after   15 cycles
 Normal termination of Gaussian 16 at Sun Apr  6 08:00:58 2025.
 Gaussian 16:  ES64L-G16RevC.01  3-Jul-2019

 ----------------------------------------------------------------------
 #t hf aug-cc-pvdz iop(5/13=1,5/36=2,99/5=2) pseudo=read geom=check gue
 ss=(read,tcheck) scf=(maxcycle=1)
 ----------------------------------------------------------------------
 -----
 title
 -----
 Structure from the checkpoint file:  "1-ethyl-2-methylbenzene.chk"
 Charge =  0 Multiplicity = 1

                         Standard orientation:
 ---------------------------------------------------------------------
 Center     Atomic      Atomic             Coordinates (Angstroms)
 Number     Number       Type             X           Y           Z
 ---------------------------------------------------------------------
      1          6           0        2.405659   -0.121060    0.246773
      2          6           0        1.838083   -1.367505    0.021924
      3          6           0        1.605620    1.013405    0.195074
      4          6           0        0.478870   -1.458493   -0.249138
      5          6           0        0.238294    0.935373   -0.073405
      6          6           0       -0.337705   -0.327932   -0.297810
      7          6           0       -0.578927    2.201942   -0.131830
      8          6           0       -2.647406   -0.664207    0.717826
      9          6           0       -1.815959   -0.498821   -0.563287
     10          1           0        3.462852   -0.029351    0.457059
     11          1           0        2.446720   -2.261366    0.052064
     12          1           0        2.051065    1.985879    0.364968
     13          1           0        0.037240   -2.430840   -0.432374
     14          1           0       -1.016171    2.353512   -1.121381
     15          1           0       -1.404257    2.191747    0.581999
     16          1           0        0.039632    3.069984    0.091030
     17          1           0       -2.324469   -1.542269    1.278281
     18          1           0       -3.705954   -0.783853    0.481579
     19          1           0       -2.545656    0.200048    1.374935
     20          1           0       -2.198729    0.349580   -1.132566
     21          1           0       -1.961452   -1.379284   -1.192367
 ---------------------------------------------------------------------

 SCF Done:  E(RHF) =  -349.586676388     A.U. after    2 cycles

 The electronic state is 1-A.
 Alpha  occ. eigenvalues --  -11.50827 -11.44736 -11.42543 -11.41123 -11.40228
 Alpha  occ. eigenvalues --  -11.39836 -11.38712 -11.36405 -11.34819  -1.36023
 Alpha  occ. eigenvalues --   -1.17905  -1.13624  -1.05638  -0.98949  -0.90479
 Alpha  occ. eigenvalues --   -0.84218  -0.80502  -0.68303  -0.63563  -0.63340
 Alpha  occ. eigenvalues --   -0.58909  -0.57887  -0.56625  -0.54848  -0.52242
 Alpha  occ. eigenvalues --   -0.50644  -0.49968  -0.47787  -0.46427  -0.42081
 Alpha  occ. eigenvalues --   -0.40591  -0.31701  -0.30573
 Alpha virt. eigenvalues --    0.03645   0.04537   0.05280   0.05755   0.05893
 Alpha virt. eigenvalues --    0.06132   0.06376   0.06743   0.07090   0.07728
 Alpha virt. eigenvalues --    0.08632   0.10206   0.10657   0.12156   0.12216

 Mulliken charges:
               1
     1  C   -2.915755
     2  C   -2.753020
     3  C   -2.282470
     4  C   -2.708434
     5  C    3.389585
     6  C    4.873235
     7  C   -5.991004
     8  C   -4.099406
     9  C   -3.821424
    10  H    1.535942
    11  H    1.547069
    12  H    1.784369
    13  H    1.801857
    14  H    1.003877
    15  H    0.993427
    16  H    1.319600
    17  H    1.344685
    18  H    1.180307
    19  H    1.485191
    20  H    1.185430
    21  H    1.126938
 Sum of Mulliken charges =   0.00000

 Dipole moment (field-independent basis, Debye):
    X=             -0.3874    Y=              0.1808    Z=             -0.1040  Tot=              0.4400

 Test job not archived.
 1\1\GINC-SE104\SP\RHF\Aug-CC-pVDZ\C9H12\OHZDE\06-Apr-2025\0\\#t hf aug
 -cc-pvdz iop(5/13=1,5/36=2,99/5=2) pseudo=read geom=check guess=(read,
 tcheck) scf=(maxcycle=1)\\title\\0,1\C,0,2.405659,-0.12106,0.246773\C,
 0,1.838083,-1.367505,0.021924\C,0,1.60562,1.013405,0.195074\C,0,0.4788
 7,-1.458493,-0.249138\C,0,0.238294,0.935373,-0.073405\C,0,-0.337705,-0
 .327932,-0.29781\C,0,-0.578927,2.201942,-0.13183\C,0,-2.647406,-0.6642
 07,0.717826\C,0,-1.815959,-0.498821,-0.563287\H,0,3.462852,-0.02935,0.
 457059\H,0,2.44672,-2.261366,0.052064\H,0,2.051065,1.985879,0.364968\H

 Normal termination of Gaussian 16 at Sun Apr  6 08:01:22 2025.
