 Gaussian 16, Revision C.01,

 ----------------------------------------------------------------------
 #t hf aug-cc-pvdz symm=none int=(grid=ultrafine) guess=(read,tcheck) s
 table=(opt,rrhf)
 ----------------------------------------------------------------------
 -----
 title
 -----
 Symbolic Z-matrix:
 Charge =  0 Multiplicity = 1

 SCF Done:  E(RHF) =  -347.847540590     A.U. after   15 cycles
 Normal termination of Gaussian 16 at Sun Apr  6 08:00:51 2025.
 Gaussian 16:  ES64L-G16RevC.01  3-Jul-2019

 ----------------------------------------------------------------------
 #t hf aug-cc-pvdz iop(5/13=1,5/36=2,99/5=2) pseudo=read geom=check gue
 ss=(read,tcheck) scf=(maxcycle=1)
 ----------------------------------------------------------------------
 -----
 title
 -----
 Structure from the checkpoint file:  "1-ethyl-4-methylbenzene.chk"
 Charge =  0 Multiplicity = 1

                         Standard orientation:
 ---------------------------------------------------------------------
 Center     Atomic      Atomic             Coordinates (Angstroms)
 Number     Number       Type             X           Y           Z
 ---------------------------------------------------------------------
      1          6           0        1.146241    1.193842   -0.045431
      2          6           0        1.145772   -1.192583   -0.047381
      3          6           0       -0.230006    1.193850   -0.240696
      4          6           0       -0.229569   -1.192065   -0.242263
      5          6           0        1.860578    0.000971    0.058338
      6          6           0       -0.945645    0.001362   -0.341139
      7          6           0        3.348664   -0.001567    0.293250
      8          6           0       -3.212526   -0.002676    0.806592
      9          6           0       -2.443952    0.001078   -0.522341
     10          1           0        1.673704    2.137762    0.019717
     11          1           0        1.673111   -2.136822    0.016045
     12          1           0       -0.753713    2.138576   -0.325696
     13          1           0       -0.753659   -2.136478   -0.328520
     14          1           0        3.832697   -0.827825   -0.228257
     15          1           0        3.806428    0.927029   -0.047139
     16          1           0        3.579777   -0.109506    1.356230
     17          1           0       -2.964444   -0.884319    1.399104
     18          1           0       -4.290020   -0.003069    0.634112
     19          1           0       -2.965687    0.876560    1.403176
     20          1           0       -2.738175    0.877564   -1.103946
     21          1           0       -2.737362   -0.872740   -1.108399
 ---------------------------------------------------------------------

 SCF Done:  E(RHF) =  -349.585675790     A.U. after    2 cycles

 The electronic state is 1-A.
 Alpha  occ. eigenvalues --  -11.50468 -11.43119 -11.42685 -11.42232 -11.40566
 Alpha  occ. eigenvalues --  -11.39564 -11.38129 -11.36331 -11.34791  -1.35848
 Alpha  occ. eigenvalues --   -1.19593  -1.09564  -1.08302  -0.98642  -0.88952
 Alpha  occ. eigenvalues --   -0.85986  -0.80339  -0.67003  -0.63689  -0.62989
 Alpha  occ. eigenvalues --   -0.58030  -0.57906  -0.56873  -0.56621  -0.51777
 Alpha  occ. eigenvalues --   -0.51361  -0.48763  -0.46894  -0.45959  -0.42421
 Alpha  occ. eigenvalues --   -0.40951  -0.32253  -0.30103
 Alpha virt. eigenvalues --    0.03641   0.04626   0.05366   0.05453   0.05529
 Alpha virt. eigenvalues --    0.06232   0.06704   0.06779   0.07094   0.07676
 Alpha virt. eigenvalues --    0.07770   0.09428   0.10440   0.11677   0.12131

 Mulliken charges:
               1
     1  C   -1.644163
     2  C   -1.837890
     3  C   -2.935511
     4  C   -2.895477
     5  C    2.254430
     6  C    3.650484
     7  C   -5.828231
     8  C   -3.894413
     9  C   -4.020765
    10  H    1.856668
    11  H    1.853597
    12  H    1.829452
    13  H    1.830248
    14  H    1.115599
    15  H    1.191911
    16  H    1.122020
    17  H    1.396657
    18  H    1.157256
    19  H    1.395764
    20  H    1.202646
    21  H    1.199720
 Sum of Mulliken charges =  -0.00000

 Dipole moment (field-independent basis, Debye):
    X=              0.0434    Y=             -0.0123    Z=             -0.0096  Tot=              0.0461

 Test job not archived.
 1\1\GINC-SE150\SP\RHF\Aug-CC-pVDZ\C9H12\OHZDE\06-Apr-2025\0\\#t hf aug
 -cc-pvdz iop(5/13=1,5/36=2,99/5=2) pseudo=read geom=check guess=(read,
 tcheck) scf=(maxcycle=1)\\title\\0,1\C,0,1.146241,1.193842,-0.045431\C
 ,0,1.145772,-1.192583,-0.047381\C,0,-0.230006,1.19385,-0.240696\C,0,-0
 .229569,-1.192065,-0.242263\C,0,1.860578,0.000971,0.058338\C,0,-0.9456
 45,0.001362,-0.341139\C,0,3.348664,-0.001567,0.29325\C,0,-3.212526,-0.
 002676,0.806592\C,0,-2.443952,0.001078,-0.522341\H,0,1.673704,2.137762
 ,0.019717\H,0,1.673111,-2.136822,0.016045\H,0,-0.753713,2.138576,-0.32

 Normal termination of Gaussian 16 at Sun Apr  6 08:01:21 2025.
