 Gaussian 16, Revision C.01,

 ----------------------------------------------------------------------
 #t hf aug-cc-pvdz symm=none int=(grid=ultrafine) guess=(read,tcheck) s
 table=(opt,rrhf)
 ----------------------------------------------------------------------
 -----
 title
 -----
 Symbolic Z-matrix:
 Charge =  0 Multiplicity = 1

 SCF Done:  E(RHF) =  -416.512722794     A.U. after   15 cycles
 Normal termination of Gaussian 16 at Sun Apr  6 08:00:18 2025.
 Gaussian 16:  ES64L-G16RevC.01  3-Jul-2019

 ----------------------------------------------------------------------
 #t hf aug-cc-pvdz iop(5/13=1,5/36=2,99/5=2) pseudo=read geom=check gue
 ss=(read,tcheck) scf=(maxcycle=1)
 ----------------------------------------------------------------------
 -----
 title
 -----
 Structure from the checkpoint file:  "1-H-1-2--bipyrrole.chk"
 Charge =  0 Multiplicity = 1

                         Standard orientation:
 ---------------------------------------------------------------------
 Center     Atomic      Atomic             Coordinates (Angstroms)
 Number     Number       Type             X           Y           Z
 ---------------------------------------------------------------------
      1          6           0        2.841297    0.623378   -0.306532
      2          6           0        2.814080   -0.667434    0.287849
      3          6           0       -2.861574    0.594094    0.254885
      4          6           0       -1.540425    1.066662    0.485810
      5          6           0       -2.766925   -0.654559   -0.305131
      6          6           0        1.541870    1.032508   -0.460978
      7          6           0        1.498859   -1.002720    0.481775
      8          6           0       -0.682616    0.087435    0.048268
      9          7           0       -1.432507   -0.956411   -0.430976
     10          7           0        0.716428    0.038300    0.020394
     11          1           0        3.714040    1.183550   -0.595045
     12          1           0        3.662216   -1.274837    0.553684
     13          1           0       -3.776525    1.109760    0.489826
     14          1           0       -1.248499    1.997823    0.938908
     15          1           0       -3.525636   -1.349731   -0.616531
     16          1           0        1.122489    1.926638   -0.885807
     17          1           0        1.048662   -1.865483    0.939940
     18          1           0       -1.051588   -1.777123   -0.866575
 ---------------------------------------------------------------------

 SCF Done:  E(RHF) =  -418.488724465     A.U. after    2 cycles

 The electronic state is 1-A.
 Alpha  occ. eigenvalues --  -15.79202 -15.78286 -11.49250 -11.46562 -11.43856
 Alpha  occ. eigenvalues --  -11.42371 -11.40745 -11.40242 -11.35939 -11.35193
 Alpha  occ. eigenvalues --   -1.56613  -1.46674  -1.17559  -1.14303  -1.04804
 Alpha  occ. eigenvalues --   -1.01945  -0.84890  -0.81875  -0.79691  -0.78178
 Alpha  occ. eigenvalues --   -0.75883  -0.65238  -0.60798  -0.58607  -0.56465
 Alpha  occ. eigenvalues --   -0.55456  -0.54099  -0.52261  -0.50740  -0.49039
 Alpha  occ. eigenvalues --   -0.48263  -0.34948  -0.33452  -0.29319  -0.26953
 Alpha virt. eigenvalues --    0.03443   0.05004   0.05506   0.05673   0.05905
 Alpha virt. eigenvalues --    0.05985   0.06436   0.07287   0.09866   0.10257
 Alpha virt. eigenvalues --    0.11721   0.12305   0.13239   0.13636   0.13831

 Mulliken charges:
               1
     1  C   -0.916158
     2  C   -1.192671
     3  C   -0.461123
     4  C   -2.346549
     5  C   -0.303992
     6  C   -1.511467
     7  C   -1.242455
     8  C    5.316191
     9  N   -3.786623
    10  N   -4.209409
    11  H    1.326009
    12  H    1.330203
    13  H    1.384697
    14  H    1.485349
    15  H    1.339440
    16  H    1.521475
    17  H    1.433092
    18  H    0.833991
 Sum of Mulliken charges =   0.00000

 Dipole moment (field-independent basis, Debye):
    X=             -0.9653    Y=             -1.3619    Z=             -0.6478  Tot=              1.7906

 Test job not archived.
 1\1\GINC-SE165\SP\RHF\Aug-CC-pVDZ\C8H8N2\OHZDE\06-Apr-2025\0\\#t hf au
 g-cc-pvdz iop(5/13=1,5/36=2,99/5=2) pseudo=read geom=check guess=(read
 ,tcheck) scf=(maxcycle=1)\\title\\0,1\C,0,2.841297,0.623378,-0.306532\
 C,0,2.81408,-0.667434,0.287849\C,0,-2.861574,0.594094,0.254885\C,0,-1.
 540425,1.066662,0.48581\C,0,-2.766925,-0.654559,-0.305131\C,0,1.54187,
 1.032508,-0.460978\C,0,1.498859,-1.00272,0.481775\C,0,-0.682616,0.0874
 35,0.048268\N,0,-1.432507,-0.956411,-0.430976\N,0,0.716428,0.0383,0.02
 0394\H,0,3.71404,1.18355,-0.595045\H,0,3.662216,-1.274837,0.553684\H,0

 Normal termination of Gaussian 16 at Sun Apr  6 08:00:42 2025.
