 Gaussian 16, Revision C.01,

 ----------------------------------------------------------------------
 #t hf aug-cc-pvdz symm=none int=(grid=ultrafine) guess=(read,tcheck) s
 table=(opt,rrhf)
 ----------------------------------------------------------------------
 -----
 title
 -----
 Symbolic Z-matrix:
 Charge =  0 Multiplicity = 1

 SCF Done:  E(RHF) =  -329.466427186     A.U. after   12 cycles

 1\1\GINC-SE085\Stability\RHF\Aug-CC-pVDZ\C7H17N1\OHZDE\06-Apr-2025\0\\
 #t hf aug-cc-pvdz symm=none int=(grid=ultrafine) guess=(read,tcheck) s
 table=(opt,rrhf)\\title\\0,1\C,0,2.858294,3.448276,0.\C,0,1.443396,2.8
 72081,0.\C,0,1.412286,1.343354,0.\C,0,0.,0.757661,0.\C,0,-0.030717,-0.
 771281,0.\C,0,-1.443246,-1.357334,0.\C,0,-1.465482,-2.889128,0.\N,0,-2
 .786976,-3.51851,0.\H,0,3.416468,3.123539,0.880618\H,0,3.416468,3.1235
 39,-0.880618\H,0,2.845446,4.539098,0.\H,0,0.899109,3.242456,0.874013\H
 ,0,0.899109,3.242456,-0.874013\H,0,1.957625,0.972748,0.874556\H,0,1.95

 Normal termination of Gaussian 16 at Sun Apr  6 08:00:51 2025.
 Gaussian 16:  ES64L-G16RevC.01  3-Jul-2019

 ----------------------------------------------------------------------
 #t hf aug-cc-pvdz iop(5/13=1,5/36=2,99/5=2) pseudo=read geom=check gue
 ss=(read,tcheck) scf=(maxcycle=1)
 ----------------------------------------------------------------------
 -----
 title
 -----
 Structure from the checkpoint file:  "1-heptanamine.chk"
 Charge =  0 Multiplicity = 1

                         Standard orientation:
 ---------------------------------------------------------------------
 Center     Atomic      Atomic             Coordinates (Angstroms)
 Number     Number       Type             X           Y           Z
 ---------------------------------------------------------------------
      1          6           0        2.858294    3.448276    0.000000
      2          6           0        1.443396    2.872081    0.000000
      3          6           0        1.412286    1.343354    0.000000
      4          6           0        0.000000    0.757661    0.000000
      5          6           0       -0.030717   -0.771281    0.000000
      6          6           0       -1.443246   -1.357334    0.000000
      7          6           0       -1.465482   -2.889128    0.000000
      8          7           0       -2.786976   -3.518510    0.000000
      9          1           0        3.416468    3.123539    0.880618
     10          1           0        3.416468    3.123539   -0.880618
     11          1           0        2.845446    4.539098    0.000000
     12          1           0        0.899109    3.242456    0.874013
     13          1           0        0.899109    3.242456   -0.874013
     14          1           0        1.957625    0.972748    0.874556
     15          1           0        1.957625    0.972748   -0.874556
     16          1           0       -0.544592    1.128853    0.874555
     17          1           0       -0.544592    1.128853   -0.874555
     18          1           0        0.514279   -1.142144   -0.874488
     19          1           0        0.514279   -1.142144    0.874488
     20          1           0       -1.990914   -0.993618    0.876239
     21          1           0       -1.990914   -0.993618   -0.876239
     22          1           0       -0.922544   -3.259922   -0.873380
     23          1           0       -0.922544   -3.259922    0.873380
     24          1           0       -3.321330   -3.237562   -0.813570
     25          1           0       -3.321330   -3.237562    0.813570
 ---------------------------------------------------------------------

 SCF Done:  E(RHF) =  -331.176830158     A.U. after    2 cycles

 The electronic state is 1-A'.
 Alpha  occ. eigenvalues --  -15.72244 -11.42619 -11.42115 -11.41001 -11.39208
 Alpha  occ. eigenvalues --  -11.36937 -11.35478 -11.33605  -1.34085  -1.25930
 Alpha  occ. eigenvalues --   -1.15916  -1.05555  -0.96024  -0.87831  -0.82950
 Alpha  occ. eigenvalues --   -0.81915  -0.68113  -0.65320  -0.61023  -0.58948
 Alpha  occ. eigenvalues --   -0.58011  -0.56124  -0.55097  -0.51855  -0.51306
 Alpha  occ. eigenvalues --   -0.49054  -0.47413  -0.45430  -0.45381  -0.44845
 Alpha  occ. eigenvalues --   -0.44230  -0.40657  -0.32139
 Alpha virt. eigenvalues --    0.04228   0.04712   0.04748   0.05399   0.05709
 Alpha virt. eigenvalues --    0.05819   0.05903   0.06406   0.07098   0.07273
 Alpha virt. eigenvalues --    0.07589   0.07667   0.09098   0.10034   0.10191

 Mulliken charges:
               1
     1  C   -4.658411
     2  C   -3.412418
     3  C   -2.400671
     4  C   -1.697098
     5  C   -2.835556
     6  C   -2.721643
     7  C   -2.873729
     8  N   -2.639670
     9  H    1.347013
    10  H    1.347013
    11  H    1.079411
    12  H    1.473269
    13  H    1.473269
    14  H    1.578099
    15  H    1.578099
    16  H    1.585525
    17  H    1.585525
    18  H    1.554226
    19  H    1.554226
    20  H    1.504776
    21  H    1.504776
    22  H    1.433539
    23  H    1.433539
    24  H    0.603447
    25  H    0.603447
 Sum of Mulliken charges =  -0.00000

 Dipole moment (field-independent basis, Debye):
    X=             -0.1599    Y=              1.1009    Z=              0.0000  Tot=              1.1125

 Test job not archived.
 1\1\GINC-SE085\SP\RHF\Aug-CC-pVDZ\C7H17N1\OHZDE\06-Apr-2025\0\\#t hf a
 ug-cc-pvdz iop(5/13=1,5/36=2,99/5=2) pseudo=read geom=check guess=(rea
 d,tcheck) scf=(maxcycle=1)\\title\\0,1\C,0,2.858294,3.448276,0.\C,0,1.
 443396,2.872081,0.\C,0,1.412286,1.343354,0.\C,0,0.,0.757661,0.\C,0,-0.
 030717,-0.771281,0.\C,0,-1.443246,-1.357334,0.\C,0,-1.465482,-2.889128
 ,0.\N,0,-2.786976,-3.51851,0.\H,0,3.416468,3.123539,0.880618\H,0,3.416
 468,3.123539,-0.880618\H,0,2.845446,4.539098,0.\H,0,0.899109,3.242456,
 0.874013\H,0,0.899109,3.242456,-0.874013\H,0,1.957625,0.972748,0.87455

 Normal termination of Gaussian 16 at Sun Apr  6 08:01:18 2025.
