 Gaussian 16, Revision C.01,

 ----------------------------------------------------------------------
 #t hf aug-cc-pvdz symm=none int=(grid=ultrafine) guess=(read,tcheck) s
 table=(opt,rrhf)
 ----------------------------------------------------------------------
 -----
 title
 -----
 Symbolic Z-matrix:
 Charge =  0 Multiplicity = 1

 SCF Done:  E(RHF) =  -273.241960795     A.U. after   13 cycles
 Normal termination of Gaussian 16 at Sun Apr  6 08:00:12 2025.
 Gaussian 16:  ES64L-G16RevC.01  3-Jul-2019

 ----------------------------------------------------------------------
 #t hf aug-cc-pvdz iop(5/13=1,5/36=2,99/5=2) pseudo=read geom=check gue
 ss=(read,tcheck) scf=(maxcycle=1)
 ----------------------------------------------------------------------
 -----
 title
 -----
 Structure from the checkpoint file:  "1-heptene.chk"
 Charge =  0 Multiplicity = 1

                         Standard orientation:
 ---------------------------------------------------------------------
 Center     Atomic      Atomic             Coordinates (Angstroms)
 Number     Number       Type             X           Y           Z
 ---------------------------------------------------------------------
      1          6           0       -3.718906    0.008129   -0.494379
      2          6           0       -2.699428    0.209382    0.331599
      3          6           0        3.687893   -0.207825   -0.120495
      4          6           0       -1.396675   -0.530695    0.303389
      5          6           0        2.358809    0.545407   -0.139559
      6          6           0       -0.186173    0.386338    0.074430
      7          6           0        1.148183   -0.358947    0.093708
      8          1           0       -4.631597    0.584270   -0.421349
      9          1           0       -3.677416   -0.743766   -1.273896
     10          1           0       -2.790163    0.977233    1.096030
     11          1           0        3.716728   -0.976298   -0.895791
     12          1           0        3.846764   -0.703368    0.839542
     13          1           0        4.530129    0.464536   -0.289388
     14          1           0       -1.260508   -1.052629    1.257535
     15          1           0       -1.428811   -1.300599   -0.471834
     16          1           0        2.244636    1.058481   -1.099103
     17          1           0        2.373926    1.330018    0.622906
     18          1           0       -0.176694    1.167721    0.841095
     19          1           0       -0.305655    0.900978   -0.883282
     20          1           0        1.134469   -1.144791   -0.669046
     21          1           0        1.261978   -0.872523    1.054419
 ---------------------------------------------------------------------

 SCF Done:  E(RHF) =  -274.662116431     A.U. after    2 cycles

 The electronic state is 1-A.
 Alpha  occ. eigenvalues --  -11.43346 -11.41762 -11.40254 -11.38528 -11.36925
 Alpha  occ. eigenvalues --  -11.35946 -11.33938  -1.27858  -1.18175  -1.07818
 Alpha  occ. eigenvalues --   -0.97742  -0.87656  -0.82147  -0.78186  -0.66310
 Alpha  occ. eigenvalues --   -0.63052  -0.59564  -0.58369  -0.55754  -0.54239
 Alpha  occ. eigenvalues --   -0.51284  -0.49419  -0.47576  -0.46369  -0.45028
 Alpha  occ. eigenvalues --   -0.44519  -0.40200  -0.33375
 Alpha virt. eigenvalues --    0.04142   0.04779   0.05031   0.05681   0.05748
 Alpha virt. eigenvalues --    0.06057   0.06389   0.06633   0.07119   0.07813
 Alpha virt. eigenvalues --    0.08532   0.08744   0.09263   0.10438   0.11255

 Mulliken charges:
               1
     1  C   -3.453030
     2  C   -0.482784
     3  C   -4.352344
     4  C   -3.812192
     5  C   -3.062462
     6  C   -2.260532
     7  C   -2.347083
     8  H    1.391161
     9  H    1.393147
    10  H    1.436357
    11  H    1.320602
    12  H    1.336303
    13  H    1.076540
    14  H    1.395464
    15  H    1.403447
    16  H    1.434312
    17  H    1.441317
    18  H    1.544931
    19  H    1.543898
    20  H    1.566430
    21  H    1.486519
 Sum of Mulliken charges =   0.00000

 Dipole moment (field-independent basis, Debye):
    X=              0.4049    Y=              0.0510    Z=              0.1311  Tot=              0.4286

 Test job not archived.
 1\1\GINC-SE108\SP\RHF\Aug-CC-pVDZ\C7H14\OHZDE\06-Apr-2025\0\\#t hf aug
 -cc-pvdz iop(5/13=1,5/36=2,99/5=2) pseudo=read geom=check guess=(read,
 tcheck) scf=(maxcycle=1)\\title\\0,1\C,0,-3.718906,0.008129,-0.494379\
 C,0,-2.699428,0.209382,0.331599\C,0,3.687893,-0.207825,-0.120495\C,0,-
 1.396675,-0.530695,0.303389\C,0,2.358809,0.545407,-0.139559\C,0,-0.186
 173,0.386338,0.07443\C,0,1.148183,-0.358947,0.093708\H,0,-4.631597,0.5
 8427,-0.421349\H,0,-3.677416,-0.743766,-1.273896\H,0,-2.790163,0.97723
 3,1.09603\H,0,3.716728,-0.976298,-0.895791\H,0,3.846764,-0.703368,0.83

 Normal termination of Gaussian 16 at Sun Apr  6 08:00:21 2025.
