 Gaussian 16, Revision C.01,

 ----------------------------------------------------------------------
 #t hf aug-cc-pvdz symm=none int=(grid=ultrafine) guess=(read,tcheck) s
 table=(opt,rrhf)
 ----------------------------------------------------------------------
 -----
 title
 -----
 Symbolic Z-matrix:
 Charge =  0 Multiplicity = 1

 SCF Done:  E(RHF) =  -310.260714444     A.U. after   12 cycles

 1\1\GINC-SE046\Stability\RHF\Aug-CC-pVDZ\C6H14O1\OHZDE\06-Apr-2025\0\\
 #t hf aug-cc-pvdz symm=none int=(grid=ultrafine) guess=(read,tcheck) s
 table=(opt,rrhf)\\title\\0,1\C,0,3.803979,-0.333546,-0.007335\C,0,2.52
 3952,0.499934,0.021358\C,0,1.251148,-0.346744,-0.014028\C,0,-0.035517,
 0.479205,0.013309\C,0,-1.306448,-0.371112,-0.02505\C,0,-2.580107,0.464
 187,0.009234\O,0,-3.7705,-0.317449,-0.083397\H,0,4.692588,0.298478,0.0
 20787\H,0,3.852231,-1.011503,0.847324\H,0,3.858181,-0.941543,-0.912719
 \H,0,2.519811,1.190707,-0.827105\H,0,2.515487,1.124471,0.919783\H,0,1.

 Normal termination of Gaussian 16 at Sun Apr  6 08:00:10 2025.
 Gaussian 16:  ES64L-G16RevC.01  3-Jul-2019

 ----------------------------------------------------------------------
 #t hf aug-cc-pvdz iop(5/13=1,5/36=2,99/5=2) pseudo=read geom=check gue
 ss=(read,tcheck) scf=(maxcycle=1)
 ----------------------------------------------------------------------
 -----
 title
 -----
 Structure from the checkpoint file:  "1-hexanol.chk"
 Charge =  0 Multiplicity = 1

                         Standard orientation:
 ---------------------------------------------------------------------
 Center     Atomic      Atomic             Coordinates (Angstroms)
 Number     Number       Type             X           Y           Z
 ---------------------------------------------------------------------
      1          6           0        3.803979   -0.333546   -0.007335
      2          6           0        2.523952    0.499934    0.021358
      3          6           0        1.251148   -0.346744   -0.014028
      4          6           0       -0.035517    0.479205    0.013309
      5          6           0       -1.306448   -0.371112   -0.025050
      6          6           0       -2.580107    0.464187    0.009234
      7          8           0       -3.770500   -0.317449   -0.083397
      8          1           0        4.692588    0.298478    0.020787
      9          1           0        3.852231   -1.011503    0.847324
     10          1           0        3.858181   -0.941543   -0.912719
     11          1           0        2.519811    1.190707   -0.827105
     12          1           0        2.515487    1.124471    0.919783
     13          1           0        1.255049   -1.037842    0.835498
     14          1           0        1.259420   -0.972533   -0.912499
     15          1           0       -0.037623    1.169441   -0.836563
     16          1           0       -0.042076    1.104927    0.911889
     17          1           0       -1.308490   -1.061289    0.826320
     18          1           0       -1.317911   -0.988628   -0.926931
     19          1           0       -2.600079    1.086487    0.912165
     20          1           0       -2.612653    1.137348   -0.848433
     21          1           0       -3.811971   -0.910475    0.672738
 ---------------------------------------------------------------------

 SCF Done:  E(RHF) =  -311.804587763     A.U. after    2 cycles

 The electronic state is 1-A.
 Alpha  occ. eigenvalues --  -21.06185 -11.43424 -11.42150 -11.40763 -11.38112
 Alpha  occ. eigenvalues --  -11.36249 -11.34112  -1.69904  -1.26612  -1.14704
 Alpha  occ. eigenvalues --   -1.02537  -0.91781  -0.84515  -0.82382  -0.67726
 Alpha  occ. eigenvalues --   -0.63968  -0.59838  -0.58573  -0.57076  -0.55198
 Alpha  occ. eigenvalues --   -0.52743  -0.50736  -0.47189  -0.46826  -0.45271
 Alpha  occ. eigenvalues --   -0.44797  -0.44194  -0.37684  -0.30468
 Alpha virt. eigenvalues --    0.04145   0.04699   0.04854   0.05607   0.05787
 Alpha virt. eigenvalues --    0.06138   0.06294   0.06620   0.07294   0.07824
 Alpha virt. eigenvalues --    0.08614   0.09193   0.09282   0.10380   0.11693

 Mulliken charges:
               1
     1  C   -4.466803
     2  C   -3.113175
     3  C   -1.962705
     4  C   -2.334121
     5  C   -3.004675
     6  C   -1.566068
     7  O   -2.700790
     8  H    1.078700
     9  H    1.332994
    10  H    1.336064
    11  H    1.457345
    12  H    1.453906
    13  H    1.546097
    14  H    1.522604
    15  H    1.525674
    16  H    1.521586
    17  H    1.485753
    18  H    1.430260
    19  H    1.318754
    20  H    1.384728
    21  H    0.753873
 Sum of Mulliken charges =  -0.00000

 Dipole moment (field-independent basis, Debye):
    X=              0.7474    Y=              0.0347    Z=              0.4832  Tot=              0.8907

 Test job not archived.
 1\1\GINC-SE046\SP\RHF\Aug-CC-pVDZ\C6H14O1\OHZDE\06-Apr-2025\0\\#t hf a
 ug-cc-pvdz iop(5/13=1,5/36=2,99/5=2) pseudo=read geom=check guess=(rea
 d,tcheck) scf=(maxcycle=1)\\title\\0,1\C,0,3.803979,-0.333546,-0.00733
 5\C,0,2.523952,0.499934,0.021358\C,0,1.251148,-0.346744,-0.014028\C,0,
 -0.035517,0.479205,0.013309\C,0,-1.306448,-0.371112,-0.02505\C,0,-2.58
 0107,0.464187,0.009234\O,0,-3.7705,-0.317449,-0.083397\H,0,4.692588,0.
 298478,0.020787\H,0,3.852231,-1.011503,0.847324\H,0,3.858181,-0.941543
 ,-0.912719\H,0,2.519811,1.190707,-0.827105\H,0,2.515487,1.124471,0.919

 Normal termination of Gaussian 16 at Sun Apr  6 08:00:19 2025.
