 Gaussian 16, Revision C.01,

 ----------------------------------------------------------------------
 #t hf aug-cc-pvdz symm=none int=(grid=ultrafine) guess=(read,tcheck) s
 table=(opt,rrhf)
 ----------------------------------------------------------------------
 -----
 title
 -----
 Symbolic Z-matrix:
 Charge =  0 Multiplicity = 1

 SCF Done:  E(RHF) =  -234.203139322     A.U. after   13 cycles
 Normal termination of Gaussian 16 at Sun Apr  6 07:59:48 2025.
 Gaussian 16:  ES64L-G16RevC.01  3-Jul-2019

 ----------------------------------------------------------------------
 #t hf aug-cc-pvdz iop(5/13=1,5/36=2,99/5=2) pseudo=read geom=check gue
 ss=(read,tcheck) scf=(maxcycle=1)
 ----------------------------------------------------------------------
 -----
 title
 -----
 Structure from the checkpoint file:  "1-hexene.chk"
 Charge =  0 Multiplicity = 1

                         Standard orientation:
 ---------------------------------------------------------------------
 Center     Atomic      Atomic             Coordinates (Angstroms)
 Number     Number       Type             X           Y           Z
 ---------------------------------------------------------------------
      1          6           0        3.083882   -0.164653   -0.435306
      2          6           0        2.038689   -0.211887    0.381630
      3          6           0       -3.012649   -0.378385   -0.169663
      4          6           0        0.775189    0.578680    0.225667
      5          6           0       -1.771338    0.499840   -0.023071
      6          6           0       -0.474243   -0.302353    0.082056
      7          1           0        3.964976   -0.769042   -0.266002
      8          1           0        3.096130    0.483870   -1.303601
      9          1           0        2.074756   -0.880467    1.238236
     10          1           0       -2.952804   -0.999751   -1.065528
     11          1           0       -3.919711    0.223030   -0.243990
     12          1           0       -3.127075   -1.046179    0.686669
     13          1           0        0.861213    1.241498   -0.639318
     14          1           0        0.645805    1.223387    1.102645
     15          1           0       -1.704688    1.181440   -0.876345
     16          1           0       -1.875165    1.133412    0.863013
     17          1           0       -0.537082   -0.981633    0.938389
     18          1           0       -0.363539   -0.937015   -0.802044
 ---------------------------------------------------------------------

 SCF Done:  E(RHF) =  -235.418389853     A.U. after    2 cycles

 The electronic state is 1-A.
 Alpha  occ. eigenvalues --  -11.43185 -11.41152 -11.39400 -11.37462 -11.36280
 Alpha  occ. eigenvalues --  -11.34187  -1.26841  -1.15374  -1.03717  -0.91970
 Alpha  occ. eigenvalues --   -0.82890  -0.78282  -0.65855  -0.62310  -0.58652
 Alpha  occ. eigenvalues --   -0.57608  -0.54046  -0.52188  -0.49751  -0.47342
 Alpha  occ. eigenvalues --   -0.45403  -0.45195  -0.41481  -0.33501
 Alpha virt. eigenvalues --    0.04104   0.04911   0.05336   0.05706   0.05975
 Alpha virt. eigenvalues --    0.06100   0.06405   0.07198   0.07288   0.08518
 Alpha virt. eigenvalues --    0.09042   0.09228   0.10928   0.12115   0.13384

 Mulliken charges:
               1
     1  C   -3.403450
     2  C   -0.350146
     3  C   -4.103978
     4  C   -3.509618
     5  C   -2.910417
     6  C   -2.324116
     7  H    1.389014
     8  H    1.374268
     9  H    1.397783
    10  H    1.276368
    11  H    1.088654
    12  H    1.299299
    13  H    1.428647
    14  H    1.398043
    15  H    1.450517
    16  H    1.391488
    17  H    1.558595
    18  H    1.549049
 Sum of Mulliken charges =   0.00000

 Dipole moment (field-independent basis, Debye):
    X=             -0.4022    Y=              0.1201    Z=              0.1302  Tot=              0.4395

 Test job not archived.
 1\1\GINC-SE046\SP\RHF\Aug-CC-pVDZ\C6H12\OHZDE\06-Apr-2025\0\\#t hf aug
 -cc-pvdz iop(5/13=1,5/36=2,99/5=2) pseudo=read geom=check guess=(read,
 tcheck) scf=(maxcycle=1)\\title\\0,1\C,0,3.083882,-0.164653,-0.435306\
 C,0,2.038689,-0.211887,0.38163\C,0,-3.012649,-0.378385,-0.169663\C,0,0
 .775189,0.57868,0.225667\C,0,-1.771338,0.49984,-0.023071\C,0,-0.474243
 ,-0.302353,0.082056\H,0,3.964976,-0.769042,-0.266002\H,0,3.09613,0.483
 87,-1.303601\H,0,2.074756,-0.880467,1.238236\H,0,-2.952804,-0.999751,-
 1.065528\H,0,-3.919711,0.22303,-0.24399\H,0,-3.127075,-1.046179,0.6866

 Normal termination of Gaussian 16 at Sun Apr  6 07:59:53 2025.
