 Gaussian 16, Revision C.01,

 ----------------------------------------------------------------------
 #t hf aug-cc-pvdz symm=none int=(grid=ultrafine) guess=(read,tcheck) s
 table=(opt,rrhf)
 ----------------------------------------------------------------------
 -----
 title
 -----
 Symbolic Z-matrix:
 Charge =  0 Multiplicity = 1

 SCF Done:  E(RHF) =  -349.299525550     A.U. after   12 cycles

 1\1\GINC-SE107\Stability\RHF\Aug-CC-pVDZ\C7H16O1\OHZDE\06-Apr-2025\0\\
 #t hf aug-cc-pvdz symm=none int=(grid=ultrafine) guess=(read,tcheck) s
 table=(opt,rrhf)\\title\\0,1\C,0,4.455953,0.270233,0.013128\C,0,3.1564
 86,-0.532657,-0.01481\C,0,1.903604,0.343655,0.01125\C,0,0.597863,-0.45
 1106,-0.015679\C,0,-0.653922,0.427229,0.00904\C,0,-1.958782,-0.3703,-0
 .0225\C,0,-3.196862,0.516964,0.008447\O,0,-4.418615,-0.215524,-0.07787
 3\H,0,4.523173,0.941403,-0.845601\H,0,5.329459,-0.382837,-0.007953\H,0
 ,4.521716,0.882668,0.914818\H,0,3.133472,-1.218292,0.837586\H,0,3.1361

 Normal termination of Gaussian 16 at Sun Apr  6 08:00:44 2025.
 Gaussian 16:  ES64L-G16RevC.01  3-Jul-2019

 ----------------------------------------------------------------------
 #t hf aug-cc-pvdz iop(5/13=1,5/36=2,99/5=2) pseudo=read geom=check gue
 ss=(read,tcheck) scf=(maxcycle=1)
 ----------------------------------------------------------------------
 -----
 title
 -----
 Structure from the checkpoint file:  "1-heptanol.chk"
 Charge =  0 Multiplicity = 1

                         Standard orientation:
 ---------------------------------------------------------------------
 Center     Atomic      Atomic             Coordinates (Angstroms)
 Number     Number       Type             X           Y           Z
 ---------------------------------------------------------------------
      1          6           0        4.455953    0.270233    0.013128
      2          6           0        3.156486   -0.532657   -0.014810
      3          6           0        1.903604    0.343655    0.011250
      4          6           0        0.597863   -0.451106   -0.015679
      5          6           0       -0.653922    0.427229    0.009040
      6          6           0       -1.958782   -0.370300   -0.022500
      7          6           0       -3.196862    0.516964    0.008447
      8          8           0       -4.418615   -0.215524   -0.077873
      9          1           0        4.523173    0.941403   -0.845601
     10          1           0        5.329459   -0.382837   -0.007953
     11          1           0        4.521716    0.882668    0.914818
     12          1           0        3.133472   -1.218292    0.837586
     13          1           0        3.136119   -1.162088   -0.909563
     14          1           0        1.926908    1.029567   -0.842248
     15          1           0        1.924665    0.974859    0.906112
     16          1           0        0.577344   -1.082187   -0.910093
     17          1           0        0.574572   -1.136132    0.838283
     18          1           0       -0.629327    1.112199   -0.844708
     19          1           0       -0.633266    1.057787    0.903988
     20          1           0       -1.987895   -1.054978    0.832841
     21          1           0       -1.997124   -0.992014   -0.920763
     22          1           0       -3.202967    1.185677   -0.853276
     23          1           0       -3.189897    1.145038    0.907556
     24          1           0       -4.484069   -0.800583    0.682753
 ---------------------------------------------------------------------

 SCF Done:  E(RHF) =  -351.048539125     A.U. after    2 cycles

 The electronic state is 1-A.
 Alpha  occ. eigenvalues --  -21.06179 -11.43552 -11.42408 -11.41565 -11.39512
 Alpha  occ. eigenvalues --  -11.37317 -11.35869 -11.33923  -1.69898  -1.27706
 Alpha  occ. eigenvalues --   -1.17716  -1.06910  -0.96893  -0.88342  -0.83403
 Alpha  occ. eigenvalues --   -0.82144  -0.67835  -0.64793  -0.60546  -0.59366
 Alpha  occ. eigenvalues --   -0.57905  -0.55963  -0.54338  -0.52347  -0.50244
 Alpha  occ. eigenvalues --   -0.48725  -0.46017  -0.45949  -0.45079  -0.44516
 Alpha  occ. eigenvalues --   -0.42837  -0.37264  -0.30405
 Alpha virt. eigenvalues --    0.04166   0.04541   0.04768   0.05577   0.05698
 Alpha virt. eigenvalues --    0.05839   0.06173   0.06408   0.07099   0.07336
 Alpha virt. eigenvalues --    0.07621   0.08350   0.09029   0.09985   0.10478

 Mulliken charges:
               1
     1  C   -4.667807
     2  C   -3.382998
     3  C   -2.437529
     4  C   -1.630669
     5  C   -2.708760
     6  C   -3.168630
     7  C   -1.757082
     8  O   -2.722783
     9  H    1.345787
    10  H    1.079126
    11  H    1.345402
    12  H    1.475271
    13  H    1.479679
    14  H    1.585989
    15  H    1.583187
    16  H    1.528514
    17  H    1.552116
    18  H    1.532761
    19  H    1.523909
    20  H    1.512536
    21  H    1.450043
    22  H    1.392819
    23  H    1.330201
    24  H    0.758917
 Sum of Mulliken charges =   0.00000

 Dipole moment (field-independent basis, Debye):
    X=              0.7574    Y=             -0.1280    Z=              0.4768  Tot=              0.9041

 Test job not archived.
 1\1\GINC-SE107\SP\RHF\Aug-CC-pVDZ\C7H16O1\OHZDE\06-Apr-2025\0\\#t hf a
 ug-cc-pvdz iop(5/13=1,5/36=2,99/5=2) pseudo=read geom=check guess=(rea
 d,tcheck) scf=(maxcycle=1)\\title\\0,1\C,0,4.455953,0.270233,0.013128\
 C,0,3.156486,-0.532657,-0.01481\C,0,1.903604,0.343655,0.01125\C,0,0.59
 7863,-0.451106,-0.015679\C,0,-0.653922,0.427229,0.00904\C,0,-1.958782,
 -0.3703,-0.0225\C,0,-3.196862,0.516964,0.008447\O,0,-4.418615,-0.21552
 4,-0.077873\H,0,4.523173,0.941403,-0.845601\H,0,5.329459,-0.382837,-0.
 007953\H,0,4.521716,0.882668,0.914818\H,0,3.133472,-1.218292,0.837586\

 Normal termination of Gaussian 16 at Sun Apr  6 08:01:21 2025.
