 Gaussian 16, Revision C.01,

 ----------------------------------------------------------------------
 #t hf aug-cc-pvdz symm=none int=(grid=ultrafine) guess=(read,tcheck) s
 table=(opt,rrhf)
 ----------------------------------------------------------------------
 -----
 title
 -----
 Symbolic Z-matrix:
 Charge =  0 Multiplicity = 1

 SCF Done:  E(RHF) =  -290.427621575     A.U. after   12 cycles

 1\1\GINC-SE223\Stability\RHF\Aug-CC-pVDZ\C6H15N1\OHZDE\06-Apr-2025\0\\
 #t hf aug-cc-pvdz symm=none int=(grid=ultrafine) guess=(read,tcheck) s
 table=(opt,rrhf)\\title\\0,1\C,0,3.802935,-0.49061,0.\C,0,2.559112,0.3
 96474,0.\C,0,1.251338,-0.396094,0.\C,0,0.,0.482704,0.\C,0,-1.308018,-0
 .309699,0.\C,0,-2.556134,0.578683,0.\N,0,-3.845546,-0.114188,0.\H,0,4.
 717679,0.103723,0.\H,0,3.826861,-1.135787,0.880692\H,0,3.826861,-1.135
 787,-0.880692\H,0,2.580491,1.054451,0.873988\H,0,2.580491,1.054451,-0.
 873988\H,0,1.230295,-1.055016,0.874553\H,0,1.230295,-1.055016,-0.87455

 Normal termination of Gaussian 16 at Sun Apr  6 08:00:15 2025.
 Gaussian 16:  ES64L-G16RevC.01  3-Jul-2019

 ----------------------------------------------------------------------
 #t hf aug-cc-pvdz iop(5/13=1,5/36=2,99/5=2) pseudo=read geom=check gue
 ss=(read,tcheck) scf=(maxcycle=1)
 ----------------------------------------------------------------------
 -----
 title
 -----
 Structure from the checkpoint file:  "1-hexanamine.chk"
 Charge =  0 Multiplicity = 1

                         Standard orientation:
 ---------------------------------------------------------------------
 Center     Atomic      Atomic             Coordinates (Angstroms)
 Number     Number       Type             X           Y           Z
 ---------------------------------------------------------------------
      1          6           0        3.802935   -0.490610    0.000000
      2          6           0        2.559112    0.396474    0.000000
      3          6           0        1.251338   -0.396094    0.000000
      4          6           0        0.000000    0.482704    0.000000
      5          6           0       -1.308018   -0.309699    0.000000
      6          6           0       -2.556134    0.578683    0.000000
      7          7           0       -3.845546   -0.114188    0.000000
      8          1           0        4.717679    0.103723    0.000000
      9          1           0        3.826861   -1.135787    0.880692
     10          1           0        3.826861   -1.135787   -0.880692
     11          1           0        2.580491    1.054451    0.873988
     12          1           0        2.580491    1.054451   -0.873988
     13          1           0        1.230295   -1.055016    0.874553
     14          1           0        1.230295   -1.055016   -0.874553
     15          1           0        0.022835    1.141535   -0.874500
     16          1           0        0.022835    1.141535    0.874500
     17          1           0       -1.338505   -0.966435    0.876192
     18          1           0       -1.338505   -0.966435   -0.876192
     19          1           0       -2.533944    1.235791    0.873348
     20          1           0       -2.533944    1.235791   -0.873348
     21          1           0       -3.935161   -0.711119    0.813635
     22          1           0       -3.935161   -0.711119   -0.813635
 ---------------------------------------------------------------------

 SCF Done:  E(RHF) =  -291.933002321     A.U. after    2 cycles

 The electronic state is 1-A'.
 Alpha  occ. eigenvalues --  -15.72248 -11.42339 -11.41868 -11.40232 -11.37714
 Alpha  occ. eigenvalues --  -11.35820 -11.33731  -1.34029  -1.24498  -1.12781
 Alpha  occ. eigenvalues --   -1.01244  -0.91069  -0.84034  -0.82062  -0.68066
 Alpha  occ. eigenvalues --   -0.64626  -0.59496  -0.59245  -0.57153  -0.54469
 Alpha  occ. eigenvalues --   -0.53923  -0.51350  -0.48897  -0.46444  -0.45836
 Alpha  occ. eigenvalues --   -0.44959  -0.44414  -0.42117  -0.32278
 Alpha virt. eigenvalues --    0.04217   0.04849   0.04909   0.05412   0.05801
 Alpha virt. eigenvalues --    0.05855   0.06290   0.06354   0.07230   0.07958
 Alpha virt. eigenvalues --    0.08201   0.08685   0.09329   0.10463   0.11546

 Mulliken charges:
               1
     1  C   -4.499733
     2  C   -3.142055
     3  C   -1.920857
     4  C   -2.347400
     5  C   -2.687816
     6  C   -2.676403
     7  N   -2.617709
     8  H    1.084270
     9  H    1.330493
    10  H    1.330493
    11  H    1.454359
    12  H    1.454359
    13  H    1.570241
    14  H    1.570241
    15  H    1.542759
    16  H    1.542759
    17  H    1.484587
    18  H    1.484587
    19  H    1.421535
    20  H    1.421535
    21  H    0.599877
    22  H    0.599877
 Sum of Mulliken charges =  -0.00000

 Dipole moment (field-independent basis, Debye):
    X=              0.7901    Y=             -0.6439    Z=             -0.0000  Tot=              1.0193

 Test job not archived.
 1\1\GINC-SE223\SP\RHF\Aug-CC-pVDZ\C6H15N1\OHZDE\06-Apr-2025\0\\#t hf a
 ug-cc-pvdz iop(5/13=1,5/36=2,99/5=2) pseudo=read geom=check guess=(rea
 d,tcheck) scf=(maxcycle=1)\\title\\0,1\C,0,3.802935,-0.49061,0.\C,0,2.
 559112,0.396474,0.\C,0,1.251338,-0.396094,0.\C,0,0.,0.482704,0.\C,0,-1
 .308018,-0.309699,0.\C,0,-2.556134,0.578683,0.\N,0,-3.845546,-0.114188
 ,0.\H,0,4.717679,0.103723,0.\H,0,3.826861,-1.135787,0.880692\H,0,3.826
 861,-1.135787,-0.880692\H,0,2.580491,1.054451,0.873988\H,0,2.580491,1.
 054451,-0.873988\H,0,1.230295,-1.055016,0.874553\H,0,1.230295,-1.05501

 Normal termination of Gaussian 16 at Sun Apr  6 08:00:39 2025.
