 Gaussian 16, Revision C.01,

 ----------------------------------------------------------------------
 #t hf aug-cc-pvdz symm=none int=(grid=ultrafine) guess=(read,tcheck) s
 table=(opt,rrhf)
 ----------------------------------------------------------------------
 -----
 title
 -----
 Symbolic Z-matrix:
 Charge =  0 Multiplicity = 1

 SCF Done:  E(RHF) =  -232.995144955     A.U. after   13 cycles
 Normal termination of Gaussian 16 at Sun Apr  6 07:59:43 2025.
 Gaussian 16:  ES64L-G16RevC.01  3-Jul-2019

 ----------------------------------------------------------------------
 #t hf aug-cc-pvdz iop(5/13=1,5/36=2,99/5=2) pseudo=read geom=check gue
 ss=(read,tcheck) scf=(maxcycle=1)
 ----------------------------------------------------------------------
 -----
 title
 -----
 Structure from the checkpoint file:  "1-hexyne.chk"
 Charge =  0 Multiplicity = 1

                         Standard orientation:
 ---------------------------------------------------------------------
 Center     Atomic      Atomic             Coordinates (Angstroms)
 Number     Number       Type             X           Y           Z
 ---------------------------------------------------------------------
      1          6           0       -2.312498   -2.277578    0.000000
      2          6           0       -1.228339   -1.763422    0.000000
      3          6           0        1.311092    2.604422    0.000000
      4          6           0        0.077794   -1.116147    0.000000
      5          6           0        1.378741    1.078321    0.000000
      6          6           0        0.000000    0.420250    0.000000
      7          1           0       -3.268709   -2.737512    0.000000
      8          1           0        2.308010    3.046780    0.000000
      9          1           0        0.783276    2.975425    0.880761
     10          1           0        0.783276    2.975425   -0.880761
     11          1           0        0.642365   -1.452734    0.874593
     12          1           0        0.642365   -1.452734   -0.874593
     13          1           0        1.941609    0.738131   -0.874478
     14          1           0        1.941609    0.738131    0.874478
     15          1           0       -0.567271    0.747005    0.874792
     16          1           0       -0.567271    0.747005   -0.874792
 ---------------------------------------------------------------------

 SCF Done:  E(RHF) =  -234.180161816     A.U. after    2 cycles

 The electronic state is 1-A'.
 Alpha  occ. eigenvalues --  -11.45151 -11.41741 -11.40039 -11.39298 -11.37864
 Alpha  occ. eigenvalues --  -11.35095  -1.26852  -1.13762  -1.03330  -0.93222
 Alpha  occ. eigenvalues --   -0.83688  -0.72857  -0.66051  -0.60970  -0.58928
 Alpha  occ. eigenvalues --   -0.58878  -0.52675  -0.50960  -0.46340  -0.46171
 Alpha  occ. eigenvalues --   -0.44857  -0.35977  -0.35156
 Alpha virt. eigenvalues --    0.03723   0.04728   0.05389   0.05417   0.05906
 Alpha virt. eigenvalues --    0.06301   0.07148   0.07664   0.07815   0.09391
 Alpha virt. eigenvalues --    0.09700   0.11829   0.12564   0.12802   0.13758

 Mulliken charges:
               1
     1  C   -3.963504
     2  C    4.282612
     3  C   -4.010463
     4  C   -4.071190
     5  C   -2.812528
     6  C   -2.308877
     7  H    0.710433
     8  H    1.066574
     9  H    1.284498
    10  H    1.284498
    11  H    1.325041
    12  H    1.325041
    13  H    1.410657
    14  H    1.410657
    15  H    1.533276
    16  H    1.533276
 Sum of Mulliken charges =  -0.00000

 Dipole moment (field-independent basis, Debye):
    X=              0.6599    Y=              0.5057    Z=             -0.0000  Tot=              0.8314

 Test job not archived.
 1\1\GINC-SE047\SP\RHF\Aug-CC-pVDZ\C6H10\OHZDE\06-Apr-2025\0\\#t hf aug
 -cc-pvdz iop(5/13=1,5/36=2,99/5=2) pseudo=read geom=check guess=(read,
 tcheck) scf=(maxcycle=1)\\title\\0,1\C,0,-2.312498,-2.277578,0.\C,0,-1
 .228339,-1.763422,0.\C,0,1.311092,2.604422,0.\C,0,0.077794,-1.116147,0
 .\C,0,1.378741,1.078321,0.\C,0,0.,0.42025,0.\H,0,-3.268709,-2.737512,0
 .\H,0,2.30801,3.04678,0.\H,0,0.783276,2.975425,0.880761\H,0,0.783276,2
 .975425,-0.880761\H,0,0.642365,-1.452734,0.874593\H,0,0.642365,-1.4527
 34,-0.874593\H,0,1.941609,0.738131,-0.874478\H,0,1.941609,0.738131,0.8

 Normal termination of Gaussian 16 at Sun Apr  6 07:59:46 2025.
