 Gaussian 16, Revision C.01,

 ----------------------------------------------------------------------
 #t hf aug-cc-pvdz symm=none int=(grid=ultrafine) guess=(read,tcheck) s
 table=(opt,rrhf)
 ----------------------------------------------------------------------
 -----
 title
 -----
 Symbolic Z-matrix:
 Charge =  0 Multiplicity = 1

 SCF Done:  E(RHF) =  -272.033974268     A.U. after   13 cycles
 Normal termination of Gaussian 16 at Sun Apr  6 08:00:06 2025.
 Gaussian 16:  ES64L-G16RevC.01  3-Jul-2019

 ----------------------------------------------------------------------
 #t hf aug-cc-pvdz iop(5/13=1,5/36=2,99/5=2) pseudo=read geom=check gue
 ss=(read,tcheck) scf=(maxcycle=1)
 ----------------------------------------------------------------------
 -----
 title
 -----
 Structure from the checkpoint file:  "1-heptyne.chk"
 Charge =  0 Multiplicity = 1

                         Standard orientation:
 ---------------------------------------------------------------------
 Center     Atomic      Atomic             Coordinates (Angstroms)
 Number     Number       Type             X           Y           Z
 ---------------------------------------------------------------------
      1          6           0        2.257879    3.177876    0.000000
      2          6           0        1.939719    2.020940    0.000000
      3          6           0       -2.330524   -2.718125    0.000000
      4          6           0        1.527217    0.622766    0.000000
      5          6           0       -1.925506   -1.245234    0.000000
      6          6           0        0.000000    0.434858    0.000000
      7          6           0       -0.410473   -1.036234    0.000000
      8          1           0        2.546918    4.198732    0.000000
      9          1           0       -3.415229   -2.832921    0.000000
     10          1           0       -1.942770   -3.234004    0.880832
     11          1           0       -1.942770   -3.234004   -0.880832
     12          1           0        1.956087    0.124043   -0.874253
     13          1           0        1.956087    0.124043    0.874253
     14          1           0       -2.356942   -0.748038   -0.873782
     15          1           0       -2.356942   -0.748038    0.873782
     16          1           0       -0.418718    0.938863    0.874266
     17          1           0       -0.418718    0.938863   -0.874266
     18          1           0        0.021563   -1.534311   -0.874638
     19          1           0        0.021563   -1.534311    0.874638
 ---------------------------------------------------------------------

 SCF Done:  E(RHF) =  -273.423853061     A.U. after    2 cycles

 The electronic state is 1-A'.
 Alpha  occ. eigenvalues --  -11.45324 -11.42252 -11.40792 -11.39578 -11.38915
 Alpha  occ. eigenvalues --  -11.37042 -11.34637  -1.28005  -1.17084  -1.06611
 Alpha  occ. eigenvalues --   -0.98654  -0.88537  -0.82780  -0.72802  -0.66641
 Alpha  occ. eigenvalues --   -0.61587  -0.61145  -0.56817  -0.56177  -0.54380
 Alpha  occ. eigenvalues --   -0.49441  -0.48335  -0.45573  -0.45202  -0.42874
 Alpha  occ. eigenvalues --   -0.35961  -0.34968
 Alpha virt. eigenvalues --    0.03797   0.04603   0.05100   0.05417   0.05824
 Alpha virt. eigenvalues --    0.06284   0.06437   0.07175   0.07438   0.08742
 Alpha virt. eigenvalues --    0.09093   0.09530   0.09960   0.11619   0.12361

 Mulliken charges:
               1
     1  C   -4.040825
     2  C    4.170172
     3  C   -4.351698
     4  C   -4.298016
     5  C   -3.006531
     6  C   -2.252025
     7  C   -2.268534
     8  H    0.704359
     9  H    1.074037
    10  H    1.318518
    11  H    1.318518
    12  H    1.327592
    13  H    1.327592
    14  H    1.427667
    15  H    1.427667
    16  H    1.536620
    17  H    1.536620
    18  H    1.524134
    19  H    1.524134
 Sum of Mulliken charges =  -0.00000

 Dipole moment (field-independent basis, Debye):
    X=             -0.4943    Y=             -0.6569    Z=              0.0000  Tot=              0.8221

 Test job not archived.
 1\1\GINC-SE222\SP\RHF\Aug-CC-pVDZ\C7H12\OHZDE\06-Apr-2025\0\\#t hf aug
 -cc-pvdz iop(5/13=1,5/36=2,99/5=2) pseudo=read geom=check guess=(read,
 tcheck) scf=(maxcycle=1)\\title\\0,1\C,0,2.257879,3.177876,0.\C,0,1.93
 9719,2.02094,0.\C,0,-2.330524,-2.718125,0.\C,0,1.527217,0.622766,0.\C,
 0,-1.925506,-1.245234,0.\C,0,0.,0.434858,0.\C,0,-0.410473,-1.036234,0.
 \H,0,2.546918,4.198732,0.\H,0,-3.415229,-2.832921,0.\H,0,-1.94277,-3.2
 34004,0.880832\H,0,-1.94277,-3.234004,-0.880832\H,0,1.956087,0.124043,
 -0.874253\H,0,1.956087,0.124043,0.874253\H,0,-2.356942,-0.748038,-0.87

 Normal termination of Gaussian 16 at Sun Apr  6 08:00:11 2025.
