 Gaussian 16, Revision C.01,

 ----------------------------------------------------------------------
 #t hf aug-cc-pvdz symm=none int=(grid=ultrafine) guess=(read,tcheck) s
 table=(opt,rrhf)
 ----------------------------------------------------------------------
 -----
 title
 -----
 Symbolic Z-matrix:
 Charge =  0 Multiplicity = 1

 SCF Done:  E(RHF) =  -227.374601981     A.U. after   16 cycles
 Normal termination of Gaussian 16 at Sun Apr  6 07:59:19 2025.
 Gaussian 16:  ES64L-G16RevC.01  3-Jul-2019

 ----------------------------------------------------------------------
 #t hf aug-cc-pvdz iop(5/13=1,5/36=2,99/5=2) pseudo=read geom=check gue
 ss=(read,tcheck) scf=(maxcycle=1)
 ----------------------------------------------------------------------
 -----
 title
 -----
 Structure from the checkpoint file:  "1-hydroxy-1-3-dibutyne.chk"
 Charge =  0 Multiplicity = 1

                         Standard orientation:
 ---------------------------------------------------------------------
 Center     Atomic      Atomic             Coordinates (Angstroms)
 Number     Number       Type             X           Y           Z
 ---------------------------------------------------------------------
      1          8           0       -2.416628   -0.098841   -0.000028
      2          6           0        0.087033   -0.011100    0.000005
      3          6           0       -1.117057   -0.002424   -0.000010
      4          6           0        1.449836    0.001422    0.000013
      5          6           0        2.655112    0.011669    0.000023
      6          1           0       -2.832487    0.773856    0.000005
      7          1           0        3.715965    0.019465    0.000027
 ---------------------------------------------------------------------

 SCF Done:  E(RHF) =  -228.372127896     A.U. after    2 cycles

 The electronic state is 1-A.
 Alpha  occ. eigenvalues --  -21.17074 -11.49101 -11.45383 -11.42451 -11.41497
 Alpha  occ. eigenvalues --   -1.80795  -1.18204  -1.04531  -0.84551  -0.73807
 Alpha  occ. eigenvalues --   -0.67336  -0.58168  -0.54863  -0.45738  -0.43261
 Alpha  occ. eigenvalues --   -0.32725  -0.29298
 Alpha virt. eigenvalues --    0.02443   0.04570   0.08246   0.09943   0.10325
 Alpha virt. eigenvalues --    0.10446   0.11576   0.12404   0.13310   0.14909
 Alpha virt. eigenvalues --    0.15513   0.16757   0.18243   0.19771   0.20186

 Mulliken charges:
               1
     1  O   -3.742968
     2  C    2.784781
     3  C    0.919754
     4  C    3.213313
     5  C   -4.415996
     6  H    0.829250
     7  H    0.411867
 Sum of Mulliken charges =  -0.00000

 Dipole moment (field-independent basis, Debye):
    X=             -1.3973    Y=              0.8457    Z=              0.0000  Tot=              1.6333

 Test job not archived.
 1\1\GINC-SE167\SP\RHF\Aug-CC-pVDZ\C4H2O1\OHZDE\06-Apr-2025\0\\#t hf au
 g-cc-pvdz iop(5/13=1,5/36=2,99/5=2) pseudo=read geom=check guess=(read
 ,tcheck) scf=(maxcycle=1)\\title\\0,1\O,0,-2.416628,-0.098841,-0.00002
 8\C,0,0.087033,-0.0111,0.000005\C,0,-1.117057,-0.002424,-0.00001\C,0,1
 .449836,0.001422,0.000013\C,0,2.655112,0.011669,0.000023\H,0,-2.832487
 ,0.773856,0.000005\H,0,3.715965,0.019465,0.000027\\Version=ES64L-G16Re
 vC.01\State=1-A\HF=-228.3721279\RMSD=2.662e+00\Dipole=-0.549759,0.3327
 078,0.0000039\Quadrupole=6.6252739,-2.6101633,-4.0151106,-2.4303706,-0

 Normal termination of Gaussian 16 at Sun Apr  6 07:59:20 2025.
