 Gaussian 16, Revision C.01,

 ----------------------------------------------------------------------
 #t hf aug-cc-pvdz symm=none int=(grid=ultrafine) guess=(read,tcheck) s
 table=(opt,rrhf)
 ----------------------------------------------------------------------
 -----
 title
 -----
 Symbolic Z-matrix:
 Charge =  0 Multiplicity = 1

 SCF Done:  E(RHF) =  -278.974878858     A.U. after   13 cycles
 Normal termination of Gaussian 16 at Sun Apr  6 07:59:23 2025.
 Gaussian 16:  ES64L-G16RevC.01  3-Jul-2019

 ----------------------------------------------------------------------
 #t hf aug-cc-pvdz iop(5/13=1,5/36=2,99/5=2) pseudo=read geom=check gue
 ss=(read,tcheck) scf=(maxcycle=1)
 ----------------------------------------------------------------------
 -----
 title
 -----
 Structure from the checkpoint file:  "1-hydroxyguanidine.chk"
 Charge =  0 Multiplicity = 1

                         Standard orientation:
 ---------------------------------------------------------------------
 Center     Atomic      Atomic             Coordinates (Angstroms)
 Number     Number       Type             X           Y           Z
 ---------------------------------------------------------------------
      1          8           0        1.787242    0.003282   -0.184204
      2          7           0        0.624265   -0.739187    0.193069
      3          7           0       -1.728663   -0.614242   -0.065776
      4          7           0       -0.477517    1.325874    0.083465
      5          6           0       -0.595184   -0.035554    0.023160
      6          1           0        2.301487    0.044235    0.629806
      7          1           0        0.630705   -1.583507   -0.364470
      8          1           0       -1.653756   -1.625649   -0.018118
      9          1           0       -1.320486    1.821828   -0.150356
     10          1           0        0.388624    1.723041   -0.237498
 ---------------------------------------------------------------------

 SCF Done:  E(RHF) =  -280.212449364     A.U. after    2 cycles

 The electronic state is 1-A.
 Alpha  occ. eigenvalues --  -21.12020 -15.79818 -15.76489 -15.70080 -11.47291
 Alpha  occ. eigenvalues --   -1.79866  -1.44627  -1.25816  -1.18056  -0.84016
 Alpha  occ. eigenvalues --   -0.73870  -0.65858  -0.63278  -0.59788  -0.56036
 Alpha  occ. eigenvalues --   -0.51511  -0.40677  -0.37555  -0.35325  -0.31482
 Alpha virt. eigenvalues --    0.03847   0.05168   0.05407   0.07042   0.07322
 Alpha virt. eigenvalues --    0.11652   0.12175   0.14062   0.14925   0.16198
 Alpha virt. eigenvalues --    0.16981   0.17456   0.19099   0.19405   0.20071

 Mulliken charges:
               1
     1  O   -2.166749
     2  N   -0.560794
     3  N   -2.763820
     4  N   -2.657449
     5  C    4.775314
     6  H    0.784802
     7  H    0.619278
     8  H    0.652816
     9  H    0.645098
    10  H    0.671504
 Sum of Mulliken charges =  -0.00000

 Dipole moment (field-independent basis, Debye):
    X=              2.9756    Y=              0.6133    Z=             -0.5417  Tot=              3.0861

 Test job not archived.
 1\1\GINC-SE168\SP\RHF\Aug-CC-pVDZ\C1H5N3O1\OHZDE\06-Apr-2025\0\\#t hf
 aug-cc-pvdz iop(5/13=1,5/36=2,99/5=2) pseudo=read geom=check guess=(re
 ad,tcheck) scf=(maxcycle=1)\\title\\0,1\O,0,1.787242,0.003282,-0.18420
 4\N,0,0.624265,-0.739187,0.193069\N,0,-1.728663,-0.614242,-0.065776\N,
 0,-0.477517,1.325874,0.083465\C,0,-0.595184,-0.035554,0.02316\H,0,2.30
 1487,0.044235,0.629806\H,0,0.630705,-1.583507,-0.36447\H,0,-1.653756,-
 1.625649,-0.018118\H,0,-1.320486,1.821828,-0.150356\H,0,0.388624,1.723
 041,-0.237498\\Version=ES64L-G16RevC.01\State=1-A\HF=-280.2124494\RMSD

 Normal termination of Gaussian 16 at Sun Apr  6 07:59:26 2025.
