 Gaussian 16, Revision C.01,

 ----------------------------------------------------------------------
 #t hf aug-cc-pvdz symm=none int=(grid=ultrafine) guess=(read,tcheck) s
 table=(opt,rrhf)
 ----------------------------------------------------------------------
 -----
 title
 -----
 Symbolic Z-matrix:
 Charge =  0 Multiplicity = 1

 SCF Done:  E(RHF) =  -550.266324196     A.U. after   17 cycles
 Normal termination of Gaussian 16 at Sun Apr  6 08:02:37 2025.
 Gaussian 16:  ES64L-G16RevC.01  3-Jul-2019

 ----------------------------------------------------------------------
 #t hf aug-cc-pvdz iop(5/13=1,5/36=2,99/5=2) pseudo=read geom=check gue
 ss=(read,tcheck) scf=(maxcycle=1)
 ----------------------------------------------------------------------
 -----
 title
 -----
 Structure from the checkpoint file:  "1-hydroxy-3-4-dihydroquinolin-2-one.chk"
 Charge =  0 Multiplicity = 1

                         Standard orientation:
 ---------------------------------------------------------------------
 Center     Atomic      Atomic             Coordinates (Angstroms)
 Number     Number       Type             X           Y           Z
 ---------------------------------------------------------------------
      1          6           0        3.077395    0.196598   -0.111658
      2          6           0        2.666570   -1.128501   -0.161156
      3          6           0        2.129143    1.205688    0.034852
      4          6           0        1.317412   -1.453527   -0.078360
      5          6           0        0.776833    0.911753    0.133669
      6          6           0        0.382349   -0.432412    0.060180
      7          6           0       -2.008325    0.164976   -0.109593
      8          6           0       -0.286188    1.954073    0.363802
      9          6           0       -1.588515    1.593777   -0.354663
     10          7           0       -0.990799   -0.704017    0.145273
     11          8           0       -3.161157   -0.254176   -0.157240
     12          8           0       -1.361171   -2.042198    0.243835
     13          1           0        4.126728    0.446251   -0.182912
     14          1           0        3.395360   -1.919946   -0.269911
     15          1           0        2.445503    2.240189    0.082160
     16          1           0        0.987299   -2.479262   -0.120828
     17          1           0       -0.484242    2.028309    1.438806
     18          1           0        0.064034    2.934551    0.042685
     19          1           0       -1.473721    1.707651   -1.437370
     20          1           0       -2.413797    2.234873   -0.051575
     21          1           0       -2.332996   -1.968059    0.126836
 ---------------------------------------------------------------------

 SCF Done:  E(RHF) =  -552.768721130     A.U. after    2 cycles

 The electronic state is 1-A.
 Alpha  occ. eigenvalues --  -21.10996 -21.04276 -15.80638 -11.54212 -11.53327
 Alpha  occ. eigenvalues --  -11.47754 -11.46326 -11.44264 -11.42396 -11.41856
 Alpha  occ. eigenvalues --  -11.40856 -11.37529  -1.84507  -1.69676  -1.42235
 Alpha  occ. eigenvalues --   -1.27849  -1.20816  -1.09947  -1.08718  -0.95322
 Alpha  occ. eigenvalues --   -0.89864  -0.87199  -0.77220  -0.71565  -0.69275
 Alpha  occ. eigenvalues --   -0.66579  -0.64636  -0.63262  -0.60182  -0.57819
 Alpha  occ. eigenvalues --   -0.56333  -0.55114  -0.54170  -0.50520  -0.48555
 Alpha  occ. eigenvalues --   -0.47649  -0.44292  -0.42992  -0.40682  -0.35836
 Alpha  occ. eigenvalues --   -0.33554  -0.30772  -0.24892
 Alpha virt. eigenvalues --    0.03273   0.04681   0.04888   0.05359   0.05859
 Alpha virt. eigenvalues --    0.06110   0.06679   0.07453   0.08113   0.09922
 Alpha virt. eigenvalues --    0.10625   0.10679   0.11678   0.11753   0.12144

 Mulliken charges:
               1
     1  C   -2.917225
     2  C   -1.898639
     3  C   -0.302881
     4  C   -4.556030
     5  C    4.891032
     6  C    4.683558
     7  C    4.766925
     8  C   -4.741849
     9  C   -3.263162
    10  N   -2.480449
    11  O   -3.648415
    12  O   -2.980828
    13  H    1.531351
    14  H    1.510434
    15  H    1.762456
    16  H    1.901287
    17  H    1.095430
    18  H    1.105913
    19  H    1.320733
    20  H    1.264542
    21  H    0.955817
 Sum of Mulliken charges =  -0.00000

 Dipole moment (field-independent basis, Debye):
    X=              1.5065    Y=              0.9418    Z=             -0.0159  Tot=              1.7767

 Test job not archived.
 1\1\GINC-SE170\SP\RHF\Aug-CC-pVDZ\C9H9N1O2\OHZDE\06-Apr-2025\0\\#t hf
 aug-cc-pvdz iop(5/13=1,5/36=2,99/5=2) pseudo=read geom=check guess=(re
 ad,tcheck) scf=(maxcycle=1)\\title\\0,1\C,0,3.077395,0.196598,-0.11165
 8\C,0,2.66657,-1.128501,-0.161156\C,0,2.129143,1.205688,0.034852\C,0,1
 .317412,-1.453527,-0.07836\C,0,0.776833,0.911753,0.133669\C,0,0.382349
 ,-0.432412,0.06018\C,0,-2.008325,0.164976,-0.109593\C,0,-0.286188,1.95
 4073,0.363802\C,0,-1.588515,1.593777,-0.354663\N,0,-0.990799,-0.704017
 ,0.145273\O,0,-3.161157,-0.254175,-0.15724\O,0,-1.361171,-2.042198,0.2

 Normal termination of Gaussian 16 at Sun Apr  6 08:03:00 2025.
