 Gaussian 16, Revision C.01,

 ----------------------------------------------------------------------
 #t hf aug-cc-pvdz symm=none int=(grid=ultrafine) guess=(read,tcheck) s
 table=(opt,rrhf)
 ----------------------------------------------------------------------
 -----
 title
 -----
 Symbolic Z-matrix:
 Charge =  0 Multiplicity = 1

 SCF Done:  E(RHF) =  -391.386119045     A.U. after   16 cycles
 Normal termination of Gaussian 16 at Sun Apr  6 07:59:33 2025.
 Gaussian 16:  ES64L-G16RevC.01  3-Jul-2019

 ----------------------------------------------------------------------
 #t hf aug-cc-pvdz iop(5/13=1,5/36=2,99/5=2) pseudo=read geom=check gue
 ss=(read,tcheck) scf=(maxcycle=1)
 ----------------------------------------------------------------------
 -----
 title
 -----
 Structure from the checkpoint file:  "1-hydroxy-1H-imidazole-2-carbonitrile.chk"
 Charge =  0 Multiplicity = 1

                         Standard orientation:
 ---------------------------------------------------------------------
 Center     Atomic      Atomic             Coordinates (Angstroms)
 Number     Number       Type             X           Y           Z
 ---------------------------------------------------------------------
      1          8           0       -0.027776    1.986911   -0.109462
      2          7           0        0.447489    0.699855    0.009592
      3          7           0        0.482610   -1.505368    0.002437
      4          7           0       -2.871050   -0.377420    0.004695
      5          6           0       -0.304395   -0.445800   -0.010178
      6          6           0        1.764045    0.350395    0.006510
      7          6           0        1.757719   -1.024291    0.007880
      8          6           0       -1.719987   -0.424794   -0.008428
      9          1           0       -0.325015    2.249084    0.774101
     10          1           0        2.543576    1.089605   -0.002664
     11          1           0        2.606018   -1.686508    0.012487
 ---------------------------------------------------------------------

 SCF Done:  E(RHF) =  -393.106561089     A.U. after    2 cycles

 The electronic state is 1-A.
 Alpha  occ. eigenvalues --  -21.17338 -15.86232 -15.78514 -15.76377 -11.51634
 Alpha  occ. eigenvalues --  -11.48094 -11.45685 -11.41536  -1.87963  -1.55820
 Alpha  occ. eigenvalues --   -1.32546  -1.25764  -1.14193  -0.90859  -0.86688
 Alpha  occ. eigenvalues --   -0.79289  -0.70400  -0.66748  -0.61078  -0.60117
 Alpha  occ. eigenvalues --   -0.54945  -0.53635  -0.48799  -0.46632  -0.46051
 Alpha  occ. eigenvalues --   -0.39008  -0.37588  -0.33009
 Alpha virt. eigenvalues --    0.02767   0.04630   0.04953   0.08484   0.09105
 Alpha virt. eigenvalues --    0.09822   0.10243   0.11208   0.12604   0.13025
 Alpha virt. eigenvalues --    0.13373   0.13486   0.13981   0.14357   0.15572

 Mulliken charges:
               1
     1  O   -2.873977
     2  N   -0.586262
     3  N   -3.435513
     4  N   -2.633015
     5  C    4.301507
     6  C   -0.143476
     7  C    0.646741
     8  C    1.542713
     9  H    0.611262
    10  H    1.207171
    11  H    1.362849
 Sum of Mulliken charges =  -0.00000

 Dipole moment (field-independent basis, Debye):
    X=              3.5201    Y=              3.3231    Z=              0.6418  Tot=              4.8832

 Test job not archived.
 1\1\GINC-SE169\SP\RHF\Aug-CC-pVDZ\C4H3N3O1\OHZDE\06-Apr-2025\0\\#t hf
 aug-cc-pvdz iop(5/13=1,5/36=2,99/5=2) pseudo=read geom=check guess=(re
 ad,tcheck) scf=(maxcycle=1)\\title\\0,1\O,0,-0.027776,1.986911,-0.1094
 62\N,0,0.447489,0.699855,0.009592\N,0,0.48261,-1.505368,0.002437\N,0,-
 2.87105,-0.37742,0.004695\C,0,-0.304395,-0.4458,-0.010178\C,0,1.764045
 ,0.350395,0.00651\C,0,1.757719,-1.024291,0.00788\C,0,-1.719987,-0.4247
 94,-0.008428\H,0,-0.325015,2.249084,0.774101\H,0,2.543576,1.089605,-0.
 002664\H,0,2.606018,-1.686508,0.012487\\Version=ES64L-G16RevC.01\State

 Normal termination of Gaussian 16 at Sun Apr  6 07:59:38 2025.
