 Gaussian 16, Revision C.01,

 ----------------------------------------------------------------------
 #t hf aug-cc-pvdz symm=none int=(grid=ultrafine) guess=(read,tcheck) s
 table=(opt,rrhf)
 ----------------------------------------------------------------------
 -----
 title
 -----
 Symbolic Z-matrix:
 Charge =  0 Multiplicity = 1

 SCF Done:  E(RHF) =  -412.570770610     A.U. after   17 cycles
 Normal termination of Gaussian 16 at Sun Apr  6 07:59:41 2025.
 Gaussian 16:  ES64L-G16RevC.01  3-Jul-2019

 ----------------------------------------------------------------------
 #t hf aug-cc-pvdz iop(5/13=1,5/36=2,99/5=2) pseudo=read geom=check gue
 ss=(read,tcheck) scf=(maxcycle=1)
 ----------------------------------------------------------------------
 -----
 title
 -----
 Structure from the checkpoint file:  "1-hydroperoxy-N-nitrosodimethylamine.chk"
 Charge =  0 Multiplicity = 1

                         Standard orientation:
 ---------------------------------------------------------------------
 Center     Atomic      Atomic             Coordinates (Angstroms)
 Number     Number       Type             X           Y           Z
 ---------------------------------------------------------------------
      1          8           0        1.527751   -0.041787   -0.537922
      2          8           0        2.903656   -0.081519   -0.081598
      3          8           0       -2.550243   -0.648905   -0.302870
      4          7           0       -0.622833    0.129378    0.252599
      5          7           0       -1.430434   -0.925890    0.075880
      6          6           0        0.715920   -0.171147    0.638713
      7          6           0       -1.072890    1.482292   -0.050054
      8          1           0        1.075986    0.533849    1.388665
      9          1           0        0.743524   -1.191858    1.019263
     10          1           0       -0.254371    2.165555    0.153369
     11          1           0       -1.938584    1.731739    0.562219
     12          1           0       -1.363685    1.558623   -1.097009
     13          1           0        3.202517   -0.911506   -0.478692
 ---------------------------------------------------------------------

 SCF Done:  E(RHF) =  -414.351802335     A.U. after    2 cycles

 The electronic state is 1-A.
 Alpha  occ. eigenvalues --  -21.13361 -21.11066 -21.08383 -15.88430 -15.78785
 Alpha  occ. eigenvalues --  -11.46585 -11.41635  -1.95704  -1.86700  -1.51316
 Alpha  occ. eigenvalues --   -1.41148  -1.09577  -1.02154  -0.82408  -0.71824
 Alpha  occ. eigenvalues --   -0.70335  -0.66630  -0.61910  -0.58684  -0.56811
 Alpha  occ. eigenvalues --   -0.56033  -0.53016  -0.50677  -0.45139  -0.36803
 Alpha  occ. eigenvalues --   -0.32703  -0.31148  -0.28578
 Alpha virt. eigenvalues --    0.03627   0.05047   0.05766   0.05975   0.06407
 Alpha virt. eigenvalues --    0.06909   0.11156   0.12108   0.12808   0.13902
 Alpha virt. eigenvalues --    0.15086   0.15604   0.16186   0.16793   0.17382

 Mulliken charges:
               1
     1  O   -1.423326
     2  O   -0.915485
     3  O   -2.133672
     4  N   -1.834615
     5  N    1.430847
     6  C   -0.319028
     7  C   -3.170998
     8  H    1.685735
     9  H    1.603235
    10  H    1.423024
    11  H    1.369454
    12  H    1.398678
    13  H    0.886151
 Sum of Mulliken charges =  -0.00000

 Dipole moment (field-independent basis, Debye):
    X=              1.4058    Y=              1.3642    Z=              0.3927  Tot=              1.9979

 Test job not archived.
 1\1\GINC-SE047\SP\RHF\Aug-CC-pVDZ\C2H6N2O3\OHZDE\06-Apr-2025\0\\#t hf
 aug-cc-pvdz iop(5/13=1,5/36=2,99/5=2) pseudo=read geom=check guess=(re
 ad,tcheck) scf=(maxcycle=1)\\title\\0,1\O,0,1.527751,-0.041787,-0.5379
 22\O,0,2.903656,-0.081519,-0.081598\O,0,-2.550243,-0.648905,-0.30287\N
 ,0,-0.622833,0.129378,0.252599\N,0,-1.430434,-0.92589,0.07588\C,0,0.71
 592,-0.171147,0.638713\C,0,-1.07289,1.482292,-0.050054\H,0,1.075986,0.
 533849,1.388665\H,0,0.743524,-1.191858,1.019263\H,0,-0.25437,2.165555,
 0.153369\H,0,-1.938584,1.731739,0.562219\H,0,-1.363685,1.558623,-1.097

 Normal termination of Gaussian 16 at Sun Apr  6 07:59:46 2025.
