 Gaussian 16, Revision C.01,

 ----------------------------------------------------------------------
 #t hf aug-cc-pvdz symm=none int=(grid=ultrafine) guess=(read,tcheck) s
 table=(opt,rrhf)
 ----------------------------------------------------------------------
 -----
 title
 -----
 Symbolic Z-matrix:
 Charge =  0 Multiplicity = 1

 SCF Done:  E(RHF) =  -735.128874387     A.U. after   16 cycles
 Normal termination of Gaussian 16 at Sun Apr  6 07:59:33 2025.
 Gaussian 16:  ES64L-G16RevC.01  3-Jul-2019

 ----------------------------------------------------------------------
 #t hf aug-cc-pvdz iop(5/13=1,5/36=2,99/5=2) pseudo=read geom=check gue
 ss=(read,tcheck) scf=(maxcycle=1)
 ----------------------------------------------------------------------
 -----
 title
 -----
 Structure from the checkpoint file:  "1-isocyanato-2-isothiocyanatoethane.chk"
 Charge =  0 Multiplicity = 1

                         Standard orientation:
 ---------------------------------------------------------------------
 Center     Atomic      Atomic             Coordinates (Angstroms)
 Number     Number       Type             X           Y           Z
 ---------------------------------------------------------------------
      1         16           0       -3.986894   -0.049708   -0.000087
      2          8           0        4.775654   -0.113191   -0.000147
      3          7           0       -1.218888   -0.119564    0.000118
      4          7           0        2.439468    0.263192    0.000069
      5          6           0        0.039669    0.560667    0.000057
      6          6           0        1.185169   -0.449890    0.000115
      7          6           0       -2.404278   -0.042911    0.000025
      8          6           0        3.612272    0.010529   -0.000044
      9          1           0        0.112187    1.198876   -0.883098
     10          1           0        0.112207    1.198992    0.883127
     11          1           0        1.109813   -1.086449   -0.883060
     12          1           0        1.109821   -1.086333    0.883374
 ---------------------------------------------------------------------

 SCF Done:  E(RHF) =  -736.836996872     A.U. after    2 cycles

 The electronic state is 1-A.
 Alpha  occ. eigenvalues --  -75.69250 -21.12733 -15.79577 -15.77852 -13.22881
 Alpha  occ. eigenvalues --  -13.00701 -13.00487 -11.59620 -11.55246 -11.49736
 Alpha  occ. eigenvalues --  -11.44571  -8.03515  -1.77507  -1.47159  -1.40646
 Alpha  occ. eigenvalues --   -1.19857  -1.11486  -0.97138  -0.77905  -0.71522
 Alpha  occ. eigenvalues --   -0.69066  -0.64382  -0.62287  -0.61386  -0.57227
 Alpha  occ. eigenvalues --   -0.56141  -0.55707  -0.50722  -0.49770  -0.37013
 Alpha  occ. eigenvalues --   -0.34257  -0.27510  -0.25876
 Alpha virt. eigenvalues --    0.02499   0.04842   0.05711   0.05859   0.05984
 Alpha virt. eigenvalues --    0.07427   0.08909   0.09396   0.09929   0.10422
 Alpha virt. eigenvalues --    0.10773   0.11817   0.11964   0.13543   0.14089

 Mulliken charges:
               1
     1  S    1.614499
     2  O   -2.863713
     3  N   -3.755454
     4  N   -2.224104
     5  C   -2.265395
     6  C   -2.323448
     7  C    1.341713
     8  C    4.061540
     9  H    1.577927
    10  H    1.577914
    11  H    1.629279
    12  H    1.629242
 Sum of Mulliken charges =   0.00000

 Dipole moment (field-independent basis, Debye):
    X=             -1.3385    Y=             -0.1771    Z=             -0.0003  Tot=              1.3501

 Test job not archived.
 1\1\GINC-SE388\SP\RHF\Aug-CC-pVDZ\C4H4N2O1S1\OHZDE\06-Apr-2025\0\\#t h
 f aug-cc-pvdz iop(5/13=1,5/36=2,99/5=2) pseudo=read geom=check guess=(
 read,tcheck) scf=(maxcycle=1)\\title\\0,1\S,0,-3.986894,-0.049708,-0.0
 00087\O,0,4.775654,-0.113191,-0.000147\N,0,-1.218888,-0.119564,0.00011
 8\N,0,2.439468,0.263192,0.000069\C,0,0.039669,0.560667,0.000057\C,0,1.
 185169,-0.44989,0.000115\C,0,-2.404278,-0.042911,0.000025\C,0,3.612272
 ,0.010529,-0.000044\H,0,0.112187,1.198876,-0.883098\H,0,0.112207,1.198
 992,0.883127\H,0,1.109813,-1.086449,-0.88306\H,0,1.109821,-1.086333,0.

 Normal termination of Gaussian 16 at Sun Apr  6 07:59:38 2025.
