 Gaussian 16, Revision C.01,

 ----------------------------------------------------------------------
 #t hf aug-cc-pvdz symm=none int=(grid=ultrafine) guess=(read,tcheck) s
 table=(opt,rrhf)
 ----------------------------------------------------------------------
 -----
 title
 -----
 Symbolic Z-matrix:
 Charge =  0 Multiplicity = 1

 SCF Done:  E(RHF) =  -470.490269693     A.U. after   14 cycles
 Normal termination of Gaussian 16 at Sun Apr  6 07:59:46 2025.
 Gaussian 16:  ES64L-G16RevC.01  3-Jul-2019

 ----------------------------------------------------------------------
 #t hf aug-cc-pvdz iop(5/13=1,5/36=2,99/5=2) pseudo=read geom=check gue
 ss=(read,tcheck) scf=(maxcycle=1)
 ----------------------------------------------------------------------
 -----
 title
 -----
 Structure from the checkpoint file:  "1-isocyanato-1-1-2-ethanetriol.chk"
 Charge =  0 Multiplicity = 1

                         Standard orientation:
 ---------------------------------------------------------------------
 Center     Atomic      Atomic             Coordinates (Angstroms)
 Number     Number       Type             X           Y           Z
 ---------------------------------------------------------------------
      1          8           0       -0.307443   -0.870123   -1.164144
      2          8           0       -0.307406   -0.869880    1.164290
      3          8           0       -2.627780    0.100056    0.000029
      4          8           0        3.229423    0.053522    0.000030
      5          7           0        0.941114    0.662461   -0.000117
      6          6           0       -0.281383   -0.078177   -0.000011
      7          6           0       -1.450502    0.910137   -0.000090
      8          6           0        2.088626    0.280911   -0.000031
      9          1           0       -1.215065   -1.172916   -1.295790
     10          1           0       -1.215054   -1.172515    1.296121
     11          1           0       -3.410450    0.656719   -0.000033
     12          1           0       -1.390992    1.532924    0.893801
     13          1           0       -1.391037    1.532728   -0.894121
 ---------------------------------------------------------------------

 SCF Done:  E(RHF) =  -472.465972813     A.U. after    2 cycles

 The electronic state is 1-A.
 Alpha  occ. eigenvalues --  -21.12726 -21.10758 -21.08855 -21.08766 -15.75899
 Alpha  occ. eigenvalues --  -11.59093 -11.54464 -11.43742  -1.83013  -1.77283
 Alpha  occ. eigenvalues --   -1.73270  -1.67814  -1.38739  -1.08700  -0.91053
 Alpha  occ. eigenvalues --   -0.74500  -0.69894  -0.69737  -0.63986  -0.62657
 Alpha  occ. eigenvalues --   -0.60504  -0.56887  -0.55654  -0.49150  -0.46086
 Alpha  occ. eigenvalues --   -0.44426  -0.38497  -0.36212  -0.34485  -0.34077
 Alpha  occ. eigenvalues --   -0.31300
 Alpha virt. eigenvalues --    0.03015   0.05063   0.05340   0.05717   0.06368
 Alpha virt. eigenvalues --    0.08794   0.10344   0.10839   0.11696   0.12881
 Alpha virt. eigenvalues --    0.14075   0.14867   0.15600   0.15670   0.16420

 Mulliken charges:
               1
     1  O   -3.472940
     2  O   -3.472957
     3  O   -2.597713
     4  O   -2.750992
     5  N   -3.342262
     6  C    8.038074
     7  C   -1.393413
     8  C    3.735248
     9  H    0.824434
    10  H    0.824456
    11  H    0.865401
    12  H    1.371332
    13  H    1.371334
 Sum of Mulliken charges =  -0.00000

 Dipole moment (field-independent basis, Debye):
    X=             -1.8938    Y=             -0.0342    Z=              0.0001  Tot=              1.8941

 Test job not archived.
 1\1\GINC-SE168\SP\RHF\Aug-CC-pVDZ\C3H5N1O4\OHZDE\06-Apr-2025\0\\#t hf
 aug-cc-pvdz iop(5/13=1,5/36=2,99/5=2) pseudo=read geom=check guess=(re
 ad,tcheck) scf=(maxcycle=1)\\title\\0,1\O,0,-0.307443,-0.870123,-1.164
 144\O,0,-0.307406,-0.86988,1.16429\O,0,-2.62778,0.100056,0.000029\O,0,
 3.229423,0.053522,0.00003\N,0,0.941114,0.662461,-0.000117\C,0,-0.28138
 3,-0.078177,-0.000011\C,0,-1.450502,0.910137,-0.00009\C,0,2.088626,0.2
 80911,-0.000031\H,0,-1.215065,-1.172916,-1.29579\H,0,-1.215054,-1.1725
 15,1.296121\H,0,-3.41045,0.656719,-0.000033\H,0,-1.390992,1.532924,0.8

 Normal termination of Gaussian 16 at Sun Apr  6 07:59:50 2025.
