 Gaussian 16, Revision C.01,

 ----------------------------------------------------------------------
 #t hf aug-cc-pvdz symm=none int=(grid=ultrafine) guess=(read,tcheck) s
 table=(opt,rrhf)
 ----------------------------------------------------------------------
 -----
 title
 -----
 Symbolic Z-matrix:
 Charge =  0 Multiplicity = 1

 SCF Done:  E(RHF) =  -470.489091831     A.U. after   14 cycles
 Normal termination of Gaussian 16 at Sun Apr  6 07:59:44 2025.
 Gaussian 16:  ES64L-G16RevC.01  3-Jul-2019

 ----------------------------------------------------------------------
 #t hf aug-cc-pvdz iop(5/13=1,5/36=2,99/5=2) pseudo=read geom=check gue
 ss=(read,tcheck) scf=(maxcycle=1)
 ----------------------------------------------------------------------
 -----
 title
 -----
 Structure from the checkpoint file:  "1-isocyanato-1-2-2-ethanetriol.chk"
 Charge =  0 Multiplicity = 1

                         Standard orientation:
 ---------------------------------------------------------------------
 Center     Atomic      Atomic             Coordinates (Angstroms)
 Number     Number       Type             X           Y           Z
 ---------------------------------------------------------------------
      1          8           0       -1.482146   -1.542331    0.230188
      2          8           0       -0.780161    0.943861    1.241654
      3          8           0       -0.288525    1.618368   -0.871586
      4          8           0        2.697279    0.071265    0.337982
      5          7           0        0.716696   -0.999336   -0.393493
      6          6           0       -0.677117   -0.691619   -0.564145
      7          6           0       -1.055012    0.730034   -0.123074
      8          6           0        1.681516   -0.387203   -0.003450
      9          1           0       -1.203672   -2.453161    0.090455
     10          1           0       -1.228041    0.256337    1.750743
     11          1           0       -0.405482    2.503660   -0.509998
     12          1           0       -0.919496   -0.810808   -1.623032
     13          1           0       -2.128076    0.862744   -0.315611
 ---------------------------------------------------------------------

 SCF Done:  E(RHF) =  -472.463109769     A.U. after    2 cycles

 The electronic state is 1-A.
 Alpha  occ. eigenvalues --  -21.11799 -21.10148 -21.09571 -21.08859 -15.75968
 Alpha  occ. eigenvalues --  -11.57843 -11.52871 -11.45574  -1.82430  -1.76519
 Alpha  occ. eigenvalues --   -1.74602  -1.66860  -1.38929  -1.07046  -0.90973
 Alpha  occ. eigenvalues --   -0.74456  -0.72527  -0.69991  -0.65239  -0.60849
 Alpha  occ. eigenvalues --   -0.59550  -0.57476  -0.53905  -0.47437  -0.45490
 Alpha  occ. eigenvalues --   -0.44084  -0.37883  -0.36746  -0.35598  -0.33236
 Alpha  occ. eigenvalues --   -0.32426
 Alpha virt. eigenvalues --    0.03760   0.05089   0.05383   0.05992   0.06299
 Alpha virt. eigenvalues --    0.08783   0.09971   0.10909   0.11630   0.12898
 Alpha virt. eigenvalues --    0.13544   0.14611   0.15268   0.16490   0.16711

 Mulliken charges:
               1
     1  O   -3.059363
     2  O   -2.733629
     3  O   -2.778714
     4  O   -2.541969
     5  N   -2.550442
     6  C    1.652886
     7  C    2.864021
     8  C    3.685927
     9  H    0.787082
    10  H    0.771832
    11  H    0.642650
    12  H    1.729881
    13  H    1.529839
 Sum of Mulliken charges =   0.00000

 Dipole moment (field-independent basis, Debye):
    X=             -1.1842    Y=              0.5470    Z=              0.1974  Tot=              1.3193

 Test job not archived.
 1\1\GINC-SE275\SP\RHF\Aug-CC-pVDZ\C3H5N1O4\OHZDE\06-Apr-2025\0\\#t hf
 aug-cc-pvdz iop(5/13=1,5/36=2,99/5=2) pseudo=read geom=check guess=(re
 ad,tcheck) scf=(maxcycle=1)\\title\\0,1\O,0,-1.482146,-1.542331,0.2301
 88\O,0,-0.780161,0.943861,1.241654\O,0,-0.288525,1.618368,-0.871586\O,
 0,2.697279,0.071265,0.337982\N,0,0.716696,-0.999336,-0.393493\C,0,-0.6
 77117,-0.691619,-0.564145\C,0,-1.055012,0.730034,-0.123074\C,0,1.68151
 6,-0.387203,-0.00345\H,0,-1.203672,-2.453161,0.090455\H,0,-1.228041,0.
 256337,1.750743\H,0,-0.405482,2.50366,-0.509998\H,0,-0.919496,-0.81080

 Normal termination of Gaussian 16 at Sun Apr  6 07:59:50 2025.
