 Gaussian 16, Revision C.01,

 ----------------------------------------------------------------------
 #t hf aug-cc-pvdz symm=none int=(grid=ultrafine) guess=(read,tcheck) s
 table=(opt,rrhf)
 ----------------------------------------------------------------------
 -----
 title
 -----
 Symbolic Z-matrix:
 Charge =  0 Multiplicity = 1

 SCF Done:  E(RHF) =  -386.885232005     A.U. after   15 cycles
 Normal termination of Gaussian 16 at Sun Apr  6 08:01:55 2025.
 Gaussian 16:  ES64L-G16RevC.01  3-Jul-2019

 ----------------------------------------------------------------------
 #t hf aug-cc-pvdz iop(5/13=1,5/36=2,99/5=2) pseudo=read geom=check gue
 ss=(read,tcheck) scf=(maxcycle=1)
 ----------------------------------------------------------------------
 -----
 title
 -----
 Structure from the checkpoint file:  "1-isopropyl-4-methylbenzene.chk"
 Charge =  0 Multiplicity = 1

                         Standard orientation:
 ---------------------------------------------------------------------
 Center     Atomic      Atomic             Coordinates (Angstroms)
 Number     Number       Type             X           Y           Z
 ---------------------------------------------------------------------
      1          6           0        1.600593    1.193755    0.000030
      2          6           0        1.362015   -1.179084   -0.000623
      3          6           0        0.214960    1.329237    0.000273
      4          6           0       -0.018274   -1.043342   -0.000385
      5          6           0        2.201025   -0.061784   -0.000327
      6          6           0       -0.622831    0.217224    0.000106
      7          6           0        3.699139   -0.219727    0.000340
      8          6           0       -2.774529   -0.208537    1.265773
      9          6           0       -2.774681   -0.207345   -1.265700
     10          6           0       -2.132337    0.379225    0.000275
     11          1           0        2.220883    2.081689    0.000055
     12          1           0        1.797012   -2.171508   -0.001121
     13          1           0       -0.219605    2.321673    0.000499
     14          1           0       -0.631041   -1.935901   -0.000690
     15          1           0        4.039551   -0.780061   -0.872912
     16          1           0        4.199664    0.747760   -0.008810
     17          1           0        4.040365   -0.763522    0.883764
     18          1           0       -2.623372   -1.288055    1.321226
     19          1           0       -3.850322   -0.023817    1.272330
     20          1           0       -2.347796    0.233736    2.166427
     21          1           0       -2.348059    0.235781   -2.165987
     22          1           0       -3.850477   -0.022626   -1.271955
     23          1           0       -2.623518   -1.286809   -1.322188
     24          1           0       -2.333765    1.453939    0.000792
 ---------------------------------------------------------------------

 SCF Done:  E(RHF) =  -388.831123452     A.U. after    2 cycles

 The electronic state is 1-A.
 Alpha  occ. eigenvalues --  -11.50795 -11.44486 -11.42937 -11.42313 -11.41187
 Alpha  occ. eigenvalues --  -11.39723 -11.38282 -11.37942 -11.36879 -11.34831
 Alpha  occ. eigenvalues --   -1.36440  -1.22517  -1.11146  -1.08334  -0.99829
 Alpha  occ. eigenvalues --   -0.98646  -0.86939  -0.85343  -0.79176  -0.67574
 Alpha  occ. eigenvalues --   -0.63935  -0.62515  -0.58476  -0.58077  -0.57271
 Alpha  occ. eigenvalues --   -0.56621  -0.56028  -0.53266  -0.51260  -0.48613
 Alpha  occ. eigenvalues --   -0.48029  -0.45588  -0.44042  -0.42076  -0.39718
 Alpha  occ. eigenvalues --   -0.32240  -0.30075
 Alpha virt. eigenvalues --    0.03629   0.04474   0.05416   0.05455   0.05460
 Alpha virt. eigenvalues --    0.05650   0.06411   0.06580   0.06867   0.07308
 Alpha virt. eigenvalues --    0.07377   0.08243   0.09068   0.10052   0.11127

 Mulliken charges:
               1
     1  C   -0.966178
     2  C   -2.592579
     3  C   -4.473844
     4  C   -3.113412
     5  C    1.634750
     6  C    6.317977
     7  C   -6.171735
     8  C   -4.516233
     9  C   -4.516220
    10  C   -1.907761
    11  H    1.872482
    12  H    1.850862
    13  H    1.840958
    14  H    2.092932
    15  H    1.076621
    16  H    1.301706
    17  H    1.078023
    18  H    1.395458
    19  H    1.256197
    20  H    1.269419
    21  H    1.269801
    22  H    1.256477
    23  H    1.394918
    24  H    1.349384
 Sum of Mulliken charges =   0.00000

 Dipole moment (field-independent basis, Debye):
    X=              0.0722    Y=              0.0409    Z=              0.0010  Tot=              0.0830

 Test job not archived.
 1\1\GINC-SE398\SP\RHF\Aug-CC-pVDZ\C10H14\OHZDE\06-Apr-2025\0\\#t hf au
 g-cc-pvdz iop(5/13=1,5/36=2,99/5=2) pseudo=read geom=check guess=(read
 ,tcheck) scf=(maxcycle=1)\\title\\0,1\C,0,1.600593,1.193755,0.00003\C,
 0,1.362015,-1.179084,-0.000623\C,0,0.21496,1.329237,0.000273\C,0,-0.01
 8274,-1.043342,-0.000385\C,0,2.201025,-0.061784,-0.000327\C,0,-0.62283
 1,0.217224,0.000106\C,0,3.699139,-0.219727,0.00034\C,0,-2.774529,-0.20
 8537,1.265773\C,0,-2.774681,-0.207345,-1.2657\C,0,-2.132337,0.379225,0
 .000275\H,0,2.220883,2.081689,0.000055\H,0,1.797012,-2.171508,-0.00112

 Normal termination of Gaussian 16 at Sun Apr  6 08:02:09 2025.
