 Gaussian 16, Revision C.01,

 ----------------------------------------------------------------------
 #t hf aug-cc-pvdz symm=none int=(grid=ultrafine) guess=(read,tcheck) s
 table=(opt,rrhf)
 ----------------------------------------------------------------------
 -----
 title
 -----
 Symbolic Z-matrix:
 Charge =  0 Multiplicity = 1

 SCF Done:  E(RHF) =  -295.831913771     A.U. after   16 cycles
 Normal termination of Gaussian 16 at Sun Apr  6 07:59:26 2025.
 Gaussian 16:  ES64L-G16RevC.01  3-Jul-2019

 ----------------------------------------------------------------------
 #t hf aug-cc-pvdz iop(5/13=1,5/36=2,99/5=2) pseudo=read geom=check gue
 ss=(read,tcheck) scf=(maxcycle=1)
 ----------------------------------------------------------------------
 -----
 title
 -----
 Structure from the checkpoint file:  "1-methyl-1H-tetrazole.chk"
 Charge =  0 Multiplicity = 1

                         Standard orientation:
 ---------------------------------------------------------------------
 Center     Atomic      Atomic             Coordinates (Angstroms)
 Number     Number       Type             X           Y           Z
 ---------------------------------------------------------------------
      1          6           0       -0.115632    2.015647    0.000000
      2          1           0       -0.652547    2.342305    0.887714
      3          1           0       -0.652547    2.342305   -0.887714
      4          1           0        0.882425    2.445220    0.000000
      5          7           0        0.000000    0.569086    0.000000
      6          7           0       -1.090343   -0.221557    0.000000
      7          7           0       -0.666004   -1.437578    0.000000
      8          1           0        2.096573    0.126082    0.000000
      9          6           0        1.080585   -0.227007    0.000000
     10          7           0        0.690116   -1.479630    0.000000
 ---------------------------------------------------------------------

 SCF Done:  E(RHF) =  -297.170158049     A.U. after    2 cycles

 The electronic state is 1-A'.
 Alpha  occ. eigenvalues --  -15.82990 -15.80137 -15.78903 -15.75635 -11.46062
 Alpha  occ. eigenvalues --  -11.44806  -1.74855  -1.41118  -1.29185  -1.08603
 Alpha  occ. eigenvalues --   -0.88627  -0.85443  -0.73707  -0.70457  -0.62181
 Alpha  occ. eigenvalues --   -0.60203  -0.59834  -0.50531  -0.41123  -0.40510
 Alpha  occ. eigenvalues --   -0.39258  -0.38464
 Alpha virt. eigenvalues --    0.02265   0.04717   0.05535   0.05697   0.09626
 Alpha virt. eigenvalues --    0.09914   0.11237   0.12694   0.13663   0.14302
 Alpha virt. eigenvalues --    0.15357   0.15909   0.16502   0.16674   0.17026

 Mulliken charges:
               1
     1  C   -3.109795
     2  H    1.454845
     3  H    1.454845
     4  H    1.377742
     5  N   -1.970376
     6  N    0.019866
     7  N   -0.245664
     8  H    1.566954
     9  C    1.137425
    10  N   -1.685842
 Sum of Mulliken charges =  -0.00000

 Dipole moment (field-independent basis, Debye):
    X=              1.9497    Y=              5.1978    Z=              0.0000  Tot=              5.5515

 Test job not archived.
 1\1\GINC-SE454\SP\RHF\Aug-CC-pVDZ\C2H4N4\OHZDE\06-Apr-2025\0\\#t hf au
 g-cc-pvdz iop(5/13=1,5/36=2,99/5=2) pseudo=read geom=check guess=(read
 ,tcheck) scf=(maxcycle=1)\\title\\0,1\C,0,-0.115632,2.015647,0.\H,0,-0
 .652547,2.342305,0.887714\H,0,-0.652547,2.342305,-0.887714\H,0,0.88242
 5,2.44522,0.\N,0,0.,0.569086,0.\N,0,-1.090343,-0.221557,0.\N,0,-0.6660
 04,-1.437578,0.\H,0,2.096573,0.126082,0.\C,0,1.080585,-0.227007,0.\N,0
 ,0.690116,-1.47963,0.\\Version=ES64L-G16RevC.01\State=1-A'\HF=-297.170
 158\RMSD=9.830e-02\Dipole=0.7670676,2.0449906,0.\Quadrupole=0.0030632,

 Normal termination of Gaussian 16 at Sun Apr  6 07:59:30 2025.
