 Gaussian 16, Revision C.01,

 ----------------------------------------------------------------------
 #t hf aug-cc-pvdz symm=none int=(grid=ultrafine) guess=(read,tcheck) s
 table=(opt,rrhf)
 ----------------------------------------------------------------------
 -----
 title
 -----
 Symbolic Z-matrix:
 Charge =  0 Multiplicity = 1

 SCF Done:  E(RHF) =  -232.169613976     A.U. after   12 cycles

 1\1\GINC-SE422\Stability\RHF\Aug-CC-pVDZ\C4H10O1\OHZDE\06-Apr-2025\0\\
 #t hf aug-cc-pvdz symm=none int=(grid=ultrafine) guess=(read,tcheck) s
 table=(opt,rrhf)\\title\\0,1\C,0,2.489725,-0.124251,0.\C,0,-2.342568,0
 .613953,0.\C,0,1.086798,-0.728805,0.\C,0,0.,0.330652,0.\O,0,-1.268327,
 -0.300846,0.\H,0,2.655854,0.498469,0.881326\H,0,3.251026,-0.904383,0.\
 H,0,2.655854,0.498469,-0.881326\H,0,-2.324263,1.255246,0.889932\H,0,-3
 .26375,0.034649,0.\H,0,-2.324263,1.255246,-0.889932\H,0,0.951134,-1.36
 6811,0.875899\H,0,0.951134,-1.366811,-0.875899\H,0,0.095077,0.9767,0.8

 Normal termination of Gaussian 16 at Sun Apr  6 07:59:32 2025.
 Gaussian 16:  ES64L-G16RevC.01  3-Jul-2019

 ----------------------------------------------------------------------
 #t hf aug-cc-pvdz iop(5/13=1,5/36=2,99/5=2) pseudo=read geom=check gue
 ss=(read,tcheck) scf=(maxcycle=1)
 ----------------------------------------------------------------------
 -----
 title
 -----
 Structure from the checkpoint file:  "1-methoxypropane.chk"
 Charge =  0 Multiplicity = 1

                         Standard orientation:
 ---------------------------------------------------------------------
 Center     Atomic      Atomic             Coordinates (Angstroms)
 Number     Number       Type             X           Y           Z
 ---------------------------------------------------------------------
      1          6           0        2.489725   -0.124250    0.000000
      2          6           0       -2.342568    0.613952    0.000000
      3          6           0        1.086798   -0.728805    0.000000
      4          6           0        0.000000    0.330652    0.000000
      5          8           0       -1.268327   -0.300847    0.000000
      6          1           0        2.655854    0.498470    0.881326
      7          1           0        3.251027   -0.904382    0.000000
      8          1           0        2.655854    0.498470   -0.881326
      9          1           0       -2.324263    1.255245    0.889932
     10          1           0       -3.263750    0.034648    0.000000
     11          1           0       -2.324263    1.255245   -0.889932
     12          1           0        0.951135   -1.366811    0.875899
     13          1           0        0.951135   -1.366811   -0.875899
     14          1           0        0.095077    0.976700    0.885030
     15          1           0        0.095077    0.976700   -0.885030
 ---------------------------------------------------------------------

 SCF Done:  E(RHF) =  -233.300129055     A.U. after    2 cycles

 The electronic state is 1-A'.
 Alpha  occ. eigenvalues --  -21.03634 -11.42762 -11.39670 -11.38877 -11.34868
 Alpha  occ. eigenvalues --   -1.74397  -1.18693  -1.01314  -0.92030  -0.84108
 Alpha  occ. eigenvalues --   -0.66265  -0.61836  -0.59469  -0.58072  -0.56253
 Alpha  occ. eigenvalues --   -0.54139  -0.47564  -0.46608  -0.43205  -0.38072
 Alpha  occ. eigenvalues --   -0.29296
 Alpha virt. eigenvalues --    0.04036   0.05045   0.05590   0.05921   0.06053
 Alpha virt. eigenvalues --    0.06469   0.06819   0.07372   0.08678   0.09540
 Alpha virt. eigenvalues --    0.10958   0.12082   0.14678   0.15640   0.15903

 Mulliken charges:
               1
     1  C   -3.450024
     2  C   -3.141333
     3  C   -3.557198
     4  C   -0.600166
     5  O   -3.017021
     6  H    1.263075
     7  H    1.137017
     8  H    1.263075
     9  H    1.323608
    10  H    1.302150
    11  H    1.323608
    12  H    1.419665
    13  H    1.419665
    14  H    1.656940
    15  H    1.656940
 Sum of Mulliken charges =  -0.00000

 Dipole moment (field-independent basis, Debye):
    X=              0.0934    Y=              0.2357    Z=              0.0000  Tot=              0.2535

 Test job not archived.
 1\1\GINC-SE422\SP\RHF\Aug-CC-pVDZ\C4H10O1\OHZDE\06-Apr-2025\0\\#t hf a
 ug-cc-pvdz iop(5/13=1,5/36=2,99/5=2) pseudo=read geom=check guess=(rea
 d,tcheck) scf=(maxcycle=1)\\title\\0,1\C,0,2.489725,-0.124251,0.\C,0,-
 2.342568,0.613953,0.\C,0,1.086798,-0.728805,0.\C,0,0.,0.330652,0.\O,0,
 -1.268327,-0.300846,0.\H,0,2.655854,0.498469,0.881326\H,0,3.251026,-0.
 904383,0.\H,0,2.655854,0.498469,-0.881326\H,0,-2.324263,1.255246,0.889
 932\H,0,-3.26375,0.034649,0.\H,0,-2.324263,1.255246,-0.889932\H,0,0.95
 1134,-1.366811,0.875899\H,0,0.951134,-1.366811,-0.875899\H,0,0.095077,

 Normal termination of Gaussian 16 at Sun Apr  6 07:59:35 2025.
