 Gaussian 16, Revision C.01,

 ----------------------------------------------------------------------
 #t hf aug-cc-pvdz symm=none int=(grid=ultrafine) guess=(read,tcheck) s
 table=(opt,rrhf)
 ----------------------------------------------------------------------
 -----
 title
 -----
 Symbolic Z-matrix:
 Charge =  0 Multiplicity = 1

 SCF Done:  E(RHF) =  -247.011640664     A.U. after   13 cycles
 Normal termination of Gaussian 16 at Sun Apr  6 07:59:23 2025.
 Gaussian 16:  ES64L-G16RevC.01  3-Jul-2019

 ----------------------------------------------------------------------
 #t hf aug-cc-pvdz iop(5/13=1,5/36=2,99/5=2) pseudo=read geom=check gue
 ss=(read,tcheck) scf=(maxcycle=1)
 ----------------------------------------------------------------------
 -----
 title
 -----
 Structure from the checkpoint file:  "1-methoxyethanimine.chk"
 Charge =  0 Multiplicity = 1

                         Standard orientation:
 ---------------------------------------------------------------------
 Center     Atomic      Atomic             Coordinates (Angstroms)
 Number     Number       Type             X           Y           Z
 ---------------------------------------------------------------------
      1          6           0        0.000000    0.513378    0.000000
      2          6           0        1.126362    1.500699    0.000000
      3          6           0       -0.434875   -1.838472    0.000000
      4          7           0       -1.214300    0.871560    0.000000
      5          8           0        0.493529   -0.759900    0.000000
      6          1           0        1.755164    1.352520    0.878602
      7          1           0        1.755164    1.352520   -0.878602
      8          1           0        0.727889    2.509956    0.000000
      9          1           0        0.161301   -2.746313    0.000000
     10          1           0       -1.064794   -1.818499   -0.892116
     11          1           0       -1.064794   -1.818499    0.892116
     12          1           0       -1.866987    0.092961    0.000000
 ---------------------------------------------------------------------

 SCF Done:  E(RHF) =  -248.156715315     A.U. after    2 cycles

 The electronic state is 1-A'.
 Alpha  occ. eigenvalues --  -21.08300 -15.71928 -11.47944 -11.41998 -11.37522
 Alpha  occ. eigenvalues --   -1.80037  -1.31012  -1.09496  -1.00114  -0.76791
 Alpha  occ. eigenvalues --   -0.67954  -0.63952  -0.62791  -0.58381  -0.54106
 Alpha  occ. eigenvalues --   -0.51831  -0.45677  -0.44522  -0.35790  -0.31789
 Alpha virt. eigenvalues --    0.03355   0.05210   0.05801   0.05915   0.06921
 Alpha virt. eigenvalues --    0.07016   0.07430   0.09458   0.13033   0.13661
 Alpha virt. eigenvalues --    0.14020   0.15215   0.15276   0.16234   0.16259

 Mulliken charges:
               1
     1  C    5.073354
     2  C   -4.083087
     3  C   -2.676369
     4  N   -3.243521
     5  O   -3.447248
     6  H    1.235417
     7  H    1.235417
     8  H    1.274304
     9  H    1.418200
    10  H    1.225270
    11  H    1.225270
    12  H    0.762994
 Sum of Mulliken charges =   0.00000

 Dipole moment (field-independent basis, Debye):
    X=              1.1053    Y=             -2.1159    Z=              0.0000  Tot=              2.3872

 Test job not archived.
 1\1\GINC-SE249\SP\RHF\Aug-CC-pVDZ\C3H7N1O1\OHZDE\06-Apr-2025\0\\#t hf
 aug-cc-pvdz iop(5/13=1,5/36=2,99/5=2) pseudo=read geom=check guess=(re
 ad,tcheck) scf=(maxcycle=1)\\title\\0,1\C,0,0.,0.513378,0.\C,0,1.12636
 2,1.500699,0.\C,0,-0.434875,-1.838472,0.\N,0,-1.2143,0.87156,0.\O,0,0.
 493529,-0.7599,0.\H,0,1.755164,1.35252,0.878602\H,0,1.755164,1.35252,-
 0.878602\H,0,0.727889,2.509956,0.\H,0,0.161301,-2.746313,0.\H,0,-1.064
 794,-1.818499,-0.892116\H,0,-1.064794,-1.818499,0.892116\H,0,-1.866987
 ,0.092961,0.\\Version=ES64L-G16RevC.01\State=1-A'\HF=-248.1567153\RMSD

 Normal termination of Gaussian 16 at Sun Apr  6 07:59:27 2025.
