 Gaussian 16, Revision C.01,

 ----------------------------------------------------------------------
 #t hf aug-cc-pvdz symm=none int=(grid=ultrafine) guess=(read,tcheck) s
 table=(opt,rrhf)
 ----------------------------------------------------------------------
 -----
 title
 -----
 Symbolic Z-matrix:
 Charge =  0 Multiplicity = 1

 SCF Done:  E(RHF) =  -893.846914192     A.U. after   16 cycles
 Normal termination of Gaussian 16 at Sun Apr  6 08:02:40 2025.
 Gaussian 16:  ES64L-G16RevC.01  3-Jul-2019

 ----------------------------------------------------------------------
 #t hf aug-cc-pvdz iop(5/13=1,5/36=2,99/5=2) pseudo=read geom=check gue
 ss=(read,tcheck) scf=(maxcycle=1)
 ----------------------------------------------------------------------
 -----
 title
 -----
 Structure from the checkpoint file:  "1-methyl-4-vinylsulfonylbenzene.chk"
 Charge =  0 Multiplicity = 1

                         Standard orientation:
 ---------------------------------------------------------------------
 Center     Atomic      Atomic             Coordinates (Angstroms)
 Number     Number       Type             X           Y           Z
 ---------------------------------------------------------------------
      1          6           0       -3.078529   -1.367977    1.210348
      2          6           0       -2.305286   -0.296520    1.197245
      3         16           0       -1.653876    0.347458   -0.339227
      4          8           0       -2.103694   -0.521011   -1.422004
      5          8           0       -1.949843    1.776690   -0.353711
      6          6           0        0.119813    0.156743   -0.166060
      7          6           0        0.875233    1.211605    0.329411
      8          6           0        2.250170    1.058628    0.455227
      9          6           0        2.880484   -0.132464    0.093069
     10          6           0        4.367008   -0.302232    0.252868
     11          6           0        2.095867   -1.173407   -0.412746
     12          6           0        0.722573   -1.038461   -0.544117
     13          1           0       -3.301679   -1.900515    0.295654
     14          1           0       -3.514621   -1.728332    2.132549
     15          1           0       -2.049479    0.296576    2.064631
     16          1           0        0.392477    2.143116    0.587644
     17          1           0        2.842356    1.882699    0.831571
     18          1           0        4.794103   -0.860951   -0.579957
     19          1           0        4.597393   -0.855973    1.166365
     20          1           0        4.873811    0.659644    0.314839
     21          1           0        2.568975   -2.098441   -0.716657
     22          1           0        0.122971   -1.838083   -0.954756
 ---------------------------------------------------------------------

 SCF Done:  E(RHF) =  -896.420598295     A.U. after    2 cycles

 The electronic state is 1-A.
 Alpha  occ. eigenvalues --  -75.88302 -21.03627 -21.03450 -13.50207 -13.40304
 Alpha  occ. eigenvalues --  -13.36766 -11.53474 -11.46263 -11.45932 -11.45561
 Alpha  occ. eigenvalues --  -11.44991 -11.42692 -11.41597 -11.40322 -11.38226
 Alpha  occ. eigenvalues --   -8.23201  -1.81610  -1.63945  -1.37794  -1.21213
 Alpha  occ. eigenvalues --   -1.17069  -1.11455  -1.04629  -0.97112  -0.89243
 Alpha  occ. eigenvalues --   -0.85831  -0.80746  -0.71949  -0.67557  -0.65119
 Alpha  occ. eigenvalues --   -0.63133  -0.61486  -0.59992  -0.59306  -0.57755
 Alpha  occ. eigenvalues --   -0.54553  -0.53806  -0.50336  -0.47245  -0.46361
 Alpha  occ. eigenvalues --   -0.43730  -0.40972  -0.38495  -0.37190  -0.35252
 Alpha  occ. eigenvalues --   -0.34825  -0.34410  -0.33640
 Alpha virt. eigenvalues --    0.02772   0.03917   0.04478   0.05066   0.05661
 Alpha virt. eigenvalues --    0.05751   0.06598   0.06883   0.07585   0.08016
 Alpha virt. eigenvalues --    0.08132   0.09160   0.10218   0.11183   0.11592

 Mulliken charges:
               1
     1  C   -3.024197
     2  C   -2.468781
     3  S    7.400297
     4  O   -2.937188
     5  O   -2.934528
     6  C    2.565534
     7  C   -5.305783
     8  C    0.069600
     9  C    2.089723
    10  C   -5.860419
    11  C   -0.469605
    12  C   -4.372932
    13  H    1.438222
    14  H    1.391134
    15  H    1.373326
    16  H    1.986731
    17  H    1.839703
    18  H    1.070386
    19  H    1.128062
    20  H    1.189860
    21  H    1.837610
    22  H    1.993244
 Sum of Mulliken charges =   0.00000

 Dipole moment (field-independent basis, Debye):
    X=              2.4974    Y=             -1.6504    Z=              1.9177  Tot=              3.5551

 Test job not archived.
 1\1\GINC-SE041\SP\RHF\Aug-CC-pVDZ\C9H10O2S1\OHZDE\06-Apr-2025\0\\#t hf
  aug-cc-pvdz iop(5/13=1,5/36=2,99/5=2) pseudo=read geom=check guess=(r
 ead,tcheck) scf=(maxcycle=1)\\title\\0,1\C,0,-3.078529,-1.367977,1.210
 348\C,0,-2.305286,-0.29652,1.197245\S,0,-1.653876,0.347458,-0.339227\O
 ,0,-2.103694,-0.521011,-1.422004\O,0,-1.949843,1.77669,-0.353711\C,0,0
 .119813,0.156743,-0.16606\C,0,0.875233,1.211605,0.329411\C,0,2.25017,1
 .058628,0.455227\C,0,2.880484,-0.132464,0.093069\C,0,4.367008,-0.30223
 2,0.252868\C,0,2.095867,-1.173407,-0.412746\C,0,0.722573,-1.038461,-0.

 Normal termination of Gaussian 16 at Sun Apr  6 08:03:01 2025.
