 Gaussian 16, Revision C.01,

 ----------------------------------------------------------------------
 #t hf aug-cc-pvdz symm=none int=(grid=ultrafine) guess=(read,tcheck) s
 table=(opt,rrhf)
 ----------------------------------------------------------------------
 -----
 title
 -----
 Symbolic Z-matrix:
 Charge =  0 Multiplicity = 1

 SCF Done:  E(RHF) =  -743.555390698     A.U. after   13 cycles
 Normal termination of Gaussian 16 at Sun Apr  6 08:01:07 2025.
 Gaussian 16:  ES64L-G16RevC.01  3-Jul-2019

 ----------------------------------------------------------------------
 #t hf aug-cc-pvdz iop(5/13=1,5/36=2,99/5=2) pseudo=read geom=check gue
 ss=(read,tcheck) scf=(maxcycle=1)
 ----------------------------------------------------------------------
 -----
 title
 -----
 Structure from the checkpoint file:  "1-methylsulfonylbutane.chk"
 Charge =  0 Multiplicity = 1

                         Standard orientation:
 ---------------------------------------------------------------------
 Center     Atomic      Atomic             Coordinates (Angstroms)
 Number     Number       Type             X           Y           Z
 ---------------------------------------------------------------------
      1          6           0        3.923243   -0.294842    0.000054
      2          6           0        2.698256    0.617692   -0.000087
      3          6           0        1.382566   -0.165828    0.000024
      4          6           0        0.168891    0.759188   -0.000133
      5         16           0       -1.375513   -0.194329    0.000033
      6          6           0       -2.659703    1.068823   -0.000208
      7          8           0       -1.466231   -0.923301   -1.262796
      8          8           0       -1.466246   -0.922837    1.263128
      9          1           0        3.934055   -0.938927    0.881033
     10          1           0        3.934060   -0.939189   -0.880734
     11          1           0        4.846873    0.284744   -0.000030
     12          1           0        2.730480    1.272993   -0.875356
     13          1           0        2.730472    1.273253    0.874988
     14          1           0        1.338291   -0.814008    0.877013
     15          1           0        1.338307   -0.814284   -0.876761
     16          1           0        0.138588    1.388271   -0.890317
     17          1           0        0.138590    1.388574    0.889838
     18          1           0       -3.601690    0.525093   -0.000121
     19          1           0       -2.569767    1.670989    0.899941
     20          1           0       -2.569747    1.670664   -0.900573
 ---------------------------------------------------------------------

 SCF Done:  E(RHF) =  -745.478521116     A.U. after    2 cycles

 The electronic state is 1-A.
 Alpha  occ. eigenvalues --  -75.87378 -21.03228 -21.03192 -13.48787 -13.40150
 Alpha  occ. eigenvalues --  -13.34762 -11.45365 -11.42921 -11.42250 -11.39152
 Alpha  occ. eigenvalues --  -11.36208  -8.22353  -1.81147  -1.63385  -1.27360
 Alpha  occ. eigenvalues --   -1.16505  -1.09616  -0.97093  -0.86662  -0.84179
 Alpha  occ. eigenvalues --   -0.68465  -0.65251  -0.63145  -0.62397  -0.60786
 Alpha  occ. eigenvalues --   -0.57669  -0.55875  -0.52465  -0.52174  -0.47357
 Alpha  occ. eigenvalues --   -0.47324  -0.45482  -0.42223  -0.37977  -0.37139
 Alpha  occ. eigenvalues --   -0.34324  -0.33721
 Alpha virt. eigenvalues --    0.02958   0.03834   0.04585   0.04941   0.05898
 Alpha virt. eigenvalues --    0.06207   0.06406   0.06762   0.08023   0.08465
 Alpha virt. eigenvalues --    0.08602   0.09962   0.10564   0.11892   0.12647

 Mulliken charges:
               1
     1  C   -4.330496
     2  C   -2.907424
     3  C   -1.971892
     4  C   -3.718631
     5  S    5.831668
     6  C   -4.915656
     7  O   -2.468772
     8  O   -2.468771
     9  H    1.325390
    10  H    1.325386
    11  H    1.074772
    12  H    1.428706
    13  H    1.428700
    14  H    1.586213
    15  H    1.586213
    16  H    1.562505
    17  H    1.562507
    18  H    1.297504
    19  H    1.386040
    20  H    1.386037
 Sum of Mulliken charges =   0.00000

 Dipole moment (field-independent basis, Debye):
    X=              0.9625    Y=              2.1860    Z=             -0.0004  Tot=              2.3885

 Test job not archived.
 1\1\GINC-SE200\SP\RHF\Aug-CC-pVDZ\C5H12O2S1\OHZDE\06-Apr-2025\0\\#t hf
  aug-cc-pvdz iop(5/13=1,5/36=2,99/5=2) pseudo=read geom=check guess=(r
 ead,tcheck) scf=(maxcycle=1)\\title\\0,1\C,0,3.923243,-0.294842,0.0000
 54\C,0,2.698256,0.617692,-0.000087\C,0,1.382566,-0.165828,0.000024\C,0
 ,0.168891,0.759188,-0.000133\S,0,-1.375513,-0.194329,0.000033\C,0,-2.6
 59703,1.068823,-0.000208\O,0,-1.466231,-0.923301,-1.262796\O,0,-1.4662
 46,-0.922837,1.263128\H,0,3.934055,-0.938927,0.881033\H,0,3.93406,-0.9
 39189,-0.880734\H,0,4.846873,0.284744,-0.00003\H,0,2.73048,1.272993,-0

 Normal termination of Gaussian 16 at Sun Apr  6 08:01:20 2025.
