 Gaussian 16, Revision C.01,

 ----------------------------------------------------------------------
 #t hf aug-cc-pvdz symm=none int=(grid=ultrafine) guess=(read,tcheck) s
 table=(opt,rrhf)
 ----------------------------------------------------------------------
 -----
 title
 -----
 Symbolic Z-matrix:
 Charge =  0 Multiplicity = 1

 SCF Done:  E(RHF) =  -305.241423964     A.U. after   12 cycles

 1\1\GINC-SE014\Stability\RHF\Aug-CC-pVDZ\C5H12N2\OHZDE\06-Apr-2025\0\\
 #t hf aug-cc-pvdz symm=none int=(grid=ultrafine) guess=(read,tcheck) s
 table=(opt,rrhf)\\title\\0,1\C,0,-0.10432,-1.183383,1.206556\C,0,-0.10
 432,-1.183383,-1.206556\C,0,-0.10432,0.339172,1.204675\C,0,-0.10432,0.
 339172,-1.204675\C,0,0.628275,2.299249,0.\N,0,-0.76993,-1.666118,0.\N,
 0,0.541509,0.851074,0.\H,0,0.937429,-1.532481,1.281318\H,0,-0.646488,-
 1.547447,2.080373\H,0,-0.646488,-1.547447,-2.080373\H,0,0.937429,-1.53
 2481,-1.281318\H,0,-1.145389,0.697953,1.285374\H,0,0.442711,0.708091,2

 Normal termination of Gaussian 16 at Sun Apr  6 08:00:35 2025.
 Gaussian 16:  ES64L-G16RevC.01  3-Jul-2019

 ----------------------------------------------------------------------
 #t hf aug-cc-pvdz iop(5/13=1,5/36=2,99/5=2) pseudo=read geom=check gue
 ss=(read,tcheck) scf=(maxcycle=1)
 ----------------------------------------------------------------------
 -----
 title
 -----
 Structure from the checkpoint file:  "1-methylpiperazine.chk"
 Charge =  0 Multiplicity = 1

                         Standard orientation:
 ---------------------------------------------------------------------
 Center     Atomic      Atomic             Coordinates (Angstroms)
 Number     Number       Type             X           Y           Z
 ---------------------------------------------------------------------
      1          6           0       -0.104320   -1.183383    1.206556
      2          6           0       -0.104320   -1.183383   -1.206556
      3          6           0       -0.104320    0.339172    1.204675
      4          6           0       -0.104320    0.339172   -1.204675
      5          6           0        0.628275    2.299249   -0.000000
      6          7           0       -0.769930   -1.666118    0.000000
      7          7           0        0.541509    0.851074   -0.000000
      8          1           0        0.937429   -1.532481    1.281318
      9          1           0       -0.646488   -1.547447    2.080373
     10          1           0       -0.646488   -1.547447   -2.080373
     11          1           0        0.937429   -1.532481   -1.281318
     12          1           0       -1.145389    0.697953    1.285374
     13          1           0        0.442711    0.708091    2.074318
     14          1           0        0.442711    0.708091   -2.074318
     15          1           0       -1.145389    0.697953   -1.285374
     16          1           0        1.171992    2.637024    0.883042
     17          1           0       -0.360624    2.789441   -0.000000
     18          1           0        1.171992    2.637024   -0.883042
     19          1           0       -0.826919   -2.675387    0.000000
 ---------------------------------------------------------------------

 SCF Done:  E(RHF) =  -306.760293615     A.U. after    2 cycles

 The electronic state is 1-A'.
 Alpha  occ. eigenvalues --  -15.70743 -15.69393 -11.46795 -11.41770 -11.37706
 Alpha  occ. eigenvalues --  -11.36609 -11.35790  -1.46753  -1.33033  -1.13077
 Alpha  occ. eigenvalues --   -1.04153  -0.91412  -0.89793  -0.77847  -0.69759
 Alpha  occ. eigenvalues --   -0.63444  -0.63191  -0.60316  -0.58789  -0.55490
 Alpha  occ. eigenvalues --   -0.53858  -0.52472  -0.48811  -0.46845  -0.42438
 Alpha  occ. eigenvalues --   -0.41365  -0.32322  -0.30453
 Alpha virt. eigenvalues --    0.04447   0.05409   0.05640   0.05770   0.05905
 Alpha virt. eigenvalues --    0.05991   0.06380   0.06653   0.07606   0.08398
 Alpha virt. eigenvalues --    0.08533   0.08966   0.11950   0.12963   0.13944

 Mulliken charges:
               1
     1  C   -2.419511
     2  C   -2.419511
     3  C   -1.832925
     4  C   -1.832925
     5  C   -3.927368
     6  N   -2.094923
     7  N   -1.850643
     8  H    1.501577
     9  H    1.255155
    10  H    1.255155
    11  H    1.501577
    12  H    1.574771
    13  H    1.481876
    14  H    1.481876
    15  H    1.574771
    16  H    1.344030
    17  H    1.434512
    18  H    1.344030
    19  H    0.628476
 Sum of Mulliken charges =   0.00000

 Dipole moment (field-independent basis, Debye):
    X=              0.2956    Y=             -0.4185    Z=             -0.0000  Tot=              0.5124

 Test job not archived.
 1\1\GINC-SE014\SP\RHF\Aug-CC-pVDZ\C5H12N2\OHZDE\06-Apr-2025\0\\#t hf a
 ug-cc-pvdz iop(5/13=1,5/36=2,99/5=2) pseudo=read geom=check guess=(rea
 d,tcheck) scf=(maxcycle=1)\\title\\0,1\C,0,-0.10432,-1.183383,1.206556
 \C,0,-0.10432,-1.183383,-1.206556\C,0,-0.10432,0.339172,1.204675\C,0,-
 0.10432,0.339172,-1.204675\C,0,0.628275,2.299249,0.\N,0,-0.76993,-1.66
 6118,0.\N,0,0.541509,0.851074,0.\H,0,0.937429,-1.532481,1.281318\H,0,-
 0.646488,-1.547447,2.080373\H,0,-0.646488,-1.547447,-2.080373\H,0,0.93
 7429,-1.532481,-1.281318\H,0,-1.145389,0.697953,1.285374\H,0,0.442711,

 Normal termination of Gaussian 16 at Sun Apr  6 08:00:41 2025.
