 Gaussian 16, Revision C.01,

 ----------------------------------------------------------------------
 #t hf aug-cc-pvdz symm=none int=(grid=ultrafine) guess=(read,tcheck) s
 table=(opt,rrhf)
 ----------------------------------------------------------------------
 -----
 title
 -----
 Symbolic Z-matrix:
 Charge =  0 Multiplicity = 1

 SCF Done:  E(RHF) =  -422.913895800     A.U. after   14 cycles

 1\1\GINC-SE169\Stability\RHF\Aug-CC-pVDZ\C7H14O2\OHZDE\06-Apr-2025\0\\
 #t hf aug-cc-pvdz symm=none int=(grid=ultrafine) guess=(read,tcheck) s
 table=(opt,rrhf)\\title\\0,1\O,0,-2.016926,-1.21602,-0.772187\O,0,-1.0
 5402,-0.153372,-1.018473\C,0,-0.59446,0.399667,0.242789\C,0,-1.748089,
 1.091571,0.961695\C,0,0.047512,-0.692223,1.111646\C,0,1.271993,-1.3373
 32,0.459293\C,0,2.312818,-0.289435,0.056807\C,0,1.699456,0.775969,-0.8
 55005\C,0,0.461929,1.417906,-0.220985\H,0,-2.812365,-0.822759,-1.15403
 4\H,0,-2.514347,0.371918,1.247143\H,0,-2.19849,1.849073,0.318379\H,0,-

 Normal termination of Gaussian 16 at Sun Apr  6 08:01:28 2025.
 Gaussian 16:  ES64L-G16RevC.01  3-Jul-2019

 ----------------------------------------------------------------------
 #t hf aug-cc-pvdz iop(5/13=1,5/36=2,99/5=2) pseudo=read geom=check gue
 ss=(read,tcheck) scf=(maxcycle=1)
 ----------------------------------------------------------------------
 -----
 title
 -----
 Structure from the checkpoint file:  "1-methylcyclohexylhydroperoxide.chk"
 Charge =  0 Multiplicity = 1

                         Standard orientation:
 ---------------------------------------------------------------------
 Center     Atomic      Atomic             Coordinates (Angstroms)
 Number     Number       Type             X           Y           Z
 ---------------------------------------------------------------------
      1          8           0       -2.016926   -1.216020   -0.772187
      2          8           0       -1.054020   -0.153372   -1.018473
      3          6           0       -0.594460    0.399667    0.242789
      4          6           0       -1.748089    1.091571    0.961695
      5          6           0        0.047512   -0.692223    1.111646
      6          6           0        1.271993   -1.337332    0.459293
      7          6           0        2.312818   -0.289435    0.056807
      8          6           0        1.699456    0.775969   -0.855005
      9          6           0        0.461929    1.417906   -0.220985
     10          1           0       -2.812365   -0.822759   -1.154034
     11          1           0       -2.514347    0.371918    1.247143
     12          1           0       -2.198490    1.849073    0.318379
     13          1           0       -1.393009    1.581890    1.868465
     14          1           0        0.337697   -0.229451    2.059796
     15          1           0       -0.704912   -1.445089    1.346701
     16          1           0        0.955390   -1.894817   -0.424991
     17          1           0        1.710071   -2.062943    1.147967
     18          1           0        3.159370   -0.767676   -0.440398
     19          1           0        2.711283    0.189455    0.958403
     20          1           0        1.423587    0.321303   -1.808390
     21          1           0        2.433947    1.553119   -1.077801
     22          1           0       -0.005539    2.120714   -0.913867
     23          1           0        0.757931    1.993648    0.660473
 ---------------------------------------------------------------------

 SCF Done:  E(RHF) =  -424.926341337     A.U. after    2 cycles

 The electronic state is 1-A.
 Alpha  occ. eigenvalues --  -21.10642 -21.07851 -11.46805 -11.44119 -11.42038
 Alpha  occ. eigenvalues --  -11.40463 -11.37579 -11.36908 -11.33558  -1.92437
 Alpha  occ. eigenvalues --   -1.45596  -1.27904  -1.12422  -1.10501  -0.99663
 Alpha  occ. eigenvalues --   -0.88975  -0.83860  -0.75019  -0.66043  -0.64906
 Alpha  occ. eigenvalues --   -0.61748  -0.61078  -0.58013  -0.57503  -0.55524
 Alpha  occ. eigenvalues --   -0.52349  -0.51577  -0.47552  -0.46778  -0.46207
 Alpha  occ. eigenvalues --   -0.43995  -0.42450  -0.39280  -0.37447  -0.32332
 Alpha  occ. eigenvalues --   -0.28047
 Alpha virt. eigenvalues --    0.04310   0.04552   0.05025   0.05122   0.05230
 Alpha virt. eigenvalues --    0.05465   0.05933   0.06826   0.07223   0.08228
 Alpha virt. eigenvalues --    0.08260   0.08609   0.09109   0.09310   0.12729

 Mulliken charges:
               1
     1  O   -1.356013
     2  O   -3.146815
     3  C    9.959075
     4  C   -6.355695
     5  C   -4.616157
     6  C   -3.082088
     7  C   -2.791105
     8  C   -3.020288
     9  C   -3.925754
    10  H    1.001106
    11  H    1.271501
    12  H    1.232111
    13  H    1.129674
    14  H    1.256082
    15  H    1.619466
    16  H    1.445914
    17  H    1.244354
    18  H    1.335605
    19  H    1.385421
    20  H    1.445352
    21  H    1.247433
    22  H    1.402153
    23  H    1.318667
 Sum of Mulliken charges =   0.00000

 Dipole moment (field-independent basis, Debye):
    X=             -0.1124    Y=              0.3913    Z=              0.1898  Tot=              0.4492

 Test job not archived.
 1\1\GINC-SE169\SP\RHF\Aug-CC-pVDZ\C7H14O2\OHZDE\06-Apr-2025\0\\#t hf a
 ug-cc-pvdz iop(5/13=1,5/36=2,99/5=2) pseudo=read geom=check guess=(rea
 d,tcheck) scf=(maxcycle=1)\\title\\0,1\O,0,-2.016926,-1.21602,-0.77218
 7\O,0,-1.05402,-0.153372,-1.018473\C,0,-0.59446,0.399667,0.242789\C,0,
 -1.748089,1.091571,0.961695\C,0,0.047512,-0.692223,1.111646\C,0,1.2719
 93,-1.337332,0.459293\C,0,2.312818,-0.289435,0.056807\C,0,1.699456,0.7
 75969,-0.855005\C,0,0.461929,1.417906,-0.220985\H,0,-2.812365,-0.82275
 9,-1.154034\H,0,-2.514347,0.371918,1.247143\H,0,-2.19849,1.849073,0.31

 Normal termination of Gaussian 16 at Sun Apr  6 08:01:41 2025.
