 Gaussian 16, Revision C.01,

 ----------------------------------------------------------------------
 #t hf aug-cc-pvdz symm=none int=(grid=ultrafine) guess=(read,tcheck) s
 table=(opt,rrhf)
 ----------------------------------------------------------------------
 -----
 title
 -----
 Symbolic Z-matrix:
 Charge =  0 Multiplicity = 1

 SCF Done:  E(RHF) =  -704.516278511     A.U. after   13 cycles
 Normal termination of Gaussian 16 at Sun Apr  6 08:00:33 2025.
 Gaussian 16:  ES64L-G16RevC.01  3-Jul-2019

 ----------------------------------------------------------------------
 #t hf aug-cc-pvdz iop(5/13=1,5/36=2,99/5=2) pseudo=read geom=check gue
 ss=(read,tcheck) scf=(maxcycle=1)
 ----------------------------------------------------------------------
 -----
 title
 -----
 Structure from the checkpoint file:  "1-methylsulfonylpropane.chk"
 Charge =  0 Multiplicity = 1

                         Standard orientation:
 ---------------------------------------------------------------------
 Center     Atomic      Atomic             Coordinates (Angstroms)
 Number     Number       Type             X           Y           Z
 ---------------------------------------------------------------------
      1          8           0        1.052746   -0.884054    1.262930
      2         16           0        0.899001   -0.165953    0.000000
      3          8           0        1.052746   -0.884054   -1.262930
      4          6           0        2.067344    1.204889    0.000000
      5          6           0       -0.723417    0.647846    0.000000
      6          6           0       -1.851316   -0.380647    0.000000
      7          6           0       -3.225240    0.289975    0.000000
      8          1           0        3.053274    0.745574    0.000000
      9          1           0        1.925580    1.797049   -0.900169
     10          1           0        1.925580    1.797049    0.900169
     11          1           0       -0.749135    1.277504    0.890070
     12          1           0       -0.749135    1.277504   -0.890070
     13          1           0       -1.747958   -1.021292   -0.876349
     14          1           0       -1.747958   -1.021292    0.876349
     15          1           0       -3.362963    0.917670    0.882223
     16          1           0       -3.362963    0.917671   -0.882223
     17          1           0       -4.016488   -0.459710    0.000000
 ---------------------------------------------------------------------

 SCF Done:  E(RHF) =  -706.234114449     A.U. after    2 cycles

 The electronic state is 1-A.
 Alpha  occ. eigenvalues --  -75.87408 -21.03274 -21.03240 -13.48808 -13.39948
 Alpha  occ. eigenvalues --  -13.34327 -11.45075 -11.42560 -11.41202 -11.37341
 Alpha  occ. eigenvalues --   -8.22390  -1.81195  -1.63429  -1.25573  -1.14849
 Alpha  occ. eigenvalues --   -1.04824  -0.90369  -0.84473  -0.67931  -0.65555
 Alpha  occ. eigenvalues --   -0.62906  -0.61405  -0.59580  -0.57800  -0.53623
 Alpha  occ. eigenvalues --   -0.49077  -0.49010  -0.48199  -0.42270  -0.38029
 Alpha  occ. eigenvalues --   -0.37274  -0.34613  -0.33765
 Alpha virt. eigenvalues --    0.02800   0.03833   0.04665   0.05204   0.06234
 Alpha virt. eigenvalues --    0.06439   0.06858   0.07458   0.08266   0.08942
 Alpha virt. eigenvalues --    0.10633   0.11310   0.12513   0.13976   0.14309

 Mulliken charges:
               1
     1  O   -2.489976
     2  S    6.089535
     3  O   -2.489976
     4  C   -4.821318
     5  C   -3.584050
     6  C   -2.517307
     7  C   -3.984838
     8  H    1.301928
     9  H    1.367407
    10  H    1.367407
    11  H    1.560967
    12  H    1.560967
    13  H    1.486829
    14  H    1.486829
    15  H    1.271995
    16  H    1.271995
    17  H    1.121607
 Sum of Mulliken charges =  -0.00000

 Dipole moment (field-independent basis, Debye):
    X=             -0.9998    Y=              2.0408    Z=              0.0000  Tot=              2.2725

 Test job not archived.
 1\1\GINC-SE208\SP\RHF\Aug-CC-pVDZ\C4H10O2S1\OHZDE\06-Apr-2025\0\\#t hf
  aug-cc-pvdz iop(5/13=1,5/36=2,99/5=2) pseudo=read geom=check guess=(r
 ead,tcheck) scf=(maxcycle=1)\\title\\0,1\O,0,1.052746,-0.884054,1.2629
 3\S,0,0.899001,-0.165953,0.\O,0,1.052746,-0.884054,-1.26293\C,0,2.0673
 44,1.204889,0.\C,0,-0.723417,0.647846,0.\C,0,-1.851316,-0.380647,0.\C,
 0,-3.22524,0.289975,0.\H,0,3.053274,0.745574,0.\H,0,1.92558,1.797049,-
 0.900169\H,0,1.92558,1.797049,0.900169\H,0,-0.749135,1.277504,0.89007\
 H,0,-0.749135,1.277504,-0.89007\H,0,-1.747958,-1.021292,-0.876349\H,0,

 Normal termination of Gaussian 16 at Sun Apr  6 08:00:40 2025.
