 Gaussian 16, Revision C.01,

 ----------------------------------------------------------------------
 #t hf aug-cc-pvdz symm=none int=(grid=ultrafine) guess=(read,tcheck) s
 table=(opt,rrhf)
 ----------------------------------------------------------------------
 -----
 title
 -----
 Symbolic Z-matrix:
 Charge =  0 Multiplicity = 1

 SCF Done:  E(RHF) =  -263.880326876     A.U. after   14 cycles
 Normal termination of Gaussian 16 at Sun Apr  6 07:59:29 2025.
 Gaussian 16:  ES64L-G16RevC.01  3-Jul-2019

 ----------------------------------------------------------------------
 #t hf aug-cc-pvdz iop(5/13=1,5/36=2,99/5=2) pseudo=read geom=check gue
 ss=(read,tcheck) scf=(maxcycle=1)
 ----------------------------------------------------------------------
 -----
 title
 -----
 Structure from the checkpoint file:  "1-methyl-1H-imidazole.chk"
 Charge =  0 Multiplicity = 1

                         Standard orientation:
 ---------------------------------------------------------------------
 Center     Atomic      Atomic             Coordinates (Angstroms)
 Number     Number       Type             X           Y           Z
 ---------------------------------------------------------------------
      1          6           0        0.645337   -1.483107    0.000000
      2          6           0        1.115639   -0.197648    0.000000
      3          6           0       -1.077575   -0.225768    0.000000
      4          6           0       -0.022919    2.058005    0.000000
      5          7           0       -0.726800   -1.489807    0.000000
      6          7           0        0.000000    0.608310    0.000000
      7          1           0        1.214722   -2.396921    0.000000
      8          1           0        2.111503    0.208433    0.000000
      9          1           0       -2.087758    0.150798    0.000000
     10          1           0        0.471699    2.452768    0.887470
     11          1           0        0.471699    2.452768   -0.887470
     12          1           0       -1.057157    2.393731    0.000000
 ---------------------------------------------------------------------

 SCF Done:  E(RHF) =  -265.128858495     A.U. after    2 cycles

 The electronic state is 1-A'.
 Alpha  occ. eigenvalues --  -15.78041 -15.70951 -11.43588 -11.42553 -11.41571
 Alpha  occ. eigenvalues --  -11.36764  -1.57022  -1.30223  -1.08650  -1.02637
 Alpha  occ. eigenvalues --   -0.81355  -0.79835  -0.71863  -0.65051  -0.60937
 Alpha  occ. eigenvalues --   -0.55765  -0.54846  -0.53561  -0.51969  -0.37543
 Alpha  occ. eigenvalues --   -0.34761  -0.30176
 Alpha virt. eigenvalues --    0.02958   0.05251   0.05439   0.05722   0.06059
 Alpha virt. eigenvalues --    0.06910   0.10299   0.11228   0.11885   0.12441
 Alpha virt. eigenvalues --    0.12960   0.13745   0.14398   0.14629   0.16299

 Mulliken charges:
               1
     1  C    0.262009
     2  C   -0.084728
     3  C    1.111779
     4  C   -3.175846
     5  N   -3.413870
     6  N   -3.115358
     7  H    1.245939
     8  H    1.296975
     9  H    1.599191
    10  H    1.416363
    11  H    1.416363
    12  H    1.441182
 Sum of Mulliken charges =  -0.00000

 Dipole moment (field-independent basis, Debye):
    X=              0.9217    Y=              3.8202    Z=              0.0000  Tot=              3.9298

 Test job not archived.
 1\1\GINC-SE422\SP\RHF\Aug-CC-pVDZ\C4H6N2\OHZDE\06-Apr-2025\0\\#t hf au
 g-cc-pvdz iop(5/13=1,5/36=2,99/5=2) pseudo=read geom=check guess=(read
 ,tcheck) scf=(maxcycle=1)\\title\\0,1\C,0,0.645337,-1.483107,0.\C,0,1.
 115639,-0.197648,0.\C,0,-1.077575,-0.225768,0.\C,0,-0.022919,2.058005,
 0.\N,0,-0.7268,-1.489807,0.\N,0,0.,0.60831,0.\H,0,1.214722,-2.396921,0
 .\H,0,2.111503,0.208433,0.\H,0,-2.087758,0.150798,0.\H,0,0.471699,2.45
 2768,0.88747\H,0,0.471699,2.452768,-0.88747\H,0,-1.057157,2.393731,0.\
 \Version=ES64L-G16RevC.01\State=1-A'\HF=-265.1288585\RMSD=5.161e-01\Di

 Normal termination of Gaussian 16 at Sun Apr  6 07:59:34 2025.
