 Gaussian 16, Revision C.01,

 ----------------------------------------------------------------------
 #t hf aug-cc-pvdz symm=none int=(grid=ultrafine) guess=(read,tcheck) s
 table=(opt,rrhf)
 ----------------------------------------------------------------------
 -----
 title
 -----
 Symbolic Z-matrix:
 Charge =  0 Multiplicity = 1

 SCF Done:  E(RHF) =  -247.869753955     A.U. after   13 cycles
 Normal termination of Gaussian 16 at Sun Apr  6 07:59:33 2025.
 Gaussian 16:  ES64L-G16RevC.01  3-Jul-2019

 ----------------------------------------------------------------------
 #t hf aug-cc-pvdz iop(5/13=1,5/36=2,99/5=2) pseudo=read geom=check gue
 ss=(read,tcheck) scf=(maxcycle=1)
 ----------------------------------------------------------------------
 -----
 title
 -----
 Structure from the checkpoint file:  "1-methyl-1H-pyrrole.chk"
 Charge =  0 Multiplicity = 1

                         Standard orientation:
 ---------------------------------------------------------------------
 Center     Atomic      Atomic             Coordinates (Angstroms)
 Number     Number       Type             X           Y           Z
 ---------------------------------------------------------------------
      1          6           0       -0.016408   -1.487716    0.709392
      2          6           0       -0.016408   -1.487716   -0.709392
      3          6           0       -0.016408   -0.174043    1.115752
      4          6           0       -0.016408   -0.174043   -1.115752
      5          6           0        0.066679    2.069240    0.000000
      6          7           0       -0.023110    0.623459    0.000000
      7          1           0       -0.026850   -2.347321    1.357432
      8          1           0       -0.026850   -2.347321   -1.357432
      9          1           0       -0.017376    0.257756    2.101616
     10          1           0       -0.017376    0.257756   -2.101616
     11          1           0       -0.430683    2.466938    0.882657
     12          1           0        1.105307    2.406717    0.000000
     13          1           0       -0.430683    2.466938   -0.882657
 ---------------------------------------------------------------------

 SCF Done:  E(RHF) =  -249.076207372     A.U. after    2 cycles

 The electronic state is 1-A'.
 Alpha  occ. eigenvalues --  -15.76394 -11.44909 -11.41191 -11.40631 -11.38962
 Alpha  occ. eigenvalues --  -11.33968  -1.51430  -1.18085  -1.03731  -0.98786
 Alpha  occ. eigenvalues --   -0.78969  -0.76791  -0.71309  -0.63177  -0.59932
 Alpha  occ. eigenvalues --   -0.54532  -0.53674  -0.51287  -0.48185  -0.47609
 Alpha  occ. eigenvalues --   -0.30527  -0.28141
 Alpha virt. eigenvalues --    0.03449   0.05273   0.05445   0.05910   0.06200
 Alpha virt. eigenvalues --    0.06260   0.07794   0.10430   0.12409   0.12857
 Alpha virt. eigenvalues --    0.12954   0.14273   0.14699   0.14832   0.15277

 Mulliken charges:
               1
     1  C   -0.923017
     2  C   -0.923017
     3  C   -0.555025
     4  C   -0.555025
     5  C   -3.375944
     6  N   -3.259267
     7  H    1.308887
     8  H    1.308887
     9  H    1.447240
    10  H    1.447240
    11  H    1.331236
    12  H    1.416568
    13  H    1.331236
 Sum of Mulliken charges =  -0.00000

 Dipole moment (field-independent basis, Debye):
    X=              0.0224    Y=              2.2161    Z=              0.0000  Tot=              2.2162

 Test job not archived.
 1\1\GINC-SE453\SP\RHF\Aug-CC-pVDZ\C5H7N1\OHZDE\06-Apr-2025\0\\#t hf au
 g-cc-pvdz iop(5/13=1,5/36=2,99/5=2) pseudo=read geom=check guess=(read
 ,tcheck) scf=(maxcycle=1)\\title\\0,1\C,0,-0.016408,-1.487716,0.709392
 \C,0,-0.016408,-1.487716,-0.709392\C,0,-0.016408,-0.174043,1.115752\C,
 0,-0.016408,-0.174043,-1.115752\C,0,0.066679,2.06924,0.\N,0,-0.02311,0
 .623459,0.\H,0,-0.02685,-2.347321,1.357432\H,0,-0.02685,-2.347321,-1.3
 57432\H,0,-0.017376,0.257756,2.101616\H,0,-0.017376,0.257756,-2.101616
 \H,0,-0.430683,2.466938,0.882657\H,0,1.105307,2.406717,0.\H,0,-0.43068

 Normal termination of Gaussian 16 at Sun Apr  6 07:59:35 2025.
