 Gaussian 16, Revision C.01,

 ----------------------------------------------------------------------
 #t hf aug-cc-pvdz symm=none int=(grid=ultrafine) guess=(read,tcheck) s
 table=(opt,rrhf)
 ----------------------------------------------------------------------
 -----
 title
 -----
 Symbolic Z-matrix:
 Charge =  0 Multiplicity = 1

 SCF Done:  E(RHF) =  -233.043309075     A.U. after   13 cycles
 Normal termination of Gaussian 16 at Sun Apr  6 07:59:43 2025.
 Gaussian 16:  ES64L-G16RevC.01  3-Jul-2019

 ----------------------------------------------------------------------
 #t hf aug-cc-pvdz iop(5/13=1,5/36=2,99/5=2) pseudo=read geom=check gue
 ss=(read,tcheck) scf=(maxcycle=1)
 ----------------------------------------------------------------------
 -----
 title
 -----
 Structure from the checkpoint file:  "1-methylcyclopentene.chk"
 Charge =  0 Multiplicity = 1

                         Standard orientation:
 ---------------------------------------------------------------------
 Center     Atomic      Atomic             Coordinates (Angstroms)
 Number     Number       Type             X           Y           Z
 ---------------------------------------------------------------------
      1          6           0       -0.756198    0.073934   -0.002520
      2          1           0       -0.343604    2.171486   -0.066463
      3          6           0        0.023743    1.153783   -0.022376
      4          1           0       -2.647844   -0.452806    0.859762
      5          1           0       -2.606606   -0.553100   -0.889410
      6          1           0       -2.679983    1.029419   -0.103430
      7          6           0       -2.248786    0.030965   -0.036722
      8          1           0       -0.043702   -1.617124    1.120770
      9          1           0       -0.250301   -1.964412   -0.582053
     10          6           0        0.069948   -1.188503    0.117983
     11          1           0        1.780513   -0.916913   -1.185058
     12          1           0        2.249118   -1.218041    0.478619
     13          6           0        1.515599   -0.711239   -0.147209
     14          1           0        1.879408    1.089875    1.069321
     15          1           0        2.101884    1.357766   -0.645531
     16          6           0        1.489213    0.820035    0.081422
 ---------------------------------------------------------------------

 SCF Done:  E(RHF) =  -234.231583836     A.U. after    2 cycles

 The electronic state is 1-A.
 Alpha  occ. eigenvalues --  -11.43792 -11.42920 -11.39036 -11.38173 -11.36180
 Alpha  occ. eigenvalues --  -11.33607  -1.33064  -1.10058  -1.02382  -0.95395
 Alpha  occ. eigenvalues --   -0.82037  -0.72772  -0.64462  -0.63922  -0.56778
 Alpha  occ. eigenvalues --   -0.56343  -0.53969  -0.48046  -0.46576  -0.45267
 Alpha  occ. eigenvalues --   -0.43388  -0.42069  -0.31163
 Alpha virt. eigenvalues --    0.03821   0.05288   0.05589   0.05648   0.06032
 Alpha virt. eigenvalues --    0.06292   0.06572   0.07028   0.07641   0.08566
 Alpha virt. eigenvalues --    0.11498   0.12932   0.13518   0.13876   0.14375

 Mulliken charges:
               1
     1  C    5.128371
     2  H    1.569538
     3  C   -2.005448
     4  H    1.178602
     5  H    1.168364
     6  H    1.295932
     7  C   -4.790413
     8  H    1.196175
     9  H    1.196820
    10  C   -4.320333
    11  H    1.380030
    12  H    1.274650
    13  C   -2.869459
    14  H    1.287477
    15  H    1.133691
    16  C   -3.823997
 Sum of Mulliken charges =  -0.00000

 Dipole moment (field-independent basis, Debye):
    X=             -0.0884    Y=             -0.1619    Z=              0.0790  Tot=              0.2007

 Test job not archived.
 1\1\GINC-SE412\SP\RHF\Aug-CC-pVDZ\C6H10\OHZDE\06-Apr-2025\0\\#t hf aug
 -cc-pvdz iop(5/13=1,5/36=2,99/5=2) pseudo=read geom=check guess=(read,
 tcheck) scf=(maxcycle=1)\\title\\0,1\C,0,-0.756198,0.073934,-0.00252\H
 ,0,-0.343604,2.171486,-0.066463\C,0,0.023743,1.153783,-0.022376\H,0,-2
 .647844,-0.452806,0.859762\H,0,-2.606606,-0.5531,-0.88941\H,0,-2.67998
 3,1.029419,-0.10343\C,0,-2.248786,0.030965,-0.036722\H,0,-0.043702,-1.
 617124,1.12077\H,0,-0.250301,-1.964412,-0.582053\C,0,0.069948,-1.18850
 3,0.117983\H,0,1.780513,-0.916913,-1.185058\H,0,2.249118,-1.218041,0.4

 Normal termination of Gaussian 16 at Sun Apr  6 07:59:48 2025.
