 Gaussian 16, Revision C.01,

 ----------------------------------------------------------------------
 #t hf aug-cc-pvdz symm=none int=(grid=ultrafine) guess=(read,tcheck) s
 table=(opt,rrhf)
 ----------------------------------------------------------------------
 -----
 title
 -----
 Symbolic Z-matrix:
 Charge =  0 Multiplicity = 1

 SCF Done:  E(RHF) =  -268.811718456     A.U. after   13 cycles
 Normal termination of Gaussian 16 at Sun Apr  6 07:59:33 2025.
 Gaussian 16:  ES64L-G16RevC.01  3-Jul-2019

 ----------------------------------------------------------------------
 #t hf aug-cc-pvdz iop(5/13=1,5/36=2,99/5=2) pseudo=read geom=check gue
 ss=(read,tcheck) scf=(maxcycle=1)
 ----------------------------------------------------------------------
 -----
 title
 -----
 Structure from the checkpoint file:  "1-methoxybut-2-yne.chk"
 Charge =  0 Multiplicity = 1

                         Standard orientation:
 ---------------------------------------------------------------------
 Center     Atomic      Atomic             Coordinates (Angstroms)
 Number     Number       Type             X           Y           Z
 ---------------------------------------------------------------------
      1          6           0       -1.854995    0.059212    0.000286
      2          6           0       -0.682965    0.318398    0.000121
      3          6           0       -3.272404   -0.269344   -0.000016
      4          6           0        2.908916   -0.231355   -0.000182
      5          6           0        0.731823    0.658966   -0.000000
      6          8           0        1.525377   -0.520062    0.000268
      7          1           0       -3.785213    0.196056   -0.843401
      8          1           0       -3.757047    0.068458    0.917494
      9          1           0       -3.416982   -1.348358   -0.076266
     10          1           0        3.201339    0.338694    0.890135
     11          1           0        3.200880    0.338009   -0.891089
     12          1           0        3.434078   -1.183772    0.000063
     13          1           0        0.968850    1.268307    0.883485
     14          1           0        0.968823    1.267833   -0.883814
 ---------------------------------------------------------------------

 SCF Done:  E(RHF) =  -270.078427411     A.U. after    2 cycles

 The electronic state is 1-A.
 Alpha  occ. eigenvalues --  -21.04689 -11.48963 -11.43614 -11.40459 -11.38615
 Alpha  occ. eigenvalues --  -11.37962  -1.75161  -1.18188  -1.08129  -0.97639
 Alpha  occ. eigenvalues --   -0.91415  -0.69010  -0.65256  -0.60503  -0.59471
 Alpha  occ. eigenvalues --   -0.58465  -0.57726  -0.56799  -0.51406  -0.39759
 Alpha  occ. eigenvalues --   -0.34932  -0.34602  -0.29931
 Alpha virt. eigenvalues --    0.03214   0.04727   0.05861   0.05894   0.06327
 Alpha virt. eigenvalues --    0.06590   0.06915   0.08146   0.09720   0.11741
 Alpha virt. eigenvalues --    0.12637   0.13236   0.14307   0.15226   0.15297

 Mulliken charges:
               1
     1  C    2.720332
     2  C    1.555637
     3  C   -5.154694
     4  C   -2.878884
     5  C   -1.875888
     6  O   -2.779412
     7  H    0.871820
     8  H    0.871881
     9  H    0.855103
    10  H    1.336969
    11  H    1.337105
    12  H    1.310395
    13  H    0.916115
    14  H    0.913521
 Sum of Mulliken charges =   0.00000

 Dipole moment (field-independent basis, Debye):
    X=             -0.0993    Y=              0.1590    Z=             -0.0019  Tot=              0.1875

 Test job not archived.
 1\1\GINC-SE412\SP\RHF\Aug-CC-pVDZ\C5H8O1\OHZDE\06-Apr-2025\0\\#t hf au
 g-cc-pvdz iop(5/13=1,5/36=2,99/5=2) pseudo=read geom=check guess=(read
 ,tcheck) scf=(maxcycle=1)\\title\\0,1\C,0,-1.854995,0.059212,0.000286\
 C,0,-0.682965,0.318398,0.000121\C,0,-3.272404,-0.269344,-0.000016\C,0,
 2.908916,-0.231355,-0.000182\C,0,0.731823,0.658966,0.\O,0,1.525377,-0.
 520062,0.000268\H,0,-3.785213,0.196056,-0.843401\H,0,-3.757047,0.06845
 8,0.917494\H,0,-3.416982,-1.348358,-0.076266\H,0,3.201339,0.338694,0.8
 90135\H,0,3.20088,0.338009,-0.891089\H,0,3.434078,-1.183772,0.000063\H

 Normal termination of Gaussian 16 at Sun Apr  6 07:59:37 2025.
