 Gaussian 16, Revision C.01,

 ----------------------------------------------------------------------
 #t hf aug-cc-pvdz symm=none int=(grid=ultrafine) guess=(read,tcheck) s
 table=(opt,rrhf)
 ----------------------------------------------------------------------
 -----
 title
 -----
 Symbolic Z-matrix:
 Charge =  0 Multiplicity = 1

 SCF Done:  E(RHF) =  -473.274372617     A.U. after   16 cycles
 Normal termination of Gaussian 16 at Sun Apr  6 08:00:29 2025.
 Gaussian 16:  ES64L-G16RevC.01  3-Jul-2019

 ----------------------------------------------------------------------
 #t hf aug-cc-pvdz iop(5/13=1,5/36=2,99/5=2) pseudo=read geom=check gue
 ss=(read,tcheck) scf=(maxcycle=1)
 ----------------------------------------------------------------------
 -----
 title
 -----
 Structure from the checkpoint file:  "1-methyl-3-nitro-benzene.chk"
 Charge =  0 Multiplicity = 1

                         Standard orientation:
 ---------------------------------------------------------------------
 Center     Atomic      Atomic             Coordinates (Angstroms)
 Number     Number       Type             X           Y           Z
 ---------------------------------------------------------------------
      1          6           0       -2.057620   -0.570893    0.000000
      2          6           0       -1.349473   -1.765667    0.000000
      3          6           0       -1.385262    0.643953    0.000000
      4          6           0        0.722393   -0.566463    0.000000
      5          6           0        0.048829   -1.783697    0.000000
      6          6           0       -0.000000    0.619586    0.000000
      7          6           0        0.801538   -3.087682    0.000000
      8          7           0        0.736402    1.899710    0.000000
      9          8           0        0.081540    2.932000    0.000000
     10          8           0        1.958229    1.853894    0.000000
     11          1           0       -3.138638   -0.583862    0.000000
     12          1           0       -1.890749   -2.703493    0.000000
     13          1           0       -1.907623    1.587184    0.000000
     14          1           0        1.800839   -0.524533    0.000000
     15          1           0        1.877726   -2.925062    0.000000
     16          1           0        0.551524   -3.685088    0.878569
     17          1           0        0.551524   -3.685088   -0.878569
 ---------------------------------------------------------------------

 SCF Done:  E(RHF) =  -475.421226896     A.U. after    2 cycles

 The electronic state is 1-A'.
 Alpha  occ. eigenvalues --  -21.09158 -21.09036 -15.99755 -11.54560 -11.47879
 Alpha  occ. eigenvalues --  -11.46497 -11.45086 -11.44167 -11.40826 -11.39132
 Alpha  occ. eigenvalues --   -1.99718  -1.68808  -1.38770  -1.20054  -1.15132
 Alpha  occ. eigenvalues --   -1.02787  -0.99853  -0.88099  -0.81569  -0.74481
 Alpha  occ. eigenvalues --   -0.68973  -0.67460  -0.65006  -0.63158  -0.59542
 Alpha  occ. eigenvalues --   -0.59369  -0.58227  -0.53608  -0.51245  -0.48953
 Alpha  occ. eigenvalues --   -0.46350  -0.36038  -0.35519  -0.34801  -0.30995
 Alpha  occ. eigenvalues --   -0.30819
 Alpha virt. eigenvalues --    0.02795   0.04276   0.04889   0.05483   0.06284
 Alpha virt. eigenvalues --    0.06510   0.07443   0.07562   0.09777   0.10980
 Alpha virt. eigenvalues --    0.11025   0.12268   0.12642   0.12814   0.13261

 Mulliken charges:
               1
     1  C   -0.795755
     2  C   -2.561598
     3  C   -3.609847
     4  C   -1.550709
     5  C    3.951562
     6  C    2.426986
     7  C   -5.632112
     8  N    3.437508
     9  O   -3.138068
    10  O   -3.000300
    11  H    1.491760
    12  H    1.836040
    13  H    1.795913
    14  H    1.974781
    15  H    1.270046
    16  H    1.051896
    17  H    1.051896
 Sum of Mulliken charges =   0.00000

 Dipole moment (field-independent basis, Debye):
    X=             -1.5062    Y=             -3.2989    Z=              0.0000  Tot=              3.6265

 Test job not archived.
 1\1\GINC-SE343\SP\RHF\Aug-CC-pVDZ\C7H7N1O2\OHZDE\06-Apr-2025\0\\#t hf
 aug-cc-pvdz iop(5/13=1,5/36=2,99/5=2) pseudo=read geom=check guess=(re
 ad,tcheck) scf=(maxcycle=1)\\title\\0,1\C,0,-2.05762,-0.570893,0.\C,0,
 -1.349473,-1.765667,0.\C,0,-1.385262,0.643953,0.\C,0,0.722393,-0.56646
 3,0.\C,0,0.048829,-1.783697,0.\C,0,0.,0.619586,0.\C,0,0.801538,-3.0876
 82,0.\N,0,0.736402,1.89971,0.\O,0,0.08154,2.932,0.\O,0,1.958229,1.8538
 94,0.\H,0,-3.138638,-0.583862,0.\H,0,-1.890749,-2.703493,0.\H,0,-1.907
 623,1.587184,0.\H,0,1.800839,-0.524533,0.\H,0,1.877726,-2.925062,0.\H,

 Normal termination of Gaussian 16 at Sun Apr  6 08:00:41 2025.
