 Gaussian 16, Revision C.01,

 ----------------------------------------------------------------------
 #t hf aug-cc-pvdz symm=none int=(grid=ultrafine) guess=(read,tcheck) s
 table=(opt,rrhf)
 ----------------------------------------------------------------------
 -----
 title
 -----
 Symbolic Z-matrix:
 Charge =  0 Multiplicity = 1

 SCF Done:  E(RHF) =  -569.671105986     A.U. after   14 cycles
 Normal termination of Gaussian 16 at Sun Apr  6 07:59:58 2025.
 Gaussian 16:  ES64L-G16RevC.01  3-Jul-2019

 ----------------------------------------------------------------------
 #t hf aug-cc-pvdz iop(5/13=1,5/36=2,99/5=2) pseudo=read geom=check gue
 ss=(read,tcheck) scf=(maxcycle=1)
 ----------------------------------------------------------------------
 -----
 title
 -----
 Structure from the checkpoint file:  "1-methylsulfanylethanimine.chk"
 Charge =  0 Multiplicity = 1

                         Standard orientation:
 ---------------------------------------------------------------------
 Center     Atomic      Atomic             Coordinates (Angstroms)
 Number     Number       Type             X           Y           Z
 ---------------------------------------------------------------------
      1          6           0        0.000000    0.825176    0.000000
      2          6           0        1.158271    1.785300    0.000000
      3          6           0       -1.007571   -1.801949    0.000000
      4          7           0       -1.193183    1.247338    0.000000
      5         16           0        0.556958   -0.883144    0.000000
      6          1           0        1.784741    1.632779    0.879911
      7          1           0        1.784741    1.632779   -0.879911
      8          1           0        0.775934    2.802688    0.000000
      9          1           0       -0.737538   -2.855412    0.000000
     10          1           0       -1.589589   -1.586821   -0.894274
     11          1           0       -1.589589   -1.586821    0.894274
     12          1           0       -1.891951    0.508598    0.000000
 ---------------------------------------------------------------------

 SCF Done:  E(RHF) =  -570.747327489     A.U. after    2 cycles

 The electronic state is 1-A'.
 Alpha  occ. eigenvalues --  -75.69366 -15.73546 -13.12958 -13.11144 -13.02317
 Alpha  occ. eigenvalues --  -11.45700 -11.40857 -11.38085  -8.03593  -1.37525
 Alpha  occ. eigenvalues --   -1.18516  -1.08646  -0.96553  -0.76620  -0.65557
 Alpha  occ. eigenvalues --   -0.60725  -0.59318  -0.58684  -0.54126  -0.50631
 Alpha  occ. eigenvalues --   -0.43374  -0.42163  -0.32817  -0.24529
 Alpha virt. eigenvalues --    0.02831   0.03907   0.05446   0.05816   0.07148
 Alpha virt. eigenvalues --    0.07187   0.08059   0.09288   0.10854   0.12252
 Alpha virt. eigenvalues --    0.13380   0.13875   0.14579   0.15143   0.15643

 Mulliken charges:
               1
     1  C    1.811392
     2  C   -4.079105
     3  C   -4.830078
     4  N   -3.184387
     5  S    1.385842
     6  H    1.314854
     7  H    1.314854
     8  H    1.269085
     9  H    1.298384
    10  H    1.476495
    11  H    1.476495
    12  H    0.746169
 Sum of Mulliken charges =  -0.00000

 Dipole moment (field-independent basis, Debye):
    X=              1.4737    Y=             -2.3555    Z=             -0.0000  Tot=              2.7786

 Test job not archived.
 1\1\GINC-SE050\SP\RHF\Aug-CC-pVDZ\C3H7N1S1\OHZDE\06-Apr-2025\0\\#t hf
 aug-cc-pvdz iop(5/13=1,5/36=2,99/5=2) pseudo=read geom=check guess=(re
 ad,tcheck) scf=(maxcycle=1)\\title\\0,1\C,0,0.,0.825176,0.\C,0,1.15827
 1,1.7853,0.\C,0,-1.007571,-1.801949,0.\N,0,-1.193183,1.247338,0.\S,0,0
 .556958,-0.883144,0.\H,0,1.784741,1.632779,0.879911\H,0,1.784741,1.632
 779,-0.879911\H,0,0.775934,2.802688,0.\H,0,-0.737538,-2.855412,0.\H,0,
 -1.589589,-1.586821,-0.894274\H,0,-1.589589,-1.586821,0.894274\H,0,-1.
 891951,0.508598,0.\\Version=ES64L-G16RevC.01\State=1-A'\HF=-570.747327

 Normal termination of Gaussian 16 at Sun Apr  6 08:00:03 2025.
