 Gaussian 16, Revision C.01,

 ----------------------------------------------------------------------
 #t hf aug-cc-pvdz symm=none int=(grid=ultrafine) guess=(read,tcheck) s
 table=(opt,rrhf)
 ----------------------------------------------------------------------
 -----
 title
 -----
 Symbolic Z-matrix:
 Charge =  0 Multiplicity = 1

 SCF Done:  E(RHF) =  -593.882062742     A.U. after   12 cycles

 1\1\GINC-SE167\Stability\RHF\Aug-CC-pVDZ\C5H12S1\OHZDE\06-Apr-2025\0\\
 #t hf aug-cc-pvdz symm=none int=(grid=ultrafine) guess=(read,tcheck) s
 table=(opt,rrhf)\\title\\0,1\C,0,-2.90053,-2.06119,0.\C,0,-2.210491,-0
 .698205,0.\C,0,2.318193,2.117672,0.\S,0,1.820699,0.367544,0.\C,0,0.,0.
 560581,0.\C,0,-0.683216,-0.803015,0.\H,0,3.406072,2.138869,0.\H,0,-3.9
 86273,-1.956738,0.\H,0,-2.623158,-2.643745,0.880787\H,0,-2.623158,-2.6
 43745,-0.880787\H,0,-2.53334,-0.125846,0.874655\H,0,-2.53334,-0.125846
 ,-0.874655\H,0,1.955763,2.628694,0.891218\H,0,1.955763,2.628694,-0.891

 Normal termination of Gaussian 16 at Sun Apr  6 08:00:23 2025.
 Gaussian 16:  ES64L-G16RevC.01  3-Jul-2019

 ----------------------------------------------------------------------
 #t hf aug-cc-pvdz iop(5/13=1,5/36=2,99/5=2) pseudo=read geom=check gue
 ss=(read,tcheck) scf=(maxcycle=1)
 ----------------------------------------------------------------------
 -----
 title
 -----
 Structure from the checkpoint file:  "1-methylthiobutane.chk"
 Charge =  0 Multiplicity = 1

                         Standard orientation:
 ---------------------------------------------------------------------
 Center     Atomic      Atomic             Coordinates (Angstroms)
 Number     Number       Type             X           Y           Z
 ---------------------------------------------------------------------
      1          6           0       -2.900530   -2.061190    0.000000
      2          6           0       -2.210491   -0.698205    0.000000
      3          6           0        2.318193    2.117672    0.000000
      4         16           0        1.820699    0.367544    0.000000
      5          6           0        0.000000    0.560581    0.000000
      6          6           0       -0.683216   -0.803015    0.000000
      7          1           0        3.406072    2.138869    0.000000
      8          1           0       -3.986273   -1.956738    0.000000
      9          1           0       -2.623158   -2.643745    0.880787
     10          1           0       -2.623158   -2.643745   -0.880787
     11          1           0       -2.533340   -0.125846    0.874655
     12          1           0       -2.533340   -0.125846   -0.874655
     13          1           0        1.955763    2.628694    0.891218
     14          1           0        1.955763    2.628694   -0.891218
     15          1           0       -0.357222   -1.371028   -0.875684
     16          1           0       -0.357222   -1.371028    0.875684
     17          1           0       -0.289402    1.132982   -0.883547
     18          1           0       -0.289402    1.132982    0.883547
 ---------------------------------------------------------------------

 SCF Done:  E(RHF) =  -595.149866242     A.U. after    2 cycles

 The electronic state is 1-A'.
 Alpha  occ. eigenvalues --  -75.66535 -13.11013 -13.06138 -12.99903 -11.42409
 Alpha  occ. eigenvalues --  -11.40560 -11.38848 -11.37687 -11.34891  -8.00574
 Alpha  occ. eigenvalues --   -1.27665  -1.17181  -1.06027  -0.94974  -0.86434
 Alpha  occ. eigenvalues --   -0.82790  -0.66001  -0.59416  -0.59387  -0.58769
 Alpha  occ. eigenvalues --   -0.57240  -0.53000  -0.50990  -0.50411  -0.45946
 Alpha  occ. eigenvalues --   -0.45900  -0.39132  -0.35289  -0.21469
 Alpha virt. eigenvalues --    0.03434   0.04033   0.05202   0.05435   0.05940
 Alpha virt. eigenvalues --    0.06331   0.06378   0.06591   0.07946   0.08750
 Alpha virt. eigenvalues --    0.08953   0.10286   0.10709   0.11059   0.12830

 Mulliken charges:
               1
     1  C   -3.982404
     2  C   -2.978429
     3  C   -5.088287
     4  S    1.132335
     5  C   -3.654327
     6  C   -2.372746
     7  H    1.303287
     8  H    1.089043
     9  H    1.306814
    10  H    1.306814
    11  H    1.436802
    12  H    1.436802
    13  H    1.453337
    14  H    1.453337
    15  H    1.529722
    16  H    1.529722
    17  H    1.549090
    18  H    1.549090
 Sum of Mulliken charges =  -0.00000

 Dipole moment (field-independent basis, Debye):
    X=             -0.2272    Y=             -0.2081    Z=              0.0000  Tot=              0.3081

 Test job not archived.
 1\1\GINC-SE167\SP\RHF\Aug-CC-pVDZ\C5H12S1\OHZDE\06-Apr-2025\0\\#t hf a
 ug-cc-pvdz iop(5/13=1,5/36=2,99/5=2) pseudo=read geom=check guess=(rea
 d,tcheck) scf=(maxcycle=1)\\title\\0,1\C,0,-2.90053,-2.06119,0.\C,0,-2
 .210491,-0.698205,0.\C,0,2.318193,2.117672,0.\S,0,1.820699,0.367544,0.
 \C,0,0.,0.560581,0.\C,0,-0.683216,-0.803015,0.\H,0,3.406072,2.138869,0
 .\H,0,-3.986273,-1.956738,0.\H,0,-2.623158,-2.643745,0.880787\H,0,-2.6
 23158,-2.643745,-0.880787\H,0,-2.53334,-0.125846,0.874655\H,0,-2.53334
 ,-0.125846,-0.874655\H,0,1.955763,2.628694,0.891218\H,0,1.955763,2.628

 Normal termination of Gaussian 16 at Sun Apr  6 08:00:37 2025.
