 Gaussian 16, Revision C.01,

 ----------------------------------------------------------------------
 #t hf aug-cc-pvdz symm=none int=(grid=ultrafine) guess=(read,tcheck) s
 table=(opt,rrhf)
 ----------------------------------------------------------------------
 -----
 title
 -----
 Symbolic Z-matrix:
 Charge =  0 Multiplicity = 1

 SCF Done:  E(RHF) =  -289.246088116     A.U. after   12 cycles

 1\1\GINC-SE038\Stability\RHF\Aug-CC-pVDZ\C6H13N1\OHZDE\06-Apr-2025\0\\
 #t hf aug-cc-pvdz symm=none int=(grid=ultrafine) guess=(read,tcheck) s
 table=(opt,rrhf)\\title\\0,1\C,0,0.96524,1.519566,0.\C,0,0.317239,0.93
 8668,1.261849\C,0,0.317239,0.938668,-1.261849\C,0,0.317239,-0.596952,1
 .207472\C,0,0.317239,-0.596952,-1.207472\C,0,-1.745453,-1.132476,0.\N,
 0,-0.291486,-1.154914,0.\H,0,0.900662,2.609587,0.\H,0,2.0323,1.27092,0
 .\H,0,0.848574,1.272756,2.156437\H,0,-0.708429,1.307685,1.352481\H,0,-
 0.708429,1.307685,-1.352481\H,0,0.848574,1.272756,-2.156437\H,0,1.3537

 Normal termination of Gaussian 16 at Sun Apr  6 08:00:40 2025.
 Gaussian 16:  ES64L-G16RevC.01  3-Jul-2019

 ----------------------------------------------------------------------
 #t hf aug-cc-pvdz iop(5/13=1,5/36=2,99/5=2) pseudo=read geom=check gue
 ss=(read,tcheck) scf=(maxcycle=1)
 ----------------------------------------------------------------------
 -----
 title
 -----
 Structure from the checkpoint file:  "1-methylpiperidine.chk"
 Charge =  0 Multiplicity = 1

                         Standard orientation:
 ---------------------------------------------------------------------
 Center     Atomic      Atomic             Coordinates (Angstroms)
 Number     Number       Type             X           Y           Z
 ---------------------------------------------------------------------
      1          6           0        0.965240    1.519566   -0.000000
      2          6           0        0.317239    0.938668    1.261849
      3          6           0        0.317239    0.938668   -1.261849
      4          6           0        0.317239   -0.596952    1.207472
      5          6           0        0.317239   -0.596952   -1.207472
      6          6           0       -1.745453   -1.132476    0.000000
      7          7           0       -0.291486   -1.154914    0.000000
      8          1           0        0.900662    2.609587   -0.000000
      9          1           0        2.032300    1.270920   -0.000000
     10          1           0        0.848574    1.272756    2.156437
     11          1           0       -0.708429    1.307685    1.352481
     12          1           0       -0.708429    1.307685   -1.352481
     13          1           0        0.848574    1.272756   -2.156437
     14          1           0        1.353737   -0.949519    1.247433
     15          1           0       -0.193487   -1.015270    2.076593
     16          1           0       -0.193487   -1.015270   -2.076593
     17          1           0        1.353737   -0.949519   -1.247433
     18          1           0       -2.112988   -1.660457   -0.881168
     19          1           0       -2.199834   -0.129627   -0.000000
     20          1           0       -2.112988   -1.660457    0.881168
 ---------------------------------------------------------------------

 SCF Done:  E(RHF) =  -290.723268784     A.U. after    2 cycles

 The electronic state is 1-A'.
 Alpha  occ. eigenvalues --  -15.68795 -11.43758 -11.41894 -11.39817 -11.37411
 Alpha  occ. eigenvalues --  -11.36446 -11.33804  -1.43380  -1.19824  -1.11274
 Alpha  occ. eigenvalues --   -1.01362  -0.89627  -0.87179  -0.76769  -0.66833
 Alpha  occ. eigenvalues --   -0.63495  -0.61839  -0.59998  -0.56793  -0.55728
 Alpha  occ. eigenvalues --   -0.52565  -0.47674  -0.47660  -0.46561  -0.46346
 Alpha  occ. eigenvalues --   -0.42899  -0.40095  -0.27594
 Alpha virt. eigenvalues --    0.04156   0.05304   0.05556   0.05591   0.05673
 Alpha virt. eigenvalues --    0.05707   0.06086   0.06383   0.06889   0.08446
 Alpha virt. eigenvalues --    0.08752   0.08798   0.09423   0.12458   0.13342

 Mulliken charges:
               1
     1  C   -2.575766
     2  C   -2.356183
     3  C   -2.356183
     4  C   -2.625452
     5  C   -2.625452
     6  C   -3.657248
     7  N   -1.656558
     8  H    1.241210
     9  H    1.433264
    10  H    1.226104
    11  H    1.502379
    12  H    1.502379
    13  H    1.226104
    14  H    1.362094
    15  H    1.449126
    16  H    1.449126
    17  H    1.362094
    18  H    1.264398
    19  H    1.570166
    20  H    1.264398
 Sum of Mulliken charges =  -0.00000

 Dipole moment (field-independent basis, Debye):
    X=             -0.0685    Y=              0.4966    Z=              0.0000  Tot=              0.5013

 Test job not archived.
 1\1\GINC-SE038\SP\RHF\Aug-CC-pVDZ\C6H13N1\OHZDE\06-Apr-2025\0\\#t hf a
 ug-cc-pvdz iop(5/13=1,5/36=2,99/5=2) pseudo=read geom=check guess=(rea
 d,tcheck) scf=(maxcycle=1)\\title\\0,1\C,0,0.96524,1.519566,0.\C,0,0.3
 17239,0.938668,1.261849\C,0,0.317239,0.938668,-1.261849\C,0,0.317239,-
 0.596952,1.207472\C,0,0.317239,-0.596952,-1.207472\C,0,-1.745453,-1.13
 2476,0.\N,0,-0.291486,-1.154914,0.\H,0,0.900662,2.609587,0.\H,0,2.0323
 ,1.27092,0.\H,0,0.848574,1.272756,2.156437\H,0,-0.708429,1.307685,1.35
 2481\H,0,-0.708429,1.307685,-1.352481\H,0,0.848574,1.272756,-2.156437\

 Normal termination of Gaussian 16 at Sun Apr  6 08:01:15 2025.
