 Gaussian 16, Revision C.01,

 ----------------------------------------------------------------------
 #t hf aug-cc-pvdz symm=none int=(grid=ultrafine) guess=(read,tcheck) s
 table=(opt,rrhf)
 ----------------------------------------------------------------------
 -----
 title
 -----
 Symbolic Z-matrix:
 Charge =  0 Multiplicity = 1

 SCF Done:  E(RHF) =  -154.884777059     A.U. after   13 cycles
 Normal termination of Gaussian 16 at Sun Apr  6 07:59:22 2025.
 Gaussian 16:  ES64L-G16RevC.01  3-Jul-2019

 ----------------------------------------------------------------------
 #t hf aug-cc-pvdz iop(5/13=1,5/36=2,99/5=2) pseudo=read geom=check gue
 ss=(read,tcheck) scf=(maxcycle=1)
 ----------------------------------------------------------------------
 -----
 title
 -----
 Structure from the checkpoint file:  "1-methylcyclopropene.chk"
 Charge =  0 Multiplicity = 1

                         Standard orientation:
 ---------------------------------------------------------------------
 Center     Atomic      Atomic             Coordinates (Angstroms)
 Number     Number       Type             X           Y           Z
 ---------------------------------------------------------------------
      1          1           0       -2.225998   -0.334424    0.000000
      2          6           0       -1.153292   -0.397232    0.000000
      3          6           0        0.000000    0.177369    0.000000
      4          1           0        0.299783   -1.863186    0.910841
      5          1           0        0.299783   -1.863186   -0.910841
      6          6           0        0.031358   -1.328906    0.000000
      7          1           0        1.501617    1.388240    0.877063
      8          1           0        0.254351    2.293402    0.000000
      9          1           0        1.501617    1.388240   -0.877063
     10          6           0        0.850075    1.380588    0.000000
 ---------------------------------------------------------------------

 SCF Done:  E(RHF) =  -155.658929478     A.U. after    2 cycles

 The electronic state is 1-A'.
 Alpha  occ. eigenvalues --  -11.43758 -11.41462 -11.40440 -11.37285  -1.29773
 Alpha  occ. eigenvalues --   -1.06639  -0.84346  -0.74759  -0.61584  -0.60460
 Alpha  occ. eigenvalues --   -0.58283  -0.55346  -0.43190  -0.37671  -0.32162
 Alpha virt. eigenvalues --    0.03297   0.05341   0.06098   0.06448   0.06547
 Alpha virt. eigenvalues --    0.07092   0.09492   0.11502   0.11509   0.13746
 Alpha virt. eigenvalues --    0.14348   0.15170   0.15303   0.15901   0.16362

 Mulliken charges:
               1
     1  H    0.767451
     2  C   -1.825953
     3  C    3.428768
     4  H    1.080837
     5  H    1.080837
     6  C   -3.075993
     7  H    1.084292
     8  H    1.079784
     9  H    1.084292
    10  C   -4.704314
 Sum of Mulliken charges =   0.00000

 Dipole moment (field-independent basis, Debye):
    X=              0.0686    Y=              0.8484    Z=             -0.0000  Tot=              0.8511

 Test job not archived.
 1\1\GINC-SE344\SP\RHF\Aug-CC-pVDZ\C4H6\OHZDE\06-Apr-2025\0\\#t hf aug-
 cc-pvdz iop(5/13=1,5/36=2,99/5=2) pseudo=read geom=check guess=(read,t
 check) scf=(maxcycle=1)\\title\\0,1\H,0,-2.225998,-0.334426,0.\C,0,-1.
 153291,-0.397233,0.\C,0,0.,0.177369,0.\H,0,0.299785,-1.863186,0.910841
 \H,0,0.299785,-1.863186,-0.910841\C,0,0.031359,-1.328906,0.\H,0,1.5016
 16,1.388241,0.877063\H,0,0.254349,2.293402,0.\H,0,1.501616,1.388241,-0
 .877063\C,0,0.850074,1.380589,0.\\Version=ES64L-G16RevC.01\State=1-A'\
 HF=-155.6589295\RMSD=1.048e+00\Dipole=0.0269772,0.333772,0.\Quadrupole

 Normal termination of Gaussian 16 at Sun Apr  6 07:59:24 2025.
