 Gaussian 16, Revision C.01,

 ----------------------------------------------------------------------
 #t hf aug-cc-pvdz symm=none int=(grid=ultrafine) guess=(read,tcheck) s
 table=(opt,rrhf)
 ----------------------------------------------------------------------
 -----
 title
 -----
 Symbolic Z-matrix:
 Charge =  0 Multiplicity = 1

 SCF Done:  E(RHF) =  -473.269370864     A.U. after   17 cycles
 Normal termination of Gaussian 16 at Sun Apr  6 08:00:41 2025.
 Gaussian 16:  ES64L-G16RevC.01  3-Jul-2019

 ----------------------------------------------------------------------
 #t hf aug-cc-pvdz iop(5/13=1,5/36=2,99/5=2) pseudo=read geom=check gue
 ss=(read,tcheck) scf=(maxcycle=1)
 ----------------------------------------------------------------------
 -----
 title
 -----
 Structure from the checkpoint file:  "1-methyl-2-nitro-benzene.chk"
 Charge =  0 Multiplicity = 1

                         Standard orientation:
 ---------------------------------------------------------------------
 Center     Atomic      Atomic             Coordinates (Angstroms)
 Number     Number       Type             X           Y           Z
 ---------------------------------------------------------------------
      1          6           0        2.555199   -0.206184   -0.030002
      2          6           0        1.904094   -1.432601   -0.092797
      3          6           0        1.822358    0.969098    0.049255
      4          6           0        0.521008   -1.464364   -0.071553
      5          6           0        0.424347    0.981756    0.050347
      6          6           0       -0.196494   -0.273992   -0.013060
      7          6           0       -0.290301    2.302138    0.145550
      8          7           0       -1.666810   -0.404509   -0.018623
      9          8           0       -2.143297   -1.460414    0.374057
     10          8           0       -2.328126    0.540642   -0.426159
     11          1           0        3.635895   -0.163364   -0.037093
     12          1           0        2.465502   -2.353997   -0.153385
     13          1           0        2.342694    1.915301    0.114787
     14          1           0       -0.021103   -2.396371   -0.103663
     15          1           0       -0.772031    2.558749   -0.796957
     16          1           0       -1.076089    2.289354    0.898913
     17          1           0        0.422924    3.084965    0.398137
 ---------------------------------------------------------------------

 SCF Done:  E(RHF) =  -475.417679641     A.U. after    2 cycles

 The electronic state is 1-A.
 Alpha  occ. eigenvalues --  -21.09083 -21.08897 -15.99659 -11.54536 -11.48555
 Alpha  occ. eigenvalues --  -11.46912 -11.44694 -11.43437 -11.40350 -11.39461
 Alpha  occ. eigenvalues --   -1.99709  -1.68750  -1.38728  -1.18239  -1.16882
 Alpha  occ. eigenvalues --   -1.04277  -0.97460  -0.88253  -0.82778  -0.73286
 Alpha  occ. eigenvalues --   -0.68700  -0.67913  -0.64524  -0.63201  -0.59853
 Alpha  occ. eigenvalues --   -0.58738  -0.57584  -0.53499  -0.51229  -0.49025
 Alpha  occ. eigenvalues --   -0.46654  -0.36532  -0.35265  -0.34516  -0.31082
 Alpha  occ. eigenvalues --   -0.30316
 Alpha virt. eigenvalues --    0.02974   0.04497   0.04767   0.05978   0.06426
 Alpha virt. eigenvalues --    0.06860   0.07477   0.08281   0.09294   0.10447
 Alpha virt. eigenvalues --    0.11787   0.12233   0.12607   0.13267   0.13461

 Mulliken charges:
               1
     1  C   -3.138172
     2  C   -1.050515
     3  C   -0.184029
     4  C   -3.532171
     5  C    2.126245
     6  C    3.175068
     7  C   -4.667784
     8  N    3.014868
     9  O   -2.883181
    10  O   -2.887074
    11  H    1.482222
    12  H    1.504810
    13  H    1.682370
    14  H    1.849918
    15  H    1.208448
    16  H    1.165954
    17  H    1.133023
 Sum of Mulliken charges =   0.00000

 Dipole moment (field-independent basis, Debye):
    X=              2.9433    Y=              0.6223    Z=              0.0034  Tot=              3.0083

 Test job not archived.
 1\1\GINC-SE343\SP\RHF\Aug-CC-pVDZ\C7H7N1O2\OHZDE\06-Apr-2025\0\\#t hf
 aug-cc-pvdz iop(5/13=1,5/36=2,99/5=2) pseudo=read geom=check guess=(re
 ad,tcheck) scf=(maxcycle=1)\\title\\0,1\C,0,2.555199,-0.206184,-0.0300
 02\C,0,1.904094,-1.432601,-0.092797\C,0,1.822358,0.969098,0.049255\C,0
 ,0.521008,-1.464364,-0.071553\C,0,0.424347,0.981756,0.050347\C,0,-0.19
 6494,-0.273992,-0.01306\C,0,-0.290301,2.302138,0.14555\N,0,-1.66681,-0
 .404509,-0.018623\O,0,-2.143297,-1.460414,0.374057\O,0,-2.328126,0.540
 642,-0.426159\H,0,3.635895,-0.163364,-0.037093\H,0,2.465502,-2.353997,

 Normal termination of Gaussian 16 at Sun Apr  6 08:01:18 2025.
