 Gaussian 16, Revision C.01,

 ----------------------------------------------------------------------
 #t hf aug-cc-pvdz symm=none int=(grid=ultrafine) guess=(read,tcheck) s
 table=(opt,rrhf)
 ----------------------------------------------------------------------
 -----
 title
 -----
 Symbolic Z-matrix:
 Charge =  0 Multiplicity = 1

 SCF Done:  E(RHF) =  -589.523408539     A.U. after   14 cycles
 Normal termination of Gaussian 16 at Sun Apr  6 07:59:52 2025.
 Gaussian 16:  ES64L-G16RevC.01  3-Jul-2019

 ----------------------------------------------------------------------
 #t hf aug-cc-pvdz iop(5/13=1,5/36=2,99/5=2) pseudo=read geom=check gue
 ss=(read,tcheck) scf=(maxcycle=1)
 ----------------------------------------------------------------------
 -----
 title
 -----
 Structure from the checkpoint file:  "1-methylsulfanylethanone.chk"
 Charge =  0 Multiplicity = 1

                         Standard orientation:
 ---------------------------------------------------------------------
 Center     Atomic      Atomic             Coordinates (Angstroms)
 Number     Number       Type             X           Y           Z
 ---------------------------------------------------------------------
      1          6           0        0.754145    0.274218   -0.000001
      2          6           0        2.080251   -0.448669   -0.000000
      3          6           0       -2.006474    0.397153    0.000001
      4          8           0        0.648332    1.474901   -0.000000
      5         16           0       -0.661464   -0.824798   -0.000000
      6          1           0        1.966836   -1.530536   -0.000035
      7          1           0        2.644386   -0.141223    0.880822
      8          1           0        2.644418   -0.141166   -0.880780
      9          1           0       -1.944496    1.019312    0.888116
     10          1           0       -2.937384   -0.164322    0.000020
     11          1           0       -1.944520    1.019289   -0.888133
 ---------------------------------------------------------------------

 SCF Done:  E(RHF) =  -590.638913697     A.U. after    2 cycles

 The electronic state is 1-A.
 Alpha  occ. eigenvalues --  -75.69663 -21.06003 -13.12844 -13.10503 -13.02321
 Alpha  occ. eigenvalues --  -11.50108 -11.39957 -11.39640  -8.03951  -1.72034
 Alpha  occ. eigenvalues --   -1.22361  -1.10869  -0.96599  -0.74341  -0.63620
 Alpha  occ. eigenvalues --   -0.61013  -0.59288  -0.58824  -0.54598  -0.47837
 Alpha  occ. eigenvalues --   -0.44955  -0.40651  -0.26524  -0.24885
 Alpha virt. eigenvalues --    0.03228   0.03560   0.05619   0.06290   0.06802
 Alpha virt. eigenvalues --    0.07178   0.09075   0.10934   0.12653   0.12684
 Alpha virt. eigenvalues --    0.13252   0.13916   0.15011   0.15653   0.15816

 Mulliken charges:
               1
     1  C    3.016517
     2  C   -4.255035
     3  C   -4.888104
     4  O   -3.069673
     5  S    1.068371
     6  H    1.519954
     7  H    1.196870
     8  H    1.196864
     9  H    1.457076
    10  H    1.300091
    11  H    1.457069
 Sum of Mulliken charges =   0.00000

 Dipole moment (field-independent basis, Debye):
    X=             -0.5945    Y=             -1.6556    Z=              0.0000  Tot=              1.7591

 Test job not archived.
 1\1\GINC-SE086\SP\RHF\Aug-CC-pVDZ\C3H6O1S1\OHZDE\06-Apr-2025\0\\#t hf
 aug-cc-pvdz iop(5/13=1,5/36=2,99/5=2) pseudo=read geom=check guess=(re
 ad,tcheck) scf=(maxcycle=1)\\title\\0,1\C,0,0.754145,0.274218,-0.00000
 1\C,0,2.080251,-0.448669,0.\C,0,-2.006474,0.397153,0.000001\O,0,0.6483
 32,1.474901,0.\S,0,-0.661464,-0.824798,0.\H,0,1.966836,-1.530536,-0.00
 0035\H,0,2.644386,-0.141223,0.880822\H,0,2.644418,-0.141166,-0.88078\H
 ,0,-1.944496,1.019312,0.888116\H,0,-2.937384,-0.164322,0.00002\H,0,-1.
 94452,1.019289,-0.888133\\Version=ES64L-G16RevC.01\State=1-A\HF=-590.6

 Normal termination of Gaussian 16 at Sun Apr  6 07:59:55 2025.
