 Gaussian 16, Revision C.01,

 ----------------------------------------------------------------------
 #t hf aug-cc-pvdz symm=none int=(grid=ultrafine) guess=(read,tcheck) s
 table=(opt,rrhf)
 ----------------------------------------------------------------------
 -----
 title
 -----
 Symbolic Z-matrix:
 Charge =  0 Multiplicity = 1

 SCF Done:  E(RHF) =  -271.208333699     A.U. after   12 cycles

 1\1\GINC-SE249\Stability\RHF\Aug-CC-pVDZ\C5H12O1\OHZDE\06-Apr-2025\0\\
 #t hf aug-cc-pvdz symm=none int=(grid=ultrafine) guess=(read,tcheck) s
 table=(opt,rrhf)\\title\\0,1\C,0,1.48511,2.778995,0.\C,0,1.429424,1.25
 2245,0.\C,0,-1.555601,-2.629031,0.\O,0,-1.408397,-1.225844,0.\C,0,-0.0
 54114,-0.808031,0.\C,0,0.,0.708683,0.\H,0,-2.622301,-2.844448,0.\H,0,2
 .514453,3.139718,0.\H,0,0.988352,3.190751,0.880627\H,0,0.988352,3.1907
 51,-0.880627\H,0,1.964404,0.869962,0.874461\H,0,1.964404,0.869962,-0.8
 74461\H,0,-1.100454,-3.081175,0.889958\H,0,-1.100454,-3.081175,-0.8899

 Normal termination of Gaussian 16 at Sun Apr  6 07:59:45 2025.
 Gaussian 16:  ES64L-G16RevC.01  3-Jul-2019

 ----------------------------------------------------------------------
 #t hf aug-cc-pvdz iop(5/13=1,5/36=2,99/5=2) pseudo=read geom=check gue
 ss=(read,tcheck) scf=(maxcycle=1)
 ----------------------------------------------------------------------
 -----
 title
 -----
 Structure from the checkpoint file:  "1-methoxybutane.chk"
 Charge =  0 Multiplicity = 1

                         Standard orientation:
 ---------------------------------------------------------------------
 Center     Atomic      Atomic             Coordinates (Angstroms)
 Number     Number       Type             X           Y           Z
 ---------------------------------------------------------------------
      1          6           0        1.485110    2.778995    0.000000
      2          6           0        1.429424    1.252245    0.000000
      3          6           0       -1.555601   -2.629031    0.000000
      4          8           0       -1.408397   -1.225844    0.000000
      5          6           0       -0.054114   -0.808031    0.000000
      6          6           0        0.000000    0.708683    0.000000
      7          1           0       -2.622301   -2.844448    0.000000
      8          1           0        2.514453    3.139718    0.000000
      9          1           0        0.988352    3.190751    0.880627
     10          1           0        0.988352    3.190751   -0.880627
     11          1           0        1.964404    0.869962    0.874461
     12          1           0        1.964404    0.869962   -0.874461
     13          1           0       -1.100454   -3.081175    0.889958
     14          1           0       -1.100454   -3.081175   -0.889958
     15          1           0       -0.538951    1.078011   -0.876368
     16          1           0       -0.538951    1.078011    0.876368
     17          1           0        0.459702   -1.210388   -0.884985
     18          1           0        0.459702   -1.210388    0.884985
 ---------------------------------------------------------------------

 SCF Done:  E(RHF) =  -272.543630246     A.U. after    2 cycles

 The electronic state is 1-A'.
 Alpha  occ. eigenvalues --  -21.03620 -11.43091 -11.40719 -11.39709 -11.37282
 Alpha  occ. eigenvalues --  -11.34327  -1.74372  -1.22437  -1.06415  -0.96758
 Alpha  occ. eigenvalues --   -0.88088  -0.82945  -0.66818  -0.61823  -0.61163
 Alpha  occ. eigenvalues --   -0.59352  -0.56630  -0.54855  -0.52085  -0.50117
 Alpha  occ. eigenvalues --   -0.45565  -0.45510  -0.41363  -0.37992  -0.29257
 Alpha virt. eigenvalues --    0.04164   0.04872   0.05268   0.05718   0.05891
 Alpha virt. eigenvalues --    0.06292   0.06755   0.06980   0.07814   0.08412
 Alpha virt. eigenvalues --    0.08674   0.10323   0.10450   0.13291   0.13893

 Mulliken charges:
               1
     1  C   -3.839047
     2  C   -2.581443
     3  C   -3.359145
     4  O   -3.089140
     5  C   -0.841098
     6  C   -3.096003
     7  H    1.324786
     8  H    1.084893
     9  H    1.301477
    10  H    1.301477
    11  H    1.402169
    12  H    1.402169
    13  H    1.333095
    14  H    1.333095
    15  H    1.507137
    16  H    1.507137
    17  H    1.654220
    18  H    1.654220
 Sum of Mulliken charges =   0.00000

 Dipole moment (field-independent basis, Debye):
    X=              0.3307    Y=             -0.1570    Z=             -0.0000  Tot=              0.3661

 Test job not archived.
 1\1\GINC-SE249\SP\RHF\Aug-CC-pVDZ\C5H12O1\OHZDE\06-Apr-2025\0\\#t hf a
 ug-cc-pvdz iop(5/13=1,5/36=2,99/5=2) pseudo=read geom=check guess=(rea
 d,tcheck) scf=(maxcycle=1)\\title\\0,1\C,0,1.48511,2.778995,0.\C,0,1.4
 29424,1.252245,0.\C,0,-1.555601,-2.629031,0.\O,0,-1.408397,-1.225844,0
 .\C,0,-0.054114,-0.808031,0.\C,0,0.,0.708683,0.\H,0,-2.622301,-2.84444
 8,0.\H,0,2.514453,3.139718,0.\H,0,0.988352,3.190751,0.880627\H,0,0.988
 352,3.190751,-0.880627\H,0,1.964404,0.869962,0.874461\H,0,1.964404,0.8
 69962,-0.874461\H,0,-1.100454,-3.081175,0.889958\H,0,-1.100454,-3.0811

 Normal termination of Gaussian 16 at Sun Apr  6 07:59:50 2025.
