 Gaussian 16, Revision C.01,

 ----------------------------------------------------------------------
 #t hf aug-cc-pvdz symm=none int=(grid=ultrafine) guess=(read,tcheck) s
 table=(opt,rrhf)
 ----------------------------------------------------------------------
 -----
 title
 -----
 Symbolic Z-matrix:
 Charge =  0 Multiplicity = 1

 SCF Done:  E(RHF) =  -856.004703470     A.U. after   15 cycles
 Normal termination of Gaussian 16 at Sun Apr  6 08:01:36 2025.
 Gaussian 16:  ES64L-G16RevC.01  3-Jul-2019

 ----------------------------------------------------------------------
 #t hf aug-cc-pvdz iop(5/13=1,5/36=2,99/5=2) pseudo=read geom=check gue
 ss=(read,tcheck) scf=(maxcycle=1)
 ----------------------------------------------------------------------
 -----
 title
 -----
 Structure from the checkpoint file:  "1-methyl-4-methylsulfonylbenzene.chk"
 Charge =  0 Multiplicity = 1

                         Standard orientation:
 ---------------------------------------------------------------------
 Center     Atomic      Atomic             Coordinates (Angstroms)
 Number     Number       Type             X           Y           Z
 ---------------------------------------------------------------------
      1          6           0       -1.656245   -2.355698   -0.000000
      2         16           0        0.088738   -1.905377   -0.000000
      3          8           0        0.654560   -2.357841    1.267005
      4          8           0        0.654560   -2.357841   -1.267005
      5          6           0        0.080334   -0.110707   -0.000000
      6          6           0        0.087584    0.574569   -1.208898
      7          6           0        0.087584    1.962499   -1.199749
      8          6           0        0.081470    2.677518    0.000000
      9          6           0        0.055105    4.182111    0.000000
     10          6           0        0.087584    1.962499    1.199749
     11          6           0        0.087584    0.574569    1.208898
     12          1           0       -2.123209   -1.961947   -0.898464
     13          1           0       -1.678863   -3.443534   -0.000000
     14          1           0       -2.123209   -1.961947    0.898464
     15          1           0        0.119138    0.024829   -2.138786
     16          1           0        0.104503    2.498591   -2.139961
     17          1           0        0.546532    4.588743    0.883175
     18          1           0       -0.973845    4.550449    0.000000
     19          1           0        0.546532    4.588743   -0.883175
     20          1           0        0.104503    2.498591    2.139961
     21          1           0        0.119138    0.024829    2.138786
 ---------------------------------------------------------------------

 SCF Done:  E(RHF) =  -858.413428434     A.U. after    2 cycles

 The electronic state is 1-A'.
 Alpha  occ. eigenvalues --  -75.87957 -21.03409 -21.03348 -13.49817 -13.40026
 Alpha  occ. eigenvalues --  -13.36044 -11.53546 -11.46250 -11.46081 -11.45010
 Alpha  occ. eigenvalues --  -11.42800 -11.42484 -11.40430 -11.38368  -8.22880
 Alpha  occ. eigenvalues --   -1.81409  -1.63714  -1.37966  -1.19347  -1.13347
 Alpha  occ. eigenvalues --   -1.11605  -1.02890  -0.92323  -0.89392  -0.82795
 Alpha  occ. eigenvalues --   -0.71305  -0.66345  -0.63542  -0.62916  -0.62278
 Alpha  occ. eigenvalues --   -0.60121  -0.59745  -0.58794  -0.54703  -0.54376
 Alpha  occ. eigenvalues --   -0.51016  -0.46483  -0.46381  -0.42340  -0.38235
 Alpha  occ. eigenvalues --   -0.38004  -0.35516  -0.35042  -0.34113  -0.33952
 Alpha virt. eigenvalues --    0.02542   0.04298   0.04375   0.05062   0.05609
 Alpha virt. eigenvalues --    0.05630   0.06501   0.07167   0.07226   0.07952
 Alpha virt. eigenvalues --    0.08916   0.09497   0.10161   0.11844   0.12082

 Mulliken charges:
               1
     1  C   -5.186214
     2  S    6.193102
     3  O   -2.676295
     4  O   -2.676295
     5  C    2.652818
     6  C   -4.585407
     7  C   -0.241465
     8  C    2.281099
     9  C   -6.019712
    10  C   -0.241465
    11  C   -4.585407
    12  H    1.397784
    13  H    1.251811
    14  H    1.397784
    15  H    1.987777
    16  H    1.835941
    17  H    1.124462
    18  H    1.141502
    19  H    1.124462
    20  H    1.835941
    21  H    1.987777
 Sum of Mulliken charges =  -0.00000

 Dipole moment (field-independent basis, Debye):
    X=             -1.6969    Y=              3.2884    Z=             -0.0000  Tot=              3.7004

 Test job not archived.
 1\1\GINC-SE010\SP\RHF\Aug-CC-pVDZ\C8H10O2S1\OHZDE\06-Apr-2025\0\\#t hf
  aug-cc-pvdz iop(5/13=1,5/36=2,99/5=2) pseudo=read geom=check guess=(r
 ead,tcheck) scf=(maxcycle=1)\\title\\0,1\C,0,-1.656245,-2.355698,0.\S,
 0,0.088738,-1.905377,0.\O,0,0.65456,-2.357841,1.267005\O,0,0.65456,-2.
 357841,-1.267005\C,0,0.080334,-0.110707,0.\C,0,0.087584,0.574569,-1.20
 8898\C,0,0.087584,1.962499,-1.199749\C,0,0.08147,2.677518,0.\C,0,0.055
 105,4.182111,0.\C,0,0.087584,1.962499,1.199749\C,0,0.087584,0.574569,1
 .208898\H,0,-2.123209,-1.961947,-0.898464\H,0,-1.678863,-3.443534,0.\H

 Normal termination of Gaussian 16 at Sun Apr  6 08:01:45 2025.
