 Gaussian 16, Revision C.01,

 ----------------------------------------------------------------------
 #t hf aug-cc-pvdz symm=none int=(grid=ultrafine) guess=(read,tcheck) s
 table=(opt,rrhf)
 ----------------------------------------------------------------------
 -----
 title
 -----
 Symbolic Z-matrix:
 Charge =  0 Multiplicity = 1

 SCF Done:  E(RHF) =  -422.433605195     A.U. after   16 cycles
 Normal termination of Gaussian 16 at Sun Apr  6 08:02:16 2025.
 Gaussian 16:  ES64L-G16RevC.01  3-Jul-2019

 ----------------------------------------------------------------------
 #t hf aug-cc-pvdz iop(5/13=1,5/36=2,99/5=2) pseudo=read geom=check gue
 ss=(read,tcheck) scf=(maxcycle=1)
 ----------------------------------------------------------------------
 -----
 title
 -----
 Structure from the checkpoint file:  "1-methylnaphthalene.chk"
 Charge =  0 Multiplicity = 1

                         Standard orientation:
 ---------------------------------------------------------------------
 Center     Atomic      Atomic             Coordinates (Angstroms)
 Number     Number       Type             X           Y           Z
 ---------------------------------------------------------------------
      1          6           0       -2.758791   -0.172613    0.000000
      2          6           0       -2.313124    1.163831    0.000000
      3          6           0        1.829385   -1.714991    0.000000
      4          6           0       -1.848500   -1.196479    0.000000
      5          6           0       -0.971197    1.448460    0.000000
      6          6           0        0.490239   -1.990790    0.000000
      7          6           0        2.279504   -0.378589    0.000000
      8          6           0       -0.456727   -0.938145    0.000000
      9          6           0        0.000000    0.416294    0.000000
     10          6           0        1.404403    0.681450    0.000000
     11          6           0        1.923414    2.094614    0.000000
     12          1           0       -3.819371   -0.385995    0.000000
     13          1           0       -3.035350    1.969462    0.000000
     14          1           0        2.552743   -2.519608    0.000000
     15          1           0       -2.183644   -2.226204    0.000000
     16          1           0       -0.648972    2.479854    0.000000
     17          1           0        0.135900   -3.013788    0.000000
     18          1           0        3.344718   -0.184203    0.000000
     19          1           0        1.585123    2.649219    0.878154
     20          1           0        3.012097    2.103796    0.000000
     21          1           0        1.585123    2.649219   -0.878154
 ---------------------------------------------------------------------

 SCF Done:  E(RHF) =  -424.482329379     A.U. after    2 cycles

 The electronic state is 1-A'.
 Alpha  occ. eigenvalues --  -11.52077 -11.49071 -11.44674 -11.43141 -11.42644
 Alpha  occ. eigenvalues --  -11.41312 -11.41174 -11.40839 -11.39205 -11.38668
 Alpha  occ. eigenvalues --  -11.35742  -1.40037  -1.24287  -1.16850  -1.07721
 Alpha  occ. eigenvalues --   -1.07048  -0.99014  -0.88614  -0.87099  -0.81895
 Alpha  occ. eigenvalues --   -0.72231  -0.69491  -0.66893  -0.61210  -0.59918
 Alpha  occ. eigenvalues --   -0.58016  -0.55826  -0.53891  -0.53414  -0.52053
 Alpha  occ. eigenvalues --   -0.51129  -0.47647  -0.43945  -0.41375  -0.40932
 Alpha  occ. eigenvalues --   -0.37167  -0.31164  -0.26938
 Alpha virt. eigenvalues --    0.03355   0.04489   0.04949   0.05966   0.06298
 Alpha virt. eigenvalues --    0.06427   0.06547   0.06750   0.07739   0.09025
 Alpha virt. eigenvalues --    0.09405   0.09997   0.11331   0.11747   0.12115

 Mulliken charges:
               1
     1  C   -3.270697
     2  C   -3.736826
     3  C   -2.680435
     4  C   -3.248166
     5  C   -2.100125
     6  C   -4.380794
     7  C   -3.362007
     8  C    5.472985
     9  C    5.687803
    10  C    2.483589
    11  C   -5.521291
    12  H    1.528794
    13  H    1.491696
    14  H    1.498540
    15  H    1.655519
    16  H    1.855330
    17  H    1.704812
    18  H    1.819859
    19  H    0.987960
    20  H    1.125493
    21  H    0.987960
 Sum of Mulliken charges =   0.00000

 Dipole moment (field-independent basis, Debye):
    X=              0.0772    Y=              0.2555    Z=              0.0000  Tot=              0.2669

 Test job not archived.
 1\1\GINC-SE009\SP\RHF\Aug-CC-pVDZ\C11H10\OHZDE\06-Apr-2025\0\\#t hf au
 g-cc-pvdz iop(5/13=1,5/36=2,99/5=2) pseudo=read geom=check guess=(read
 ,tcheck) scf=(maxcycle=1)\\title\\0,1\C,0,-2.758791,-0.172612,0.\C,0,-
 2.313124,1.163832,0.\C,0,1.829384,-1.714992,0.\C,0,-1.848501,-1.196478
 ,0.\C,0,-0.971197,1.44846,0.\C,0,0.490238,-1.99079,0.\C,0,2.279504,-0.
 37859,0.\C,0,-0.456728,-0.938145,0.\C,0,0.,0.416294,0.\C,0,1.404403,0.
 681449,0.\C,0,1.923415,2.094613,0.\H,0,-3.819371,-0.385993,0.\H,0,-3.0
 35349,1.969463,0.\H,0,2.552742,-2.519609,0.\H,0,-2.183645,-2.226203,0.

 Normal termination of Gaussian 16 at Sun Apr  6 08:02:58 2025.
