 Gaussian 16, Revision C.01,

 ----------------------------------------------------------------------
 #t hf aug-cc-pvdz symm=none int=(grid=ultrafine) guess=(read,tcheck) s
 table=(opt,rrhf)
 ----------------------------------------------------------------------
 -----
 title
 -----
 Symbolic Z-matrix:
 Charge =  0 Multiplicity = 1

 SCF Done:  E(RHF) =  -267.917807702     A.U. after   13 cycles
 Normal termination of Gaussian 16 at Sun Apr  6 07:59:30 2025.
 Gaussian 16:  ES64L-G16RevC.01  3-Jul-2019

 ----------------------------------------------------------------------
 #t hf aug-cc-pvdz iop(5/13=1,5/36=2,99/5=2) pseudo=read geom=check gue
 ss=(read,tcheck) scf=(maxcycle=1)
 ----------------------------------------------------------------------
 -----
 title
 -----
 Structure from the checkpoint file:  "1-methylethyl_hydroperoxide.chk"
 Charge =  0 Multiplicity = 1

                         Standard orientation:
 ---------------------------------------------------------------------
 Center     Atomic      Atomic             Coordinates (Angstroms)
 Number     Number       Type             X           Y           Z
 ---------------------------------------------------------------------
      1          8           0       -1.918563   -0.173683   -0.195389
      2          1           0       -2.312775    0.187830    0.609427
      3          8           0       -0.661485   -0.686944    0.324121
      4          6           0        1.651684   -0.787137    0.026852
      5          1           0        1.820412   -0.777766    1.104424
      6          1           0        1.554045   -1.821145   -0.300398
      7          1           0        2.523590   -0.349504   -0.459304
      8          6           0        0.487776    1.469705    0.103519
      9          1           0        0.672394    1.540668    1.177022
     10          1           0        1.301951    1.974955   -0.418152
     11          1           0       -0.436230    1.995634   -0.131444
     12          6           0        0.408750    0.013954   -0.330908
     13          1           0        0.227738   -0.044785   -1.408201
 ---------------------------------------------------------------------

 SCF Done:  E(RHF) =  -269.137452790     A.U. after    2 cycles

 The electronic state is 1-A.
 Alpha  occ. eigenvalues --  -21.10936 -21.08432 -11.44300 -11.39172 -11.35838
 Alpha  occ. eigenvalues --   -1.92709  -1.44592  -1.15255  -1.01474  -0.82747
 Alpha  occ. eigenvalues --   -0.66887  -0.60953  -0.59852  -0.58169  -0.54345
 Alpha  occ. eigenvalues --   -0.49192  -0.48265  -0.47773  -0.40976  -0.33884
 Alpha  occ. eigenvalues --   -0.28385
 Alpha virt. eigenvalues --    0.03992   0.05565   0.05807   0.05963   0.06012
 Alpha virt. eigenvalues --    0.06386   0.06797   0.07881   0.12228   0.13410
 Alpha virt. eigenvalues --    0.14513   0.15098   0.15727   0.15940   0.17436

 Mulliken charges:
               1
     1  O   -0.975117
     2  H    0.900443
     3  O   -1.982856
     4  C   -3.618285
     5  H    1.239662
     6  H    1.259890
     7  H    1.212073
     8  C   -3.416056
     9  H    1.242903
    10  H    1.245944
    11  H    1.294618
    12  C   -0.180817
    13  H    1.777598
 Sum of Mulliken charges =   0.00000

 Dipole moment (field-independent basis, Debye):
    X=              0.3879    Y=              0.5763    Z=              0.1612  Tot=              0.7132

 Test job not archived.
 1\1\GINC-SE344\SP\RHF\Aug-CC-pVDZ\C3H8O2\OHZDE\06-Apr-2025\0\\#t hf au
 g-cc-pvdz iop(5/13=1,5/36=2,99/5=2) pseudo=read geom=check guess=(read
 ,tcheck) scf=(maxcycle=1)\\title\\0,1\O,0,-1.918563,-0.173683,-0.19538
 9\H,0,-2.312775,0.18783,0.609427\O,0,-0.661485,-0.686944,0.324121\C,0,
 1.651684,-0.787137,0.026852\H,0,1.820412,-0.777766,1.104424\H,0,1.5540
 45,-1.821145,-0.300398\H,0,2.52359,-0.349504,-0.459304\C,0,0.487776,1.
 469705,0.103519\H,0,0.672394,1.540668,1.177022\H,0,1.301951,1.974955,-
 0.418152\H,0,-0.43623,1.995634,-0.131444\C,0,0.40875,0.013954,-0.33090

 Normal termination of Gaussian 16 at Sun Apr  6 07:59:33 2025.
