 Gaussian 16, Revision C.01,

 ----------------------------------------------------------------------
 #t hf aug-cc-pvdz symm=none int=(grid=ultrafine) guess=(read,tcheck) s
 table=(opt,rrhf)
 ----------------------------------------------------------------------
 -----
 title
 -----
 Symbolic Z-matrix:
 Charge =  0 Multiplicity = 1

 SCF Done:  E(RHF) =  -429.531121879     A.U. after   17 cycles
 Normal termination of Gaussian 16 at Sun Apr  6 08:00:18 2025.
 Gaussian 16:  ES64L-G16RevC.01  3-Jul-2019

 ----------------------------------------------------------------------
 #t hf aug-cc-pvdz iop(5/13=1,5/36=2,99/5=2) pseudo=read geom=check gue
 ss=(read,tcheck) scf=(maxcycle=1)
 ----------------------------------------------------------------------
 -----
 title
 -----
 Structure from the checkpoint file:  "1-nitrosopyrazolidin-3-one.chk"
 Charge =  0 Multiplicity = 1

                         Standard orientation:
 ---------------------------------------------------------------------
 Center     Atomic      Atomic             Coordinates (Angstroms)
 Number     Number       Type             X           Y           Z
 ---------------------------------------------------------------------
      1          8           0        2.708104   -0.570601   -0.088239
      2          8           0       -2.779924    0.006037   -0.197353
      3          7           0       -0.704809   -0.238358    0.294109
      4          7           0        0.460380   -0.985720    0.109260
      5          7           0       -1.836329   -0.763921   -0.182698
      6          6           0       -0.379980    1.203560    0.320132
      7          6           0        1.049525    1.244702   -0.232188
      8          6           0        1.565924   -0.183314   -0.071158
      9          1           0       -0.441868    1.572185    1.343414
     10          1           0       -1.126052    1.719833   -0.277729
     11          1           0        1.701720    1.927919    0.304039
     12          1           0        1.078298    1.509182   -1.289948
     13          1           0        0.514950   -1.886298    0.559549
 ---------------------------------------------------------------------

 SCF Done:  E(RHF) =  -431.406816959     A.U. after    2 cycles

 The electronic state is 1-A.
 Alpha  occ. eigenvalues --  -21.09575 -21.05676 -15.89949 -15.82084 -15.81106
 Alpha  occ. eigenvalues --  -11.53403 -11.48600 -11.41893  -1.88071  -1.73864
 Alpha  occ. eigenvalues --   -1.59618  -1.27656  -1.22269  -1.01900  -0.87194
 Alpha  occ. eigenvalues --   -0.85539  -0.73292  -0.72642  -0.64228  -0.61847
 Alpha  occ. eigenvalues --   -0.61263  -0.57378  -0.56736  -0.53401  -0.50861
 Alpha  occ. eigenvalues --   -0.49032  -0.40325  -0.30948  -0.30274  -0.28540
 Alpha virt. eigenvalues --    0.02977   0.05118   0.05680   0.05813   0.06279
 Alpha virt. eigenvalues --    0.09111   0.09924   0.11066   0.11293   0.12672
 Alpha virt. eigenvalues --    0.13277   0.14345   0.14508   0.14828   0.15046

 Mulliken charges:
               1
     1  O   -3.356285
     2  O   -2.160138
     3  N    0.588442
     4  N   -2.342392
     5  N    1.119285
     6  C   -2.268874
     7  C   -3.374803
     8  C    5.251291
     9  H    1.373880
    10  H    1.613667
    11  H    1.312003
    12  H    1.374284
    13  H    0.869641
 Sum of Mulliken charges =  -0.00000

 Dipole moment (field-independent basis, Debye):
    X=              0.2325    Y=              1.8313    Z=              0.8660  Tot=              2.0391

 Test job not archived.
 1\1\GINC-SE412\SP\RHF\Aug-CC-pVDZ\C3H5N3O2\OHZDE\06-Apr-2025\0\\#t hf
 aug-cc-pvdz iop(5/13=1,5/36=2,99/5=2) pseudo=read geom=check guess=(re
 ad,tcheck) scf=(maxcycle=1)\\title\\0,1\O,0,2.708104,-0.570601,-0.0882
 39\O,0,-2.779924,0.006037,-0.197353\N,0,-0.704809,-0.238358,0.294109\N
 ,0,0.46038,-0.98572,0.10926\N,0,-1.836329,-0.763921,-0.182698\C,0,-0.3
 7998,1.20356,0.320132\C,0,1.049525,1.244702,-0.232188\C,0,1.565924,-0.
 183314,-0.071158\H,0,-0.441868,1.572185,1.343414\H,0,-1.126052,1.71983
 3,-0.277729\H,0,1.70172,1.927919,0.304039\H,0,1.078298,1.509182,-1.289

 Normal termination of Gaussian 16 at Sun Apr  6 08:00:37 2025.
