 Gaussian 16, Revision C.01,

 ----------------------------------------------------------------------
 #t hf aug-cc-pvdz symm=none int=(grid=ultrafine) guess=(read,tcheck) s
 table=(opt,rrhf)
 ----------------------------------------------------------------------
 -----
 title
 -----
 Symbolic Z-matrix:
 Charge =  0 Multiplicity = 1

 SCF Done:  E(RHF) =  -752.220064446     A.U. after   15 cycles
 Normal termination of Gaussian 16 at Sun Apr  6 08:00:24 2025.
 Gaussian 16:  ES64L-G16RevC.01  3-Jul-2019

 ----------------------------------------------------------------------
 #t hf aug-cc-pvdz iop(5/13=1,5/36=2,99/5=2) pseudo=read geom=check gue
 ss=(read,tcheck) scf=(maxcycle=1)
 ----------------------------------------------------------------------
 -----
 title
 -----
 Structure from the checkpoint file:  "1-nitroso-2-imidazolidinethione.chk"
 Charge =  0 Multiplicity = 1

                         Standard orientation:
 ---------------------------------------------------------------------
 Center     Atomic      Atomic             Coordinates (Angstroms)
 Number     Number       Type             X           Y           Z
 ---------------------------------------------------------------------
      1         16           0       -2.085780   -0.900716    0.006105
      2          8           0        2.215947   -1.569660    0.000507
      3          7           0        0.569237   -0.210430    0.014654
      4          7           0       -0.824348    1.471103   -0.076104
      5          7           0        1.006426   -1.480170    0.031513
      6          6           0       -0.797846    0.120492   -0.016313
      7          6           0        1.454352    0.955921   -0.068349
      8          6           0        0.468197    2.125120    0.088754
      9          1           0       -1.707843    1.945974   -0.009085
     10          1           0        1.968507    0.956564   -1.029568
     11          1           0        2.206495    0.910569    0.715423
     12          1           0        0.550124    2.589299    1.074075
     13          1           0        0.620198    2.893610   -0.667587
 ---------------------------------------------------------------------

 SCF Done:  E(RHF) =  -754.024523932     A.U. after    2 cycles

 The electronic state is 1-A.
 Alpha  occ. eigenvalues --  -75.64337 -21.11148 -15.90566 -15.81351 -15.80157
 Alpha  occ. eigenvalues --  -13.14423 -12.99557 -12.95410 -11.52508 -11.51758
 Alpha  occ. eigenvalues --  -11.43380  -7.98559  -1.89241  -1.59795  -1.38352
 Alpha  occ. eigenvalues --   -1.21031  -1.09485  -1.01806  -0.93427  -0.78972
 Alpha  occ. eigenvalues --   -0.73808  -0.71959  -0.67385  -0.62923  -0.61425
 Alpha  occ. eigenvalues --   -0.57292  -0.55656  -0.50993  -0.50205  -0.46824
 Alpha  occ. eigenvalues --   -0.35210  -0.31008  -0.25349  -0.22209
 Alpha virt. eigenvalues --    0.02186   0.04697   0.04741   0.05361   0.06127
 Alpha virt. eigenvalues --    0.07863   0.08153   0.10208   0.10555   0.11970
 Alpha virt. eigenvalues --    0.12437   0.13606   0.14324   0.14808   0.15253

 Mulliken charges:
               1
     1  S    1.576442
     2  O   -2.008676
     3  N   -0.167454
     4  N   -2.489003
     5  N    0.370552
     6  C    0.370077
     7  C   -2.207355
     8  C   -2.165901
     9  H    0.815051
    10  H    1.518766
    11  H    1.580751
    12  H    1.417058
    13  H    1.389691
 Sum of Mulliken charges =   0.00000

 Dipole moment (field-independent basis, Debye):
    X=              0.9625    Y=              3.7205    Z=              0.1006  Tot=              3.8443

 Test job not archived.
 1\1\GINC-SE398\SP\RHF\Aug-CC-pVDZ\C3H5N3O1S1\OHZDE\06-Apr-2025\0\\#t h
 f aug-cc-pvdz iop(5/13=1,5/36=2,99/5=2) pseudo=read geom=check guess=(
 read,tcheck) scf=(maxcycle=1)\\title\\0,1\S,0,-2.08578,-0.900716,0.006
 105\O,0,2.215947,-1.569659,0.000507\N,0,0.569237,-0.21043,0.014654\N,0
 ,-0.824348,1.471103,-0.076104\N,0,1.006426,-1.48017,0.031513\C,0,-0.79
 7846,0.120492,-0.016313\C,0,1.454352,0.955921,-0.068349\C,0,0.468196,2
 .12512,0.088754\H,0,-1.707844,1.945974,-0.009085\H,0,1.968507,0.956565
 ,-1.029568\H,0,2.206495,0.91057,0.715423\H,0,0.550123,2.589299,1.07407

 Normal termination of Gaussian 16 at Sun Apr  6 08:00:37 2025.
