 Gaussian 16, Revision C.01,

 ----------------------------------------------------------------------
 #t hf aug-cc-pvdz symm=none int=(grid=ultrafine) guess=(read,tcheck) s
 table=(opt,rrhf)
 ----------------------------------------------------------------------
 -----
 title
 -----
 Symbolic Z-matrix:
 Charge =  0 Multiplicity = 1

 SCF Done:  E(RHF) =  -360.825418281     A.U. after   14 cycles
 Normal termination of Gaussian 16 at Sun Apr  6 08:00:23 2025.
 Gaussian 16:  ES64L-G16RevC.01  3-Jul-2019

 ----------------------------------------------------------------------
 #t hf aug-cc-pvdz iop(5/13=1,5/36=2,99/5=2) pseudo=read geom=check gue
 ss=(read,tcheck) scf=(maxcycle=1)
 ----------------------------------------------------------------------
 -----
 title
 -----
 Structure from the checkpoint file:  "1-nitrobutane.chk"
 Charge =  0 Multiplicity = 1

                         Standard orientation:
 ---------------------------------------------------------------------
 Center     Atomic      Atomic             Coordinates (Angstroms)
 Number     Number       Type             X           Y           Z
 ---------------------------------------------------------------------
      1          6           0        0.536731    3.223064   -0.000000
      2          6           0       -0.454928    2.061221   -0.000000
      3          6           0        0.239825    0.697977   -0.000000
      4          6           0       -0.768764   -0.447146    0.000000
      5          7           0       -0.044489   -1.768093    0.000000
      6          8           0        0.239825   -2.250342    1.084249
      7          8           0        0.239825   -2.250342   -1.084249
      8          1           0        0.018030    4.181913   -0.000000
      9          1           0        1.179997    3.192827    0.881142
     10          1           0        1.179997    3.192827   -0.881142
     11          1           0       -1.106167    2.136482    0.875255
     12          1           0       -1.106167    2.136482   -0.875255
     13          1           0        0.880107    0.607526   -0.879899
     14          1           0        0.880107    0.607526    0.879899
     15          1           0       -1.384437   -0.442080    0.895216
     16          1           0       -1.384437   -0.442080   -0.895216
 ---------------------------------------------------------------------

 SCF Done:  E(RHF) =  -362.485854735     A.U. after    2 cycles

 The electronic state is 1-A'.
 Alpha  occ. eigenvalues --  -21.09281 -21.09099 -15.98841 -11.48044 -11.43779
 Alpha  occ. eigenvalues --  -11.40260 -11.37066  -1.99251  -1.68680  -1.28871
 Alpha  occ. eigenvalues --   -1.16055  -1.00510  -0.86832  -0.84572  -0.70448
 Alpha  occ. eigenvalues --   -0.69393  -0.67188  -0.63543  -0.59454  -0.57577
 Alpha  occ. eigenvalues --   -0.54451  -0.52754  -0.48402  -0.48350  -0.46922
 Alpha  occ. eigenvalues --   -0.34666  -0.31191  -0.30601
 Alpha virt. eigenvalues --    0.03463   0.04787   0.04897   0.05279   0.05726
 Alpha virt. eigenvalues --    0.06311   0.07299   0.07629   0.09221   0.09222
 Alpha virt. eigenvalues --    0.12281   0.12896   0.14091   0.14775   0.14958

 Mulliken charges:
               1
     1  C   -3.890087
     2  C   -2.818345
     3  C   -2.244806
     4  C   -2.577318
     5  N    4.306625
     6  O   -2.734212
     7  O   -2.734212
     8  H    1.098690
     9  H    1.276345
    10  H    1.276345
    11  H    1.389023
    12  H    1.389023
    13  H    1.569340
    14  H    1.569340
    15  H    1.562124
    16  H    1.562124
 Sum of Mulliken charges =  -0.00000

 Dipole moment (field-independent basis, Debye):
    X=             -0.9628    Y=              2.8588    Z=              0.0000  Tot=              3.0166

 Test job not archived.
 1\1\GINC-SE168\SP\RHF\Aug-CC-pVDZ\C4H9N1O2\OHZDE\06-Apr-2025\0\\#t hf
 aug-cc-pvdz iop(5/13=1,5/36=2,99/5=2) pseudo=read geom=check guess=(re
 ad,tcheck) scf=(maxcycle=1)\\title\\0,1\C,0,0.536731,3.223064,0.\C,0,-
 0.454928,2.061221,0.\C,0,0.239825,0.697977,0.\C,0,-0.768764,-0.447146,
 0.\N,0,-0.044489,-1.768093,0.\O,0,0.239825,-2.250342,1.084249\O,0,0.23
 9825,-2.250342,-1.084249\H,0,0.01803,4.181913,0.\H,0,1.179997,3.192827
 ,0.881142\H,0,1.179997,3.192827,-0.881142\H,0,-1.106167,2.136482,0.875
 255\H,0,-1.106167,2.136482,-0.875255\H,0,0.880107,0.607526,-0.879899\H

 Normal termination of Gaussian 16 at Sun Apr  6 08:00:37 2025.
