 Gaussian 16, Revision C.01,

 ----------------------------------------------------------------------
 #t hf aug-cc-pvdz symm=none int=(grid=ultrafine) guess=(read,tcheck) s
 table=(opt,rrhf)
 ----------------------------------------------------------------------
 -----
 title
 -----
 Symbolic Z-matrix:
 Charge =  0 Multiplicity = 1

 SCF Done:  E(RHF) =  -399.864324383     A.U. after   15 cycles
 Normal termination of Gaussian 16 at Sun Apr  6 08:00:54 2025.
 Gaussian 16:  ES64L-G16RevC.01  3-Jul-2019

 ----------------------------------------------------------------------
 #t hf aug-cc-pvdz iop(5/13=1,5/36=2,99/5=2) pseudo=read geom=check gue
 ss=(read,tcheck) scf=(maxcycle=1)
 ----------------------------------------------------------------------
 -----
 title
 -----
 Structure from the checkpoint file:  "1-nitropentane.chk"
 Charge =  0 Multiplicity = 1

                         Standard orientation:
 ---------------------------------------------------------------------
 Center     Atomic      Atomic             Coordinates (Angstroms)
 Number     Number       Type             X           Y           Z
 ---------------------------------------------------------------------
      1          6           0       -3.998201   -0.032014    0.092137
      2          6           0       -2.629647    0.130528   -0.566038
      3          6           0       -1.467215   -0.100900    0.400376
      4          6           0       -0.099316    0.063086   -0.264256
      5          6           0        1.038289   -0.173687    0.725014
      6          7           0        2.364390   -0.001301    0.031077
      7          8           0        2.905108   -1.004150   -0.406070
      8          8           0        2.792402    1.136336   -0.078101
      9          1           0       -4.802943    0.140790   -0.623098
     10          1           0       -4.125783   -1.037723    0.497305
     11          1           0       -4.128535    0.674598    0.914043
     12          1           0       -2.547318    1.133724   -0.993858
     13          1           0       -2.543271   -0.565696   -1.405148
     14          1           0       -1.548032   -1.105658    0.827165
     15          1           0       -1.550790    0.596612    1.239848
     16          1           0       -0.003675    1.068374   -0.678690
     17          1           0       -0.002303   -0.642032   -1.092626
     18          1           0        1.032650   -1.187298    1.115133
     19          1           0        1.025724    0.553854    1.532353
 ---------------------------------------------------------------------

 SCF Done:  E(RHF) =  -401.729584487     A.U. after    2 cycles

 The electronic state is 1-A.
 Alpha  occ. eigenvalues --  -21.09264 -21.09048 -15.98808 -11.48179 -11.44175
 Alpha  occ. eigenvalues --  -11.41699 -11.38954 -11.36180  -1.99208  -1.68635
 Alpha  occ. eigenvalues --   -1.29857  -1.19253  -1.06695  -0.93576  -0.84929
 Alpha  occ. eigenvalues --   -0.84212  -0.70611  -0.69426  -0.66887  -0.64946
 Alpha  occ. eigenvalues --   -0.59430  -0.59271  -0.56055  -0.55092  -0.51396
 Alpha  occ. eigenvalues --   -0.50423  -0.47303  -0.47043  -0.44483  -0.34511
 Alpha  occ. eigenvalues --   -0.31147  -0.30568
 Alpha virt. eigenvalues --    0.03580   0.04603   0.04806   0.05272   0.05682
 Alpha virt. eigenvalues --    0.05756   0.06601   0.07213   0.08376   0.08548
 Alpha virt. eigenvalues --    0.08895   0.09968   0.12328   0.13256   0.13578

 Mulliken charges:
               1
     1  C   -4.266703
     2  C   -2.788453
     3  C   -2.310282
     4  C   -2.293687
     5  C   -2.997140
     6  N    4.321033
     7  O   -2.728810
     8  O   -2.752714
     9  H    1.078838
    10  H    1.312267
    11  H    1.316390
    12  H    1.425534
    13  H    1.425013
    14  H    1.493778
    15  H    1.499897
    16  H    1.573642
    17  H    1.570116
    18  H    1.570672
    19  H    1.550610
 Sum of Mulliken charges =  -0.00000

 Dipole moment (field-independent basis, Debye):
    X=             -2.9458    Y=             -0.1946    Z=              0.7925  Tot=              3.0567

 Test job not archived.
 1\1\GINC-SE169\SP\RHF\Aug-CC-pVDZ\C5H11N1O2\OHZDE\06-Apr-2025\0\\#t hf
  aug-cc-pvdz iop(5/13=1,5/36=2,99/5=2) pseudo=read geom=check guess=(r
 ead,tcheck) scf=(maxcycle=1)\\title\\0,1\C,0,-3.998201,-0.032014,0.092
 137\C,0,-2.629647,0.130528,-0.566038\C,0,-1.467215,-0.1009,0.400376\C,
 0,-0.099316,0.063086,-0.264256\C,0,1.038289,-0.173687,0.725014\N,0,2.3
 6439,-0.001301,0.031077\O,0,2.905108,-1.00415,-0.40607\O,0,2.792402,1.
 136336,-0.078101\H,0,-4.802943,0.14079,-0.623098\H,0,-4.125783,-1.0377
 23,0.497305\H,0,-4.128535,0.674598,0.914043\H,0,-2.547318,1.133724,-0.

 Normal termination of Gaussian 16 at Sun Apr  6 08:01:18 2025.
