 Gaussian 16, Revision C.01,

 ----------------------------------------------------------------------
 #t hf aug-cc-pvdz symm=none int=(grid=ultrafine) guess=(read,tcheck) s
 table=(opt,rrhf)
 ----------------------------------------------------------------------
 -----
 title
 -----
 Symbolic Z-matrix:
 Charge =  0 Multiplicity = 1

 SCF Done:  E(RHF) =  -504.049464255     A.U. after   17 cycles
 Normal termination of Gaussian 16 at Sun Apr  6 08:00:46 2025.
 Gaussian 16:  ES64L-G16RevC.01  3-Jul-2019

 ----------------------------------------------------------------------
 #t hf aug-cc-pvdz iop(5/13=1,5/36=2,99/5=2) pseudo=read geom=check gue
 ss=(read,tcheck) scf=(maxcycle=1)
 ----------------------------------------------------------------------
 -----
 title
 -----
 Structure from the checkpoint file:  "1-nitropyrrole-3-carbonitrile.chk"
 Charge =  0 Multiplicity = 1

                         Standard orientation:
 ---------------------------------------------------------------------
 Center     Atomic      Atomic             Coordinates (Angstroms)
 Number     Number       Type             X           Y           Z
 ---------------------------------------------------------------------
      1          8           0       -2.903943    0.542304    0.000007
      2          8           0       -2.224534   -1.527721   -0.000004
      3          7           0       -0.718011    0.114913    0.000001
      4          7           0       -2.064664   -0.328750    0.000001
      5          7           0        3.923133   -0.694141   -0.000009
      6          6           0        1.475503    0.087120   -0.000000
      7          6           0        0.370315   -0.724286   -0.000004
      8          6           0       -0.330392    1.446894    0.000007
      9          6           0        1.027257    1.456025    0.000005
     10          6           0        2.822191   -0.353769   -0.000005
     11          1           0        0.260075   -1.791459   -0.000009
     12          1           0       -1.062361    2.231220    0.000012
     13          1           0        1.657653    2.327515    0.000009
 ---------------------------------------------------------------------

 SCF Done:  E(RHF) =  -506.252908932     A.U. after    2 cycles

 The electronic state is 1-A.
 Alpha  occ. eigenvalues --  -21.14421 -21.14232 -16.08245 -15.86984 -15.77526
 Alpha  occ. eigenvalues --  -11.55214 -11.50094 -11.48782 -11.46039 -11.43951
 Alpha  occ. eigenvalues --   -2.07016  -1.75677  -1.59757  -1.33584  -1.24906
 Alpha  occ. eigenvalues --   -1.12987  -1.03216  -0.90724  -0.82952  -0.81186
 Alpha  occ. eigenvalues --   -0.76429  -0.71656  -0.67396  -0.63114  -0.61306
 Alpha  occ. eigenvalues --   -0.59768  -0.58207  -0.52840  -0.49944  -0.44762
 Alpha  occ. eigenvalues --   -0.41919  -0.37980  -0.36794  -0.36159  -0.34393
 Alpha virt. eigenvalues --    0.02762   0.05175   0.05905   0.05935   0.07807
 Alpha virt. eigenvalues --    0.09173   0.09949   0.10337   0.11436   0.12252
 Alpha virt. eigenvalues --    0.12770   0.12888   0.12981   0.14062   0.14217

 Mulliken charges:
               1
     1  O   -2.897300
     2  O   -2.894780
     3  N   -2.706229
     4  N    5.262859
     5  N   -2.530491
     6  C    4.044217
     7  C   -1.239773
     8  C   -1.167637
     9  C   -2.655165
    10  C    2.666293
    11  H    1.336596
    12  H    1.373756
    13  H    1.407652
 Sum of Mulliken charges =   0.00000

 Dipole moment (field-independent basis, Debye):
    X=             -2.8488    Y=              1.5243    Z=              0.0000  Tot=              3.2310

 Test job not archived.
 1\1\GINC-SE388\SP\RHF\Aug-CC-pVDZ\C5H3N3O2\OHZDE\06-Apr-2025\0\\#t hf
 aug-cc-pvdz iop(5/13=1,5/36=2,99/5=2) pseudo=read geom=check guess=(re
 ad,tcheck) scf=(maxcycle=1)\\title\\0,1\O,0,-2.903943,0.542304,0.00000
 7\O,0,-2.224534,-1.527721,-0.000004\N,0,-0.718011,0.114913,0.000001\N,
 0,-2.064664,-0.32875,0.000001\N,0,3.923133,-0.694141,-0.000009\C,0,1.4
 75503,0.08712,0.\C,0,0.370315,-0.724286,-0.000004\C,0,-0.330392,1.4468
 94,0.000007\C,0,1.027257,1.456025,0.000005\C,0,2.822191,-0.353769,-0.0
 00005\H,0,0.260075,-1.791459,-0.000009\H,0,-1.062361,2.23122,0.000012\

 Normal termination of Gaussian 16 at Sun Apr  6 08:01:15 2025.
