 Gaussian 16, Revision C.01,

 ----------------------------------------------------------------------
 #t hf aug-cc-pvdz symm=none int=(grid=ultrafine) guess=(read,tcheck) s
 table=(opt,rrhf)
 ----------------------------------------------------------------------
 -----
 title
 -----
 Symbolic Z-matrix:
 Charge =  0 Multiplicity = 1

 SCF Done:  E(RHF) =  -525.292768631     A.U. after   18 cycles
 Normal termination of Gaussian 16 at Sun Apr  6 08:00:30 2025.
 Gaussian 16:  ES64L-G16RevC.01  3-Jul-2019

 ----------------------------------------------------------------------
 #t hf aug-cc-pvdz iop(5/13=1,5/36=2,99/5=2) pseudo=read geom=check gue
 ss=(read,tcheck) scf=(maxcycle=1)
 ----------------------------------------------------------------------
 -----
 title
 -----
 Structure from the checkpoint file:  "1-nitropropan-2-ylnitrite.chk"
 Charge =  0 Multiplicity = 1

                         Standard orientation:
 ---------------------------------------------------------------------
 Center     Atomic      Atomic             Coordinates (Angstroms)
 Number     Number       Type             X           Y           Z
 ---------------------------------------------------------------------
      1          8           0       -1.586677    0.242823   -0.452011
      2          8           0        2.127839   -0.895530    1.082740
      3          8           0        2.980961    0.036614   -0.679653
      4          8           0       -3.549446   -0.597000   -0.150032
      5          7           0        2.051118   -0.418864   -0.038076
      6          7           0       -2.519406   -0.492165    0.375228
      7          6           0       -0.310700    0.372479    0.201478
      8          6           0        0.684193   -0.397131   -0.672929
      9          6           0        0.022761    1.846227    0.352622
     10          1           0       -0.376425   -0.112909    1.175395
     11          1           0        0.382088   -1.438003   -0.762724
     12          1           0        0.800672    0.053603   -1.652876
     13          1           0        0.997303    1.974383    0.824190
     14          1           0       -0.723135    2.333423    0.978516
     15          1           0        0.038585    2.342002   -0.617938
 ---------------------------------------------------------------------

 SCF Done:  E(RHF) =  -527.553559865     A.U. after    2 cycles

 The electronic state is 1-A.
 Alpha  occ. eigenvalues --  -21.18087 -21.11343 -21.10997 -21.10467 -16.00454
 Alpha  occ. eigenvalues --  -15.95971 -11.51784 -11.47023 -11.40174  -2.01265
 Alpha  occ. eigenvalues --   -1.98945  -1.75407  -1.70294  -1.26089  -1.11990
 Alpha  occ. eigenvalues --   -0.99666  -0.91890  -0.85161  -0.73422  -0.72382
 Alpha  occ. eigenvalues --   -0.69281  -0.66042  -0.65173  -0.62646  -0.60307
 Alpha  occ. eigenvalues --   -0.58660  -0.57541  -0.52316  -0.51080  -0.45397
 Alpha  occ. eigenvalues --   -0.38304  -0.34417  -0.32623  -0.31878  -0.31489
 Alpha virt. eigenvalues --    0.03674   0.05145   0.05477   0.05725   0.06666
 Alpha virt. eigenvalues --    0.06750   0.10167   0.10799   0.11642   0.12155
 Alpha virt. eigenvalues --    0.12847   0.13523   0.14273   0.14330   0.15216

 Mulliken charges:
               1
     1  O   -2.873027
     2  O   -2.859245
     3  O   -2.756471
     4  O   -2.079881
     5  N    4.600418
     6  N    2.743001
     7  C    0.505059
     8  C   -2.884698
     9  C   -3.325516
    10  H    1.937247
    11  H    1.562913
    12  H    1.653942
    13  H    1.273571
    14  H    1.260969
    15  H    1.241718
 Sum of Mulliken charges =  -0.00000

 Dipole moment (field-independent basis, Debye):
    X=             -1.5712    Y=              0.7528    Z=             -0.9308  Tot=              1.9752

 Test job not archived.
 1\1\GINC-SE249\SP\RHF\Aug-CC-pVDZ\C3H6N2O4\OHZDE\06-Apr-2025\0\\#t hf
 aug-cc-pvdz iop(5/13=1,5/36=2,99/5=2) pseudo=read geom=check guess=(re
 ad,tcheck) scf=(maxcycle=1)\\title\\0,1\O,0,-1.586677,0.242823,-0.4520
 11\O,0,2.127839,-0.89553,1.08274\O,0,2.980961,0.036614,-0.679653\O,0,-
 3.549446,-0.597,-0.150032\N,0,2.051118,-0.418864,-0.038076\N,0,-2.5194
 06,-0.492165,0.375228\C,0,-0.3107,0.372479,0.201478\C,0,0.684193,-0.39
 7131,-0.672929\C,0,0.022761,1.846227,0.352622\H,0,-0.376425,-0.112909,
 1.175395\H,0,0.382088,-1.438003,-0.762724\H,0,0.800672,0.053603,-1.652

 Normal termination of Gaussian 16 at Sun Apr  6 08:00:38 2025.
