 Gaussian 16, Revision C.01,

 ----------------------------------------------------------------------
 #t hf aug-cc-pvdz symm=none int=(grid=ultrafine) guess=(read,tcheck) s
 table=(opt,rrhf)
 ----------------------------------------------------------------------
 -----
 title
 -----
 Symbolic Z-matrix:
 Charge =  0 Multiplicity = 1

 SCF Done:  E(RHF) =  -321.786404264     A.U. after   15 cycles
 Normal termination of Gaussian 16 at Sun Apr  6 08:00:03 2025.
 Gaussian 16:  ES64L-G16RevC.01  3-Jul-2019

 ----------------------------------------------------------------------
 #t hf aug-cc-pvdz iop(5/13=1,5/36=2,99/5=2) pseudo=read geom=check gue
 ss=(read,tcheck) scf=(maxcycle=1)
 ----------------------------------------------------------------------
 -----
 title
 -----
 Structure from the checkpoint file:  "1-nitropropane.chk"
 Charge =  0 Multiplicity = 1

                         Standard orientation:
 ---------------------------------------------------------------------
 Center     Atomic      Atomic             Coordinates (Angstroms)
 Number     Number       Type             X           Y           Z
 ---------------------------------------------------------------------
      1          6           0       -2.640949   -0.019049    0.026517
      2          6           0       -1.209042    0.058303   -0.500284
      3          6           0       -0.194938   -0.085420    0.631445
      4          7           0        1.205024   -0.003386    0.081039
      5          8           0        1.765014   -1.053167   -0.189400
      6          8           0        1.672267    1.111046   -0.088501
      7          1           0       -2.833745   -0.973366    0.519100
      8          1           0       -2.844646    0.776897    0.744558
      9          1           0       -3.353672    0.081711   -0.791461
     10          1           0       -1.043315    1.011913   -1.003038
     11          1           0       -1.035929   -0.731717   -1.232936
     12          1           0       -0.270535   -1.051673    1.121825
     13          1           0       -0.282005    0.723902    1.351821
 ---------------------------------------------------------------------

 SCF Done:  E(RHF) =  -323.242010905     A.U. after    2 cycles

 The electronic state is 1-A.
 Alpha  occ. eigenvalues --  -21.09367 -21.09154 -15.98886 -11.47852 -11.42444
 Alpha  occ. eigenvalues --  -11.38370  -1.99326  -1.68755  -1.27342  -1.11126
 Alpha  occ. eigenvalues --   -0.91797  -0.84550  -0.70152  -0.69666  -0.67061
 Alpha  occ. eigenvalues --   -0.61465  -0.58905  -0.55743  -0.51554  -0.50102
 Alpha  occ. eigenvalues --   -0.49190  -0.34885  -0.31255  -0.30681
 Alpha virt. eigenvalues --    0.03224   0.05081   0.05161   0.05596   0.06044
 Alpha virt. eigenvalues --    0.06567   0.07812   0.10135   0.11477   0.13373
 Alpha virt. eigenvalues --    0.13989   0.14078   0.15362   0.16131   0.16196

 Mulliken charges:
               1
     1  C   -3.584691
     2  C   -2.695300
     3  C   -2.337346
     4  N    4.269837
     5  O   -2.715392
     6  O   -2.736302
     7  H    1.230703
     8  H    1.229976
     9  H    1.137378
    10  H    1.500429
    11  H    1.498619
    12  H    1.605104
    13  H    1.596984
 Sum of Mulliken charges =  -0.00000

 Dipole moment (field-independent basis, Debye):
    X=             -2.7958    Y=             -0.0888    Z=              0.5644  Tot=              2.8536

 Test job not archived.
 1\1\GINC-SE276\SP\RHF\Aug-CC-pVDZ\C3H7N1O2\OHZDE\06-Apr-2025\0\\#t hf
 aug-cc-pvdz iop(5/13=1,5/36=2,99/5=2) pseudo=read geom=check guess=(re
 ad,tcheck) scf=(maxcycle=1)\\title\\0,1\C,0,-2.640949,-0.019049,0.0265
 17\C,0,-1.209042,0.058303,-0.500284\C,0,-0.194938,-0.08542,0.631445\N,
 0,1.205024,-0.003386,0.081039\O,0,1.765014,-1.053167,-0.1894\O,0,1.672
 267,1.111046,-0.088501\H,0,-2.833745,-0.973366,0.5191\H,0,-2.844646,0.
 776897,0.744558\H,0,-3.353672,0.081711,-0.791461\H,0,-1.043315,1.01191
 3,-1.003038\H,0,-1.035929,-0.731717,-1.232936\H,0,-0.270535,-1.051673,

 Normal termination of Gaussian 16 at Sun Apr  6 08:00:07 2025.
