 Gaussian 16, Revision C.01,

 ----------------------------------------------------------------------
 #t hf aug-cc-pvdz symm=none int=(grid=ultrafine) guess=(read,tcheck) s
 table=(opt,rrhf)
 ----------------------------------------------------------------------
 -----
 title
 -----
 Symbolic Z-matrix:
 Charge =  0 Multiplicity = 1

 SCF Done:  E(RHF) =  -388.338331730     A.U. after   12 cycles

 1\1\GINC-SE344\Stability\RHF\Aug-CC-pVDZ\C8H18O1\OHZDE\06-Apr-2025\0\\
 #t hf aug-cc-pvdz symm=none int=(grid=ultrafine) guess=(read,tcheck) s
 table=(opt,rrhf)\\title\\0,1\C,0,5.089909,-0.352288,-0.006234\C,0,3.81
 2557,0.485486,0.017342\C,0,2.536468,-0.356683,-0.009704\C,0,1.252161,0
 .472558,0.012261\C,0,-0.022805,-0.371121,-0.013333\C,0,-1.306858,0.459
 456,0.007688\C,0,-2.580564,-0.387028,-0.02192\C,0,-3.851423,0.452738,0
 .005891\O,0,-5.044544,-0.325727,-0.078454\H,0,5.140854,-0.967918,-0.90
 6694\H,0,5.136911,-1.023546,0.853797\H,0,5.980865,0.276784,0.015618\H,

 Normal termination of Gaussian 16 at Sun Apr  6 08:02:27 2025.
 Gaussian 16:  ES64L-G16RevC.01  3-Jul-2019

 ----------------------------------------------------------------------
 #t hf aug-cc-pvdz iop(5/13=1,5/36=2,99/5=2) pseudo=read geom=check gue
 ss=(read,tcheck) scf=(maxcycle=1)
 ----------------------------------------------------------------------
 -----
 title
 -----
 Structure from the checkpoint file:  "1-octanol.chk"
 Charge =  0 Multiplicity = 1

                         Standard orientation:
 ---------------------------------------------------------------------
 Center     Atomic      Atomic             Coordinates (Angstroms)
 Number     Number       Type             X           Y           Z
 ---------------------------------------------------------------------
      1          6           0        5.089909   -0.352288   -0.006234
      2          6           0        3.812557    0.485486    0.017342
      3          6           0        2.536468   -0.356683   -0.009704
      4          6           0        1.252161    0.472558    0.012261
      5          6           0       -0.022805   -0.371121   -0.013333
      6          6           0       -1.306858    0.459456    0.007688
      7          6           0       -2.580564   -0.387028   -0.021920
      8          6           0       -3.851423    0.452738    0.005891
      9          8           0       -5.044544   -0.325727   -0.078454
     10          1           0        5.140854   -0.967918   -0.906694
     11          1           0        5.136911   -1.023546    0.853797
     12          1           0        5.980865    0.276784    0.015618
     13          1           0        3.809761    1.169734   -0.836459
     14          1           0        3.807307    1.117177    0.910784
     15          1           0        2.542544   -0.990137   -0.903143
     16          1           0        2.539557   -1.041269    0.845242
     17          1           0        1.249543    1.155909   -0.843424
     18          1           0        1.247470    1.106707    0.905111
     19          1           0       -0.018787   -1.005273   -0.905757
     20          1           0       -0.021131   -1.053901    0.842702
     21          1           0       -1.307512    1.142029   -0.848333
     22          1           0       -1.310614    1.093278    0.900561
     23          1           0       -2.584132   -1.069525    0.835632
     24          1           0       -2.594832   -1.012605   -0.918195
     25          1           0       -3.868468    1.083342    0.903101
     26          1           0       -3.882554    1.118124   -0.857873
     27          1           0       -5.087108   -0.911803    0.683019
 ---------------------------------------------------------------------

 SCF Done:  E(RHF) =  -390.292546977     A.U. after    2 cycles

 The electronic state is 1-A.
 Alpha  occ. eigenvalues --  -21.06175 -11.43623 -11.42737 -11.41852 -11.40586
 Alpha  occ. eigenvalues --  -11.38593 -11.36743 -11.35564 -11.33775  -1.69896
 Alpha  occ. eigenvalues --   -1.28490  -1.19999  -1.10398  -1.01169  -0.92800
 Alpha  occ. eigenvalues --   -0.86047  -0.82771  -0.81970  -0.67901  -0.65398
 Alpha  occ. eigenvalues --   -0.61669  -0.59230  -0.58314  -0.57643  -0.55593
 Alpha  occ. eigenvalues --   -0.53341  -0.51847  -0.50172  -0.48432  -0.47415
 Alpha  occ. eigenvalues --   -0.45539  -0.45177  -0.44938  -0.44304  -0.41765
 Alpha  occ. eigenvalues --   -0.36853  -0.30363
 Alpha virt. eigenvalues --    0.04164   0.04416   0.04679   0.05451   0.05626
 Alpha virt. eigenvalues --    0.05834   0.06026   0.06347   0.06535   0.06789
 Alpha virt. eigenvalues --    0.07439   0.07944   0.08625   0.08859   0.09687

 Mulliken charges:
               1
     1  C   -4.749613
     2  C   -3.563190
     3  C   -2.702701
     4  C   -2.072797
     5  C   -2.020202
     6  C   -2.809890
     7  C   -3.398582
     8  C   -1.867819
     9  O   -2.737020
    10  H    1.349941
    11  H    1.350287
    12  H    1.081150
    13  H    1.491182
    14  H    1.489873
    15  H    1.606023
    16  H    1.598432
    17  H    1.616147
    18  H    1.615294
    19  H    1.550159
    20  H    1.567431
    21  H    1.556268
    22  H    1.546325
    23  H    1.534428
    24  H    1.466580
    25  H    1.338004
    26  H    1.398091
    27  H    0.766198
 Sum of Mulliken charges =  -0.00000

 Dipole moment (field-independent basis, Debye):
    X=              0.7719    Y=              0.0369    Z=              0.4789  Tot=              0.9091

 Test job not archived.
 1\1\GINC-SE344\SP\RHF\Aug-CC-pVDZ\C8H18O1\OHZDE\06-Apr-2025\0\\#t hf a
 ug-cc-pvdz iop(5/13=1,5/36=2,99/5=2) pseudo=read geom=check guess=(rea
 d,tcheck) scf=(maxcycle=1)\\title\\0,1\C,0,5.089909,-0.352288,-0.00623
 4\C,0,3.812557,0.485486,0.017342\C,0,2.536468,-0.356683,-0.009704\C,0,
 1.252161,0.472558,0.012261\C,0,-0.022805,-0.371121,-0.013333\C,0,-1.30
 6858,0.459456,0.007688\C,0,-2.580564,-0.387028,-0.02192\C,0,-3.851423,
 0.452738,0.005891\O,0,-5.044544,-0.325727,-0.078454\H,0,5.140854,-0.96
 7918,-0.906694\H,0,5.136911,-1.023546,0.853797\H,0,5.980865,0.276784,0

 Normal termination of Gaussian 16 at Sun Apr  6 08:02:59 2025.
