 Gaussian 16, Revision C.01,

 ----------------------------------------------------------------------
 #t hf aug-cc-pvdz symm=none int=(grid=ultrafine) guess=(read,tcheck) s
 table=(opt,rrhf)
 ----------------------------------------------------------------------
 -----
 title
 -----
 Symbolic Z-matrix:
 Charge =  0 Multiplicity = 1

 SCF Done:  E(RHF) =  -421.561894916     A.U. after   16 cycles

 1\1\GINC-SE344\Stability\RHF\Aug-CC-pVDZ\C9H10O1\OHZDE\06-Apr-2025\0\\
 #t hf aug-cc-pvdz symm=none int=(grid=ultrafine) guess=(read,tcheck) s
 table=(opt,rrhf)\\title\\0,1\C,0,0.024001,1.160298,-0.000002\C,0,-0.07
 3857,-1.238567,0.\C,0,-1.364579,1.212066,-0.000005\C,0,-1.45506,-1.181
 361,-0.000003\C,0,0.690181,-0.065845,0.\C,0,-2.127814,0.046194,-0.0000
 04\C,0,2.180603,-0.178189,0.000001\C,0,-3.631473,0.095804,0.000006\C,0
 ,3.009944,1.089796,0.000003\O,0,2.722996,-1.266717,0.\H,0,0.581498,2.0
 86205,-0.000003\H,0,0.44272,-2.187841,0.\H,0,-1.861326,2.173886,-0.000

 Normal termination of Gaussian 16 at Sun Apr  6 08:01:21 2025.
 Gaussian 16:  ES64L-G16RevC.01  3-Jul-2019

 ----------------------------------------------------------------------
 #t hf aug-cc-pvdz iop(5/13=1,5/36=2,99/5=2) pseudo=read geom=check gue
 ss=(read,tcheck) scf=(maxcycle=1)
 ----------------------------------------------------------------------
 -----
 title
 -----
 Structure from the checkpoint file:  "1-p-tolylethanone.chk"
 Charge =  0 Multiplicity = 1

                         Standard orientation:
 ---------------------------------------------------------------------
 Center     Atomic      Atomic             Coordinates (Angstroms)
 Number     Number       Type             X           Y           Z
 ---------------------------------------------------------------------
      1          6           0        0.024001    1.160298   -0.000002
      2          6           0       -0.073857   -1.238567   -0.000000
      3          6           0       -1.364579    1.212066   -0.000005
      4          6           0       -1.455060   -1.181361   -0.000003
      5          6           0        0.690181   -0.065845   -0.000000
      6          6           0       -2.127814    0.046194   -0.000004
      7          6           0        2.180603   -0.178189    0.000001
      8          6           0       -3.631473    0.095804    0.000006
      9          6           0        3.009944    1.089796    0.000003
     10          8           0        2.722996   -1.266717   -0.000000
     11          1           0        0.581498    2.086205   -0.000003
     12          1           0        0.442720   -2.187841   -0.000000
     13          1           0       -1.861326    2.173886   -0.000007
     14          1           0       -2.027249   -2.100948   -0.000006
     15          1           0       -4.040560   -0.408087    0.877954
     16          1           0       -3.997196    1.121343   -0.000134
     17          1           0       -4.040584   -0.408339   -0.877785
     18          1           0        2.792622    1.698643    0.879269
     19          1           0        2.792624    1.698642   -0.879264
     20          1           0        4.061815    0.819045    0.000004
 ---------------------------------------------------------------------

 SCF Done:  E(RHF) =  -423.550826970     A.U. after    2 cycles

 The electronic state is 1-A.
 Alpha  occ. eigenvalues --  -21.04122 -11.52331 -11.49908 -11.44890 -11.44530
 Alpha  occ. eigenvalues --  -11.43164 -11.41451 -11.39662 -11.39366 -11.36802
 Alpha  occ. eigenvalues --   -1.70214  -1.36253  -1.17597  -1.10735  -1.08922
 Alpha  occ. eigenvalues --   -1.01018  -0.87607  -0.87012  -0.77393  -0.68305
 Alpha  occ. eigenvalues --   -0.64337  -0.61991  -0.59863  -0.59701  -0.58453
 Alpha  occ. eigenvalues --   -0.58432  -0.55226  -0.51186  -0.50708  -0.48663
 Alpha  occ. eigenvalues --   -0.44536  -0.43603  -0.42580  -0.33823  -0.31272
 Alpha  occ. eigenvalues --   -0.28023
 Alpha virt. eigenvalues --    0.03107   0.04478   0.04855   0.05510   0.05892
 Alpha virt. eigenvalues --    0.06439   0.07084   0.07335   0.07499   0.08196
 Alpha virt. eigenvalues --    0.10028   0.10162   0.10748   0.10809   0.12529

 Mulliken charges:
               1
     1  C    1.137982
     2  C   -3.926221
     3  C   -1.627068
     4  C   -1.395407
     5  C    1.799786
     6  C    1.502643
     7  C    3.408644
     8  C   -5.858508
     9  C   -5.544051
    10  O   -3.922676
    11  H    1.917815
    12  H    1.941172
    13  H    1.826173
    14  H    1.818502
    15  H    1.013439
    16  H    1.251837
    17  H    1.013409
    18  H    1.264718
    19  H    1.264721
    20  H    1.113091
 Sum of Mulliken charges =  -0.00000

 Dipole moment (field-independent basis, Debye):
    X=             -1.6447    Y=              1.0509    Z=              0.0000  Tot=              1.9518

 Test job not archived.
 1\1\GINC-SE344\SP\RHF\Aug-CC-pVDZ\C9H10O1\OHZDE\06-Apr-2025\0\\#t hf a
 ug-cc-pvdz iop(5/13=1,5/36=2,99/5=2) pseudo=read geom=check guess=(rea
 d,tcheck) scf=(maxcycle=1)\\title\\0,1\C,0,0.024001,1.160298,-0.000002
 \C,0,-0.073857,-1.238567,0.\C,0,-1.364579,1.212066,-0.000005\C,0,-1.45
 506,-1.181361,-0.000003\C,0,0.690181,-0.065845,0.\C,0,-2.127814,0.0461
 94,-0.000004\C,0,2.180603,-0.178189,0.000001\C,0,-3.631473,0.095804,0.
 000006\C,0,3.009944,1.089796,0.000003\O,0,2.722996,-1.266717,0.\H,0,0.
 581498,2.086205,-0.000003\H,0,0.44272,-2.187841,0.\H,0,-1.861326,2.173

 Normal termination of Gaussian 16 at Sun Apr  6 08:01:32 2025.
