 Gaussian 16, Revision C.01,

 ----------------------------------------------------------------------
 #t hf aug-cc-pvdz symm=none int=(grid=ultrafine) guess=(read,tcheck) s
 table=(opt,rrhf)
 ----------------------------------------------------------------------
 -----
 title
 -----
 Symbolic Z-matrix:
 Charge =  0 Multiplicity = 1

 SCF Done:  E(RHF) =  -195.164307954     A.U. after   12 cycles
 Normal termination of Gaussian 16 at Sun Apr  6 08:00:05 2025.
 Gaussian 16:  ES64L-G16RevC.01  3-Jul-2019

 ----------------------------------------------------------------------
 #t hf aug-cc-pvdz iop(5/13=1,5/36=2,99/5=2) pseudo=read geom=check gue
 ss=(read,tcheck) scf=(maxcycle=1)
 ----------------------------------------------------------------------
 -----
 title
 -----
 Structure from the checkpoint file:  "1-pentene.chk"
 Charge =  0 Multiplicity = 1

                         Standard orientation:
 ---------------------------------------------------------------------
 Center     Atomic      Atomic             Coordinates (Angstroms)
 Number     Number       Type             X           Y           Z
 ---------------------------------------------------------------------
      1          6           0        2.480915   -0.213181   -0.298890
      2          6           0        1.414749    0.338000    0.268186
      3          6           0       -2.425591   -0.196397   -0.076523
      4          6           0        0.075276   -0.316078    0.421811
      5          6           0       -1.056864    0.450771   -0.277621
      6          1           0        3.419178    0.318761   -0.382304
      7          1           0        2.453489   -1.220352   -0.698261
      8          1           0        1.492545    1.352012    0.652650
      9          1           0       -2.441485   -1.215257   -0.468708
     10          1           0       -3.209396    0.366453   -0.584990
     11          1           0       -2.686714   -0.246940    0.982557
     12          1           0        0.119287   -1.338660    0.037811
     13          1           0       -0.166785   -0.392388    1.488258
     14          1           0       -0.832514    0.519273   -1.344984
     15          1           0       -1.078509    1.478406    0.096191
 ---------------------------------------------------------------------

 SCF Done:  E(RHF) =  -196.175026542     A.U. after    2 cycles

 The electronic state is 1-A.
 Alpha  occ. eigenvalues --  -11.42932 -11.40120 -11.38465 -11.36624 -11.34571
 Alpha  occ. eigenvalues --   -1.25374  -1.11670  -0.98146  -0.85023  -0.78319
 Alpha  occ. eigenvalues --   -0.65272  -0.61499  -0.57312  -0.55952  -0.53172
 Alpha  occ. eigenvalues --   -0.49094  -0.46581  -0.45803  -0.43170  -0.33646
 Alpha virt. eigenvalues --    0.04023   0.05115   0.05652   0.06006   0.06078
 Alpha virt. eigenvalues --    0.06201   0.06504   0.07486   0.07885   0.09169
 Alpha virt. eigenvalues --    0.10728   0.12236   0.13115   0.14168   0.15197

 Mulliken charges:
               1
     1  C   -3.226171
     2  C   -0.198789
     3  C   -3.833273
     4  C   -3.473567
     5  C   -2.815361
     6  H    1.370571
     7  H    1.373589
     8  H    1.394612
     9  H    1.294986
    10  H    1.120826
    11  H    1.227732
    12  H    1.440798
    13  H    1.419978
    14  H    1.463703
    15  H    1.440366
 Sum of Mulliken charges =  -0.00000

 Dipole moment (field-independent basis, Debye):
    X=             -0.3727    Y=              0.1081    Z=              0.0698  Tot=              0.3942

 Test job not archived.
 1\1\GINC-SE453\SP\RHF\Aug-CC-pVDZ\C5H10\OHZDE\06-Apr-2025\0\\#t hf aug
 -cc-pvdz iop(5/13=1,5/36=2,99/5=2) pseudo=read geom=check guess=(read,
 tcheck) scf=(maxcycle=1)\\title\\0,1\C,0,2.480915,-0.213181,-0.29889\C
 ,0,1.414749,0.338,0.268186\C,0,-2.425591,-0.196397,-0.076523\C,0,0.075
 276,-0.316078,0.421811\C,0,-1.056864,0.450771,-0.277621\H,0,3.419178,0
 .318761,-0.382304\H,0,2.453489,-1.220352,-0.698261\H,0,1.492545,1.3520
 12,0.65265\H,0,-2.441485,-1.215257,-0.468708\H,0,-3.209396,0.366453,-0
 .58499\H,0,-2.686714,-0.24694,0.982557\H,0,0.119287,-1.33866,0.037811\

 Normal termination of Gaussian 16 at Sun Apr  6 08:00:09 2025.
