 Gaussian 16, Revision C.01,

 ----------------------------------------------------------------------
 #t hf aug-cc-pvdz symm=none int=(grid=ultrafine) guess=(read,tcheck) s
 table=(opt,rrhf)
 ----------------------------------------------------------------------
 -----
 title
 -----
 Symbolic Z-matrix:
 Charge =  0 Multiplicity = 1

 SCF Done:  E(RHF) =  -593.886843658     A.U. after   12 cycles

 1\1\GINC-SE422\Stability\RHF\Aug-CC-pVDZ\C5H12S1\OHZDE\06-Apr-2025\0\\
 #t hf aug-cc-pvdz symm=none int=(grid=ultrafine) guess=(read,tcheck) s
 table=(opt,rrhf)\\title\\0,1\S,0,-2.422026,1.676358,0.\H,0,-3.662177,1
 .155548,0.\C,0,-1.499663,0.079993,0.\H,0,-1.784672,-0.487365,0.884633\
 H,0,-1.784672,-0.487365,-0.884633\C,0,0.,0.354619,0.\H,0,0.257208,0.95
 6252,-0.876062\H,0,0.257208,0.956252,0.876062\C,0,0.830343,-0.930799,0
 .\H,0,0.566953,-1.533496,0.875311\H,0,0.566953,-1.533496,-0.875311\C,0
 ,2.338563,-0.676984,0.\H,0,2.601518,-0.074233,0.874144\H,0,2.601518,-0

 Normal termination of Gaussian 16 at Sun Apr  6 08:00:19 2025.
 Gaussian 16:  ES64L-G16RevC.01  3-Jul-2019

 ----------------------------------------------------------------------
 #t hf aug-cc-pvdz iop(5/13=1,5/36=2,99/5=2) pseudo=read geom=check gue
 ss=(read,tcheck) scf=(maxcycle=1)
 ----------------------------------------------------------------------
 -----
 title
 -----
 Structure from the checkpoint file:  "1-pentanethiol.chk"
 Charge =  0 Multiplicity = 1

                         Standard orientation:
 ---------------------------------------------------------------------
 Center     Atomic      Atomic             Coordinates (Angstroms)
 Number     Number       Type             X           Y           Z
 ---------------------------------------------------------------------
      1         16           0       -2.422027    1.676357    0.000000
      2          1           0       -3.662178    1.155546    0.000000
      3          6           0       -1.499663    0.079992    0.000000
      4          1           0       -1.784671   -0.487366    0.884633
      5          1           0       -1.784671   -0.487366   -0.884633
      6          6           0        0.000000    0.354619    0.000000
      7          1           0        0.257208    0.956252   -0.876062
      8          1           0        0.257208    0.956252    0.876062
      9          6           0        0.830344   -0.930798    0.000000
     10          1           0        0.566954   -1.533495    0.875311
     11          1           0        0.566954   -1.533495   -0.875311
     12          6           0        2.338564   -0.676982    0.000000
     13          1           0        2.601518   -0.074231    0.874144
     14          1           0        2.601518   -0.074231   -0.874144
     15          6           0        3.164446   -1.962115    0.000000
     16          1           0        2.948287   -2.570043    0.880892
     17          1           0        2.948287   -2.570043   -0.880892
     18          1           0        4.233869   -1.747781    0.000000
 ---------------------------------------------------------------------

 SCF Done:  E(RHF) =  -595.149708210     A.U. after    2 cycles

 The electronic state is 1-A'.
 Alpha  occ. eigenvalues --  -75.67903 -13.13998 -13.07283 -13.00438 -11.42975
 Alpha  occ. eigenvalues --  -11.41873 -11.39445 -11.37136 -11.34674  -8.01748
 Alpha  occ. eigenvalues --   -1.28266  -1.17418  -1.06588  -0.95682  -0.85842
 Alpha  occ. eigenvalues --   -0.82863  -0.66937  -0.61396  -0.59769  -0.57222
 Alpha  occ. eigenvalues --   -0.54408  -0.51765  -0.50085  -0.48339  -0.45745
 Alpha  occ. eigenvalues --   -0.45391  -0.41332  -0.36706  -0.23335
 Alpha virt. eigenvalues --    0.03766   0.04215   0.05113   0.05378   0.05717
 Alpha virt. eigenvalues --    0.05872   0.06135   0.06352   0.07720   0.08934
 Alpha virt. eigenvalues --    0.09380   0.09820   0.10065   0.11371   0.13029

 Mulliken charges:
               1
     1  S   -0.445073
     2  H    0.835561
     3  C   -4.088532
     4  H    1.392475
     5  H    1.392475
     6  C   -2.326861
     7  H    1.541028
     8  H    1.541028
     9  C   -2.447987
    10  H    1.567103
    11  H    1.567103
    12  C   -2.824133
    13  H    1.434129
    14  H    1.434129
    15  C   -4.274510
    16  H    1.310478
    17  H    1.310478
    18  H    1.081109
 Sum of Mulliken charges =   0.00000

 Dipole moment (field-independent basis, Debye):
    X=              1.2982    Y=             -0.0033    Z=              0.0000  Tot=              1.2982

 Test job not archived.
 1\1\GINC-SE422\SP\RHF\Aug-CC-pVDZ\C5H12S1\OHZDE\06-Apr-2025\0\\#t hf a
 ug-cc-pvdz iop(5/13=1,5/36=2,99/5=2) pseudo=read geom=check guess=(rea
 d,tcheck) scf=(maxcycle=1)\\title\\0,1\S,0,-2.422026,1.676358,0.\H,0,-
 3.662177,1.155548,0.\C,0,-1.499663,0.079993,0.\H,0,-1.784672,-0.487365
 ,0.884633\H,0,-1.784672,-0.487365,-0.884633\C,0,0.,0.354619,0.\H,0,0.2
 57208,0.956252,-0.876062\H,0,0.257208,0.956252,0.876062\C,0,0.830343,-
 0.930799,0.\H,0,0.566953,-1.533496,0.875311\H,0,0.566953,-1.533496,-0.
 875311\C,0,2.338563,-0.676984,0.\H,0,2.601518,-0.074233,0.874144\H,0,2

 Normal termination of Gaussian 16 at Sun Apr  6 08:00:37 2025.
