 Gaussian 16, Revision C.01,

 ----------------------------------------------------------------------
 #t hf aug-cc-pvdz symm=none int=(grid=ultrafine) guess=(read,tcheck) s
 table=(opt,rrhf)
 ----------------------------------------------------------------------
 -----
 title
 -----
 Symbolic Z-matrix:
 Charge =  0 Multiplicity = 1

 SCF Done:  E(RHF) =  -271.221896880     A.U. after   12 cycles

 1\1\GINC-SE422\Stability\RHF\Aug-CC-pVDZ\C5H12O1\OHZDE\06-Apr-2025\0\\
 #t hf aug-cc-pvdz symm=none int=(grid=ultrafine) guess=(read,tcheck) s
 table=(opt,rrhf)\\title\\0,1\C,0,-3.174894,0.221356,0.015832\C,0,-1.85
 4161,-0.545307,-0.021865\C,0,-0.626182,0.365737,0.013037\C,0,0.699506,
 -0.395753,-0.027955\C,0,1.913737,0.52347,0.013334\O,0,3.154194,-0.1757
 19,-0.081422\H,0,-3.256954,0.821962,0.924087\H,0,-3.261939,0.8992,-0.8
 3578\H,0,-4.029566,-0.455825,-0.01154\H,0,-1.816621,-1.163702,-0.92341
 2\H,0,-1.810925,-1.238981,0.823068\H,0,-0.670781,1.059963,-0.832589\H,

 Normal termination of Gaussian 16 at Sun Apr  6 08:00:20 2025.
 Gaussian 16:  ES64L-G16RevC.01  3-Jul-2019

 ----------------------------------------------------------------------
 #t hf aug-cc-pvdz iop(5/13=1,5/36=2,99/5=2) pseudo=read geom=check gue
 ss=(read,tcheck) scf=(maxcycle=1)
 ----------------------------------------------------------------------
 -----
 title
 -----
 Structure from the checkpoint file:  "1-pentanol.chk"
 Charge =  0 Multiplicity = 1

                         Standard orientation:
 ---------------------------------------------------------------------
 Center     Atomic      Atomic             Coordinates (Angstroms)
 Number     Number       Type             X           Y           Z
 ---------------------------------------------------------------------
      1          6           0       -3.174894    0.221356    0.015832
      2          6           0       -1.854161   -0.545307   -0.021865
      3          6           0       -0.626182    0.365737    0.013037
      4          6           0        0.699506   -0.395753   -0.027955
      5          6           0        1.913737    0.523470    0.013334
      6          8           0        3.154194   -0.175719   -0.081422
      7          1           0       -3.256954    0.821962    0.924087
      8          1           0       -3.261939    0.899200   -0.835780
      9          1           0       -4.029566   -0.455825   -0.011540
     10          1           0       -1.816621   -1.163702   -0.923412
     11          1           0       -1.810925   -1.238981    0.823068
     12          1           0       -0.670781    1.059963   -0.832589
     13          1           0       -0.664660    0.985038    0.915426
     14          1           0        0.754149   -1.005560   -0.933536
     15          1           0        0.747184   -1.089540    0.819209
     16          1           0        1.890619    1.140743    0.919619
     17          1           0        1.902039    1.201994   -0.840618
     18          1           0        3.235868   -0.766559    0.673146
 ---------------------------------------------------------------------

 SCF Done:  E(RHF) =  -272.560767621     A.U. after    2 cycles

 The electronic state is 1-A.
 Alpha  occ. eigenvalues --  -21.06195 -11.43245 -11.41802 -11.39345 -11.36805
 Alpha  occ. eigenvalues --  -11.34360  -1.69911  -1.25014  -1.10645  -0.96955
 Alpha  occ. eigenvalues --   -0.86497  -0.82746  -0.67540  -0.62813  -0.59431
 Alpha  occ. eigenvalues --   -0.57831  -0.56155  -0.53533  -0.49244  -0.48470
 Alpha  occ. eigenvalues --   -0.45935  -0.45544  -0.45113  -0.38121  -0.30569
 Alpha virt. eigenvalues --    0.04109   0.04843   0.05057   0.05757   0.05969
 Alpha virt. eigenvalues --    0.06144   0.06336   0.06889   0.08291   0.08756
 Alpha virt. eigenvalues --    0.09098   0.09563   0.09990   0.13317   0.14164

 Mulliken charges:
               1
     1  C   -4.176849
     2  C   -2.725791
     3  C   -2.332002
     4  C   -2.722535
     5  C   -1.342822
     6  O   -2.662831
     7  H    1.310497
     8  H    1.310480
     9  H    1.081860
    10  H    1.418368
    11  H    1.432854
    12  H    1.534945
    13  H    1.528567
    14  H    1.436420
    15  H    1.485135
    16  H    1.305667
    17  H    1.377357
    18  H    0.740680
 Sum of Mulliken charges =  -0.00000

 Dipole moment (field-independent basis, Debye):
    X=             -0.7190    Y=             -0.1472    Z=              0.4809  Tot=              0.8774

 Test job not archived.
 1\1\GINC-SE422\SP\RHF\Aug-CC-pVDZ\C5H12O1\OHZDE\06-Apr-2025\0\\#t hf a
 ug-cc-pvdz iop(5/13=1,5/36=2,99/5=2) pseudo=read geom=check guess=(rea
 d,tcheck) scf=(maxcycle=1)\\title\\0,1\C,0,-3.174894,0.221356,0.015832
 \C,0,-1.854161,-0.545307,-0.021865\C,0,-0.626182,0.365737,0.013037\C,0
 ,0.699506,-0.395753,-0.027955\C,0,1.913737,0.52347,0.013334\O,0,3.1541
 94,-0.175719,-0.081422\H,0,-3.256954,0.821962,0.924087\H,0,-3.261939,0
 .8992,-0.83578\H,0,-4.029566,-0.455825,-0.01154\H,0,-1.816621,-1.16370
 2,-0.923412\H,0,-1.810925,-1.238981,0.823068\H,0,-0.670781,1.059963,-0

 Normal termination of Gaussian 16 at Sun Apr  6 08:00:38 2025.
