 Gaussian 16, Revision C.01,

 ----------------------------------------------------------------------
 #t hf aug-cc-pvdz symm=none int=(grid=ultrafine) guess=(read,tcheck) s
 table=(opt,rrhf)
 ----------------------------------------------------------------------
 -----
 title
 -----
 Symbolic Z-matrix:
 Charge =  0 Multiplicity = 1

 SCF Done:  E(RHF) =  -362.672684987     A.U. after   16 cycles
 Normal termination of Gaussian 16 at Sun Apr  6 08:01:06 2025.
 Gaussian 16:  ES64L-G16RevC.01  3-Jul-2019

 ----------------------------------------------------------------------
 #t hf aug-cc-pvdz iop(5/13=1,5/36=2,99/5=2) pseudo=read geom=check gue
 ss=(read,tcheck) scf=(maxcycle=1)
 ----------------------------------------------------------------------
 -----
 title
 -----
 Structure from the checkpoint file:  "1-phenylethanimine.chk"
 Charge =  0 Multiplicity = 1

                         Standard orientation:
 ---------------------------------------------------------------------
 Center     Atomic      Atomic             Coordinates (Angstroms)
 Number     Number       Type             X           Y           Z
 ---------------------------------------------------------------------
      1          6           0       -0.695065   -2.506553    0.000000
      2          6           0        0.640810   -2.129667    0.000000
      3          6           0       -1.686417   -1.527721    0.000000
      4          6           0        0.985096   -0.782121    0.000000
      5          6           0       -1.343694   -0.185795    0.000000
      6          6           0        0.000000    0.209408    0.000000
      7          6           0        0.343826    1.660851    0.000000
      8          6           0        1.805185    2.046442    0.000000
      9          7           0       -0.606615    2.511330    0.000000
     10          1           0       -0.964675   -3.554227    0.000000
     11          1           0        1.418044   -2.881961    0.000000
     12          1           0       -2.729354   -1.815347    0.000000
     13          1           0        2.031257   -0.512617    0.000000
     14          1           0       -2.104187    0.580888    0.000000
     15          1           0        2.317686    1.650451    0.878477
     16          1           0        1.909909    3.129766    0.000000
     17          1           0        2.317686    1.650451   -0.878477
     18          1           0       -0.248508    3.464218    0.000000
 ---------------------------------------------------------------------

 SCF Done:  E(RHF) =  -364.420459593     A.U. after    2 cycles

 The electronic state is 1-A'.
 Alpha  occ. eigenvalues --  -15.72685 -11.52016 -11.47590 -11.43298 -11.42655
 Alpha  occ. eigenvalues --  -11.40960 -11.40579 -11.39891 -11.36157  -1.39983
 Alpha  occ. eigenvalues --   -1.29953  -1.11331  -1.09270  -1.05928  -0.89725
 Alpha  occ. eigenvalues --   -0.86259  -0.78176  -0.70751  -0.63904  -0.62534
 Alpha  occ. eigenvalues --   -0.60855  -0.59447  -0.57997  -0.54161  -0.52503
 Alpha  occ. eigenvalues --   -0.50985  -0.44750  -0.43933  -0.42261  -0.36972
 Alpha  occ. eigenvalues --   -0.33080  -0.31373
 Alpha virt. eigenvalues --    0.03214   0.04585   0.05129   0.05670   0.06380
 Alpha virt. eigenvalues --    0.06533   0.07006   0.07670   0.08710   0.09490
 Alpha virt. eigenvalues --    0.09630   0.11990   0.12009   0.13253   0.13700

 Mulliken charges:
               1
     1  C   -3.510820
     2  C   -2.305827
     3  C   -2.051537
     4  C   -0.056314
     5  C   -1.991015
     6  C    5.100118
     7  C    1.045606
     8  C   -4.730050
     9  N   -3.790011
    10  H    1.540241
    11  H    1.487051
    12  H    1.484324
    13  H    1.878757
    14  H    1.689952
    15  H    1.171778
    16  H    1.122314
    17  H    1.171778
    18  H    0.743655
 Sum of Mulliken charges =   0.00000

 Dipole moment (field-independent basis, Debye):
    X=              1.6258    Y=             -0.4065    Z=              0.0000  Tot=              1.6759

 Test job not archived.
 1\1\GINC-SE454\SP\RHF\Aug-CC-pVDZ\C8H9N1\OHZDE\06-Apr-2025\0\\#t hf au
 g-cc-pvdz iop(5/13=1,5/36=2,99/5=2) pseudo=read geom=check guess=(read
 ,tcheck) scf=(maxcycle=1)\\title\\0,1\C,0,-0.695065,-2.506553,0.\C,0,0
 .64081,-2.129667,0.\C,0,-1.686417,-1.527721,0.\C,0,0.985096,-0.782121,
 0.\C,0,-1.343694,-0.185795,0.\C,0,0.,0.209408,0.\C,0,0.343826,1.660851
 ,0.\C,0,1.805185,2.046442,0.\N,0,-0.606615,2.51133,0.\H,0,-0.964675,-3
 .554227,0.\H,0,1.418044,-2.881961,0.\H,0,-2.729354,-1.815347,0.\H,0,2.
 031257,-0.512617,0.\H,0,-2.104187,0.580888,0.\H,0,2.317686,1.650451,0.

 Normal termination of Gaussian 16 at Sun Apr  6 08:01:17 2025.
