 Gaussian 16, Revision C.01,

 ----------------------------------------------------------------------
 #t hf aug-cc-pvdz symm=none int=(grid=ultrafine) guess=(read,tcheck) s
 table=(opt,rrhf)
 ----------------------------------------------------------------------
 -----
 title
 -----
 Symbolic Z-matrix:
 Charge =  0 Multiplicity = 1

 SCF Done:  E(RHF) =  -605.131971682     A.U. after   15 cycles
 Normal termination of Gaussian 16 at Sun Apr  6 07:59:57 2025.
 Gaussian 16:  ES64L-G16RevC.01  3-Jul-2019

 ----------------------------------------------------------------------
 #t hf aug-cc-pvdz iop(5/13=1,5/36=2,99/5=2) pseudo=read geom=check gue
 ss=(read,tcheck) scf=(maxcycle=1)
 ----------------------------------------------------------------------
 -----
 title
 -----
 Structure from the checkpoint file:  "1-propyn-1-yl_thiocyanate.chk"
 Charge =  0 Multiplicity = 1

                         Standard orientation:
 ---------------------------------------------------------------------
 Center     Atomic      Atomic             Coordinates (Angstroms)
 Number     Number       Type             X           Y           Z
 ---------------------------------------------------------------------
      1         16           0       -0.919300   -0.968615   -0.000000
      2          7           0       -2.596878    1.348222   -0.000000
      3          6           0        3.166496    0.507266    0.000001
      4          6           0        1.788843    0.050261    0.000001
      5          6           0        0.640017   -0.308782   -0.000000
      6          6           0       -1.880155    0.442903   -0.000000
      7          1           0        3.698733    0.156257    0.885244
      8          1           0        3.198185    1.598130   -0.000150
      9          1           0        3.698808    0.156014   -0.885101
 ---------------------------------------------------------------------

 SCF Done:  E(RHF) =  -606.303097009     A.U. after    2 cycles

 The electronic state is 1-A.
 Alpha  occ. eigenvalues --  -75.78455 -15.77998 -13.27552 -13.23156 -13.10481
 Alpha  occ. eigenvalues --  -11.46651 -11.45056 -11.42815 -11.42362  -8.12602
 Alpha  occ. eigenvalues --   -1.34973  -1.25135  -1.16875  -1.00787  -0.74847
 Alpha  occ. eigenvalues --   -0.64225  -0.61103  -0.60889  -0.56450  -0.52424
 Alpha  occ. eigenvalues --   -0.51190  -0.44446  -0.43481  -0.39271  -0.26179
 Alpha virt. eigenvalues --    0.01663   0.04893   0.05880   0.06109   0.07399
 Alpha virt. eigenvalues --    0.08308   0.10504   0.11067   0.11377   0.12245
 Alpha virt. eigenvalues --    0.12915   0.13243   0.13984   0.15183   0.15723

 Mulliken charges:
               1
     1  S    1.556272
     2  N   -2.259136
     3  C   -4.533404
     4  C    0.621212
     5  C    0.516985
     6  C    1.147616
     7  H    0.984743
     8  H    0.980989
     9  H    0.984725
 Sum of Mulliken charges =  -0.00000

 Dipole moment (field-independent basis, Debye):
    X=              3.5212    Y=             -3.0623    Z=             -0.0000  Tot=              4.6665

 Test job not archived.
 1\1\GINC-SE253\SP\RHF\Aug-CC-pVDZ\C4H3N1S1\OHZDE\06-Apr-2025\0\\#t hf
 aug-cc-pvdz iop(5/13=1,5/36=2,99/5=2) pseudo=read geom=check guess=(re
 ad,tcheck) scf=(maxcycle=1)\\title\\0,1\S,0,-0.9193,-0.968615,0.\N,0,-
 2.596878,1.348222,0.\C,0,3.166496,0.507266,0.000001\C,0,1.788843,0.050
 261,0.000001\C,0,0.640017,-0.308782,0.\C,0,-1.880155,0.442903,0.\H,0,3
 .698733,0.156257,0.885244\H,0,3.198185,1.59813,-0.00015\H,0,3.698808,0
 .156014,-0.885101\\Version=ES64L-G16RevC.01\State=1-A\HF=-606.303097\R
 MSD=9.263e-01\Dipole=1.3853563,-1.2047944,-0.0000031\Quadrupole=1.7482

 Normal termination of Gaussian 16 at Sun Apr  6 08:00:01 2025.
