 Gaussian 16, Revision C.01,

 ----------------------------------------------------------------------
 #t hf aug-cc-pvdz symm=none int=(grid=ultrafine) guess=(read,tcheck) s
 table=(opt,rrhf)
 ----------------------------------------------------------------------
 -----
 title
 -----
 Symbolic Z-matrix:
 Charge =  0 Multiplicity = 1

 SCF Done:  E(RHF) =  -632.921505658     A.U. after   12 cycles

 1\1\GINC-SE271\Stability\RHF\Aug-CC-pVDZ\C6H14S1\OHZDE\06-Apr-2025\0\\
 #t hf aug-cc-pvdz symm=none int=(grid=ultrafine) guess=(read,tcheck) s
 table=(opt,rrhf)\\title\\0,1\C,0,0.,3.930707,-0.592405\C,0,0.,-3.93070
 7,-0.592405\C,0,0.,2.732696,0.357453\C,0,0.,-2.732696,0.357453\C,0,0.,
 1.402662,-0.390073\C,0,0.,-1.402662,-0.390073\S,0,0.,0.,0.786742\H,0,-
 0.881478,3.925924,-1.236374\H,0,0.,4.869546,-0.037529\H,0,0.881478,3.9
 25924,-1.236374\H,0,0.881478,-3.925924,-1.236374\H,0,0.,-4.869546,-0.0
 37529\H,0,-0.881478,-3.925924,-1.236374\H,0,-0.875086,2.77886,1.0096\H

 Normal termination of Gaussian 16 at Sun Apr  6 08:00:38 2025.
 Gaussian 16:  ES64L-G16RevC.01  3-Jul-2019

 ----------------------------------------------------------------------
 #t hf aug-cc-pvdz iop(5/13=1,5/36=2,99/5=2) pseudo=read geom=check gue
 ss=(read,tcheck) scf=(maxcycle=1)
 ----------------------------------------------------------------------
 -----
 title
 -----
 Structure from the checkpoint file:  "1-propylsulfanylpropane.chk"
 Charge =  0 Multiplicity = 1

                         Standard orientation:
 ---------------------------------------------------------------------
 Center     Atomic      Atomic             Coordinates (Angstroms)
 Number     Number       Type             X           Y           Z
 ---------------------------------------------------------------------
      1          6           0        0.000000    3.930707   -0.592405
      2          6           0       -0.000000   -3.930707   -0.592405
      3          6           0        0.000000    2.732696    0.357453
      4          6           0       -0.000000   -2.732696    0.357453
      5          6           0        0.000000    1.402662   -0.390073
      6          6           0       -0.000000   -1.402662   -0.390073
      7         16           0       -0.000000   -0.000000    0.786742
      8          1           0       -0.881478    3.925924   -1.236374
      9          1           0        0.000000    4.869546   -0.037529
     10          1           0        0.881478    3.925924   -1.236374
     11          1           0        0.881478   -3.925924   -1.236374
     12          1           0       -0.000000   -4.869546   -0.037529
     13          1           0       -0.881478   -3.925924   -1.236374
     14          1           0       -0.875086    2.778860    1.009600
     15          1           0        0.875086    2.778860    1.009600
     16          1           0        0.875086   -2.778860    1.009600
     17          1           0       -0.875086   -2.778860    1.009600
     18          1           0       -0.883620    1.324451   -1.026352
     19          1           0        0.883620    1.324451   -1.026352
     20          1           0        0.883620   -1.324451   -1.026352
     21          1           0       -0.883620   -1.324451   -1.026352
 ---------------------------------------------------------------------

 SCF Done:  E(RHF) =  -634.393676518     A.U. after    2 cycles

 The electronic state is 1-A1.
 Alpha  occ. eigenvalues --  -75.66121 -13.12264 -13.06311 -12.99647 -11.42575
 Alpha  occ. eigenvalues --  -11.41244 -11.39089 -11.38993 -11.35842 -11.35350
 Alpha  occ. eigenvalues --   -8.00180  -1.28038  -1.20651  -1.09454  -0.99742
 Alpha  occ. eigenvalues --   -0.91186  -0.84407  -0.82410  -0.65562  -0.63952
 Alpha  occ. eigenvalues --   -0.58648  -0.58338  -0.55945  -0.55728  -0.54265
 Alpha  occ. eigenvalues --   -0.50513  -0.48435  -0.47351  -0.46476  -0.46146
 Alpha  occ. eigenvalues --   -0.37408  -0.35103  -0.21455
 Alpha virt. eigenvalues --    0.03744   0.03878   0.05427   0.05476   0.06131
 Alpha virt. eigenvalues --    0.06154   0.06307   0.06426   0.06552   0.07365
 Alpha virt. eigenvalues --    0.07998   0.08044   0.10518   0.10815   0.11725

 Mulliken charges:
               1
     1  C   -4.451154
     2  C   -4.451154
     3  C   -3.104473
     4  C   -3.104473
     5  C   -3.218244
     6  C   -3.218244
     7  S    1.689227
     8  H    1.297562
     9  H    1.143144
    10  H    1.297562
    11  H    1.297562
    12  H    1.143144
    13  H    1.297562
    14  H    1.487410
    15  H    1.487410
    16  H    1.487410
    17  H    1.487410
    18  H    1.608086
    19  H    1.608086
    20  H    1.608086
    21  H    1.608086
 Sum of Mulliken charges =   0.00000

 Dipole moment (field-independent basis, Debye):
    X=              0.0000    Y=             -0.0000    Z=              0.1637  Tot=              0.1637

 Test job not archived.
 1\1\GINC-SE271\SP\RHF\Aug-CC-pVDZ\C6H14S1\OHZDE\06-Apr-2025\0\\#t hf a
 ug-cc-pvdz iop(5/13=1,5/36=2,99/5=2) pseudo=read geom=check guess=(rea
 d,tcheck) scf=(maxcycle=1)\\title\\0,1\C,0,0.,3.930707,-0.592405\C,0,0
 .,-3.930707,-0.592405\C,0,0.,2.732696,0.357453\C,0,0.,-2.732696,0.3574
 53\C,0,0.,1.402662,-0.390073\C,0,0.,-1.402662,-0.390073\S,0,0.,0.,0.78
 6742\H,0,-0.881478,3.925924,-1.236374\H,0,0.,4.869546,-0.037529\H,0,0.
 881478,3.925924,-1.236374\H,0,0.881478,-3.925924,-1.236374\H,0,0.,-4.8
 69546,-0.037529\H,0,-0.881478,-3.925924,-1.236374\H,0,-0.875086,2.7788

 Normal termination of Gaussian 16 at Sun Apr  6 08:01:16 2025.
