 Gaussian 16, Revision C.01,

 ----------------------------------------------------------------------
 #t hf aug-cc-pvdz symm=none int=(grid=ultrafine) guess=(read,tcheck) s
 table=(opt,rrhf)
 ----------------------------------------------------------------------
 -----
 title
 -----
 Symbolic Z-matrix:
 Charge =  0 Multiplicity = 1

 SCF Done:  E(RHF) =  -782.587532792     A.U. after   13 cycles
 Normal termination of Gaussian 16 at Sun Apr  6 08:02:01 2025.
 Gaussian 16:  ES64L-G16RevC.01  3-Jul-2019

 ----------------------------------------------------------------------
 #t hf aug-cc-pvdz iop(5/13=1,5/36=2,99/5=2) pseudo=read geom=check gue
 ss=(read,tcheck) scf=(maxcycle=1)
 ----------------------------------------------------------------------
 -----
 title
 -----
 Structure from the checkpoint file:  "1-propylsulfonylpropane.chk"
 Charge =  0 Multiplicity = 1

                         Standard orientation:
 ---------------------------------------------------------------------
 Center     Atomic      Atomic             Coordinates (Angstroms)
 Number     Number       Type             X           Y           Z
 ---------------------------------------------------------------------
      1          6           0       -0.801844    2.711310   -0.338818
      2          6           0       -1.556490    1.634435    0.440931
      3          6           0       -1.752233    0.321404   -0.321811
      4         16           0       -0.564304   -1.020795    0.008601
      5          8           0       -0.486101   -1.205289    1.457548
      6          6           0        1.079145   -0.500005   -0.592572
      7          6           0        1.950093    0.217261    0.432281
      8          6           0        3.350553    0.492327   -0.118099
      9          8           0       -0.983323   -2.133534   -0.842642
     10          1           0        0.202285    2.392866   -0.619062
     11          1           0       -0.702543    3.619858    0.255426
     12          1           0       -1.332410    2.972547   -1.256124
     13          1           0       -2.546727    2.017284    0.694565
     14          1           0       -1.068499    1.426270    1.394331
     15          1           0       -1.766872    0.450649   -1.403970
     16          1           0       -2.678996   -0.177479   -0.036482
     17          1           0        0.908147    0.085211   -1.496916
     18          1           0        1.520929   -1.450450   -0.895032
     19          1           0        2.010961   -0.398610    1.328781
     20          1           0        1.485259    1.155553    0.736171
     21          1           0        3.854470   -0.434566   -0.397124
     22          1           0        3.316961    1.131141   -1.002632
     23          1           0        3.965955    0.992641    0.629730
 ---------------------------------------------------------------------

 SCF Done:  E(RHF) =  -784.713049613     A.U. after    2 cycles

 The electronic state is 1-A.
 Alpha  occ. eigenvalues --  -75.86752 -21.02920 -21.02771 -13.48307 -13.39279
 Alpha  occ. eigenvalues --  -13.35056 -11.46426 -11.44816 -11.42057 -11.41527
 Alpha  occ. eigenvalues --  -11.38375 -11.37512  -8.21688  -1.80749  -1.63067
 Alpha  occ. eigenvalues --   -1.26519  -1.23030  -1.09638  -1.03771  -0.92256
 Alpha  occ. eigenvalues --   -0.88098  -0.82999  -0.68604  -0.66821  -0.64617
 Alpha  occ. eigenvalues --   -0.60970  -0.60016  -0.58567  -0.57926  -0.55038
 Alpha  occ. eigenvalues --   -0.51454  -0.51237  -0.49155  -0.49075  -0.48011
 Alpha  occ. eigenvalues --   -0.47125  -0.41538  -0.37312  -0.36353  -0.33444
 Alpha  occ. eigenvalues --   -0.33209
 Alpha virt. eigenvalues --    0.02993   0.04026   0.04674   0.04902   0.05456
 Alpha virt. eigenvalues --    0.05655   0.06178   0.06276   0.06920   0.07580
 Alpha virt. eigenvalues --    0.07984   0.08411   0.08856   0.09333   0.11915

 Mulliken charges:
               1
     1  C   -3.900808
     2  C   -3.147675
     3  C   -4.191626
     4  S    6.856031
     5  O   -2.665240
     6  C   -4.083836
     7  C   -2.989318
     8  C   -4.052491
     9  O   -2.712872
    10  H    1.768252
    11  H    1.182997
    12  H    1.208579
    13  H    1.190034
    14  H    1.848076
    15  H    1.585617
    16  H    1.547408
    17  H    1.834458
    18  H    1.411529
    19  H    1.533614
    20  H    2.073009
    21  H    1.278392
    22  H    1.300974
    23  H    1.124895
 Sum of Mulliken charges =  -0.00000

 Dipole moment (field-independent basis, Debye):
    X=              0.7369    Y=              2.6313    Z=             -0.4483  Tot=              2.7690

 Test job not archived.
 1\1\GINC-SE253\SP\RHF\Aug-CC-pVDZ\C6H14O2S1\OHZDE\06-Apr-2025\0\\#t hf
  aug-cc-pvdz iop(5/13=1,5/36=2,99/5=2) pseudo=read geom=check guess=(r
 ead,tcheck) scf=(maxcycle=1)\\title\\0,1\C,0,-0.801844,2.71131,-0.3388
 18\C,0,-1.55649,1.634435,0.440931\C,0,-1.752233,0.321404,-0.321811\S,0
 ,-0.564304,-1.020795,0.008601\O,0,-0.486101,-1.205289,1.457548\C,0,1.0
 79145,-0.500005,-0.592572\C,0,1.950093,0.217261,0.432281\C,0,3.350553,
 0.492327,-0.118099\O,0,-0.983323,-2.133534,-0.842642\H,0,0.202285,2.39
 2866,-0.619062\H,0,-0.702543,3.619858,0.255426\H,0,-1.33241,2.972547,-

 Normal termination of Gaussian 16 at Sun Apr  6 08:02:15 2025.
