 Gaussian 16, Revision C.01,

 ----------------------------------------------------------------------
 #t hf aug-cc-pvdz symm=none int=(grid=ultrafine) guess=(read,tcheck) s
 table=(opt,rrhf)
 ----------------------------------------------------------------------
 -----
 title
 -----
 Symbolic Z-matrix:
 Charge =  0 Multiplicity = 1

 SCF Done:  E(RHF) =  -193.144335410     A.U. after   12 cycles
 Normal termination of Gaussian 16 at Sun Apr  6 07:59:56 2025.
 Gaussian 16:  ES64L-G16RevC.01  3-Jul-2019

 ----------------------------------------------------------------------
 #t hf aug-cc-pvdz iop(5/13=1,5/36=2,99/5=2) pseudo=read geom=check gue
 ss=(read,tcheck) scf=(maxcycle=1)
 ----------------------------------------------------------------------
 -----
 title
 -----
 Structure from the checkpoint file:  "1-propanol.chk"
 Charge =  0 Multiplicity = 1

                         Standard orientation:
 ---------------------------------------------------------------------
 Center     Atomic      Atomic             Coordinates (Angstroms)
 Number     Number       Type             X           Y           Z
 ---------------------------------------------------------------------
      1          6           0        1.897976   -0.126622    0.018618
      2          6           0        0.516931    0.524551   -0.044771
      3          6           0       -0.613059   -0.494853    0.024012
      4          8           0       -1.909274    0.090322   -0.086974
      5          1           0        2.048829   -0.814819   -0.815272
      6          1           0        2.688867    0.622294   -0.024744
      7          1           0        2.029572   -0.693014    0.942713
      8          1           0        0.411143    1.099907   -0.967085
      9          1           0        0.407044    1.234976    0.781380
     10          1           0       -0.541025   -1.193082   -0.811207
     11          1           0       -0.535151   -1.082893    0.946811
     12          1           0       -2.046169    0.685602    0.656039
 ---------------------------------------------------------------------

 SCF Done:  E(RHF) =  -194.073736303     A.U. after    2 cycles

 The electronic state is 1-A.
 Alpha  occ. eigenvalues --  -21.06246 -11.42806 -11.39180 -11.35295  -1.69972
 Alpha  occ. eigenvalues --   -1.18560  -0.96925  -0.84680  -0.66683  -0.60444
 Alpha  occ. eigenvalues --   -0.57236  -0.55283  -0.51131  -0.47735  -0.47065
 Alpha  occ. eigenvalues --   -0.39233  -0.30910
 Alpha virt. eigenvalues --    0.03919   0.05242   0.05661   0.05995   0.06295
 Alpha virt. eigenvalues --    0.06609   0.07180   0.08128   0.10687   0.13693
 Alpha virt. eigenvalues --    0.14952   0.15503   0.15682   0.16025   0.17229

 Mulliken charges:
               1
     1  C   -3.461660
     2  C   -3.320486
     3  C   -0.587012
     4  O   -2.610974
     5  H    1.254232
     6  H    1.168827
     7  H    1.250415
     8  H    1.390541
     9  H    1.405248
    10  H    1.415888
    11  H    1.359242
    12  H    0.735738
 Sum of Mulliken charges =   0.00000

 Dipole moment (field-independent basis, Debye):
    X=              0.6341    Y=              0.1911    Z=              0.4958  Tot=              0.8273

 Test job not archived.
 1\1\GINC-SE270\SP\RHF\Aug-CC-pVDZ\C3H8O1\OHZDE\06-Apr-2025\0\\#t hf au
 g-cc-pvdz iop(5/13=1,5/36=2,99/5=2) pseudo=read geom=check guess=(read
 ,tcheck) scf=(maxcycle=1)\\title\\0,1\C,0,1.897976,-0.126622,0.018618\
 C,0,0.516931,0.524551,-0.044771\C,0,-0.613059,-0.494853,0.024012\O,0,-
 1.909274,0.090322,-0.086974\H,0,2.048829,-0.814819,-0.815272\H,0,2.688
 867,0.622294,-0.024744\H,0,2.029572,-0.693014,0.942713\H,0,0.411143,1.
 099907,-0.967085\H,0,0.407044,1.234976,0.78138\H,0,-0.541025,-1.193082
 ,-0.811207\H,0,-0.535151,-1.082893,0.946811\H,0,-2.046169,0.685602,0.6

 Normal termination of Gaussian 16 at Sun Apr  6 08:00:00 2025.
