 Gaussian 16, Revision C.01,

 ----------------------------------------------------------------------
 #t hf aug-cc-pvdz symm=none int=(grid=ultrafine) guess=(read,tcheck) s
 table=(opt,rrhf)
 ----------------------------------------------------------------------
 -----
 title
 -----
 Symbolic Z-matrix:
 Charge =  0 Multiplicity = 1

 SCF Done:  E(RHF) =  -173.311276279     A.U. after   12 cycles
 Normal termination of Gaussian 16 at Sun Apr  6 07:59:59 2025.
 Gaussian 16:  ES64L-G16RevC.01  3-Jul-2019

 ----------------------------------------------------------------------
 #t hf aug-cc-pvdz iop(5/13=1,5/36=2,99/5=2) pseudo=read geom=check gue
 ss=(read,tcheck) scf=(maxcycle=1)
 ----------------------------------------------------------------------
 -----
 title
 -----
 Structure from the checkpoint file:  "1-propanamine.chk"
 Charge =  0 Multiplicity = 1

                         Standard orientation:
 ---------------------------------------------------------------------
 Center     Atomic      Atomic             Coordinates (Angstroms)
 Number     Number       Type             X           Y           Z
 ---------------------------------------------------------------------
      1          6           0        1.426873    1.298590    0.000000
      2          6           0        0.000000    0.751500    0.000000
      3          6           0       -0.052657   -0.779459    0.000000
      4          7           0       -1.385423   -1.383272    0.000000
      5          1           0        1.978422    0.962964    0.880677
      6          1           0        1.978422    0.962964   -0.880677
      7          1           0        1.436602    2.389035    0.000000
      8          1           0       -0.539820    1.125120   -0.875744
      9          1           0       -0.539820    1.125120    0.875744
     10          1           0        0.483988   -1.159679    0.873422
     11          1           0        0.483988   -1.159679   -0.873422
     12          1           0       -1.914561   -1.093363   -0.813803
     13          1           0       -1.914561   -1.093363    0.813803
 ---------------------------------------------------------------------

 SCF Done:  E(RHF) =  -174.202252307     A.U. after    2 cycles

 The electronic state is 1-A'.
 Alpha  occ. eigenvalues --  -15.72277 -11.41438 -11.38412 -11.34539  -1.33482
 Alpha  occ. eigenvalues --   -1.15014  -0.95355  -0.84064  -0.67536  -0.59874
 Alpha  occ. eigenvalues --   -0.59567  -0.54702  -0.50940  -0.49559  -0.46407
 Alpha  occ. eigenvalues --   -0.45907  -0.33111
 Alpha virt. eigenvalues --    0.04059   0.05111   0.05905   0.05990   0.06240
 Alpha virt. eigenvalues --    0.06523   0.06713   0.07244   0.10210   0.10716
 Alpha virt. eigenvalues --    0.13987   0.14826   0.15177   0.15749   0.16416

 Mulliken charges:
               1
     1  C   -3.463524
     2  C   -3.006151
     3  C   -1.592348
     4  N   -2.492388
     5  H    1.254864
     6  H    1.254864
     7  H    1.178736
     8  H    1.401501
     9  H    1.401501
    10  H    1.448338
    11  H    1.448338
    12  H    0.583135
    13  H    0.583135
 Sum of Mulliken charges =   0.00000

 Dipole moment (field-independent basis, Debye):
    X=             -0.1710    Y=              1.0517    Z=             -0.0000  Tot=              1.0655

 Test job not archived.
 1\1\GINC-SE269\SP\RHF\Aug-CC-pVDZ\C3H9N1\OHZDE\06-Apr-2025\0\\#t hf au
 g-cc-pvdz iop(5/13=1,5/36=2,99/5=2) pseudo=read geom=check guess=(read
 ,tcheck) scf=(maxcycle=1)\\title\\0,1\C,0,1.426873,1.29859,0.\C,0,0.,0
 .7515,0.\C,0,-0.052657,-0.779459,0.\N,0,-1.385423,-1.383272,0.\H,0,1.9
 78422,0.962964,0.880677\H,0,1.978422,0.962964,-0.880677\H,0,1.436602,2
 .389035,0.\H,0,-0.53982,1.12512,-0.875744\H,0,-0.53982,1.12512,0.87574
 4\H,0,0.483988,-1.159679,0.873422\H,0,0.483988,-1.159679,-0.873422\H,0
 ,-1.914561,-1.093363,-0.813803\H,0,-1.914561,-1.093363,0.813803\\Versi

 Normal termination of Gaussian 16 at Sun Apr  6 08:00:01 2025.
