 Gaussian 16, Revision C.01,

 ----------------------------------------------------------------------
 #t hf aug-cc-pvdz symm=none int=(grid=ultrafine) guess=(read,tcheck) s
 table=(opt,rrhf)
 ----------------------------------------------------------------------
 -----
 title
 -----
 Symbolic Z-matrix:
 Charge =  0 Multiplicity = 1

 SCF Done:  E(RHF) =  -515.809746224     A.U. after   12 cycles
 Normal termination of Gaussian 16 at Sun Apr  6 07:59:53 2025.
 Gaussian 16:  ES64L-G16RevC.01  3-Jul-2019

 ----------------------------------------------------------------------
 #t hf aug-cc-pvdz iop(5/13=1,5/36=2,99/5=2) pseudo=read geom=check gue
 ss=(read,tcheck) scf=(maxcycle=1)
 ----------------------------------------------------------------------
 -----
 title
 -----
 Structure from the checkpoint file:  "1-propanethiol.chk"
 Charge =  0 Multiplicity = 1

                         Standard orientation:
 ---------------------------------------------------------------------
 Center     Atomic      Atomic             Coordinates (Angstroms)
 Number     Number       Type             X           Y           Z
 ---------------------------------------------------------------------
      1          6           0       -2.422945    0.072738    0.011279
      2          6           0       -1.009653   -0.506476   -0.070522
      3          6           0        0.062858    0.567077    0.075523
      4         16           0        1.788351   -0.046408   -0.074553
      5          1           0       -2.599612    0.799976   -0.783540
      6          1           0       -3.173192   -0.712674   -0.085709
      7          1           0       -2.591811    0.576633    0.964916
      8          1           0       -0.869677   -1.024388   -1.021039
      9          1           0       -0.874102   -1.257605    0.711730
     10          1           0       -0.023659    1.307679   -0.720627
     11          1           0       -0.038300    1.098518    1.021239
     12          1           0        1.775172   -0.845654    1.008202
 ---------------------------------------------------------------------

 SCF Done:  E(RHF) =  -516.663330391     A.U. after    2 cycles

 The electronic state is 1-A.
 Alpha  occ. eigenvalues --  -75.67993 -13.11878 -13.08977 -13.01313 -11.42460
 Alpha  occ. eigenvalues --  -11.39508 -11.35759  -8.01846  -1.25249  -1.10217
 Alpha  occ. eigenvalues --   -0.95173  -0.84444  -0.65574  -0.59057  -0.56144
 Alpha  occ. eigenvalues --   -0.53742  -0.48850  -0.47627  -0.46418  -0.36847
 Alpha  occ. eigenvalues --   -0.23294
 Alpha virt. eigenvalues --    0.03413   0.04656   0.05235   0.05731   0.06304
 Alpha virt. eigenvalues --    0.06629   0.06858   0.07277   0.10832   0.11288
 Alpha virt. eigenvalues --    0.13410   0.14513   0.15144   0.15858   0.16501

 Mulliken charges:
               1
     1  C   -3.458050
     2  C   -2.968338
     3  C   -3.694312
     4  S   -0.481750
     5  H    1.261426
     6  H    1.206199
     7  H    1.233941
     8  H    1.523470
     9  H    1.432793
    10  H    1.514247
    11  H    1.467274
    12  H    0.963100
 Sum of Mulliken charges =  -0.00000

 Dipole moment (field-independent basis, Debye):
    X=             -0.3448    Y=              0.5470    Z=             -0.7111  Tot=              0.9611

 Test job not archived.
 1\1\GINC-SE270\SP\RHF\Aug-CC-pVDZ\C3H8S1\OHZDE\06-Apr-2025\0\\#t hf au
 g-cc-pvdz iop(5/13=1,5/36=2,99/5=2) pseudo=read geom=check guess=(read
 ,tcheck) scf=(maxcycle=1)\\title\\0,1\C,0,-2.422945,0.072738,0.011279\
 C,0,-1.009653,-0.506476,-0.070522\C,0,0.062858,0.567077,0.075523\S,0,1
 .788351,-0.046408,-0.074553\H,0,-2.599612,0.799976,-0.78354\H,0,-3.173
 192,-0.712674,-0.085709\H,0,-2.591811,0.576633,0.964916\H,0,-0.869677,
 -1.024388,-1.021039\H,0,-0.874102,-1.257605,0.71173\H,0,-0.023659,1.30
 7679,-0.720627\H,0,-0.0383,1.098518,1.021239\H,0,1.775172,-0.845654,1.

 Normal termination of Gaussian 16 at Sun Apr  6 07:59:57 2025.
