 Gaussian 16, Revision C.01,

 ----------------------------------------------------------------------
 #t hf aug-cc-pvdz symm=none int=(grid=ultrafine) guess=(read,tcheck) s
 table=(opt,rrhf)
 ----------------------------------------------------------------------
 -----
 title
 -----
 Symbolic Z-matrix:
 Charge =  0 Multiplicity = 1

 SCF Done:  E(RHF) =  -310.252358662     A.U. after   11 cycles

 1\1\GINC-SE271\Stability\RHF\Aug-CC-pVDZ\C6H14O1\OHZDE\06-Apr-2025\0\\
 #t hf aug-cc-pvdz symm=none int=(grid=ultrafine) guess=(read,tcheck) s
 table=(opt,rrhf)\\title\\0,1\C,0,0.,3.710922,-0.232233\C,0,0.,-3.71092
 2,-0.232233\C,0,0.,2.389208,0.533807\C,0,0.,-2.389208,0.533807\C,0,0.,
 1.184713,-0.390496\C,0,0.,-1.184713,-0.390496\O,0,0.,0.,0.38534\H,0,-0
 .881297,3.80217,-0.870295\H,0,0.,4.559288,0.452278\H,0,0.881297,3.8021
 7,-0.870295\H,0,0.881297,-3.80217,-0.870295\H,0,0.,-4.559288,0.452278\
 H,0,-0.881297,-3.80217,-0.870295\H,0,-0.875832,2.330147,1.18354\H,0,0.

 Normal termination of Gaussian 16 at Sun Apr  6 08:00:36 2025.
 Gaussian 16:  ES64L-G16RevC.01  3-Jul-2019

 ----------------------------------------------------------------------
 #t hf aug-cc-pvdz iop(5/13=1,5/36=2,99/5=2) pseudo=read geom=check gue
 ss=(read,tcheck) scf=(maxcycle=1)
 ----------------------------------------------------------------------
 -----
 title
 -----
 Structure from the checkpoint file:  "1-propoxypropane.chk"
 Charge =  0 Multiplicity = 1

                         Standard orientation:
 ---------------------------------------------------------------------
 Center     Atomic      Atomic             Coordinates (Angstroms)
 Number     Number       Type             X           Y           Z
 ---------------------------------------------------------------------
      1          6           0        0.000000    3.710922   -0.232233
      2          6           0       -0.000000   -3.710922   -0.232233
      3          6           0        0.000000    2.389208    0.533807
      4          6           0       -0.000000   -2.389208    0.533807
      5          6           0        0.000000    1.184713   -0.390496
      6          6           0       -0.000000   -1.184713   -0.390496
      7          8           0       -0.000000   -0.000000    0.385340
      8          1           0       -0.881297    3.802170   -0.870295
      9          1           0        0.000000    4.559288    0.452278
     10          1           0        0.881297    3.802170   -0.870295
     11          1           0        0.881297   -3.802170   -0.870295
     12          1           0       -0.000000   -4.559288    0.452278
     13          1           0       -0.881297   -3.802170   -0.870295
     14          1           0       -0.875832    2.330147    1.183540
     15          1           0        0.875832    2.330147    1.183540
     16          1           0        0.875832   -2.330147    1.183540
     17          1           0       -0.875832   -2.330147    1.183540
     18          1           0       -0.884755    1.205018   -1.043297
     19          1           0        0.884755    1.205018   -1.043297
     20          1           0        0.884755   -1.205018   -1.043297
     21          1           0       -0.884755   -1.205018   -1.043297
 ---------------------------------------------------------------------

 SCF Done:  E(RHF) =  -311.790470933     A.U. after    2 cycles

 The electronic state is 1-A1.
 Alpha  occ. eigenvalues --  -21.03176 -11.44341 -11.42101 -11.39077 -11.38746
 Alpha  occ. eigenvalues --  -11.35472 -11.34605  -1.74566  -1.20214  -1.16728
 Alpha  occ. eigenvalues --   -0.99960  -0.92601  -0.84384  -0.83521  -0.67312
 Alpha  occ. eigenvalues --   -0.63359  -0.60243  -0.59937  -0.56758  -0.56362
 Alpha  occ. eigenvalues --   -0.53655  -0.50547  -0.48620  -0.47209  -0.46295
 Alpha  occ. eigenvalues --   -0.45843  -0.40241  -0.37778  -0.29181
 Alpha virt. eigenvalues --    0.04037   0.04841   0.05144   0.05461   0.05687
 Alpha virt. eigenvalues --    0.05829   0.06407   0.06834   0.07622   0.07676
 Alpha virt. eigenvalues --    0.08307   0.08470   0.09777   0.10344   0.11388

 Mulliken charges:
               1
     1  C   -3.779098
     2  C   -3.779098
     3  C   -4.100493
     4  C   -4.100493
     5  C   -0.568356
     6  C   -0.568356
     7  O   -3.427566
     8  H    1.285003
     9  H    1.117676
    10  H    1.285003
    11  H    1.285003
    12  H    1.117676
    13  H    1.285003
    14  H    1.499327
    15  H    1.499327
    16  H    1.499327
    17  H    1.499327
    18  H    1.737697
    19  H    1.737697
    20  H    1.737697
    21  H    1.737697
 Sum of Mulliken charges =  -0.00000

 Dipole moment (field-independent basis, Debye):
    X=             -0.0000    Y=             -0.0000    Z=             -0.0680  Tot=              0.0680

 Test job not archived.
 1\1\GINC-SE271\SP\RHF\Aug-CC-pVDZ\C6H14O1\OHZDE\06-Apr-2025\0\\#t hf a
 ug-cc-pvdz iop(5/13=1,5/36=2,99/5=2) pseudo=read geom=check guess=(rea
 d,tcheck) scf=(maxcycle=1)\\title\\0,1\C,0,0.,3.710922,-0.232233\C,0,0
 .,-3.710922,-0.232233\C,0,0.,2.389208,0.533807\C,0,0.,-2.389208,0.5338
 07\C,0,0.,1.184713,-0.390496\C,0,0.,-1.184713,-0.390496\O,0,0.,0.,0.38
 534\H,0,-0.881297,3.80217,-0.870295\H,0,0.,4.559288,0.452278\H,0,0.881
 297,3.80217,-0.870295\H,0,0.881297,-3.80217,-0.870295\H,0,0.,-4.559288
 ,0.452278\H,0,-0.881297,-3.80217,-0.870295\H,0,-0.875832,2.330147,1.18

 Normal termination of Gaussian 16 at Sun Apr  6 08:01:16 2025.
