 Gaussian 16, Revision C.01,

 ----------------------------------------------------------------------
 #t hf aug-cc-pvdz symm=none int=(grid=ultrafine) guess=(read,tcheck) s
 table=(opt,rrhf)
 ----------------------------------------------------------------------
 -----
 title
 -----
 Symbolic Z-matrix:
 Charge =  0 Multiplicity = 1

 SCF Done:  E(RHF) =  -414.509192874     A.U. after   15 cycles
 Normal termination of Gaussian 16 at Sun Apr  6 08:00:38 2025.
 Gaussian 16:  ES64L-G16RevC.01  3-Jul-2019

 ----------------------------------------------------------------------
 #t hf aug-cc-pvdz iop(5/13=1,5/36=2,99/5=2) pseudo=read geom=check gue
 ss=(read,tcheck) scf=(maxcycle=1)
 ----------------------------------------------------------------------
 -----
 title
 -----
 Structure from the checkpoint file:  "1-pyrazin-2-ylethanone.chk"
 Charge =  0 Multiplicity = 1

                         Standard orientation:
 ---------------------------------------------------------------------
 Center     Atomic      Atomic             Coordinates (Angstroms)
 Number     Number       Type             X           Y           Z
 ---------------------------------------------------------------------
      1          6           0        0.787546   -2.366357    0.000000
      2          6           0       -0.561033   -2.023230    0.000000
      3          6           0        1.353155   -0.175015    0.000000
      4          6           0        0.000000    0.175622    0.000000
      5          6           0       -0.407656    1.626191    0.000000
      6          6           0       -1.879880    1.940275    0.000000
      7          7           0        1.749484   -1.444574    0.000000
      8          7           0       -0.957273   -0.754759    0.000000
      9          8           0        0.445137    2.489136    0.000000
     10          1           0        1.096738   -3.404743    0.000000
     11          1           0       -1.330829   -2.785557    0.000000
     12          1           0        2.112882    0.594562    0.000000
     13          1           0       -2.362568    1.497437    0.871986
     14          1           0       -2.362568    1.497437   -0.871986
     15          1           0       -2.013020    3.018193    0.000000
 ---------------------------------------------------------------------

 SCF Done:  E(RHF) =  -416.376255322     A.U. after    2 cycles

 The electronic state is 1-A'.
 Alpha  occ. eigenvalues --  -21.06096 -15.78099 -15.77411 -11.52200 -11.49006
 Alpha  occ. eigenvalues --  -11.47700 -11.42606 -11.41983 -11.38922  -1.72134
 Alpha  occ. eigenvalues --   -1.52281  -1.35072  -1.17497  -1.09980  -0.96197
 Alpha  occ. eigenvalues --   -0.93926  -0.80328  -0.73042  -0.66520  -0.65620
 Alpha  occ. eigenvalues --   -0.62679  -0.61623  -0.57568  -0.55621  -0.53992
 Alpha  occ. eigenvalues --   -0.48362  -0.47218  -0.45718  -0.42353  -0.36116
 Alpha  occ. eigenvalues --   -0.34900  -0.29278
 Alpha virt. eigenvalues --    0.03012   0.04847   0.05093   0.06435   0.06538
 Alpha virt. eigenvalues --    0.07069   0.07972   0.08662   0.09302   0.10641
 Alpha virt. eigenvalues --    0.10919   0.10952   0.12265   0.13568   0.13640

 Mulliken charges:
               1
     1  C   -0.056778
     2  C    0.695394
     3  C   -1.374490
     4  C    4.001386
     5  C    4.997600
     6  C   -4.790785
     7  N   -3.708638
     8  N   -4.858000
     9  O   -3.722366
    10  H    1.523327
    11  H    1.608572
    12  H    1.806935
    13  H    1.313296
    14  H    1.313296
    15  H    1.251252
 Sum of Mulliken charges =  -0.00000

 Dipole moment (field-independent basis, Debye):
    X=             -0.9653    Y=             -1.2918    Z=             -0.0000  Tot=              1.6127

 Test job not archived.
 1\1\GINC-SE254\SP\RHF\Aug-CC-pVDZ\C6H6N2O1\OHZDE\06-Apr-2025\0\\#t hf
 aug-cc-pvdz iop(5/13=1,5/36=2,99/5=2) pseudo=read geom=check guess=(re
 ad,tcheck) scf=(maxcycle=1)\\title\\0,1\C,0,0.787546,-2.366357,0.\C,0,
 -0.561033,-2.02323,0.\C,0,1.353155,-0.175015,0.\C,0,0.,0.175622,0.\C,0
 ,-0.407656,1.626191,0.\C,0,-1.87988,1.940275,0.\N,0,1.749484,-1.444574
 ,0.\N,0,-0.957273,-0.754759,0.\O,0,0.445137,2.489136,0.\H,0,1.096738,-
 3.404743,0.\H,0,-1.330829,-2.785557,0.\H,0,2.112882,0.594562,0.\H,0,-2
 .362568,1.497437,0.871986\H,0,-2.362568,1.497437,-0.871986\H,0,-2.0130

 Normal termination of Gaussian 16 at Sun Apr  6 08:01:15 2025.
