 Gaussian 16, Revision C.01,

 ----------------------------------------------------------------------
 #t hf aug-cc-pvdz symm=none int=(grid=ultrafine) guess=(read,tcheck) s
 table=(opt,rrhf)
 ----------------------------------------------------------------------
 -----
 title
 -----
 Symbolic Z-matrix:
 Charge =  0 Multiplicity = 1

 SCF Done:  E(RHF) =  -362.987321378     A.U. after   14 cycles
 Normal termination of Gaussian 16 at Sun Apr  6 08:00:59 2025.
 Gaussian 16:  ES64L-G16RevC.01  3-Jul-2019

 ----------------------------------------------------------------------
 #t hf aug-cc-pvdz iop(5/13=1,5/36=2,99/5=2) pseudo=read geom=check gue
 ss=(read,tcheck) scf=(maxcycle=1)
 ----------------------------------------------------------------------
 -----
 title
 -----
 Structure from the checkpoint file:  "1-pyrrolidin-1-ylethanone.chk"
 Charge =  0 Multiplicity = 1

                         Standard orientation:
 ---------------------------------------------------------------------
 Center     Atomic      Atomic             Coordinates (Angstroms)
 Number     Number       Type             X           Y           Z
 ---------------------------------------------------------------------
      1          6           0        1.450960   -0.211024   -0.011521
      2          6           0       -2.167694   -0.617691    0.265295
      3          6           0       -2.071854    0.820259   -0.260051
      4          6           0       -0.795643   -1.209168   -0.064247
      5          6           0       -0.629862    1.220730    0.068588
      6          6           0        2.289731    1.049920    0.075090
      7          7           0        0.101430   -0.048120   -0.007516
      8          8           0        1.961184   -1.322156   -0.085316
      9          1           0       -2.323362   -0.611690    1.345899
     10          1           0       -2.982362   -1.182603   -0.184363
     11          1           0       -2.222111    0.835109   -1.341119
     12          1           0       -2.800072    1.494779    0.187414
     13          1           0       -0.466604   -1.973381    0.637241
     14          1           0       -0.772611   -1.654471   -1.062577
     15          1           0       -0.232266    1.952833   -0.633874
     16          1           0       -0.563031    1.651531    1.073408
     17          1           0        2.013722    1.662081    0.934901
     18          1           0        2.163330    1.663339   -0.818914
     19          1           0        3.332065    0.758403    0.158197
 ---------------------------------------------------------------------

 SCF Done:  E(RHF) =  -364.714612318     A.U. after    2 cycles

 The electronic state is 1-A.
 Alpha  occ. eigenvalues --  -21.00517 -15.73096 -11.49416 -11.45673 -11.43834
 Alpha  occ. eigenvalues --  -11.39809 -11.38335 -11.36298  -1.68919  -1.45995
 Alpha  occ. eigenvalues --   -1.18896  -1.10031  -1.06461  -0.90462  -0.85351
 Alpha  occ. eigenvalues --   -0.75639  -0.69635  -0.66112  -0.60892  -0.60210
 Alpha  occ. eigenvalues --   -0.57623  -0.56675  -0.55468  -0.50902  -0.47518
 Alpha  occ. eigenvalues --   -0.46930  -0.45396  -0.44304  -0.43994  -0.28286
 Alpha  occ. eigenvalues --   -0.27011
 Alpha virt. eigenvalues --    0.03430   0.04960   0.05089   0.05388   0.05551
 Alpha virt. eigenvalues --    0.05652   0.06315   0.07108   0.07257   0.08205
 Alpha virt. eigenvalues --    0.08464   0.10226   0.12146   0.12340   0.13018

 Mulliken charges:
               1
     1  C    5.296134
     2  C   -2.820736
     3  C   -2.649937
     4  C   -2.419057
     5  C   -2.456464
     6  C   -4.663880
     7  N   -2.536006
     8  O   -3.312934
     9  H    1.351635
    10  H    1.294067
    11  H    1.311132
    12  H    1.234344
    13  H    1.633622
    14  H    1.509374
    15  H    1.756495
    16  H    1.657764
    17  H    1.341185
    18  H    1.366124
    19  H    1.107137
 Sum of Mulliken charges =   0.00000

 Dipole moment (field-independent basis, Debye):
    X=             -2.3850    Y=              1.8869    Z=              0.1236  Tot=              3.0437

 Test job not archived.
 1\1\GINC-SE254\SP\RHF\Aug-CC-pVDZ\C6H11N1O1\OHZDE\06-Apr-2025\0\\#t hf
  aug-cc-pvdz iop(5/13=1,5/36=2,99/5=2) pseudo=read geom=check guess=(r
 ead,tcheck) scf=(maxcycle=1)\\title\\0,1\C,0,1.45096,-0.211024,-0.0115
 21\C,0,-2.167694,-0.617691,0.265295\C,0,-2.071854,0.820259,-0.260051\C
 ,0,-0.795643,-1.209168,-0.064247\C,0,-0.629862,1.22073,0.068588\C,0,2.
 289731,1.04992,0.07509\N,0,0.10143,-0.04812,-0.007516\O,0,1.961184,-1.
 322156,-0.085316\H,0,-2.323362,-0.61169,1.345899\H,0,-2.982362,-1.1826
 03,-0.184363\H,0,-2.222111,0.835109,-1.341119\H,0,-2.800072,1.494779,0

 Normal termination of Gaussian 16 at Sun Apr  6 08:01:18 2025.
