 Gaussian 16, Revision C.01,

 ----------------------------------------------------------------------
 #t hf aug-cc-pvdz symm=none int=(grid=ultrafine) guess=(read,tcheck) s
 table=(opt,rrhf)
 ----------------------------------------------------------------------
 -----
 title
 -----
 Symbolic Z-matrix:
 Charge =  0 Multiplicity = 1

 SCF Done:  E(RHF) =  -1074.91702694     A.U. after   15 cycles
 Normal termination of Gaussian 16 at Sun Apr  6 08:00:44 2025.
 Gaussian 16:  ES64L-G16RevC.01  3-Jul-2019

 ----------------------------------------------------------------------
 #t hf aug-cc-pvdz iop(5/13=1,5/36=2,99/5=2) pseudo=read geom=check gue
 ss=(read,tcheck) scf=(maxcycle=1)
 ----------------------------------------------------------------------
 -----
 title
 -----
 Structure from the checkpoint file:  "1-sulfanyl-5-6-dihydro-1-3-5-triazine-21H-thione.chk"
 Charge =  0 Multiplicity = 1

                         Standard orientation:
 ---------------------------------------------------------------------
 Center     Atomic      Atomic             Coordinates (Angstroms)
 Number     Number       Type             X           Y           Z
 ---------------------------------------------------------------------
      1         16           0       -1.343024    1.653778   -0.188507
      2         16           0       -1.672982   -1.441915    0.055760
      3          7           0        0.022233    0.641827   -0.044011
      4          7           0        0.993395   -1.482659    0.024447
      5          7           0        2.446897    0.418854   -0.082676
      6          6           0       -0.052767   -0.722709    0.020912
      7          6           0        1.336826    1.254097    0.292287
      8          6           0        2.209200   -0.831052   -0.160281
      9          1           0       -1.575475    1.878237    1.129449
     10          1           0       -1.161933   -2.687349    0.059929
     11          1           0        1.376602    1.458299    1.372225
     12          1           0        1.387735    2.206582   -0.231409
     13          1           0        3.031951   -1.493749   -0.408073
 ---------------------------------------------------------------------

 SCF Done:  E(RHF) =  -1076.64087794     A.U. after    2 cycles

 The electronic state is 1-A.
 Alpha  occ. eigenvalues --  -75.74738 -75.72302 -15.78726 -15.72420 -15.72304
 Alpha  occ. eigenvalues --  -13.25381 -13.18258 -13.17279 -13.15738 -13.12456
 Alpha  occ. eigenvalues --  -13.04083 -11.50266 -11.44148 -11.43542  -8.08557
 Alpha  occ. eigenvalues --   -8.06390  -1.57116  -1.38177  -1.32642  -1.15773
 Alpha  occ. eigenvalues --   -1.10749  -0.99112  -0.89334  -0.72383  -0.70292
 Alpha  occ. eigenvalues --   -0.67380  -0.63007  -0.57408  -0.56523  -0.53132
 Alpha  occ. eigenvalues --   -0.50579  -0.46078  -0.43955  -0.40445  -0.35756
 Alpha  occ. eigenvalues --   -0.32420  -0.27375  -0.26440
 Alpha virt. eigenvalues --    0.02561   0.04072   0.04581   0.06015   0.06270
 Alpha virt. eigenvalues --    0.08093   0.08426   0.09049   0.09994   0.12049
 Alpha virt. eigenvalues --    0.12250   0.12587   0.12752   0.12883   0.14702

 Mulliken charges:
               1
     1  S   -0.669491
     2  S    0.118824
     3  N   -1.860165
     4  N   -3.367964
     5  N   -2.785964
     6  C    1.930837
     7  C   -1.747764
     8  C    1.523457
     9  H    1.126604
    10  H    1.020198
    11  H    1.458149
    12  H    1.572672
    13  H    1.680607
 Sum of Mulliken charges =   0.00000

 Dipole moment (field-independent basis, Debye):
    X=             -4.6657    Y=              2.1152    Z=             -0.7799  Tot=              5.1818

 Test job not archived.
 1\1\GINC-SE255\SP\RHF\Aug-CC-pVDZ\C3H5N3S2\OHZDE\06-Apr-2025\0\\#t hf
 aug-cc-pvdz iop(5/13=1,5/36=2,99/5=2) pseudo=read geom=check guess=(re
 ad,tcheck) scf=(maxcycle=1)\\title\\0,1\S,0,-1.343024,1.653778,-0.1885
 07\S,0,-1.672982,-1.441915,0.05576\N,0,0.022233,0.641827,-0.044011\N,0
 ,0.993395,-1.482659,0.024447\N,0,2.446897,0.418854,-0.082676\C,0,-0.05
 2767,-0.722709,0.020912\C,0,1.336826,1.254097,0.292287\C,0,2.2092,-0.8
 31052,-0.160281\H,0,-1.575475,1.878237,1.129449\H,0,-1.161932,-2.68734
 9,0.059929\H,0,1.376602,1.458299,1.372225\H,0,1.387735,2.206582,-0.231

 Normal termination of Gaussian 16 at Sun Apr  6 08:01:15 2025.
