 Gaussian 16, Revision C.01,

 ----------------------------------------------------------------------
 #t hf aug-cc-pvdz symm=none int=(grid=ultrafine) guess=(read,tcheck) s
 table=(opt,rrhf)
 ----------------------------------------------------------------------
 -----
 title
 -----
 Symbolic Z-matrix:
 Charge =  0 Multiplicity = 1

 SCF Done:  E(RHF) =  -644.489077755     A.U. after   14 cycles
 Normal termination of Gaussian 16 at Sun Apr  6 08:00:09 2025.
 Gaussian 16:  ES64L-G16RevC.01  3-Jul-2019

 ----------------------------------------------------------------------
 #t hf aug-cc-pvdz iop(5/13=1,5/36=2,99/5=2) pseudo=read geom=check gue
 ss=(read,tcheck) scf=(maxcycle=1)
 ----------------------------------------------------------------------
 -----
 title
 -----
 Structure from the checkpoint file:  "1-thiazolidine-1-oxide.chk"
 Charge =  0 Multiplicity = 1

                         Standard orientation:
 ---------------------------------------------------------------------
 Center     Atomic      Atomic             Coordinates (Angstroms)
 Number     Number       Type             X           Y           Z
 ---------------------------------------------------------------------
      1          6           0       -1.663197    0.594397    0.145760
      2          6           0       -1.313787   -0.870942    0.411302
      3          6           0       -0.347275    1.331041   -0.152189
      4          7           0       -0.238792   -1.138186   -0.555395
      5          8           0        1.706481   -0.033621    0.889358
      6         16           0        0.987654    0.059920   -0.421492
      7          1           0       -2.320976    0.654478   -0.720214
      8          1           0       -2.180873    1.039573    0.994418
      9          1           0       -0.990263   -1.021403    1.445604
     10          1           0       -2.153939   -1.534638    0.209646
     11          1           0       -0.400188    1.966309   -1.033577
     12          1           0        0.034327    1.907959    0.686849
     13          1           0        0.174694   -2.061706   -0.495193
 ---------------------------------------------------------------------

 SCF Done:  E(RHF) =  -645.893912084     A.U. after    2 cycles

 The electronic state is 1-A.
 Alpha  occ. eigenvalues --  -75.79739 -21.00059 -15.75113 -13.34369 -13.22277
 Alpha  occ. eigenvalues --  -13.19798 -11.46999 -11.42224 -11.38113  -8.13904
 Alpha  occ. eigenvalues --   -1.69247  -1.42366  -1.17281  -1.08666  -0.88353
 Alpha  occ. eigenvalues --   -0.86384  -0.71139  -0.68437  -0.61367  -0.53434
 Alpha  occ. eigenvalues --   -0.52699  -0.50564  -0.49327  -0.46970  -0.44070
 Alpha  occ. eigenvalues --   -0.34601  -0.31952  -0.25925
 Alpha virt. eigenvalues --    0.03275   0.04658   0.05461   0.05839   0.05943
 Alpha virt. eigenvalues --    0.06754   0.06963   0.08623   0.10672   0.12820
 Alpha virt. eigenvalues --    0.13406   0.13829   0.14115   0.14423   0.15001

 Mulliken charges:
               1
     1  C   -2.428026
     2  C   -2.451240
     3  C   -3.634858
     4  N   -2.040687
     5  O   -2.496405
     6  S    4.038884
     7  H    1.384076
     8  H    1.316819
     9  H    1.434386
    10  H    1.311027
    11  H    1.415242
    12  H    1.499493
    13  H    0.651290
 Sum of Mulliken charges =  -0.00000

 Dipole moment (field-independent basis, Debye):
    X=             -1.5039    Y=             -0.1667    Z=             -0.7833  Tot=              1.7039

 Test job not archived.
 1\1\GINC-SE255\SP\RHF\Aug-CC-pVDZ\C3H7N1O1S1\OHZDE\06-Apr-2025\0\\#t h
 f aug-cc-pvdz iop(5/13=1,5/36=2,99/5=2) pseudo=read geom=check guess=(
 read,tcheck) scf=(maxcycle=1)\\title\\0,1\C,0,-1.663197,0.594398,0.145
 76\C,0,-1.313787,-0.870942,0.411302\C,0,-0.347274,1.331041,-0.152189\N
 ,0,-0.238792,-1.138186,-0.555395\O,0,1.706481,-0.033622,0.889358\S,0,0
 .987654,0.05992,-0.421492\H,0,-2.320976,0.654479,-0.720214\H,0,-2.1808
 73,1.039574,0.994418\H,0,-0.990263,-1.021403,1.445604\H,0,-2.15394,-1.
 534637,0.209646\H,0,-0.400187,1.966309,-1.033577\H,0,0.034328,1.907959

 Normal termination of Gaussian 16 at Sun Apr  6 08:00:14 2025.
