 Gaussian 16, Revision C.01,

 ----------------------------------------------------------------------
 #t hf aug-cc-pvdz symm=none int=(grid=ultrafine) guess=(read,tcheck) s
 table=(opt,rrhf)
 ----------------------------------------------------------------------
 -----
 title
 -----
 Symbolic Z-matrix:
 Charge =  0 Multiplicity = 1

 SCF Done:  E(RHF) =  -702.121163854     A.U. after   14 cycles
 Normal termination of Gaussian 16 at Sun Apr  6 08:00:14 2025.
 Gaussian 16:  ES64L-G16RevC.01  3-Jul-2019

 ----------------------------------------------------------------------
 #t hf aug-cc-pvdz iop(5/13=1,5/36=2,99/5=2) pseudo=read geom=check gue
 ss=(read,tcheck) scf=(maxcycle=1)
 ----------------------------------------------------------------------
 -----
 title
 -----
 Structure from the checkpoint file:  "1-vinylsulfonylethylene.chk"
 Charge =  0 Multiplicity = 1

                         Standard orientation:
 ---------------------------------------------------------------------
 Center     Atomic      Atomic             Coordinates (Angstroms)
 Number     Number       Type             X           Y           Z
 ---------------------------------------------------------------------
      1          6           0        2.237512   -1.080208   -0.077675
      2          6           0        1.403583   -0.280902   -0.719892
      3         16           0       -0.000000    0.441332    0.117731
      4          8           0       -0.000000   -0.012068    1.503955
      5          6           0       -1.403588   -0.280896   -0.719890
      6          6           0       -2.237510   -1.080210   -0.077674
      7          8           0        0.000003    1.864598   -0.204444
      8          1           0        2.063322   -1.347346    0.955947
      9          1           0        3.118409   -1.474130   -0.566836
     10          1           0        1.522477    0.047345   -1.743611
     11          1           0       -1.522490    0.047360   -1.743604
     12          1           0       -2.063312   -1.347358    0.955944
     13          1           0       -3.118410   -1.474129   -0.566832
 ---------------------------------------------------------------------

 SCF Done:  E(RHF) =  -703.762781326     A.U. after    2 cycles

 The electronic state is 1-A.
 Alpha  occ. eigenvalues --  -75.88588 -21.04144 -21.03749 -13.50341 -13.39744
 Alpha  occ. eigenvalues --  -13.34816 -11.45921 -11.45894 -11.42352 -11.41574
 Alpha  occ. eigenvalues --   -8.23550  -1.82012  -1.64192  -1.23211  -1.17945
 Alpha  occ. eigenvalues --   -1.00701  -0.86916  -0.79915  -0.70508  -0.66425
 Alpha  occ. eigenvalues --   -0.61822  -0.60878  -0.54517  -0.53208  -0.45731
 Alpha  occ. eigenvalues --   -0.41599  -0.40211  -0.38604  -0.37881  -0.35309
 Alpha  occ. eigenvalues --   -0.34626
 Alpha virt. eigenvalues --    0.02729   0.03820   0.04655   0.06044   0.06174
 Alpha virt. eigenvalues --    0.06753   0.07437   0.11025   0.11094   0.11660
 Alpha virt. eigenvalues --    0.13101   0.13286   0.13707   0.14269   0.14533

 Mulliken charges:
               1
     1  C   -2.572769
     2  C   -2.291539
     3  S    6.712746
     4  O   -2.806882
     5  C   -2.291540
     6  C   -2.572768
     7  O   -2.544906
     8  H    1.538794
     9  H    1.382841
    10  H    1.262195
    11  H    1.262194
    12  H    1.538795
    13  H    1.382841
 Sum of Mulliken charges =  -0.00000

 Dipole moment (field-independent basis, Debye):
    X=             -0.0000    Y=             -2.5551    Z=             -1.1148  Tot=              2.7877

 Test job not archived.
 1\1\GINC-SE364\SP\RHF\Aug-CC-pVDZ\C4H6O2S1\OHZDE\06-Apr-2025\0\\#t hf
 aug-cc-pvdz iop(5/13=1,5/36=2,99/5=2) pseudo=read geom=check guess=(re
 ad,tcheck) scf=(maxcycle=1)\\title\\0,1\C,0,2.237512,-1.080208,-0.0776
 75\C,0,1.403583,-0.280902,-0.719892\S,0,0.,0.441332,0.117731\O,0,0.,-0
 .012068,1.503955\C,0,-1.403588,-0.280896,-0.71989\C,0,-2.23751,-1.0802
 1,-0.077674\O,0,0.000003,1.864598,-0.204444\H,0,2.063322,-1.347346,0.9
 55947\H,0,3.118409,-1.47413,-0.566836\H,0,1.522477,0.047345,-1.743611\
 H,0,-1.52249,0.04736,-1.743604\H,0,-2.063312,-1.347358,0.955944\H,0,-3

 Normal termination of Gaussian 16 at Sun Apr  6 08:00:18 2025.
