 Gaussian 16, Revision C.01,

 ----------------------------------------------------------------------
 #t hf aug-cc-pvdz symm=none int=(grid=ultrafine) guess=(read,tcheck) s
 table=(opt,rrhf)
 ----------------------------------------------------------------------
 -----
 title
 -----
 Symbolic Z-matrix:
 Charge =  0 Multiplicity = 1

 SCF Done:  E(RHF) =  -240.841011019     A.U. after   14 cycles
 Normal termination of Gaussian 16 at Sun Apr  6 07:59:51 2025.
 Gaussian 16:  ES64L-G16RevC.01  3-Jul-2019

 ----------------------------------------------------------------------
 #t hf aug-cc-pvdz iop(5/13=1,5/36=2,99/5=2) pseudo=read geom=check gue
 ss=(read,tcheck) scf=(maxcycle=1)
 ----------------------------------------------------------------------
 -----
 title
 -----
 Structure from the checkpoint file:  "1H-1-2-4-triazole.chk"
 Charge =  0 Multiplicity = 1

                         Standard orientation:
 ---------------------------------------------------------------------
 Center     Atomic      Atomic             Coordinates (Angstroms)
 Number     Number       Type             X           Y           Z
 ---------------------------------------------------------------------
      1          7           0        0.687175   -0.997210    0.000000
      2          6           0       -0.670085   -0.896250    0.000000
      3          1           0       -1.325913   -1.750118    0.000000
      4          7           0       -1.137377    0.337628    0.000000
      5          7           0        0.000000    1.069665    0.000000
      6          1           0       -0.046582    2.073946    0.000000
      7          6           0        1.075604    0.260484    0.000000
      8          1           0        2.090800    0.620191    0.000000
 ---------------------------------------------------------------------

 SCF Done:  E(RHF) =  -241.925517879     A.U. after    2 cycles

 The electronic state is 1-A'.
 Alpha  occ. eigenvalues --  -15.82574 -15.75961 -15.73256 -11.45372 -11.41184
 Alpha  occ. eigenvalues --   -1.65610  -1.31207  -1.20230  -0.88551  -0.83939
 Alpha  occ. eigenvalues --   -0.76656  -0.63987  -0.59697  -0.56567  -0.46326
 Alpha  occ. eigenvalues --   -0.39297  -0.38779  -0.35276
 Alpha virt. eigenvalues --    0.03181   0.05301   0.05636   0.09893   0.10364
 Alpha virt. eigenvalues --    0.11245   0.11757   0.12482   0.15250   0.15646
 Alpha virt. eigenvalues --    0.17653   0.18102   0.18288   0.18722   0.19096

 Mulliken charges:
               1
     1  N   -2.758717
     2  C    1.099124
     3  H    1.479805
     4  N   -1.677543
     5  N   -1.715682
     6  H    0.895740
     7  C    1.297233
     8  H    1.380039
 Sum of Mulliken charges =  -0.00000

 Dipole moment (field-independent basis, Debye):
    X=              0.9538    Y=              2.5653    Z=              0.0000  Tot=              2.7369

 Test job not archived.
 1\1\GINC-SE364\SP\RHF\Aug-CC-pVDZ\C2H3N3\OHZDE\06-Apr-2025\0\\#t hf au
 g-cc-pvdz iop(5/13=1,5/36=2,99/5=2) pseudo=read geom=check guess=(read
 ,tcheck) scf=(maxcycle=1)\\title\\0,1\N,0,0.687175,-0.99721,0.\C,0,-0.
 670085,-0.89625,0.\H,0,-1.325913,-1.750118,0.\N,0,-1.137377,0.337628,0
 .\N,0,0.,1.069665,0.\H,0,-0.046582,2.073946,0.\C,0,1.075604,0.260484,0
 .\H,0,2.0908,0.620191,0.\\Version=ES64L-G16RevC.01\State=1-A'\HF=-241.
 9255179\RMSD=8.181e-02\Dipole=0.3752395,1.0092827,0.\Quadrupole=-1.089
 5104,2.6052636,-1.5157531,4.0015825,0.,0.\PG=CS [SG(C2H3N3)]\\@

 Normal termination of Gaussian 16 at Sun Apr  6 07:59:53 2025.
