 Gaussian 16, Revision C.01,

 ----------------------------------------------------------------------
 #t hf aug-cc-pvdz symm=none int=(grid=ultrafine) guess=(read,tcheck) s
 table=(opt,rrhf)
 ----------------------------------------------------------------------
 -----
 title
 -----
 Symbolic Z-matrix:
 Charge =  0 Multiplicity = 1

 SCF Done:  E(RHF) =  -559.307667714     A.U. after   16 cycles
 Normal termination of Gaussian 16 at Sun Apr  6 08:00:58 2025.
 Gaussian 16:  ES64L-G16RevC.01  3-Jul-2019

 ----------------------------------------------------------------------
 #t hf aug-cc-pvdz iop(5/13=1,5/36=2,99/5=2) pseudo=read geom=check gue
 ss=(read,tcheck) scf=(maxcycle=1)
 ----------------------------------------------------------------------
 -----
 title
 -----
 Structure from the checkpoint file:  "1H-3H-8H-alloxanthine.chk"
 Charge =  0 Multiplicity = 1

                         Standard orientation:
 ---------------------------------------------------------------------
 Center     Atomic      Atomic             Coordinates (Angstroms)
 Number     Number       Type             X           Y           Z
 ---------------------------------------------------------------------
      1          6           0       -0.513595   -1.847902    0.000000
      2          7           0        0.778933   -1.359597    0.000000
      3          6           0        1.042726   -0.011300    0.000000
      4          6           0        0.000000    0.939529    0.000000
      5          6           0        0.650742    2.159172    0.000000
      6          7           0        1.962308    1.874826    0.000000
      7          7           0        2.241607    0.540130    0.000000
      8          7           0       -1.509334   -0.870626    0.000000
      9          6           0       -1.390022    0.528250    0.000000
     10          8           0       -0.770109   -3.032395    0.000000
     11          1           0        2.729469    2.523638    0.000000
     12          8           0       -2.370508    1.243288    0.000000
     13          1           0        0.271382    3.165642    0.000000
     14          1           0       -2.450739   -1.235751    0.000000
     15          1           0        1.521119   -2.040297    0.000000
 ---------------------------------------------------------------------

 SCF Done:  E(RHF) =  -561.738366522     A.U. after    2 cycles

 The electronic state is 1-A'.
 Alpha  occ. eigenvalues --  -21.05136 -21.04628 -15.84677 -15.80878 -15.79857
 Alpha  occ. eigenvalues --  -15.77123 -11.54917 -11.54457 -11.51695 -11.50444
 Alpha  occ. eigenvalues --  -11.42248  -1.75344  -1.72797  -1.64473  -1.46924
 Alpha  occ. eigenvalues --   -1.37286  -1.20708  -1.19301  -0.97408  -0.92091
 Alpha  occ. eigenvalues --   -0.88214  -0.79880  -0.77007  -0.68264  -0.68109
 Alpha  occ. eigenvalues --   -0.65013  -0.61366  -0.61027  -0.57193  -0.53941
 Alpha  occ. eigenvalues --   -0.53927  -0.50885  -0.45376  -0.44368  -0.36263
 Alpha  occ. eigenvalues --   -0.34367  -0.33068  -0.30133  -0.29739
 Alpha virt. eigenvalues --    0.02730   0.04630   0.05450   0.06949   0.08173
 Alpha virt. eigenvalues --    0.09029   0.09614   0.10375   0.10891   0.11225
 Alpha virt. eigenvalues --    0.11953   0.12834   0.13832   0.13911   0.14060

 Mulliken charges:
               1
     1  C    4.608400
     2  N   -3.319328
     3  C    4.372630
     4  C    1.429273
     5  C   -2.102328
     6  N   -2.215986
     7  N   -2.909140
     8  N   -2.869244
     9  C    6.740759
    10  O   -3.305129
    11  H    0.895914
    12  O   -3.935310
    13  H    1.217252
    14  H    0.611754
    15  H    0.780482
 Sum of Mulliken charges =   0.00000

 Dipole moment (field-independent basis, Debye):
    X=              2.6037    Y=              3.0284    Z=              0.0000  Tot=              3.9939

 Test job not archived.
 1\1\GINC-SE365\SP\RHF\Aug-CC-pVDZ\C5H4N4O2\OHZDE\06-Apr-2025\0\\#t hf
 aug-cc-pvdz iop(5/13=1,5/36=2,99/5=2) pseudo=read geom=check guess=(re
 ad,tcheck) scf=(maxcycle=1)\\title\\0,1\C,0,-0.513595,-1.847902,0.\N,0
 ,0.778933,-1.359597,0.\C,0,1.042726,-0.0113,0.\C,0,0.,0.939529,0.\C,0,
 0.650742,2.159172,0.\N,0,1.962308,1.874826,0.\N,0,2.241607,0.54013,0.\
 N,0,-1.509334,-0.870626,0.\C,0,-1.390022,0.52825,0.\O,0,-0.770109,-3.0
 32395,0.\H,0,2.729469,2.523638,0.\O,0,-2.370508,1.243288,0.\H,0,0.2713
 82,3.165642,0.\H,0,-2.450739,-1.235751,0.\H,0,1.521119,-2.040297,0.\\V

 Normal termination of Gaussian 16 at Sun Apr  6 08:01:17 2025.
