 Gaussian 16, Revision C.01,

 ----------------------------------------------------------------------
 #t hf aug-cc-pvdz symm=none int=(grid=ultrafine) guess=(read,tcheck) s
 table=(opt,rrhf)
 ----------------------------------------------------------------------
 -----
 title
 -----
 Symbolic Z-matrix:
 Charge =  0 Multiplicity = 1

 SCF Done:  E(RHF) =  -559.301960198     A.U. after   16 cycles
 Normal termination of Gaussian 16 at Sun Apr  6 08:01:06 2025.
 Gaussian 16:  ES64L-G16RevC.01  3-Jul-2019

 ----------------------------------------------------------------------
 #t hf aug-cc-pvdz iop(5/13=1,5/36=2,99/5=2) pseudo=read geom=check gue
 ss=(read,tcheck) scf=(maxcycle=1)
 ----------------------------------------------------------------------
 -----
 title
 -----
 Structure from the checkpoint file:  "1H-3H-9H-alloxanthine.chk"
 Charge =  0 Multiplicity = 1

                         Standard orientation:
 ---------------------------------------------------------------------
 Center     Atomic      Atomic             Coordinates (Angstroms)
 Number     Number       Type             X           Y           Z
 ---------------------------------------------------------------------
      1          6           0       -0.531875   -1.845904    0.000000
      2          7           0        0.771404   -1.348773    0.000000
      3          6           0        1.003562   -0.002016    0.000000
      4          6           0        0.000000    0.950259    0.000000
      5          6           0        0.690256    2.188187    0.000000
      6          7           0        1.994421    2.015793    0.000000
      7          7           0        2.175035    0.654328    0.000000
      8          7           0       -1.513744   -0.871250    0.000000
      9          6           0       -1.384929    0.539209    0.000000
     10          8           0       -0.763178   -3.034653    0.000000
     11          8           0       -2.371414    1.243358    0.000000
     12          1           0       -2.459834   -1.224597    0.000000
     13          1           0        1.502564   -2.040445    0.000000
     14          1           0        3.109527    0.285765    0.000000
     15          1           0        0.272581    3.180547    0.000000
 ---------------------------------------------------------------------

 SCF Done:  E(RHF) =  -561.730780632     A.U. after    2 cycles

 The electronic state is 1-A'.
 Alpha  occ. eigenvalues --  -21.05863 -21.05103 -15.84198 -15.83335 -15.80485
 Alpha  occ. eigenvalues --  -15.77586 -11.55863 -11.55396 -11.54707 -11.47071
 Alpha  occ. eigenvalues --  -11.41472  -1.76344  -1.73078  -1.64349  -1.47884
 Alpha  occ. eigenvalues --   -1.38107  -1.22388  -1.18010  -0.96449  -0.93174
 Alpha  occ. eigenvalues --   -0.88868  -0.81650  -0.75912  -0.70467  -0.69314
 Alpha  occ. eigenvalues --   -0.62994  -0.61459  -0.60834  -0.58814  -0.54331
 Alpha  occ. eigenvalues --   -0.54293  -0.50119  -0.45565  -0.43877  -0.37749
 Alpha  occ. eigenvalues --   -0.35259  -0.33675  -0.30175  -0.30090
 Alpha virt. eigenvalues --    0.02417   0.04777   0.05441   0.06649   0.08154
 Alpha virt. eigenvalues --    0.09467   0.10097   0.10491   0.10815   0.10916
 Alpha virt. eigenvalues --    0.11620   0.12887   0.13169   0.13776   0.14944

 Mulliken charges:
               1
     1  C    4.621366
     2  N   -3.477154
     3  C    4.452169
     4  C    1.457876
     5  C   -1.986018
     6  N   -1.956066
     7  N   -3.281072
     8  N   -2.828606
     9  C    6.585115
    10  O   -3.314140
    11  O   -4.017007
    12  H    0.605964
    13  H    0.798747
    14  H    1.000023
    15  H    1.338802
 Sum of Mulliken charges =  -0.00000

 Dipole moment (field-independent basis, Debye):
    X=              3.1166    Y=             -1.4073    Z=              0.0000  Tot=              3.4196

 Test job not archived.
 1\1\GINC-SE366\SP\RHF\Aug-CC-pVDZ\C5H4N4O2\OHZDE\06-Apr-2025\0\\#t hf
 aug-cc-pvdz iop(5/13=1,5/36=2,99/5=2) pseudo=read geom=check guess=(re
 ad,tcheck) scf=(maxcycle=1)\\title\\0,1\C,0,-0.531875,-1.845904,0.\N,0
 ,0.771404,-1.348773,0.\C,0,1.003562,-0.002016,0.\C,0,0.,0.950259,0.\C,
 0,0.690256,2.188187,0.\N,0,1.994421,2.015793,0.\N,0,2.175035,0.654328,
 0.\N,0,-1.513744,-0.87125,0.\C,0,-1.384929,0.539209,0.\O,0,-0.763178,-
 3.034653,0.\O,0,-2.371414,1.243358,0.\H,0,-2.459834,-1.224597,0.\H,0,1
 .502564,-2.040445,0.\H,0,3.109527,0.285765,0.\H,0,0.272581,3.180547,0.

 Normal termination of Gaussian 16 at Sun Apr  6 08:01:17 2025.
