 Gaussian 16, Revision C.01,

 ----------------------------------------------------------------------
 #t hf aug-cc-pvdz symm=none int=(grid=ultrafine) guess=(read,tcheck) s
 table=(opt,rrhf)
 ----------------------------------------------------------------------
 -----
 title
 -----
 Symbolic Z-matrix:
 Charge =  0 Multiplicity = 1

 SCF Done:  E(RHF) =  -559.330609821     A.U. after   16 cycles
 Normal termination of Gaussian 16 at Sun Apr  6 08:01:06 2025.
 Gaussian 16:  ES64L-G16RevC.01  3-Jul-2019

 ----------------------------------------------------------------------
 #t hf aug-cc-pvdz iop(5/13=1,5/36=2,99/5=2) pseudo=read geom=check gue
 ss=(read,tcheck) scf=(maxcycle=1)
 ----------------------------------------------------------------------
 -----
 title
 -----
 Structure from the checkpoint file:  "1H-3H-7H-xanthine.chk"
 Charge =  0 Multiplicity = 1

                         Standard orientation:
 ---------------------------------------------------------------------
 Center     Atomic      Atomic             Coordinates (Angstroms)
 Number     Number       Type             X           Y           Z
 ---------------------------------------------------------------------
      1          6           0       -1.932966    1.927138    0.000000
      2          6           0        0.000000    0.897330    0.000000
      3          6           0       -1.047973    0.007447    0.000000
      4          6           0        1.374607    0.492230    0.000000
      5          6           0        0.451293   -1.869624    0.000000
      6          7           0       -2.246899    0.640758    0.000000
      7          7           0       -0.597110    2.140003    0.000000
      8          7           0       -0.830130   -1.346171    0.000000
      9          7           0        1.466665   -0.911751    0.000000
     10          8           0        2.362098    1.204052    0.000000
     11          8           0        0.680205   -3.060162    0.000000
     12          1           0       -2.646470    2.733790    0.000000
     13          1           0       -0.115294    3.023307    0.000000
     14          1           0       -1.595394   -2.001005    0.000000
     15          1           0        2.401286   -1.294218    0.000000
 ---------------------------------------------------------------------

 SCF Done:  E(RHF) =  -561.754162426     A.U. after    2 cycles

 The electronic state is 1-A'.
 Alpha  occ. eigenvalues --  -21.05021 -21.04441 -15.83778 -15.81161 -15.79991
 Alpha  occ. eigenvalues --  -15.75888 -11.55438 -11.54079 -11.52403 -11.47867
 Alpha  occ. eigenvalues --  -11.43210  -1.75173  -1.72633  -1.61736  -1.46425
 Alpha  occ. eigenvalues --   -1.37781  -1.30123  -1.14314  -0.96096  -0.92807
 Alpha  occ. eigenvalues --   -0.87777  -0.82959  -0.76057  -0.68686  -0.68549
 Alpha  occ. eigenvalues --   -0.63467  -0.61416  -0.60978  -0.59587  -0.54030
 Alpha  occ. eigenvalues --   -0.53758  -0.50820  -0.44957  -0.43358  -0.39174
 Alpha  occ. eigenvalues --   -0.34320  -0.33304  -0.29782  -0.28342
 Alpha virt. eigenvalues --    0.02637   0.04821   0.05512   0.06919   0.08155
 Alpha virt. eigenvalues --    0.08703   0.09397   0.10321   0.10729   0.11128
 Alpha virt. eigenvalues --    0.12268   0.12589   0.13042   0.13206   0.13910

 Mulliken charges:
               1
     1  C    0.439889
     2  C    1.654010
     3  C    3.713202
     4  C    6.141235
     5  C    4.812987
     6  N   -3.585176
     7  N   -3.793294
     8  N   -3.293860
     9  N   -2.555423
    10  O   -3.872525
    11  O   -3.376208
    12  H    1.614270
    13  H    0.819153
    14  H    0.743939
    15  H    0.537802
 Sum of Mulliken charges =  -0.00000

 Dipole moment (field-independent basis, Debye):
    X=             -1.4218    Y=              3.2844    Z=              0.0000  Tot=              3.5789

 Test job not archived.
 1\1\GINC-SE365\SP\RHF\Aug-CC-pVDZ\C5H4N4O2\OHZDE\06-Apr-2025\0\\#t hf
 aug-cc-pvdz iop(5/13=1,5/36=2,99/5=2) pseudo=read geom=check guess=(re
 ad,tcheck) scf=(maxcycle=1)\\title\\0,1\C,0,-1.932966,1.927138,0.\C,0,
 0.,0.89733,0.\C,0,-1.047973,0.007447,0.\C,0,1.374607,0.49223,0.\C,0,0.
 451293,-1.869624,0.\N,0,-2.246899,0.640758,0.\N,0,-0.59711,2.140003,0.
 \N,0,-0.83013,-1.346171,0.\N,0,1.466665,-0.911751,0.\O,0,2.362098,1.20
 4052,0.\O,0,0.680205,-3.060162,0.\H,0,-2.64647,2.73379,0.\H,0,-0.11529
 4,3.023307,0.\H,0,-1.595394,-2.001005,0.\H,0,2.401286,-1.294218,0.\\Ve

 Normal termination of Gaussian 16 at Sun Apr  6 08:01:17 2025.
