 Gaussian 16, Revision C.01,

 ----------------------------------------------------------------------
 #t hf aug-cc-pvdz symm=none int=(grid=ultrafine) guess=(read,tcheck) s
 table=(opt,rrhf)
 ----------------------------------------------------------------------
 -----
 title
 -----
 Symbolic Z-matrix:
 Charge =  0 Multiplicity = 1

 SCF Done:  E(RHF) =  -559.316348699     A.U. after   16 cycles
 Normal termination of Gaussian 16 at Sun Apr  6 08:01:05 2025.
 Gaussian 16:  ES64L-G16RevC.01  3-Jul-2019

 ----------------------------------------------------------------------
 #t hf aug-cc-pvdz iop(5/13=1,5/36=2,99/5=2) pseudo=read geom=check gue
 ss=(read,tcheck) scf=(maxcycle=1)
 ----------------------------------------------------------------------
 -----
 title
 -----
 Structure from the checkpoint file:  "1H-3H-9H-xanthine.chk"
 Charge =  0 Multiplicity = 1

                         Standard orientation:
 ---------------------------------------------------------------------
 Center     Atomic      Atomic             Coordinates (Angstroms)
 Number     Number       Type             X           Y           Z
 ---------------------------------------------------------------------
      1          6           0       -0.494582   -1.855654    0.000000
      2          7           0        0.801387   -1.341554    0.000000
      3          6           0        1.003289    0.010465    0.000000
      4          6           0        0.000000    0.951847    0.000000
      5          7           0        0.543549    2.219652    0.000000
      6          6           0        1.828513    2.045590    0.000000
      7          7           0        2.176164    0.698429    0.000000
      8          7           0       -1.483837   -0.891134    0.000000
      9          6           0       -1.384973    0.528592    0.000000
     10          8           0       -0.710820   -3.048700    0.000000
     11          1           0        2.579315    2.817576    0.000000
     12          8           0       -2.386498    1.205693    0.000000
     13          1           0       -2.426033   -1.254649    0.000000
     14          1           0        1.543280   -2.021140    0.000000
     15          1           0        3.107654    0.319474    0.000000
 ---------------------------------------------------------------------

 SCF Done:  E(RHF) =  -561.739482526     A.U. after    2 cycles

 The electronic state is 1-A'.
 Alpha  occ. eigenvalues --  -21.05050 -21.04275 -15.84234 -15.82787 -15.79695
 Alpha  occ. eigenvalues --  -15.75619 -11.55047 -11.54583 -11.53432 -11.45835
 Alpha  occ. eigenvalues --  -11.42093  -1.75508  -1.72121  -1.61727  -1.46370
 Alpha  occ. eigenvalues --   -1.37659  -1.30580  -1.13475  -0.95994  -0.92372
 Alpha  occ. eigenvalues --   -0.89794  -0.81155  -0.75524  -0.69818  -0.69010
 Alpha  occ. eigenvalues --   -0.64809  -0.62141  -0.60929  -0.57739  -0.53698
 Alpha  occ. eigenvalues --   -0.53655  -0.50324  -0.44520  -0.41699  -0.40225
 Alpha  occ. eigenvalues --   -0.34500  -0.33039  -0.29247  -0.28411
 Alpha virt. eigenvalues --    0.01706   0.03734   0.04943   0.06807   0.08204
 Alpha virt. eigenvalues --    0.09420   0.09614   0.09993   0.10670   0.11182
 Alpha virt. eigenvalues --    0.11907   0.12748   0.12751   0.13719   0.14549

 Mulliken charges:
               1
     1  C    4.867923
     2  N   -3.111432
     3  C    2.908608
     4  C    1.858857
     5  N   -3.538005
     6  C    0.488011
     7  N   -3.616986
     8  N   -2.668605
     9  C    6.311492
    10  O   -3.377768
    11  H    1.626003
    12  O   -3.932516
    13  H    0.554046
    14  H    0.724543
    15  H    0.905830
 Sum of Mulliken charges =   0.00000

 Dipole moment (field-independent basis, Debye):
    X=              5.8520    Y=             -1.2501    Z=              0.0000  Tot=              5.9840

 Test job not archived.
 1\1\GINC-SE366\SP\RHF\Aug-CC-pVDZ\C5H4N4O2\OHZDE\06-Apr-2025\0\\#t hf
 aug-cc-pvdz iop(5/13=1,5/36=2,99/5=2) pseudo=read geom=check guess=(re
 ad,tcheck) scf=(maxcycle=1)\\title\\0,1\C,0,-0.494582,-1.855654,0.\N,0
 ,0.801387,-1.341554,0.\C,0,1.003289,0.010465,0.\C,0,0.,0.951847,0.\N,0
 ,0.543549,2.219652,0.\C,0,1.828513,2.04559,0.\N,0,2.176164,0.698429,0.
 \N,0,-1.483837,-0.891134,0.\C,0,-1.384973,0.528592,0.\O,0,-0.71082,-3.
 0487,0.\H,0,2.579315,2.817576,0.\O,0,-2.386498,1.205693,0.\H,0,-2.4260
 33,-1.254649,0.\H,0,1.54328,-2.02114,0.\H,0,3.107654,0.319474,0.\\Vers

 Normal termination of Gaussian 16 at Sun Apr  6 08:01:18 2025.
