 Gaussian 16, Revision C.01,

 ----------------------------------------------------------------------
 #t hf aug-cc-pvdz symm=none int=(grid=ultrafine) guess=(read,tcheck) s
 table=(opt,rrhf)
 ----------------------------------------------------------------------
 -----
 title
 -----
 Symbolic Z-matrix:
 Charge =  0 Multiplicity = 1

 SCF Done:  E(RHF) =  -484.418805680     A.U. after   16 cycles
 Normal termination of Gaussian 16 at Sun Apr  6 08:00:45 2025.
 Gaussian 16:  ES64L-G16RevC.01  3-Jul-2019

 ----------------------------------------------------------------------
 #t hf aug-cc-pvdz iop(5/13=1,5/36=2,99/5=2) pseudo=read geom=check gue
 ss=(read,tcheck) scf=(maxcycle=1)
 ----------------------------------------------------------------------
 -----
 title
 -----
 Structure from the checkpoint file:  "1H-7H-hypoxanthine.chk"
 Charge =  0 Multiplicity = 1

                         Standard orientation:
 ---------------------------------------------------------------------
 Center     Atomic      Atomic             Coordinates (Angstroms)
 Number     Number       Type             X           Y           Z
 ---------------------------------------------------------------------
      1          6           0       -2.032028    1.358919    0.000000
      2          6           0       -0.000000    0.554262   -0.000000
      3          6           0       -0.943969   -0.466855    0.000000
      4          6           0        0.643022   -2.033412    0.000000
      5          6           0        1.406961    0.316403   -0.000000
      6          7           0       -2.208454    0.057575    0.000000
      7          7           0       -0.625765   -1.795763    0.000000
      8          7           0       -0.718202    1.721541    0.000000
      9          7           0        1.625317   -1.077018   -0.000000
     10          8           0        2.326607    1.119304   -0.000000
     11          1           0       -2.822899    2.090917    0.000000
     12          1           0        0.998376   -3.056608    0.000000
     13          1           0       -0.336554    2.652448   -0.000000
     14          1           0        2.594034   -1.361433   -0.000000
 ---------------------------------------------------------------------

 SCF Done:  E(RHF) =  -486.554209717     A.U. after    2 cycles

 The electronic state is 1-A'.
 Alpha  occ. eigenvalues --  -21.03810 -15.82132 -15.81410 -15.74859 -15.73759
 Alpha  occ. eigenvalues --  -11.54119 -11.49166 -11.48130 -11.46045 -11.41900
 Alpha  occ. eigenvalues --   -1.72437  -1.60234  -1.49043  -1.34704  -1.27879
 Alpha  occ. eigenvalues --   -1.13853  -0.94421  -0.94184  -0.85463  -0.77411
 Alpha  occ. eigenvalues --   -0.73639  -0.70115  -0.66255  -0.64342  -0.58570
 Alpha  occ. eigenvalues --   -0.57953  -0.55244  -0.52051  -0.49925  -0.43593
 Alpha  occ. eigenvalues --   -0.39550  -0.37836  -0.36689  -0.30473  -0.27512
 Alpha virt. eigenvalues --    0.02703   0.04566   0.05653   0.06143   0.08077
 Alpha virt. eigenvalues --    0.08887   0.10056   0.10242   0.11061   0.11586
 Alpha virt. eigenvalues --    0.11975   0.12732   0.13439   0.13487   0.14261

 Mulliken charges:
               1
     1  C    0.672443
     2  C    1.628709
     3  C    3.939975
     4  C    0.828352
     5  C    5.511276
     6  N   -3.448098
     7  N   -3.640523
     8  N   -3.804968
     9  N   -2.785673
    10  O   -3.756675
    11  H    1.608575
    12  H    1.683802
    13  H    0.821735
    14  H    0.741069
 Sum of Mulliken charges =   0.00000

 Dipole moment (field-independent basis, Debye):
    X=              1.7629    Y=              1.4995    Z=             -0.0000  Tot=              2.3144

 Test job not archived.
 1\1\GINC-SE408\SP\RHF\Aug-CC-pVDZ\C5H4N4O1\OHZDE\06-Apr-2025\0\\#t hf
 aug-cc-pvdz iop(5/13=1,5/36=2,99/5=2) pseudo=read geom=check guess=(re
 ad,tcheck) scf=(maxcycle=1)\\title\\0,1\C,0,-2.032028,1.358919,0.\C,0,
 0.,0.554262,0.\C,0,-0.943969,-0.466855,0.\C,0,0.643023,-2.033412,0.\C,
 0,1.406961,0.316403,0.\N,0,-2.208454,0.057574,0.\N,0,-0.625765,-1.7957
 63,0.\N,0,-0.718202,1.721541,0.\N,0,1.625317,-1.077018,0.\O,0,2.326607
 ,1.119304,0.\H,0,-2.822899,2.090916,0.\H,0,0.998377,-3.056608,0.\H,0,-
 0.336554,2.652448,0.\H,0,2.594034,-1.361433,0.\\Version=ES64L-G16RevC.

 Normal termination of Gaussian 16 at Sun Apr  6 08:01:16 2025.
