 Gaussian 16, Revision C.01,

 ----------------------------------------------------------------------
 #t hf aug-cc-pvdz symm=none int=(grid=ultrafine) guess=(read,tcheck) s
 table=(opt,rrhf)
 ----------------------------------------------------------------------
 -----
 title
 -----
 Symbolic Z-matrix:
 Charge =  0 Multiplicity = 1

 SCF Done:  E(RHF) =  -484.391492797     A.U. after   16 cycles
 Normal termination of Gaussian 16 at Sun Apr  6 08:00:43 2025.
 Gaussian 16:  ES64L-G16RevC.01  3-Jul-2019

 ----------------------------------------------------------------------
 #t hf aug-cc-pvdz iop(5/13=1,5/36=2,99/5=2) pseudo=read geom=check gue
 ss=(read,tcheck) scf=(maxcycle=1)
 ----------------------------------------------------------------------
 -----
 title
 -----
 Structure from the checkpoint file:  "1H-8H-allopurinol.chk"
 Charge =  0 Multiplicity = 1

                         Standard orientation:
 ---------------------------------------------------------------------
 Center     Atomic      Atomic             Coordinates (Angstroms)
 Number     Number       Type             X           Y           Z
 ---------------------------------------------------------------------
      1          6           0        0.728933   -1.997108    0.000000
      2          7           0       -0.543008   -1.810437   -0.000000
      3          6           0       -0.914571   -0.487179   -0.000000
      4          6           0        0.000000    0.605212   -0.000000
      5          6           0       -0.793070    1.736321   -0.000000
      6          7           0       -2.058612    1.279355   -0.000000
      7          7           0       -2.176192   -0.065847   -0.000000
      8          7           0        1.685510   -1.008834    0.000000
      9          6           0        1.424753    0.375734    0.000000
     10          1           0        1.120457   -3.007750    0.000000
     11          8           0        2.329973    1.187587    0.000000
     12          1           0       -0.552002    2.784573   -0.000000
     13          1           0        2.661361   -1.265449    0.000000
     14          1           0       -2.899755    1.830394   -0.000000
 ---------------------------------------------------------------------

 SCF Done:  E(RHF) =  -486.533952114     A.U. after    2 cycles

 The electronic state is 1-A'.
 Alpha  occ. eigenvalues --  -21.04191 -15.83767 -15.80601 -15.75613 -15.74453
 Alpha  occ. eigenvalues --  -11.53826 -11.49487 -11.48026 -11.47397 -11.40396
 Alpha  occ. eigenvalues --   -1.72724  -1.63215  -1.49563  -1.33546  -1.18778
 Alpha  occ. eigenvalues --   -1.18286  -0.97922  -0.92537  -0.82855  -0.76754
 Alpha  occ. eigenvalues --   -0.74510  -0.70022  -0.65624  -0.63194  -0.58569
 Alpha  occ. eigenvalues --   -0.57634  -0.55541  -0.52155  -0.49511  -0.44736
 Alpha  occ. eigenvalues --   -0.40033  -0.37690  -0.33806  -0.30411  -0.28660
 Alpha virt. eigenvalues --    0.02745   0.04699   0.05419   0.06295   0.08138
 Alpha virt. eigenvalues --    0.09448   0.09707   0.09937   0.11550   0.11731
 Alpha virt. eigenvalues --    0.12137   0.12827   0.13135   0.14067   0.14326

 Mulliken charges:
               1
     1  C    0.987332
     2  N   -3.609680
     3  C    4.162081
     4  C    1.343020
     5  C   -1.886296
     6  N   -2.157384
     7  N   -2.671356
     8  N   -3.205437
     9  C    6.272315
    10  H    1.696952
    11  O   -3.846602
    12  H    1.200013
    13  H    0.818941
    14  H    0.896101
 Sum of Mulliken charges =  -0.00000

 Dipole moment (field-independent basis, Debye):
    X=              0.3478    Y=              1.3502    Z=              0.0000  Tot=              1.3943

 Test job not archived.
 1\1\GINC-SE408\SP\RHF\Aug-CC-pVDZ\C5H4N4O1\OHZDE\06-Apr-2025\0\\#t hf
 aug-cc-pvdz iop(5/13=1,5/36=2,99/5=2) pseudo=read geom=check guess=(re
 ad,tcheck) scf=(maxcycle=1)\\title\\0,1\C,0,0.728933,-1.997108,0.\N,0,
 -0.543008,-1.810437,0.\C,0,-0.914571,-0.487179,0.\C,0,0.,0.605212,0.\C
 ,0,-0.79307,1.736321,0.\N,0,-2.058612,1.279355,0.\N,0,-2.176192,-0.065
 847,0.\N,0,1.68551,-1.008834,0.\C,0,1.424753,0.375734,0.\H,0,1.120457,
 -3.00775,0.\O,0,2.329973,1.187587,0.\H,0,-0.552002,2.784573,0.\H,0,2.6
 61361,-1.265449,0.\H,0,-2.899755,1.830394,0.\\Version=ES64L-G16RevC.01

 Normal termination of Gaussian 16 at Sun Apr  6 08:01:16 2025.
