 Gaussian 16, Revision C.01,

 ----------------------------------------------------------------------
 #t hf aug-cc-pvdz symm=none int=(grid=ultrafine) guess=(read,tcheck) s
 table=(opt,rrhf)
 ----------------------------------------------------------------------
 -----
 title
 -----
 Symbolic Z-matrix:
 Charge =  0 Multiplicity = 1

 SCF Done:  E(RHF) =  -484.417694317     A.U. after   16 cycles
 Normal termination of Gaussian 16 at Sun Apr  6 08:00:42 2025.
 Gaussian 16:  ES64L-G16RevC.01  3-Jul-2019

 ----------------------------------------------------------------------
 #t hf aug-cc-pvdz iop(5/13=1,5/36=2,99/5=2) pseudo=read geom=check gue
 ss=(read,tcheck) scf=(maxcycle=1)
 ----------------------------------------------------------------------
 -----
 title
 -----
 Structure from the checkpoint file:  "1H-9H-hypoxanthine.chk"
 Charge =  0 Multiplicity = 1

                         Standard orientation:
 ---------------------------------------------------------------------
 Center     Atomic      Atomic             Coordinates (Angstroms)
 Number     Number       Type             X           Y           Z
 ---------------------------------------------------------------------
      1          6           0        0.682278   -2.011975    0.000000
      2          7           0       -0.594186   -1.780881    0.000000
      3          6           0       -0.879403   -0.454202    0.000000
      4          6           0        0.000000    0.622440    0.000000
      5          7           0       -0.689283    1.811813    0.000000
      6          6           0       -1.948126    1.467994    0.000000
      7          7           0       -2.127037    0.103915    0.000000
      8          7           0        1.638326   -1.045896    0.000000
      9          6           0        1.418524    0.367369    0.000000
     10          1           0        1.040118   -3.033903    0.000000
     11          1           0       -2.782873    2.149310    0.000000
     12          1           0       -2.996743   -0.401694    0.000000
     13          8           0        2.361664    1.128525    0.000000
     14          1           0        2.611808   -1.314335    0.000000
 ---------------------------------------------------------------------

 SCF Done:  E(RHF) =  -486.553773834     A.U. after    2 cycles

 The electronic state is 1-A'.
 Alpha  occ. eigenvalues --  -21.03111 -15.81735 -15.81133 -15.75884 -15.73974
 Alpha  occ. eigenvalues --  -11.53389 -11.49833 -11.49166 -11.44702 -11.40792
 Alpha  occ. eigenvalues --   -1.71697  -1.60359  -1.48983  -1.34428  -1.28358
 Alpha  occ. eigenvalues --   -1.13027  -0.94118  -0.93771  -0.86515  -0.76115
 Alpha  occ. eigenvalues --   -0.73090  -0.70866  -0.66147  -0.64146  -0.57775
 Alpha  occ. eigenvalues --   -0.57488  -0.55597  -0.51075  -0.49739  -0.45515
 Alpha  occ. eigenvalues --   -0.38608  -0.37829  -0.37207  -0.29530  -0.26970
 Alpha virt. eigenvalues --    0.02751   0.03959   0.05316   0.05974   0.08365
 Alpha virt. eigenvalues --    0.08639   0.10153   0.10449   0.11097   0.11749
 Alpha virt. eigenvalues --    0.12287   0.12415   0.13608   0.13633   0.14116

 Mulliken charges:
               1
     1  C    0.857065
     2  N   -3.559320
     3  C    3.490817
     4  C    1.438237
     5  N   -3.525899
     6  C    0.693106
     7  N   -3.481396
     8  N   -2.858051
     9  C    5.834349
    10  H    1.652738
    11  H    1.621313
    12  H    0.907065
    13  O   -3.820295
    14  H    0.750270
 Sum of Mulliken charges =  -0.00000

 Dipole moment (field-independent basis, Debye):
    X=             -2.1546    Y=             -3.4192    Z=              0.0000  Tot=              4.0414

 Test job not archived.
 1\1\GINC-SE409\SP\RHF\Aug-CC-pVDZ\C5H4N4O1\OHZDE\06-Apr-2025\0\\#t hf
 aug-cc-pvdz iop(5/13=1,5/36=2,99/5=2) pseudo=read geom=check guess=(re
 ad,tcheck) scf=(maxcycle=1)\\title\\0,1\C,0,0.682278,-2.011975,0.\N,0,
 -0.594186,-1.780881,0.\C,0,-0.879403,-0.454202,0.\C,0,0.,0.62244,0.\N,
 0,-0.689283,1.811813,0.\C,0,-1.948126,1.467994,0.\N,0,-2.127037,0.1039
 15,0.\N,0,1.638326,-1.045896,0.\C,0,1.418524,0.367369,0.\H,0,1.040118,
 -3.033903,0.\H,0,-2.782873,2.14931,0.\H,0,-2.996743,-0.401694,0.\O,0,2
 .361664,1.128525,0.\H,0,2.611808,-1.314335,0.\\Version=ES64L-G16RevC.0

 Normal termination of Gaussian 16 at Sun Apr  6 08:01:16 2025.
