 Gaussian 16, Revision C.01,

 ----------------------------------------------------------------------
 #t hf aug-cc-pvdz symm=none int=(grid=ultrafine) guess=(read,tcheck) s
 table=(opt,rrhf)
 ----------------------------------------------------------------------
 -----
 title
 -----
 Symbolic Z-matrix:
 Charge =  0 Multiplicity = 1

 SCF Done:  E(RHF) =  -484.398987684     A.U. after   16 cycles
 Normal termination of Gaussian 16 at Sun Apr  6 08:00:46 2025.
 Gaussian 16:  ES64L-G16RevC.01  3-Jul-2019

 ----------------------------------------------------------------------
 #t hf aug-cc-pvdz iop(5/13=1,5/36=2,99/5=2) pseudo=read geom=check gue
 ss=(read,tcheck) scf=(maxcycle=1)
 ----------------------------------------------------------------------
 -----
 title
 -----
 Structure from the checkpoint file:  "1H-9H-allopurinol.chk"
 Charge =  0 Multiplicity = 1

                         Standard orientation:
 ---------------------------------------------------------------------
 Center     Atomic      Atomic             Coordinates (Angstroms)
 Number     Number       Type             X           Y           Z
 ---------------------------------------------------------------------
      1          6           0        0.743618   -1.988841    0.000000
      2          7           0       -0.536382   -1.791562   -0.000000
      3          6           0       -0.865081   -0.470779   -0.000000
      4          6           0       -0.000000    0.626262   -0.000000
      5          6           0       -0.849694    1.757502   -0.000000
      6          7           0       -2.119175    1.395232   -0.000000
      7          7           0       -2.113501    0.036902   -0.000000
      8          7           0        1.682928   -1.003258    0.000000
      9          6           0        1.418760    0.396955    0.000000
     10          1           0        1.125544   -3.002395    0.000000
     11          8           0        2.336731    1.192002    0.000000
     12          1           0       -0.582351    2.800421   -0.000000
     13          1           0        2.661588   -1.251117    0.000000
     14          1           0       -2.981334   -0.470717   -0.000000
 ---------------------------------------------------------------------

 SCF Done:  E(RHF) =  -486.540487025     A.U. after    2 cycles

 The electronic state is 1-A'.
 Alpha  occ. eigenvalues --  -21.04129 -15.81915 -15.81784 -15.76599 -15.76299
 Alpha  occ. eigenvalues --  -11.54074 -11.51038 -11.50354 -11.45395 -11.39998
 Alpha  occ. eigenvalues --   -1.72818  -1.63043  -1.50639  -1.34549  -1.20378
 Alpha  occ. eigenvalues --   -1.17108  -0.95775  -0.94174  -0.85577  -0.76559
 Alpha  occ. eigenvalues --   -0.72911  -0.70176  -0.66351  -0.63162  -0.58908
 Alpha  occ. eigenvalues --   -0.58552  -0.56351  -0.52030  -0.50079  -0.42865
 Alpha  occ. eigenvalues --   -0.40160  -0.39926  -0.35271  -0.30638  -0.28492
 Alpha virt. eigenvalues --    0.02723   0.04895   0.05707   0.06146   0.08450
 Alpha virt. eigenvalues --    0.08598   0.09971   0.11182   0.11221   0.11510
 Alpha virt. eigenvalues --    0.11785   0.12641   0.12991   0.13782   0.14755

 Mulliken charges:
               1
     1  C    0.975345
     2  N   -3.735366
     3  C    4.551182
     4  C    1.066508
     5  C   -1.757020
     6  N   -1.892256
     7  N   -3.172844
     8  N   -3.125610
     9  C    6.205127
    10  H    1.673578
    11  O   -3.929473
    12  H    1.324544
    13  H    0.802451
    14  H    1.013835
 Sum of Mulliken charges =   0.00000

 Dipole moment (field-independent basis, Debye):
    X=              0.5623    Y=             -3.0889    Z=              0.0000  Tot=              3.1397

 Test job not archived.
 1\1\GINC-SE409\SP\RHF\Aug-CC-pVDZ\C5H4N4O1\OHZDE\06-Apr-2025\0\\#t hf
 aug-cc-pvdz iop(5/13=1,5/36=2,99/5=2) pseudo=read geom=check guess=(re
 ad,tcheck) scf=(maxcycle=1)\\title\\0,1\C,0,0.743618,-1.988841,0.\N,0,
 -0.536382,-1.791562,0.\C,0,-0.865081,-0.470779,0.\C,0,0.,0.626262,0.\C
 ,0,-0.849694,1.757502,0.\N,0,-2.119175,1.395232,0.\N,0,-2.113501,0.036
 902,0.\N,0,1.682928,-1.003258,0.\C,0,1.41876,0.396955,0.\H,0,1.125544,
 -3.002395,0.\O,0,2.336731,1.192002,0.\H,0,-0.582351,2.800421,0.\H,0,2.
 661588,-1.251117,0.\H,0,-2.981334,-0.470717,0.\\Version=ES64L-G16RevC.

 Normal termination of Gaussian 16 at Sun Apr  6 08:01:16 2025.
