 Gaussian 16, Revision C.01,

 ----------------------------------------------------------------------
 #t hf aug-cc-pvdz symm=none int=(grid=ultrafine) guess=(read,tcheck) s
 table=(opt,rrhf)
 ----------------------------------------------------------------------
 -----
 title
 -----
 Symbolic Z-matrix:
 Charge =  0 Multiplicity = 1

 SCF Done:  E(RHF) =  -377.522182451     A.U. after   15 cycles
 Normal termination of Gaussian 16 at Sun Apr  6 08:00:49 2025.
 Gaussian 16:  ES64L-G16RevC.01  3-Jul-2019

 ----------------------------------------------------------------------
 #t hf aug-cc-pvdz iop(5/13=1,5/36=2,99/5=2) pseudo=read geom=check gue
 ss=(read,tcheck) scf=(maxcycle=1)
 ----------------------------------------------------------------------
 -----
 title
 -----
 Structure from the checkpoint file:  "1H-benzimidazole.chk"
 Charge =  0 Multiplicity = 1

                         Standard orientation:
 ---------------------------------------------------------------------
 Center     Atomic      Atomic             Coordinates (Angstroms)
 Number     Number       Type             X           Y           Z
 ---------------------------------------------------------------------
      1          6           0        2.223779   -0.070950    0.000000
      2          6           0        1.362423    1.015554    0.000000
      3          6           0       -0.000000    0.733827    0.000000
      4          6           0       -0.501452   -0.584713    0.000000
      5          7           0       -1.888696   -0.569217    0.000000
      6          6           0       -2.211130    0.692186    0.000000
      7          7           0       -1.126415    1.533371    0.000000
      8          6           0        0.383372   -1.663536    0.000000
      9          6           0        1.741213   -1.390393    0.000000
     10          1           0        3.291494    0.100590    0.000000
     11          1           0        1.739293    2.029395    0.000000
     12          1           0       -3.218802    1.076717    0.000000
     13          1           0       -1.153964    2.537179    0.000000
     14          1           0        0.008732   -2.677482    0.000000
     15          1           0        2.449793   -2.207335    0.000000
 ---------------------------------------------------------------------

 SCF Done:  E(RHF) =  -379.283667280     A.U. after    2 cycles

 The electronic state is 1-A'.
 Alpha  occ. eigenvalues --  -15.79850 -15.72207 -11.51571 -11.44905 -11.43727
 Alpha  occ. eigenvalues --  -11.43179 -11.41048 -11.40524 -11.36374  -1.57365
 Alpha  occ. eigenvalues --   -1.29538  -1.28086  -1.08324  -1.07221  -0.89252
 Alpha  occ. eigenvalues --   -0.86205  -0.82994  -0.73539  -0.67191  -0.65910
 Alpha  occ. eigenvalues --   -0.61379  -0.59434  -0.56628  -0.53146  -0.47069
 Alpha  occ. eigenvalues --   -0.46730  -0.46492  -0.41079  -0.38007  -0.29771
 Alpha  occ. eigenvalues --   -0.28962
 Alpha virt. eigenvalues --    0.03116   0.04393   0.04826   0.05859   0.06543
 Alpha virt. eigenvalues --    0.07197   0.09591   0.10329   0.10994   0.12546
 Alpha virt. eigenvalues --    0.12892   0.13014   0.13618   0.13902   0.14334

 Mulliken charges:
               1
     1  C   -1.819694
     2  C   -2.672738
     3  C    3.207830
     4  C    2.929619
     5  N   -3.706208
     6  C    0.879739
     7  N   -3.969102
     8  C   -1.857713
     9  C   -1.671518
    10  H    1.476456
    11  H    1.552744
    12  H    1.625511
    13  H    0.822845
    14  H    1.666019
    15  H    1.536209
 Sum of Mulliken charges =   0.00000

 Dipole moment (field-independent basis, Debye):
    X=              0.1432    Y=              3.2840    Z=              0.0000  Tot=              3.2871

 Test job not archived.
 1\1\GINC-SE410\SP\RHF\Aug-CC-pVDZ\C7H6N2\OHZDE\06-Apr-2025\0\\#t hf au
 g-cc-pvdz iop(5/13=1,5/36=2,99/5=2) pseudo=read geom=check guess=(read
 ,tcheck) scf=(maxcycle=1)\\title\\0,1\C,0,2.223779,-0.07095,0.\C,0,1.3
 62423,1.015554,0.\C,0,0.,0.733827,0.\C,0,-0.501452,-0.584713,0.\N,0,-1
 .888696,-0.569217,0.\C,0,-2.21113,0.692186,0.\N,0,-1.126415,1.533371,0
 .\C,0,0.383372,-1.663536,0.\C,0,1.741213,-1.390393,0.\H,0,3.291494,0.1
 0059,0.\H,0,1.739293,2.029395,0.\H,0,-3.218802,1.076717,0.\H,0,-1.1539
 64,2.537179,0.\H,0,0.008732,-2.677482,0.\H,0,2.449793,-2.207335,0.\\Ve

 Normal termination of Gaussian 16 at Sun Apr  6 08:01:16 2025.
