 Gaussian 16, Revision C.01,

 ----------------------------------------------------------------------
 #t hf aug-cc-pvdz symm=none int=(grid=ultrafine) guess=(read,tcheck) s
 table=(opt,rrhf)
 ----------------------------------------------------------------------
 -----
 title
 -----
 Symbolic Z-matrix:
 Charge =  0 Multiplicity = 1

 SCF Done:  E(RHF) =  -224.848157193     A.U. after   14 cycles
 Normal termination of Gaussian 16 at Sun Apr  6 07:59:54 2025.
 Gaussian 16:  ES64L-G16RevC.01  3-Jul-2019

 ----------------------------------------------------------------------
 #t hf aug-cc-pvdz iop(5/13=1,5/36=2,99/5=2) pseudo=read geom=check gue
 ss=(read,tcheck) scf=(maxcycle=1)
 ----------------------------------------------------------------------
 -----
 title
 -----
 Structure from the checkpoint file:  "1H-imidazole.chk"
 Charge =  0 Multiplicity = 1

                         Standard orientation:
 ---------------------------------------------------------------------
 Center     Atomic      Atomic             Coordinates (Angstroms)
 Number     Number       Type             X           Y           Z
 ---------------------------------------------------------------------
      1          6           0        0.635171   -0.982628    0.000000
      2          6           0        1.116435    0.296921    0.000000
      3          6           0       -1.089077    0.282717    0.000000
      4          7           0       -0.739829   -0.979874    0.000000
      5          7           0        0.000000    1.101780    0.000000
      6          1           0        1.196253   -1.901176    0.000000
      7          1           0        2.113523    0.697918    0.000000
      8          1           0       -2.097453    0.661493    0.000000
      9          1           0       -0.008690    2.106362    0.000000
 ---------------------------------------------------------------------

 SCF Done:  E(RHF) =  -225.888050279     A.U. after    2 cycles

 The electronic state is 1-A'.
 Alpha  occ. eigenvalues --  -15.79992 -15.71503 -11.43727 -11.41956 -11.37226
 Alpha  occ. eigenvalues --   -1.55998  -1.26543  -1.07833  -0.84796  -0.80592
 Alpha  occ. eigenvalues --   -0.76505  -0.59534  -0.57302  -0.56433  -0.53422
 Alpha  occ. eigenvalues --   -0.38340  -0.36663  -0.30653
 Alpha virt. eigenvalues --    0.03129   0.05040   0.05454   0.06064   0.10494
 Alpha virt. eigenvalues --    0.10887   0.11592   0.12195   0.13147   0.13741
 Alpha virt. eigenvalues --    0.15005   0.15402   0.16173   0.17035   0.18686

 Mulliken charges:
               1
     1  C    0.286363
     2  C   -0.162615
     3  C    1.303713
     4  N   -3.169153
     5  N   -2.947388
     6  H    1.236579
     7  H    1.114532
     8  H    1.524693
     9  H    0.813276
 Sum of Mulliken charges =  -0.00000

 Dipole moment (field-independent basis, Debye):
    X=              0.9537    Y=              3.3883    Z=              0.0000  Tot=              3.5200

 Test job not archived.
 1\1\GINC-SE410\SP\RHF\Aug-CC-pVDZ\C3H4N2\OHZDE\06-Apr-2025\0\\#t hf au
 g-cc-pvdz iop(5/13=1,5/36=2,99/5=2) pseudo=read geom=check guess=(read
 ,tcheck) scf=(maxcycle=1)\\title\\0,1\C,0,0.635171,-0.982628,0.\C,0,1.
 116435,0.296921,0.\C,0,-1.089077,0.282717,0.\N,0,-0.739829,-0.979874,0
 .\N,0,0.,1.10178,0.\H,0,1.196253,-1.901176,0.\H,0,2.113523,0.697918,0.
 \H,0,-2.097453,0.661493,0.\H,0,-0.00869,2.106362,0.\\Version=ES64L-G16
 RevC.01\State=1-A'\HF=-225.8880503\RMSD=5.745e-01\Dipole=0.3752036,1.3
 330778,0.\Quadrupole=0.9603168,1.896724,-2.8570408,-2.3220379,0.,0.\PG

 Normal termination of Gaussian 16 at Sun Apr  6 07:59:58 2025.
