 Gaussian 16, Revision C.01,

 ----------------------------------------------------------------------
 #t hf aug-cc-pvdz symm=none int=(grid=ultrafine) guess=(read,tcheck) s
 table=(opt,rrhf)
 ----------------------------------------------------------------------
 -----
 title
 -----
 Symbolic Z-matrix:
 Charge =  0 Multiplicity = 1

 SCF Done:  E(RHF) =  -361.511245963     A.U. after   17 cycles
 Normal termination of Gaussian 16 at Sun Apr  6 08:00:47 2025.
 Gaussian 16:  ES64L-G16RevC.01  3-Jul-2019

 ----------------------------------------------------------------------
 #t hf aug-cc-pvdz iop(5/13=1,5/36=2,99/5=2) pseudo=read geom=check gue
 ss=(read,tcheck) scf=(maxcycle=1)
 ----------------------------------------------------------------------
 -----
 title
 -----
 Structure from the checkpoint file:  "1H-indole.chk"
 Charge =  0 Multiplicity = 1

                         Standard orientation:
 ---------------------------------------------------------------------
 Center     Atomic      Atomic             Coordinates (Angstroms)
 Number     Number       Type             X           Y           Z
 ---------------------------------------------------------------------
      1          6           0        1.780721   -1.390068    0.000000
      2          6           0        2.244479   -0.063173    0.000000
      3          6           0        0.427376   -1.674703    0.000000
      4          6           0        1.363098    1.004249    0.000000
      5          6           0       -1.922320   -0.531592    0.000000
      6          6           0       -2.246341    0.794059    0.000000
      7          6           0       -0.491170   -0.616487    0.000000
      8          6           0        0.000000    0.713959    0.000000
      9          7           0       -1.093515    1.551035    0.000000
     10          1           0        2.498544   -2.199111    0.000000
     11          1           0        3.309164    0.126773    0.000000
     12          1           0        0.081991   -2.700230    0.000000
     13          1           0        1.723021    2.024849    0.000000
     14          1           0       -2.621351   -1.350213    0.000000
     15          1           0       -3.211971    1.269781    0.000000
     16          1           0       -1.059845    2.553449    0.000000
 ---------------------------------------------------------------------

 SCF Done:  E(RHF) =  -363.231334304     A.U. after    2 cycles

 The electronic state is 1-A'.
 Alpha  occ. eigenvalues --  -15.78041 -11.50251 -11.45387 -11.43776 -11.42113
 Alpha  occ. eigenvalues --  -11.40885 -11.40252 -11.38631 -11.35655  -1.51301
 Alpha  occ. eigenvalues --   -1.28089  -1.14871  -1.06594  -1.03630  -0.87836
 Alpha  occ. eigenvalues --   -0.83405  -0.81278  -0.72569  -0.66024  -0.64817
 Alpha  occ. eigenvalues --   -0.58183  -0.58050  -0.55794  -0.53144  -0.51118
 Alpha  occ. eigenvalues --   -0.45531  -0.45113  -0.42640  -0.37580  -0.28674
 Alpha  occ. eigenvalues --   -0.26408
 Alpha virt. eigenvalues --    0.03409   0.04548   0.04768   0.05899   0.06398
 Alpha virt. eigenvalues --    0.07139   0.07176   0.10372   0.10519   0.11797
 Alpha virt. eigenvalues --    0.12432   0.13165   0.13237   0.13341   0.14025

 Mulliken charges:
               1
     1  C   -2.366575
     2  C   -1.830795
     3  C    1.001707
     4  C   -4.094378
     5  C   -2.575129
     6  C   -1.257443
     7  C    3.547178
     8  C    2.699605
     9  N   -4.542727
    10  H    1.517816
    11  H    1.461275
    12  H    1.609861
    13  H    1.602652
    14  H    1.207977
    15  H    1.273460
    16  H    0.745516
 Sum of Mulliken charges =   0.00000

 Dipole moment (field-independent basis, Debye):
    X=             -0.8925    Y=              2.0050    Z=              0.0000  Tot=              2.1946

 Test job not archived.
 1\1\GINC-SE289\SP\RHF\Aug-CC-pVDZ\C8H7N1\OHZDE\06-Apr-2025\0\\#t hf au
 g-cc-pvdz iop(5/13=1,5/36=2,99/5=2) pseudo=read geom=check guess=(read
 ,tcheck) scf=(maxcycle=1)\\title\\0,1\C,0,1.780721,-1.390068,0.\C,0,2.
 244479,-0.063173,0.\C,0,0.427376,-1.674703,0.\C,0,1.363098,1.004249,0.
 \C,0,-1.92232,-0.531592,0.\C,0,-2.246341,0.794059,0.\C,0,-0.49117,-0.6
 16487,0.\C,0,0.,0.713959,0.\N,0,-1.093515,1.551035,0.\H,0,2.498544,-2.
 199111,0.\H,0,3.309164,0.126774,0.\H,0,0.081991,-2.70023,0.\H,0,1.7230
 21,2.024849,0.\H,0,-2.621351,-1.350213,0.\H,0,-3.211971,1.269781,0.\H,

 Normal termination of Gaussian 16 at Sun Apr  6 08:01:17 2025.
