 Gaussian 16, Revision C.01,

 ----------------------------------------------------------------------
 #t hf aug-cc-pvdz symm=none int=(grid=ultrafine) guess=(read,tcheck) s
 table=(opt,rrhf)
 ----------------------------------------------------------------------
 -----
 title
 -----
 Symbolic Z-matrix:
 Charge =  0 Multiplicity = 1

 SCF Done:  E(RHF) =  -345.499926368     A.U. after   16 cycles
 Normal termination of Gaussian 16 at Sun Apr  6 08:00:53 2025.
 Gaussian 16:  ES64L-G16RevC.01  3-Jul-2019

 ----------------------------------------------------------------------
 #t hf aug-cc-pvdz iop(5/13=1,5/36=2,99/5=2) pseudo=read geom=check gue
 ss=(read,tcheck) scf=(maxcycle=1)
 ----------------------------------------------------------------------
 -----
 title
 -----
 Structure from the checkpoint file:  "1H-indene.chk"
 Charge =  0 Multiplicity = 1

                         Standard orientation:
 ---------------------------------------------------------------------
 Center     Atomic      Atomic             Coordinates (Angstroms)
 Number     Number       Type             X           Y           Z
 ---------------------------------------------------------------------
      1          6           0       -1.855229   -1.337950    0.000000
      2          6           0       -0.499088   -1.653073    0.000000
      3          6           0        0.428036   -0.615933    0.000000
      4          6           0        0.000000    0.724298    0.000000
      5          6           0        1.213119    1.619187    0.000000
      6          6           0        1.890304   -0.626401    0.000000
      7          6           0        2.352575    0.633211    0.000000
      8          6           0       -1.348795    1.031328    0.000000
      9          6           0       -2.277760   -0.010338    0.000000
     10          1           0       -2.590250   -2.131799    0.000000
     11          1           0       -0.176462   -2.686234    0.000000
     12          1           0        1.242418    2.275992    0.875487
     13          1           0        1.242418    2.275992   -0.875487
     14          1           0        2.494096   -1.522542    0.000000
     15          1           0        3.391246    0.927949    0.000000
     16          1           0       -1.686610    2.060169    0.000000
     17          1           0       -3.335828    0.214508    0.000000
 ---------------------------------------------------------------------

 SCF Done:  E(RHF) =  -347.171436621     A.U. after    2 cycles

 The electronic state is 1-A'.
 Alpha  occ. eigenvalues --  -11.50411 -11.46207 -11.44471 -11.42239 -11.41541
 Alpha  occ. eigenvalues --  -11.40711 -11.39924 -11.38674 -11.35706  -1.39980
 Alpha  occ. eigenvalues --   -1.22568  -1.10725  -1.03176  -0.99941  -0.86476
 Alpha  occ. eigenvalues --   -0.81966  -0.78563  -0.69424  -0.64224  -0.63430
 Alpha  occ. eigenvalues --   -0.60408  -0.56740  -0.53477  -0.50349  -0.49079
 Alpha  occ. eigenvalues --   -0.47608  -0.43432  -0.41643  -0.39597  -0.31944
 Alpha  occ. eigenvalues --   -0.28055
 Alpha virt. eigenvalues --    0.03491   0.04758   0.04933   0.05895   0.06461
 Alpha virt. eigenvalues --    0.06603   0.06710   0.07147   0.09070   0.10817
 Alpha virt. eigenvalues --    0.11236   0.12383   0.12790   0.12923   0.13619

 Mulliken charges:
               1
     1  C   -2.565281
     2  C   -0.013060
     3  C    4.052682
     4  C    3.647517
     5  C   -7.339252
     6  C   -1.642803
     7  C   -3.615829
     8  C   -1.174136
     9  C   -2.344306
    10  H    1.515725
    11  H    1.679912
    12  H    0.909539
    13  H    0.909539
    14  H    1.367306
    15  H    1.301051
    16  H    1.792648
    17  H    1.518749
 Sum of Mulliken charges =  -0.00000

 Dipole moment (field-independent basis, Debye):
    X=              0.4612    Y=              0.4749    Z=              0.0000  Tot=              0.6620

 Test job not archived.
 1\1\GINC-SE292\SP\RHF\Aug-CC-pVDZ\C9H8\OHZDE\06-Apr-2025\0\\#t hf aug-
 cc-pvdz iop(5/13=1,5/36=2,99/5=2) pseudo=read geom=check guess=(read,t
 check) scf=(maxcycle=1)\\title\\0,1\C,0,-1.855229,-1.33795,0.\C,0,-0.4
 99088,-1.653073,0.\C,0,0.428036,-0.615933,0.\C,0,0.,0.724298,0.\C,0,1.
 213119,1.619187,0.\C,0,1.890304,-0.626401,0.\C,0,2.352575,0.633211,0.\
 C,0,-1.348795,1.031328,0.\C,0,-2.27776,-0.010338,0.\H,0,-2.59025,-2.13
 1799,0.\H,0,-0.176462,-2.686234,0.\H,0,1.242418,2.275992,0.875487\H,0,
 1.242418,2.275992,-0.875487\H,0,2.494096,-1.522542,0.\H,0,3.391246,0.9

 Normal termination of Gaussian 16 at Sun Apr  6 08:01:17 2025.
