 Gaussian 16, Revision C.01,

 ----------------------------------------------------------------------
 #t hf aug-cc-pvdz symm=none int=(grid=ultrafine) guess=(read,tcheck) s
 table=(opt,rrhf)
 ----------------------------------------------------------------------
 -----
 title
 -----
 Symbolic Z-matrix:
 Charge =  0 Multiplicity = 1

 SCF Done:  E(RHF) =  -337.602888055     A.U. after   15 cycles
 Normal termination of Gaussian 16 at Sun Apr  6 08:00:00 2025.
 Gaussian 16:  ES64L-G16RevC.01  3-Jul-2019

 ----------------------------------------------------------------------
 #t hf aug-cc-pvdz iop(5/13=1,5/36=2,99/5=2) pseudo=read geom=check gue
 ss=(read,tcheck) scf=(maxcycle=1)
 ----------------------------------------------------------------------
 -----
 title
 -----
 Structure from the checkpoint file:  "1H-pyrimidin-4-one.chk"
 Charge =  0 Multiplicity = 1

                         Standard orientation:
 ---------------------------------------------------------------------
 Center     Atomic      Atomic             Coordinates (Angstroms)
 Number     Number       Type             X           Y           Z
 ---------------------------------------------------------------------
      1          6           0        1.223728    0.268149    0.000000
      2          6           0        1.156706   -1.073788   -0.000000
      3          6           0       -1.203480   -0.921610   -0.000000
      4          6           0       -0.000000    1.076085    0.000000
      5          7           0       -1.223091    0.359317    0.000000
      6          7           0       -0.072567   -1.688836   -0.000000
      7          8           0        0.011892    2.291393    0.000000
      8          1           0        2.174691    0.778052    0.000000
      9          1           0        2.019381   -1.723884   -0.000000
     10          1           0       -2.135162   -1.480194   -0.000000
     11          1           0       -0.146168   -2.691497   -0.000000
 ---------------------------------------------------------------------

 SCF Done:  E(RHF) =  -339.096793529     A.U. after    2 cycles

 The electronic state is 1-A'.
 Alpha  occ. eigenvalues --  -21.01537 -15.82729 -15.73476 -11.49929 -11.48809
 Alpha  occ. eigenvalues --  -11.48154 -11.39960  -1.69125  -1.53215  -1.32101
 Alpha  occ. eigenvalues --   -1.16960  -0.94642  -0.90780  -0.79590  -0.69069
 Alpha  occ. eigenvalues --   -0.66701  -0.62676  -0.61851  -0.57442  -0.48356
 Alpha  occ. eigenvalues --   -0.47382  -0.41775  -0.38785  -0.28068  -0.27092
 Alpha virt. eigenvalues --    0.01836   0.03851   0.04531   0.06575   0.09053
 Alpha virt. eigenvalues --    0.09427   0.09630   0.10399   0.11736   0.12934
 Alpha virt. eigenvalues --    0.13136   0.13649   0.14439   0.14868   0.15368

 Mulliken charges:
               1
     1  C   -0.872048
     2  C    0.073276
     3  C    1.224163
     4  C    3.837546
     5  N   -3.079703
     6  N   -3.134718
     7  O   -3.387395
     8  H    1.432188
     9  H    1.431629
    10  H    1.690526
    11  H    0.784537
 Sum of Mulliken charges =   0.00000

 Dipole moment (field-independent basis, Debye):
    X=              1.3007    Y=             -6.3458    Z=             -0.0000  Tot=              6.4777

 Test job not archived.
 1\1\GINC-SE291\SP\RHF\Aug-CC-pVDZ\C4H4N2O1\OHZDE\06-Apr-2025\0\\#t hf
 aug-cc-pvdz iop(5/13=1,5/36=2,99/5=2) pseudo=read geom=check guess=(re
 ad,tcheck) scf=(maxcycle=1)\\title\\0,1\C,0,1.223728,0.268149,0.\C,0,1
 .156706,-1.073788,0.\C,0,-1.20348,-0.92161,0.\C,0,0.,1.076085,0.\N,0,-
 1.223091,0.359317,0.\N,0,-0.072567,-1.688836,0.\O,0,0.011892,2.291393,
 0.\H,0,2.174691,0.778052,0.\H,0,2.019381,-1.723884,0.\H,0,-2.135162,-1
 .480194,0.\H,0,-0.146168,-2.691497,0.\\Version=ES64L-G16RevC.01\State=
 1-A'\HF=-339.0967935\RMSD=6.893e-01\Dipole=0.5117219,-2.4966144,0.\Qua

 Normal termination of Gaussian 16 at Sun Apr  6 08:00:04 2025.
