 Gaussian 16, Revision C.01,

 ----------------------------------------------------------------------
 #t hf aug-cc-pvdz symm=none int=(grid=ultrafine) guess=(read,tcheck) s
 table=(opt,rrhf)
 ----------------------------------------------------------------------
 -----
 title
 -----
 Symbolic Z-matrix:
 Charge =  0 Multiplicity = 1

 SCF Done:  E(RHF) =  -318.873176107     A.U. after   15 cycles
 Normal termination of Gaussian 16 at Sun Apr  6 08:00:12 2025.
 Gaussian 16:  ES64L-G16RevC.01  3-Jul-2019

 ----------------------------------------------------------------------
 #t hf aug-cc-pvdz iop(5/13=1,5/36=2,99/5=2) pseudo=read geom=check gue
 ss=(read,tcheck) scf=(maxcycle=1)
 ----------------------------------------------------------------------
 -----
 title
 -----
 Structure from the checkpoint file:  "1H-pyrrol-3-ylhydrazine.chk"
 Charge =  0 Multiplicity = 1

                         Standard orientation:
 ---------------------------------------------------------------------
 Center     Atomic      Atomic             Coordinates (Angstroms)
 Number     Number       Type             X           Y           Z
 ---------------------------------------------------------------------
      1          6           0       -0.375827    1.083218   -0.143727
      2          6           0       -1.730720    0.914545    0.013207
      3          6           0       -0.800510   -1.127958    0.050865
      4          6           0        0.213730   -0.211135   -0.126043
      5          7           0       -1.984695   -0.422966    0.119352
      6          7           0        2.473612    0.408232    0.261342
      7          7           0        1.571203   -0.508797   -0.347613
      8          1           0        0.147064    2.015954   -0.252645
      9          1           0       -2.523634    1.639838    0.060015
     10          1           0       -0.779966   -2.201879    0.108656
     11          1           0       -2.889932   -0.832811    0.250080
     12          1           0        3.335494    0.406023   -0.266084
     13          1           0        2.672619    0.160352    1.227596
     14          1           0        1.777472   -1.474780   -0.124995
 ---------------------------------------------------------------------

 SCF Done:  E(RHF) =  -320.377312940     A.U. after    2 cycles

 The electronic state is 1-A.
 Alpha  occ. eigenvalues --  -15.77291 -15.75043 -15.74249 -11.45155 -11.41221
 Alpha  occ. eigenvalues --  -11.39256 -11.34099  -1.51285  -1.43383  -1.16442
 Alpha  occ. eigenvalues --   -1.07023  -1.00113  -0.81751  -0.76470  -0.72840
 Alpha  occ. eigenvalues --   -0.66779  -0.64910  -0.56620  -0.54851  -0.54538
 Alpha  occ. eigenvalues --   -0.51134  -0.47096  -0.41439  -0.37358  -0.29328
 Alpha  occ. eigenvalues --   -0.24876
 Alpha virt. eigenvalues --    0.03725   0.05104   0.05259   0.05628   0.06385
 Alpha virt. eigenvalues --    0.06625   0.08301   0.10972   0.11270   0.12429
 Alpha virt. eigenvalues --    0.14211   0.14520   0.14685   0.15004   0.15662

 Mulliken charges:
               1
     1  C   -1.716370
     2  C   -0.206426
     3  C   -1.431186
     4  C    4.311731
     5  N   -3.454679
     6  N   -1.883339
     7  N   -2.678743
     8  H    1.551891
     9  H    1.304869
    10  H    1.343058
    11  H    0.765468
    12  H    0.690248
    13  H    0.600724
    14  H    0.802754
 Sum of Mulliken charges =  -0.00000

 Dipole moment (field-independent basis, Debye):
    X=             -0.5422    Y=             -1.5844    Z=              1.0005  Tot=              1.9507

 Test job not archived.
 1\1\GINC-SE291\SP\RHF\Aug-CC-pVDZ\C4H7N3\OHZDE\06-Apr-2025\0\\#t hf au
 g-cc-pvdz iop(5/13=1,5/36=2,99/5=2) pseudo=read geom=check guess=(read
 ,tcheck) scf=(maxcycle=1)\\title\\0,1\C,0,-0.375827,1.083218,-0.143727
 \C,0,-1.73072,0.914545,0.013207\C,0,-0.80051,-1.127958,0.050865\C,0,0.
 21373,-0.211135,-0.126043\N,0,-1.984695,-0.422966,0.119352\N,0,2.47361
 2,0.408232,0.261342\N,0,1.571203,-0.508797,-0.347613\H,0,0.147064,2.01
 5954,-0.252645\H,0,-2.523634,1.639838,0.060015\H,0,-0.779966,-2.201879
 ,0.108656\H,0,-2.889932,-0.832811,0.25008\H,0,3.335494,0.406023,-0.266

 Normal termination of Gaussian 16 at Sun Apr  6 08:00:16 2025.
