 Gaussian 16, Revision C.01,

 ----------------------------------------------------------------------
 #t hf aug-cc-pvdz symm=none int=(grid=ultrafine) guess=(read,tcheck) s
 table=(opt,rrhf)
 ----------------------------------------------------------------------
 -----
 title
 -----
 Symbolic Z-matrix:
 Charge =  0 Multiplicity = 1

 SCF Done:  E(RHF) =  -376.658630706     A.U. after   15 cycles
 Normal termination of Gaussian 16 at Sun Apr  6 08:00:23 2025.
 Gaussian 16:  ES64L-G16RevC.01  3-Jul-2019

 ----------------------------------------------------------------------
 #t hf aug-cc-pvdz iop(5/13=1,5/36=2,99/5=2) pseudo=read geom=check gue
 ss=(read,tcheck) scf=(maxcycle=1)
 ----------------------------------------------------------------------
 -----
 title
 -----
 Structure from the checkpoint file:  "1H-pyrrole-3-carboxamide.chk"
 Charge =  0 Multiplicity = 1

                         Standard orientation:
 ---------------------------------------------------------------------
 Center     Atomic      Atomic             Coordinates (Angstroms)
 Number     Number       Type             X           Y           Z
 ---------------------------------------------------------------------
      1          6           0       -0.828503    1.164117   -0.040476
      2          6           0       -2.134122    0.751924   -0.019718
      3          6           0       -0.858343   -1.090763    0.034212
      4          6           0       -0.008337   -0.005922   -0.006066
      5          6           0        1.460971   -0.144754   -0.008282
      6          7           0       -2.135628   -0.622343    0.026759
      7          7           0        2.177223    1.021662    0.019301
      8          8           0        2.017893   -1.232462   -0.050329
      9          1           0       -0.508559    2.191256   -0.090948
     10          1           0       -3.051869    1.312081   -0.038511
     11          1           0       -0.625407   -2.139469    0.067307
     12          1           0       -2.958272   -1.197272    0.051277
     13          1           0        1.744712    1.904010    0.219798
     14          1           0        3.175101    0.946245    0.113271
 ---------------------------------------------------------------------

 SCF Done:  E(RHF) =  -378.367925717     A.U. after    2 cycles

 The electronic state is 1-A.
 Alpha  occ. eigenvalues --  -21.00614 -15.80374 -15.76674 -11.50518 -11.46328
 Alpha  occ. eigenvalues --  -11.44165 -11.41517 -11.37273  -1.69061  -1.51368
 Alpha  occ. eigenvalues --   -1.33287  -1.15310  -1.06668  -0.90201  -0.82721
 Alpha  occ. eigenvalues --   -0.77330  -0.74780  -0.68696  -0.58846  -0.58032
 Alpha  occ. eigenvalues --   -0.57599  -0.55132  -0.52192  -0.50892  -0.45878
 Alpha  occ. eigenvalues --   -0.34408  -0.32207  -0.28667  -0.27500
 Alpha virt. eigenvalues --    0.03025   0.04539   0.04826   0.05882   0.06917
 Alpha virt. eigenvalues --    0.08326   0.09383   0.10735   0.11507   0.11878
 Alpha virt. eigenvalues --    0.12624   0.13437   0.13835   0.14102   0.14837

 Mulliken charges:
               1
     1  C   -2.193960
     2  C   -1.325257
     3  C   -1.876459
     4  C    3.413445
     5  C    6.526516
     6  N   -3.624643
     7  N   -3.473366
     8  O   -3.693574
     9  H    1.484191
    10  H    1.183016
    11  H    1.244511
    12  H    0.761025
    13  H    0.744472
    14  H    0.830082
 Sum of Mulliken charges =  -0.00000

 Dipole moment (field-independent basis, Debye):
    X=             -3.0764    Y=              1.0745    Z=              0.4382  Tot=              3.2880

 Test job not archived.
 1\1\GINC-SE298\SP\RHF\Aug-CC-pVDZ\C5H6N2O1\OHZDE\06-Apr-2025\0\\#t hf
 aug-cc-pvdz iop(5/13=1,5/36=2,99/5=2) pseudo=read geom=check guess=(re
 ad,tcheck) scf=(maxcycle=1)\\title\\0,1\C,0,-0.828503,1.164117,-0.0404
 76\C,0,-2.134122,0.751924,-0.019718\C,0,-0.858343,-1.090763,0.034212\C
 ,0,-0.008337,-0.005922,-0.006066\C,0,1.460971,-0.144754,-0.008282\N,0,
 -2.135628,-0.622343,0.026759\N,0,2.177223,1.021662,0.019301\O,0,2.0178
 93,-1.232462,-0.050329\H,0,-0.508559,2.191256,-0.090948\H,0,-3.051869,
 1.312081,-0.038511\H,0,-0.625407,-2.139469,0.067307\H,0,-2.958272,-1.1

 Normal termination of Gaussian 16 at Sun Apr  6 08:00:38 2025.
