 Gaussian 16, Revision C.01,

 ----------------------------------------------------------------------
 #t hf aug-cc-pvdz symm=none int=(grid=ultrafine) guess=(read,tcheck) s
 table=(opt,rrhf)
 ----------------------------------------------------------------------
 -----
 title
 -----
 Symbolic Z-matrix:
 Charge =  0 Multiplicity = 1

 SCF Done:  E(RHF) =  -337.597268951     A.U. after   15 cycles
 Normal termination of Gaussian 16 at Sun Apr  6 08:00:01 2025.
 Gaussian 16:  ES64L-G16RevC.01  3-Jul-2019

 ----------------------------------------------------------------------
 #t hf aug-cc-pvdz iop(5/13=1,5/36=2,99/5=2) pseudo=read geom=check gue
 ss=(read,tcheck) scf=(maxcycle=1)
 ----------------------------------------------------------------------
 -----
 title
 -----
 Structure from the checkpoint file:  "1H-pyrazin-2-one.chk"
 Charge =  0 Multiplicity = 1

                         Standard orientation:
 ---------------------------------------------------------------------
 Center     Atomic      Atomic             Coordinates (Angstroms)
 Number     Number       Type             X           Y           Z
 ---------------------------------------------------------------------
      1          6           0        0.100732   -1.751447    0.000000
      2          6           0       -1.100249   -1.123375    0.000000
      3          6           0        1.230486    0.248996    0.000000
      4          6           0        0.000000    1.043061    0.000000
      5          7           0        1.273925   -1.045277    0.000000
      6          7           0       -1.140617    0.238051    0.000000
      7          8           0       -0.072478    2.260456    0.000000
      8          1           0        0.169795   -2.828181    0.000000
      9          1           0       -2.046117   -1.644386    0.000000
     10          1           0        2.160066    0.806767    0.000000
     11          1           0       -2.022892    0.729333    0.000000
 ---------------------------------------------------------------------

 SCF Done:  E(RHF) =  -339.088610455     A.U. after    2 cycles

 The electronic state is 1-A'.
 Alpha  occ. eigenvalues --  -21.03636 -15.81799 -15.77851 -11.52537 -11.48930
 Alpha  occ. eigenvalues --  -11.43582 -11.41318  -1.71857  -1.50581  -1.36706
 Alpha  occ. eigenvalues --   -1.12903  -0.97164  -0.91656  -0.77924  -0.69200
 Alpha  occ. eigenvalues --   -0.66201  -0.62252  -0.61947  -0.56718  -0.50519
 Alpha  occ. eigenvalues --   -0.47424  -0.44268  -0.40726  -0.29432  -0.27239
 Alpha virt. eigenvalues --    0.02634   0.04803   0.05489   0.06371   0.08130
 Alpha virt. eigenvalues --    0.09818   0.09939   0.10545   0.11975   0.12485
 Alpha virt. eigenvalues --    0.12586   0.13789   0.13915   0.14904   0.15202

 Mulliken charges:
               1
     1  C    0.338761
     2  C    0.237937
     3  C   -0.665866
     4  C    5.200855
     5  N   -3.604762
     6  N   -3.292906
     7  O   -3.580929
     8  H    1.487252
     9  H    1.445338
    10  H    1.637637
    11  H    0.796681
 Sum of Mulliken charges =  -0.00000

 Dipole moment (field-independent basis, Debye):
    X=             -2.8920    Y=             -1.6677    Z=              0.0000  Tot=              3.3384

 Test job not archived.
 1\1\GINC-SE289\SP\RHF\Aug-CC-pVDZ\C4H4N2O1\OHZDE\06-Apr-2025\0\\#t hf
 aug-cc-pvdz iop(5/13=1,5/36=2,99/5=2) pseudo=read geom=check guess=(re
 ad,tcheck) scf=(maxcycle=1)\\title\\0,1\C,0,0.100732,-1.751447,0.\C,0,
 -1.100249,-1.123375,0.\C,0,1.230486,0.248996,0.\C,0,0.,1.043061,0.\N,0
 ,1.273925,-1.045277,0.\N,0,-1.140617,0.238051,0.\O,0,-0.072478,2.26045
 6,0.\H,0,0.169795,-2.828181,0.\H,0,-2.046117,-1.644386,0.\H,0,2.160066
 ,0.806767,0.\H,0,-2.022892,0.729333,0.\\Version=ES64L-G16RevC.01\State
 =1-A'\HF=-339.0886105\RMSD=7.870e-01\Dipole=-1.1377853,-0.6561209,0.\Q

 Normal termination of Gaussian 16 at Sun Apr  6 08:00:06 2025.
