 Gaussian 16, Revision C.01,

 ----------------------------------------------------------------------
 #t hf aug-cc-pvdz symm=none int=(grid=ultrafine) guess=(read,tcheck) s
 table=(opt,rrhf)
 ----------------------------------------------------------------------
 -----
 title
 -----
 Symbolic Z-matrix:
 Charge =  0 Multiplicity = 1

 SCF Done:  E(RHF) =  -697.130969427     A.U. after   15 cycles
 Normal termination of Gaussian 16 at Sun Apr  6 08:00:03 2025.
 Gaussian 16:  ES64L-G16RevC.01  3-Jul-2019

 ----------------------------------------------------------------------
 #t hf aug-cc-pvdz iop(5/13=1,5/36=2,99/5=2) pseudo=read geom=check gue
 ss=(read,tcheck) scf=(maxcycle=1)
 ----------------------------------------------------------------------
 -----
 title
 -----
 Structure from the checkpoint file:  "1H-pyrazole-1-OS-thioperoxol.chk"
 Charge =  0 Multiplicity = 1

                         Standard orientation:
 ---------------------------------------------------------------------
 Center     Atomic      Atomic             Coordinates (Angstroms)
 Number     Number       Type             X           Y           Z
 ---------------------------------------------------------------------
      1         16           0        2.234917   -0.046861   -0.380987
      2          8           0        1.029141    0.354103    0.770290
      3          7           0       -0.255522    0.153491    0.329665
      4          7           0       -0.759156   -1.072879    0.283649
      5          6           0       -1.110151    1.132332   -0.046094
      6          6           0       -2.009920   -0.883942   -0.135575
      7          6           0       -2.285470    0.479908   -0.353541
      8          1           0        2.229010   -1.378082   -0.153039
      9          1           0       -0.817337    2.166144   -0.049950
     10          1           0       -2.661697   -1.731812   -0.260982
     11          1           0       -3.205769    0.926620   -0.684484
 ---------------------------------------------------------------------

 SCF Done:  E(RHF) =  -698.703372682     A.U. after    2 cycles

 The electronic state is 1-A.
 Alpha  occ. eigenvalues --  -75.75434 -21.13517 -15.84119 -15.75880 -13.21747
 Alpha  occ. eigenvalues --  -13.14856 -13.09260 -11.46818 -11.43513 -11.38873
 Alpha  occ. eigenvalues --   -8.08885  -1.88916  -1.56037  -1.18093  -1.14699
 Alpha  occ. eigenvalues --   -1.04915  -0.84262  -0.79685  -0.74643  -0.66831
 Alpha  occ. eigenvalues --   -0.59301  -0.58053  -0.54757  -0.52555  -0.46861
 Alpha  occ. eigenvalues --   -0.42215  -0.38569  -0.34069  -0.30596  -0.26667
 Alpha virt. eigenvalues --    0.03294   0.04475   0.05290   0.05714   0.08570
 Alpha virt. eigenvalues --    0.09327   0.10007   0.11415   0.12060   0.12744
 Alpha virt. eigenvalues --    0.13250   0.13777   0.14940   0.15319   0.15890

 Mulliken charges:
               1
     1  S   -0.343022
     2  O   -3.125425
     3  N    1.459619
     4  N   -2.462678
     5  C   -0.107503
     6  C    0.257863
     7  C   -0.576735
     8  H    1.075613
     9  H    1.278685
    10  H    1.412437
    11  H    1.131146
 Sum of Mulliken charges =   0.00000

 Dipole moment (field-independent basis, Debye):
    X=              0.5225    Y=              2.1915    Z=             -1.0963  Tot=              2.5055

 Test job not archived.
 1\1\GINC-SE290\SP\RHF\Aug-CC-pVDZ\C3H4N2O1S1\OHZDE\06-Apr-2025\0\\#t h
 f aug-cc-pvdz iop(5/13=1,5/36=2,99/5=2) pseudo=read geom=check guess=(
 read,tcheck) scf=(maxcycle=1)\\title\\0,1\S,0,2.234917,-0.046861,-0.38
 0987\O,0,1.029141,0.354103,0.77029\N,0,-0.255522,0.153491,0.329665\N,0
 ,-0.759156,-1.072879,0.283649\C,0,-1.110151,1.132332,-0.046094\C,0,-2.
 00992,-0.883942,-0.135575\C,0,-2.28547,0.479908,-0.353541\H,0,2.22901,
 -1.378082,-0.153039\H,0,-0.817337,2.166144,-0.04995\H,0,-2.661697,-1.7
 31812,-0.260982\H,0,-3.205769,0.92662,-0.684484\\Version=ES64L-G16RevC

 Normal termination of Gaussian 16 at Sun Apr  6 08:00:08 2025.
