 Gaussian 16, Revision C.01,

 ----------------------------------------------------------------------
 #t hf aug-cc-pvdz symm=none int=(grid=ultrafine) guess=(read,tcheck) s
 table=(opt,rrhf)
 ----------------------------------------------------------------------
 -----
 title
 -----
 Symbolic Z-matrix:
 Charge =  0 Multiplicity = 1

 SCF Done:  E(RHF) =  -224.826829129     A.U. after   15 cycles
 Normal termination of Gaussian 16 at Sun Apr  6 07:59:55 2025.
 Gaussian 16:  ES64L-G16RevC.01  3-Jul-2019

 ----------------------------------------------------------------------
 #t hf aug-cc-pvdz iop(5/13=1,5/36=2,99/5=2) pseudo=read geom=check gue
 ss=(read,tcheck) scf=(maxcycle=1)
 ----------------------------------------------------------------------
 -----
 title
 -----
 Structure from the checkpoint file:  "1H-pyrazole.chk"
 Charge =  0 Multiplicity = 1

                         Standard orientation:
 ---------------------------------------------------------------------
 Center     Atomic      Atomic             Coordinates (Angstroms)
 Number     Number       Type             X           Y           Z
 ---------------------------------------------------------------------
      1          6           0        0.662598   -0.995432    0.000000
      2          6           0       -0.743268   -0.890370    0.000000
      3          6           0        1.107645    0.307032    0.000000
      4          7           0       -1.142688    0.375589    0.000000
      5          7           0        0.000000    1.085189    0.000000
      6          1           0        1.262650   -1.887482    0.000000
      7          1           0       -1.475618   -1.680369    0.000000
      8          1           0        2.098322    0.726839    0.000000
      9          1           0       -0.048386    2.088195    0.000000
 ---------------------------------------------------------------------

 SCF Done:  E(RHF) =  -225.874272620     A.U. after    2 cycles

 The electronic state is 1-A'.
 Alpha  occ. eigenvalues --  -15.80818 -15.74629 -11.44692 -11.42219 -11.36841
 Alpha  occ. eigenvalues --   -1.60208  -1.17846  -1.13645  -0.84320  -0.81279
 Alpha  occ. eigenvalues --   -0.74926  -0.60116  -0.58019  -0.54977  -0.52774
 Alpha  occ. eigenvalues --   -0.40630  -0.33884  -0.32625
 Alpha virt. eigenvalues --    0.03396   0.05248   0.05652   0.05986   0.10383
 Alpha virt. eigenvalues --    0.11213   0.11956   0.12701   0.13629   0.14134
 Alpha virt. eigenvalues --    0.14609   0.15486   0.16569   0.17268   0.18991

 Mulliken charges:
               1
     1  C   -0.908136
     2  C    0.219330
     3  C    0.178839
     4  N   -2.145141
     5  N   -1.991275
     6  H    1.126158
     7  H    1.394684
     8  H    1.255062
     9  H    0.870479
 Sum of Mulliken charges =  -0.00000

 Dipole moment (field-independent basis, Debye):
    X=              1.8486    Y=              1.0128    Z=              0.0000  Tot=              2.1079

 Test job not archived.
 1\1\GINC-SE290\SP\RHF\Aug-CC-pVDZ\C3H4N2\OHZDE\06-Apr-2025\0\\#t hf au
 g-cc-pvdz iop(5/13=1,5/36=2,99/5=2) pseudo=read geom=check guess=(read
 ,tcheck) scf=(maxcycle=1)\\title\\0,1\C,0,0.662598,-0.995432,0.\C,0,-0
 .743268,-0.89037,0.\C,0,1.107645,0.307032,0.\N,0,-1.142688,0.375589,0.
 \N,0,0.,1.085189,0.\H,0,1.26265,-1.887482,0.\H,0,-1.475618,-1.680369,0
 .\H,0,2.098322,0.726839,0.\H,0,-0.048386,2.088195,0.\\Version=ES64L-G1
 6RevC.01\State=1-A'\HF=-225.8742726\RMSD=7.687e-01\Dipole=0.7273031,0.
 3984809,0.\Quadrupole=-1.1573912,4.2248754,-3.0674841,1.8353325,0.,0.\

 Normal termination of Gaussian 16 at Sun Apr  6 07:59:58 2025.
