 Gaussian 16, Revision C.01,

 ----------------------------------------------------------------------
 #t hf aug-cc-pvdz symm=none int=(grid=ultrafine) guess=(read,tcheck) s
 table=(opt,rrhf)
 ----------------------------------------------------------------------
 -----
 title
 -----
 Symbolic Z-matrix:
 Charge =  0 Multiplicity = 1

 SCF Done:  E(RHF) =  -311.846263778     A.U. after   16 cycles
 Normal termination of Gaussian 16 at Sun Apr  6 07:59:56 2025.
 Gaussian 16:  ES64L-G16RevC.01  3-Jul-2019

 ----------------------------------------------------------------------
 #t hf aug-cc-pvdz iop(5/13=1,5/36=2,99/5=2) pseudo=read geom=check gue
 ss=(read,tcheck) scf=(maxcycle=1)
 ----------------------------------------------------------------------
 -----
 title
 -----
 Structure from the checkpoint file:  "1H-tetrazol-5-amine.chk"
 Charge =  0 Multiplicity = 1

                         Standard orientation:
 ---------------------------------------------------------------------
 Center     Atomic      Atomic             Coordinates (Angstroms)
 Number     Number       Type             X           Y           Z
 ---------------------------------------------------------------------
      1          6           0       -0.621011   -0.043215   -0.003296
      2          1           0        0.001740    2.009175   -0.056030
      3          7           0        0.197961    1.024633   -0.005588
      4          7           0        1.486430    0.574685    0.004451
      5          7           0        1.411372   -0.699900    0.008559
      6          7           0        0.119936   -1.131006    0.009304
      7          1           0       -2.446118    0.747717    0.423321
      8          1           0       -2.419586   -0.896323    0.073092
      9          7           0       -1.988552    0.002833   -0.076813
 ---------------------------------------------------------------------

 SCF Done:  E(RHF) =  -313.228253991     A.U. after    2 cycles

 The electronic state is 1-A.
 Alpha  occ. eigenvalues --  -15.83072 -15.80552 -15.79983 -15.79124 -15.74080
 Alpha  occ. eigenvalues --  -11.49241  -1.74022  -1.42307  -1.36884  -1.23316
 Alpha  occ. eigenvalues --   -0.91230  -0.87386  -0.76879  -0.69302  -0.68078
 Alpha  occ. eigenvalues --   -0.62553  -0.51746  -0.49840  -0.41238  -0.40742
 Alpha  occ. eigenvalues --   -0.40584  -0.33087
 Alpha virt. eigenvalues --    0.02296   0.04409   0.05706   0.10611   0.10781
 Alpha virt. eigenvalues --    0.12365   0.13104   0.14563   0.15004   0.15941
 Alpha virt. eigenvalues --    0.16448   0.17153   0.17941   0.18655   0.19272

 Mulliken charges:
               1
     1  C    4.859568
     2  H    0.853712
     3  N   -1.731331
     4  N   -0.508065
     5  N   -0.154519
     6  N   -1.749497
     7  H    0.582407
     8  H    0.615155
     9  N   -2.767430
 Sum of Mulliken charges =   0.00000

 Dipole moment (field-independent basis, Debye):
    X=             -4.5200    Y=              3.3754    Z=              0.7031  Tot=              5.6849

 Test job not archived.
 1\1\GINC-SE298\SP\RHF\Aug-CC-pVDZ\C1H3N5\OHZDE\06-Apr-2025\0\\#t hf au
 g-cc-pvdz iop(5/13=1,5/36=2,99/5=2) pseudo=read geom=check guess=(read
 ,tcheck) scf=(maxcycle=1)\\title\\0,1\C,0,-0.621011,-0.043215,-0.00329
 6\H,0,0.00174,2.009175,-0.05603\N,0,0.197961,1.024633,-0.005588\N,0,1.
 48643,0.574685,0.004451\N,0,1.411372,-0.6999,0.008559\N,0,0.119936,-1.
 131006,0.009304\H,0,-2.446118,0.747717,0.423321\H,0,-2.419586,-0.89632
 3,0.073092\N,0,-1.988552,0.002833,-0.076813\\Version=ES64L-G16RevC.01\
 State=1-A\HF=-313.228254\RMSD=8.318e-02\Dipole=-1.7782931,1.3279697,0.

 Normal termination of Gaussian 16 at Sun Apr  6 07:59:59 2025.
