 Gaussian 16, Revision C.01,

 ----------------------------------------------------------------------
 #t hf aug-cc-pvdz symm=none int=(grid=ultrafine) guess=(read,tcheck) s
 table=(opt,rrhf)
 ----------------------------------------------------------------------
 -----
 title
 -----
 Symbolic Z-matrix:
 Charge =  0 Multiplicity = 1

 SCF Done:  E(RHF) =  -256.795226427     A.U. after   15 cycles
 Normal termination of Gaussian 16 at Sun Apr  6 07:59:50 2025.
 Gaussian 16:  ES64L-G16RevC.01  3-Jul-2019

 ----------------------------------------------------------------------
 #t hf aug-cc-pvdz iop(5/13=1,5/36=2,99/5=2) pseudo=read geom=check gue
 ss=(read,tcheck) scf=(maxcycle=1)
 ----------------------------------------------------------------------
 -----
 title
 -----
 Structure from the checkpoint file:  "1H-tetrazole.chk"
 Charge =  0 Multiplicity = 1

                         Standard orientation:
 ---------------------------------------------------------------------
 Center     Atomic      Atomic             Coordinates (Angstroms)
 Number     Number       Type             X           Y           Z
 ---------------------------------------------------------------------
      1          6           0        1.064770    0.234648    0.000000
      2          7           0        0.637569   -1.003032    0.000000
      3          7           0       -0.722757   -0.922964    0.000000
      4          7           0       -1.117376    0.298568    0.000000
      5          7           0        0.000000    1.052457    0.000000
      6          1           0        2.089591    0.560077    0.000000
      7          1           0       -0.060257    2.056832    0.000000
 ---------------------------------------------------------------------

 SCF Done:  E(RHF) =  -257.923587994     A.U. after    2 cycles

 The electronic state is 1-A'.
 Alpha  occ. eigenvalues --  -15.85093 -15.81497 -15.79755 -15.76498 -11.46531
 Alpha  occ. eigenvalues --   -1.75079  -1.38072  -1.29887  -0.92432  -0.88224
 Alpha  occ. eigenvalues --   -0.79114  -0.68179  -0.63188  -0.52167  -0.42005
 Alpha  occ. eigenvalues --   -0.41882  -0.41863  -0.39382
 Alpha virt. eigenvalues --    0.02469   0.04650   0.09538   0.09702   0.11256
 Alpha virt. eigenvalues --    0.13215   0.14388   0.15158   0.16153   0.17025
 Alpha virt. eigenvalues --    0.17765   0.18578   0.19343   0.20730   0.20826

 Mulliken charges:
               1
     1  C    1.296417
     2  N   -1.648342
     3  N   -0.068837
     4  N   -0.428067
     5  N   -1.515018
     6  H    1.482528
     7  H    0.881319
 Sum of Mulliken charges =  -0.00000

 Dipole moment (field-independent basis, Debye):
    X=              2.2123    Y=              4.3924    Z=              0.0000  Tot=              4.9180

 Test job not archived.
 1\1\GINC-SE299\SP\RHF\Aug-CC-pVDZ\C1H2N4\OHZDE\06-Apr-2025\0\\#t hf au
 g-cc-pvdz iop(5/13=1,5/36=2,99/5=2) pseudo=read geom=check guess=(read
 ,tcheck) scf=(maxcycle=1)\\title\\0,1\C,0,1.06477,0.234648,0.\N,0,0.63
 7569,-1.003032,0.\N,0,-0.722757,-0.922964,0.\N,0,-1.117376,0.298568,0.
 \N,0,0.,1.052457,0.\H,0,2.089591,0.560077,0.\H,0,-0.060257,2.056832,0.
 \\Version=ES64L-G16RevC.01\State=1-A'\HF=-257.923588\RMSD=9.219e-02\Di
 pole=0.8703751,1.7280851,0.\Quadrupole=-0.6906958,1.1460487,-0.4553529
 ,1.3632255,0.,0.\PG=CS [SG(C1H2N4)]\\@

 Normal termination of Gaussian 16 at Sun Apr  6 07:59:52 2025.
