 Gaussian 16, Revision C.01,

 ----------------------------------------------------------------------
 #t hf aug-cc-pvdz symm=none int=(grid=ultrafine) guess=(read,tcheck) s
 table=(opt,rrhf)
 ----------------------------------------------------------------------
 -----
 title
 -----
 Symbolic Z-matrix:
 Charge =  0 Multiplicity = 1

 SCF Done:  E(RHF) =  -680.275737762     A.U. after   14 cycles
 Normal termination of Gaussian 16 at Sun Apr  6 08:01:18 2025.
 Gaussian 16:  ES64L-G16RevC.01  3-Jul-2019

 ----------------------------------------------------------------------
 #t hf aug-cc-pvdz iop(5/13=1,5/36=2,99/5=2) pseudo=read geom=check gue
 ss=(read,tcheck) scf=(maxcycle=1)
 ----------------------------------------------------------------------
 -----
 title
 -----
 Structure from the checkpoint file:  "1R-1-2-2-trifluoroethoxybenzene.chk"
 Charge =  0 Multiplicity = 1

                         Standard orientation:
 ---------------------------------------------------------------------
 Center     Atomic      Atomic             Coordinates (Angstroms)
 Number     Number       Type             X           Y           Z
 ---------------------------------------------------------------------
      1          6           0        3.765859    0.209204   -0.140016
      2          6           0        2.871247    1.268614   -0.080295
      3          6           0        3.285014   -1.096397   -0.096293
      4          6           0        1.501209    1.040638    0.021750
      5          6           0        1.922891   -1.340443   -0.004248
      6          6           0        1.037573   -0.269346    0.047854
      7          6           0       -1.259747    0.330131   -0.172330
      8          6           0       -2.570202   -0.417612   -0.421522
      9          8           0       -0.303784   -0.607745    0.144654
     10          9           0       -1.447135    1.227529    0.863041
     11          9           0       -3.502465    0.470307   -0.869796
     12          9           0       -3.033392   -0.973051    0.723910
     13          1           0        4.827889    0.396517   -0.213025
     14          1           0        3.234180    2.287210   -0.099256
     15          1           0        3.972559   -1.930152   -0.137897
     16          1           0        0.820685    1.874043    0.108414
     17          1           0        1.531930   -2.347555    0.026613
     18          1           0       -0.988788    0.912792   -1.057218
     19          1           0       -2.444324   -1.202689   -1.168659
 ---------------------------------------------------------------------

 SCF Done:  E(RHF) =  -683.039973453     A.U. after    2 cycles

 The electronic state is 1-A.
 Alpha  occ. eigenvalues --  -29.29419 -29.29186 -29.27954 -21.10708 -11.57196
 Alpha  occ. eigenvalues --  -11.54791 -11.50101 -11.47343 -11.44117 -11.42056
 Alpha  occ. eigenvalues --  -11.41745 -11.37873  -1.84779  -1.35709  -1.32364
 Alpha  occ. eigenvalues --   -1.12620  -1.10891  -1.05674  -0.88972  -0.87130
 Alpha  occ. eigenvalues --   -0.83533  -0.79602  -0.74653  -0.71792  -0.69526
 Alpha  occ. eigenvalues --   -0.67536  -0.62549  -0.59716  -0.58471  -0.54532
 Alpha  occ. eigenvalues --   -0.50867  -0.47405  -0.45581  -0.44469  -0.42913
 Alpha  occ. eigenvalues --   -0.39348  -0.38542  -0.34733  -0.34505  -0.31976
 Alpha  occ. eigenvalues --   -0.29169  -0.27240  -0.26269  -0.25182  -0.22795
 Alpha virt. eigenvalues --    0.03209   0.04805   0.05015   0.05371   0.06095
 Alpha virt. eigenvalues --    0.06644   0.07756   0.09200   0.10411   0.11206
 Alpha virt. eigenvalues --    0.11507   0.11720   0.12410   0.13021   0.13513

 Mulliken charges:
               1
     1  C   -2.508484
     2  C   -0.608134
     3  C   -0.531467
     4  C   -3.262365
     5  C   -3.621505
     6  C    5.712934
     7  C   -2.816523
     8  C    0.098201
     9  O   -4.733742
    10  F    0.411647
    11  F    0.243762
    12  F    0.154338
    13  H    1.544148
    14  H    1.495669
    15  H    1.479931
    16  H    1.678827
    17  H    1.799006
    18  H    1.955376
    19  H    1.508381
 Sum of Mulliken charges =  -0.00000

 Dipole moment (field-independent basis, Debye):
    X=             -1.2416    Y=              1.4230    Z=              1.6698  Tot=              2.5208

 Test job not archived.
 1\1\GINC-SE299\SP\RHF\Aug-CC-pVDZ\C8H7F3O1\OHZDE\06-Apr-2025\0\\#t hf
 aug-cc-pvdz iop(5/13=1,5/36=2,99/5=2) pseudo=read geom=check guess=(re
 ad,tcheck) scf=(maxcycle=1)\\title\\0,1\C,0,3.765859,0.209204,-0.14001
 6\C,0,2.871247,1.268614,-0.080295\C,0,3.285014,-1.096397,-0.096293\C,0
 ,1.501209,1.040638,0.02175\C,0,1.922891,-1.340443,-0.004248\C,0,1.0375
 73,-0.269346,0.047854\C,0,-1.259747,0.330131,-0.17233\C,0,-2.570202,-0
 .417612,-0.421522\O,0,-0.303784,-0.607745,0.144654\F,0,-1.447135,1.227
 529,0.863041\F,0,-3.502465,0.470307,-0.869796\F,0,-3.033392,-0.973051,

 Normal termination of Gaussian 16 at Sun Apr  6 08:01:29 2025.
