 Gaussian 16, Revision C.01,

 ----------------------------------------------------------------------
 #t hf aug-cc-pvdz symm=none int=(grid=ultrafine) guess=(read,tcheck) s
 table=(opt,rrhf)
 ----------------------------------------------------------------------
 -----
 title
 -----
 Symbolic Z-matrix:
 Charge =  0 Multiplicity = 1

 SCF Done:  E(RHF) =  -312.305797211     A.U. after   12 cycles
 Normal termination of Gaussian 16 at Sun Apr  6 08:01:28 2025.
 Gaussian 16:  ES64L-G16RevC.01  3-Jul-2019

 ----------------------------------------------------------------------
 #t hf aug-cc-pvdz iop(5/13=1,5/36=2,99/5=2) pseudo=read geom=check gue
 ss=(read,tcheck) scf=(maxcycle=1)
 ----------------------------------------------------------------------
 -----
 title
 -----
 Structure from the checkpoint file:  "1R-2S-1-2-dimethylcyclohexane.chk"
 Charge =  0 Multiplicity = 1

                         Standard orientation:
 ---------------------------------------------------------------------
 Center     Atomic      Atomic             Coordinates (Angstroms)
 Number     Number       Type             X           Y           Z
 ---------------------------------------------------------------------
      1          6           0       -1.970214    0.143052    0.172978
      2          6           0       -1.480744   -1.307690    0.157221
      3          6           0       -1.121757    1.024428   -0.749887
      4          6           0        0.015884   -1.401750    0.468056
      5          6           0        0.383838    0.959334   -0.431292
      6          6           0        0.859319   -0.515324   -0.460979
      7          6           0        0.725765    1.702133    0.867397
      8          6           0        2.355971   -0.676582   -0.191592
      9          1           0       -3.018288    0.190874   -0.131201
     10          1           0       -1.932318    0.529274    1.195719
     11          1           0       -2.052364   -1.909311    0.867681
     12          1           0       -1.667570   -1.737320   -0.832885
     13          1           0       -1.274482    0.696175   -1.783249
     14          1           0       -1.464303    2.061271   -0.701898
     15          1           0        0.192158   -1.114610    1.509552
     16          1           0        0.350636   -2.438687    0.380000
     17          1           0        0.910384    1.478545   -1.239286
     18          1           0        0.676087   -0.866606   -1.483879
     19          1           0        0.286020    1.232479    1.747768
     20          1           0        1.802459    1.755395    1.027304
     21          1           0        0.352228    2.726827    0.824022
     22          1           0        2.609678   -0.437246    0.842406
     23          1           0        2.671869   -1.705362   -0.374491
     24          1           0        2.949430   -0.027309   -0.838979
 ---------------------------------------------------------------------

 SCF Done:  E(RHF) =  -313.942795556     A.U. after    2 cycles

 The electronic state is 1-A.
 Alpha  occ. eigenvalues --  -11.43290 -11.43065 -11.41803 -11.38737 -11.38003
 Alpha  occ. eigenvalues --  -11.36704 -11.35942 -11.32982  -1.33524  -1.14427
 Alpha  occ. eigenvalues --   -1.12873  -1.01559  -0.95802  -0.86086  -0.83915
 Alpha  occ. eigenvalues --   -0.74749  -0.65957  -0.62644  -0.60856  -0.59492
 Alpha  occ. eigenvalues --   -0.56228  -0.55719  -0.53726  -0.51812  -0.49935
 Alpha  occ. eigenvalues --   -0.48224  -0.45213  -0.44099  -0.43802  -0.40823
 Alpha  occ. eigenvalues --   -0.37130  -0.36678
 Alpha virt. eigenvalues --    0.04411   0.04814   0.05005   0.05047   0.05260
 Alpha virt. eigenvalues --    0.05450   0.06004   0.06237   0.06874   0.08147
 Alpha virt. eigenvalues --    0.08170   0.08398   0.08650   0.08707   0.09452

 Mulliken charges:
               1
     1  C   -2.676872
     2  C   -3.079958
     3  C   -3.427863
     4  C   -3.583973
     5  C    0.959466
     6  C    0.342666
     7  C   -5.282947
     8  C   -4.905282
     9  H    1.282404
    10  H    1.492111
    11  H    1.266327
    12  H    1.360889
    13  H    1.244290
    14  H    1.301636
    15  H    1.465588
    16  H    1.331714
    17  H    1.663914
    18  H    1.690431
    19  H    1.409842
    20  H    1.264447
    21  H    1.151870
    22  H    1.479532
    23  H    1.099655
    24  H    1.150115
 Sum of Mulliken charges =   0.00000

 Dipole moment (field-independent basis, Debye):
    X=             -0.0979    Y=             -0.0234    Z=             -0.1461  Tot=              0.1774

 Test job not archived.
 1\1\GINC-SE300\SP\RHF\Aug-CC-pVDZ\C8H16\OHZDE\06-Apr-2025\0\\#t hf aug
 -cc-pvdz iop(5/13=1,5/36=2,99/5=2) pseudo=read geom=check guess=(read,
 tcheck) scf=(maxcycle=1)\\title\\0,1\C,0,-1.970214,0.143052,0.172978\C
 ,0,-1.480744,-1.30769,0.157221\C,0,-1.121757,1.024428,-0.749887\C,0,0.
 015884,-1.40175,0.468056\C,0,0.383838,0.959334,-0.431292\C,0,0.859319,
 -0.515324,-0.460979\C,0,0.725765,1.702133,0.867397\C,0,2.355971,-0.676
 582,-0.191592\H,0,-3.018288,0.190873,-0.131201\H,0,-1.932318,0.529274,
 1.195719\H,0,-2.052364,-1.909311,0.867681\H,0,-1.66757,-1.73732,-0.832

 Normal termination of Gaussian 16 at Sun Apr  6 08:01:40 2025.
