 Gaussian 16, Revision C.01,

 ----------------------------------------------------------------------
 #t hf aug-cc-pvdz symm=none int=(grid=ultrafine) guess=(read,tcheck) s
 table=(opt,rrhf)
 ----------------------------------------------------------------------
 -----
 title
 -----
 Symbolic Z-matrix:
 Charge =  0 Multiplicity = 1

 SCF Done:  E(RHF) =  -814.516237277     A.U. after   14 cycles
 Normal termination of Gaussian 16 at Sun Apr  6 08:00:34 2025.
 Gaussian 16:  ES64L-G16RevC.01  3-Jul-2019

 ----------------------------------------------------------------------
 #t hf aug-cc-pvdz iop(5/13=1,5/36=2,99/5=2) pseudo=read geom=check gue
 ss=(read,tcheck) scf=(maxcycle=1)
 ----------------------------------------------------------------------
 -----
 title
 -----
 Structure from the checkpoint file:  "1Z-2-chloroethanimidoylmalononitrile.chk"
 Charge =  0 Multiplicity = 1

                         Standard orientation:
 ---------------------------------------------------------------------
 Center     Atomic      Atomic             Coordinates (Angstroms)
 Number     Number       Type             X           Y           Z
 ---------------------------------------------------------------------
      1         17           0       -2.745853    0.000000   -0.458741
      2          7           0       -0.811909   -0.000003    1.816306
      3          7           0        2.136126    2.181527   -0.641085
      4          7           0        2.136127   -2.181525   -0.641088
      5          6           0       -0.235309    0.000000    0.701571
      6          6           0        1.323138   -0.000000    0.550801
      7          6           0       -0.970811    0.000001   -0.614246
      8          6           0        1.796864    1.210768   -0.129504
      9          6           0        1.796865   -1.210767   -0.129506
     10          1           0       -0.172445   -0.000004    2.608644
     11          1           0        1.744862   -0.000001    1.558684
     12          1           0       -0.689901    0.880301   -1.191176
     13          1           0       -0.689901   -0.880298   -1.191179
 ---------------------------------------------------------------------

 SCF Done:  E(RHF) =  -816.364647962     A.U. after    2 cycles

 The electronic state is 1-A.
 Alpha  occ. eigenvalues --  -99.89869 -15.81076 -15.81066 -15.79544 -11.58707
 Alpha  occ. eigenvalues --  -11.52840 -11.49210 -11.48412 -11.46504 -10.47164
 Alpha  occ. eigenvalues --   -9.67095  -9.66290  -9.66203  -1.46897  -1.36869
 Alpha  occ. eigenvalues --   -1.33866  -1.32750  -1.20631  -1.08308  -0.85540
 Alpha  occ. eigenvalues --   -0.82254  -0.76943  -0.73402  -0.68527  -0.61917
 Alpha  occ. eigenvalues --   -0.60173  -0.57792  -0.56814  -0.51951  -0.51452
 Alpha  occ. eigenvalues --   -0.49813  -0.49061  -0.47800  -0.47205  -0.46365
 Alpha  occ. eigenvalues --   -0.41392
 Alpha virt. eigenvalues --    0.01425   0.05180   0.05796   0.06499   0.06580
 Alpha virt. eigenvalues --    0.07650   0.08082   0.09469   0.09950   0.10804
 Alpha virt. eigenvalues --    0.10950   0.11195   0.12314   0.12666   0.12981

 Mulliken charges:
               1
     1  Cl   0.126986
     2  N   -3.593014
     3  N   -2.546183
     4  N   -2.546183
     5  C    3.976405
     6  C   -1.977454
     7  C   -3.943023
     8  C    2.364038
     9  C    2.364037
    10  H    0.717532
    11  H    1.584093
    12  H    1.736384
    13  H    1.736383
 Sum of Mulliken charges =  -0.00000

 Dipole moment (field-independent basis, Debye):
    X=              0.9477    Y=             -0.0000    Z=              2.1759  Tot=              2.3733

 Test job not archived.
 1\1\GINC-SE300\SP\RHF\Aug-CC-pVDZ\C5H4Cl1N3\OHZDE\06-Apr-2025\0\\#t hf
  aug-cc-pvdz iop(5/13=1,5/36=2,99/5=2) pseudo=read geom=check guess=(r
 ead,tcheck) scf=(maxcycle=1)\\title\\0,1\Cl,0,-2.745853,0.,-0.458741\N
 ,0,-0.811909,-0.000003,1.816306\N,0,2.136126,2.181527,-0.641085\N,0,2.
 136127,-2.181525,-0.641088\C,0,-0.235309,0.,0.701571\C,0,1.323138,0.,0
 .550801\C,0,-0.970811,0.000001,-0.614246\C,0,1.796864,1.210768,-0.1295
 04\C,0,1.796865,-1.210767,-0.129506\H,0,-0.172445,-0.000004,2.608644\H
 ,0,1.744862,-0.000001,1.558684\H,0,-0.689901,0.880301,-1.191176\H,0,-0

 Normal termination of Gaussian 16 at Sun Apr  6 08:00:39 2025.
