 Gaussian 16, Revision C.01,

 ----------------------------------------------------------------------
 #t hf aug-cc-pvdz symm=none int=(grid=ultrafine) guess=(read,tcheck) s
 table=(opt,rrhf)
 ----------------------------------------------------------------------
 -----
 title
 -----
 Symbolic Z-matrix:
 Charge =  0 Multiplicity = 1

 SCF Done:  E(RHF) =  -391.437761802     A.U. after   15 cycles
 Normal termination of Gaussian 16 at Sun Apr  6 08:00:02 2025.
 Gaussian 16:  ES64L-G16RevC.01  3-Jul-2019

 ----------------------------------------------------------------------
 #t hf aug-cc-pvdz iop(5/13=1,5/36=2,99/5=2) pseudo=read geom=check gue
 ss=(read,tcheck) scf=(maxcycle=1)
 ----------------------------------------------------------------------
 -----
 title
 -----
 Structure from the checkpoint file:  "2-1H-1-2-4-triazol-3-yl-ethenone.chk"
 Charge =  0 Multiplicity = 1

                         Standard orientation:
 ---------------------------------------------------------------------
 Center     Atomic      Atomic             Coordinates (Angstroms)
 Number     Number       Type             X           Y           Z
 ---------------------------------------------------------------------
      1          8           0        3.181131   -0.527751   -0.000030
      2          7           0       -0.504861   -0.979797    0.000012
      3          7           0       -1.316186    1.134512    0.000007
      4          7           0       -1.860177   -0.974625    0.000024
      5          6           0       -0.220224    0.316198    0.000000
      6          6           0       -2.321692    0.286099    0.000022
      7          6           0        1.127446    0.850818   -0.000016
      8          6           0        2.212545    0.104559   -0.000024
      9          1           0       -2.366760   -1.842693    0.000036
     10          1           0       -3.369334    0.536264    0.000030
     11          1           0        1.267161    1.921766   -0.000023
 ---------------------------------------------------------------------

 SCF Done:  E(RHF) =  -393.154125990     A.U. after    2 cycles

 The electronic state is 1-A.
 Alpha  occ. eigenvalues --  -21.15039 -15.82768 -15.75336 -15.73447 -11.56075
 Alpha  occ. eigenvalues --  -11.47322 -11.46071 -11.40517  -1.78420  -1.65908
 Alpha  occ. eigenvalues --   -1.32299  -1.24423  -1.11960  -0.89930  -0.83843
 Alpha  occ. eigenvalues --   -0.76819  -0.71351  -0.65058  -0.62221  -0.59263
 Alpha  occ. eigenvalues --   -0.57119  -0.56090  -0.47732  -0.47124  -0.41130
 Alpha  occ. eigenvalues --   -0.39412  -0.37949  -0.26827
 Alpha virt. eigenvalues --    0.03049   0.04749   0.05185   0.09219   0.09604
 Alpha virt. eigenvalues --    0.10147   0.10758   0.11948   0.12275   0.12300
 Alpha virt. eigenvalues --    0.13546   0.13819   0.14188   0.14527   0.14804

 Mulliken charges:
               1
     1  O   -2.439381
     2  N   -2.556427
     3  N   -3.534374
     4  N   -1.530533
     5  C    4.474806
     6  C    0.903870
     7  C   -1.403225
     8  C    2.140504
     9  H    0.891537
    10  H    1.533868
    11  H    1.519355
 Sum of Mulliken charges =   0.00000

 Dipole moment (field-independent basis, Debye):
    X=             -1.3742    Y=             -1.7829    Z=              0.0000  Tot=              2.2510

 Test job not archived.
 1\1\GINC-SE301\SP\RHF\Aug-CC-pVDZ\C4H3N3O1\OHZDE\06-Apr-2025\0\\#t hf
 aug-cc-pvdz iop(5/13=1,5/36=2,99/5=2) pseudo=read geom=check guess=(re
 ad,tcheck) scf=(maxcycle=1)\\title\\0,1\O,0,3.181131,-0.527751,-0.0000
 3\N,0,-0.504861,-0.979797,0.000012\N,0,-1.316186,1.134512,0.000007\N,0
 ,-1.860177,-0.974625,0.000024\C,0,-0.220224,0.316198,0.\C,0,-2.321692,
 0.286099,0.000022\C,0,1.127446,0.850818,-0.000016\C,0,2.212545,0.10455
 9,-0.000024\H,0,-2.36676,-1.842693,0.000036\H,0,-3.369334,0.536264,0.0
 0003\H,0,1.267161,1.921766,-0.000023\\Version=ES64L-G16RevC.01\State=1

 Normal termination of Gaussian 16 at Sun Apr  6 08:00:06 2025.
