 Gaussian 16, Revision C.01,

 ----------------------------------------------------------------------
 #t hf aug-cc-pvdz symm=none int=(grid=ultrafine) guess=(read,tcheck) s
 table=(opt,rrhf)
 ----------------------------------------------------------------------
 -----
 title
 -----
 Symbolic Z-matrix:
 Charge =  0 Multiplicity = 1

 SCF Done:  E(RHF) =  -321.610875403     A.U. after   15 cycles
 Normal termination of Gaussian 16 at Sun Apr  6 08:00:01 2025.
 Gaussian 16:  ES64L-G16RevC.01  3-Jul-2019

 ----------------------------------------------------------------------
 #t hf aug-cc-pvdz iop(5/13=1,5/36=2,99/5=2) pseudo=read geom=check gue
 ss=(read,tcheck) scf=(maxcycle=1)
 ----------------------------------------------------------------------
 -----
 title
 -----
 Structure from the checkpoint file:  "2-1H-pyridinone.chk"
 Charge =  0 Multiplicity = 1

                         Standard orientation:
 ---------------------------------------------------------------------
 Center     Atomic      Atomic             Coordinates (Angstroms)
 Number     Number       Type             X           Y           Z
 ---------------------------------------------------------------------
      1          6           0        1.261707   -1.038161   -0.000000
      2          6           0        1.243130    0.321689   -0.000000
      3          6           0        0.059615   -1.797793   -0.000000
      4          6           0       -1.119466   -1.125244    0.000000
      5          6           0       -0.000000    1.062865    0.000000
      6          7           0       -1.136850    0.234049    0.000000
      7          8           0       -0.131026    2.279065    0.000000
      8          1           0        2.211330   -1.558148   -0.000000
      9          1           0        2.150199    0.907306   -0.000000
     10          1           0        0.072270   -2.875784   -0.000000
     11          1           0       -2.082206   -1.615153    0.000000
     12          1           0       -2.015349    0.730776    0.000000
 ---------------------------------------------------------------------

 SCF Done:  E(RHF) =  -323.064209884     A.U. after    2 cycles

 The electronic state is 1-A'.
 Alpha  occ. eigenvalues --  -21.01381 -15.80118 -11.51312 -11.48805 -11.46266
 Alpha  occ. eigenvalues --  -11.41396 -11.38982  -1.69764  -1.45808  -1.22029
 Alpha  occ. eigenvalues --   -1.10308  -0.92440  -0.88524  -0.75906  -0.68599
 Alpha  occ. eigenvalues --   -0.64728  -0.62236  -0.59335  -0.55526  -0.49207
 Alpha  occ. eigenvalues --   -0.46829  -0.43713  -0.40774  -0.28450  -0.25628
 Alpha virt. eigenvalues --    0.02701   0.04615   0.04788   0.06444   0.06790
 Alpha virt. eigenvalues --    0.08608   0.10135   0.11186   0.11939   0.12110
 Alpha virt. eigenvalues --    0.13192   0.13494   0.14000   0.14196   0.14323

 Mulliken charges:
               1
     1  C    0.748967
     2  C   -1.794012
     3  C   -0.746871
     4  C   -1.230716
     5  C    3.265197
     6  N   -3.030259
     7  O   -3.643756
     8  H    1.502582
     9  H    1.364719
    10  H    1.404733
    11  H    1.422487
    12  H    0.736929
 Sum of Mulliken charges =   0.00000

 Dipole moment (field-independent basis, Debye):
    X=             -1.3269    Y=             -2.9849    Z=             -0.0000  Tot=              3.2665

 Test job not archived.
 1\1\GINC-SE301\SP\RHF\Aug-CC-pVDZ\C5H5N1O1\OHZDE\06-Apr-2025\0\\#t hf
 aug-cc-pvdz iop(5/13=1,5/36=2,99/5=2) pseudo=read geom=check guess=(re
 ad,tcheck) scf=(maxcycle=1)\\title\\0,1\C,0,1.261707,-1.038161,0.\C,0,
 1.24313,0.321689,0.\C,0,0.059615,-1.797793,0.\C,0,-1.119466,-1.125244,
 0.\C,0,0.,1.062865,0.\N,0,-1.13685,0.234049,0.\O,0,-0.131026,2.279065,
 0.\H,0,2.21133,-1.558148,0.\H,0,2.150199,0.907306,0.\H,0,0.07227,-2.87
 5784,0.\H,0,-2.082206,-1.615153,0.\H,0,-2.015349,0.730776,0.\\Version=
 ES64L-G16RevC.01\State=1-A'\HF=-323.0642099\RMSD=1.415e+00\Dipole=-0.5

 Normal termination of Gaussian 16 at Sun Apr  6 08:00:06 2025.
