 Gaussian 16, Revision C.01,

 ----------------------------------------------------------------------
 #t hf aug-cc-pvdz symm=none int=(grid=ultrafine) guess=(read,tcheck) s
 table=(opt,rrhf)
 ----------------------------------------------------------------------
 -----
 title
 -----
 Symbolic Z-matrix:
 Charge =  0 Multiplicity = 1

 SCF Done:  E(RHF) =  -416.528013953     A.U. after   15 cycles
 Normal termination of Gaussian 16 at Sun Apr  6 08:01:14 2025.
 Gaussian 16:  ES64L-G16RevC.01  3-Jul-2019

 ----------------------------------------------------------------------
 #t hf aug-cc-pvdz iop(5/13=1,5/36=2,99/5=2) pseudo=read geom=check gue
 ss=(read,tcheck) scf=(maxcycle=1)
 ----------------------------------------------------------------------
 -----
 title
 -----
 Structure from the checkpoint file:  "2-1H-pyrrol-2-yl-1H-pyrrole.chk"
 Charge =  0 Multiplicity = 1

                         Standard orientation:
 ---------------------------------------------------------------------
 Center     Atomic      Atomic             Coordinates (Angstroms)
 Number     Number       Type             X           Y           Z
 ---------------------------------------------------------------------
      1          6           0       -0.367218    2.951058    0.128332
      2          6           0        0.367218   -2.951058    0.128332
      3          6           0       -0.964817    1.668994    0.237015
      4          6           0        0.964817   -1.668994    0.237015
      5          6           0        0.964817    2.761561   -0.145704
      6          6           0       -0.964817   -2.761561   -0.145704
      7          6           0        0.021536    0.722146    0.022813
      8          6           0       -0.021536   -0.722146    0.022813
      9          7           0        1.189772    1.410224   -0.205634
     10          7           0       -1.189772   -1.410224   -0.205634
     11          1           0       -0.856131    3.902314    0.249268
     12          1           0        0.856131   -3.902314    0.249268
     13          1           0       -1.992085    1.462515    0.486567
     14          1           0        1.992085   -1.462515    0.486567
     15          1           0        1.761222    3.466788   -0.303118
     16          1           0       -1.761222   -3.466788   -0.303118
     17          1           0        2.062056    0.976796   -0.448014
     18          1           0       -2.062056   -0.976796   -0.448014
 ---------------------------------------------------------------------

 SCF Done:  E(RHF) =  -418.502697492     A.U. after    2 cycles

 The electronic state is 1-A.
 Alpha  occ. eigenvalues --  -15.78406 -15.78362 -11.48529 -11.45674 -11.44637
 Alpha  occ. eigenvalues --  -11.42824 -11.40353 -11.40033 -11.37437 -11.35660
 Alpha  occ. eigenvalues --   -1.53323  -1.47082  -1.14176  -1.12609  -1.10919
 Alpha  occ. eigenvalues --   -0.99904  -0.84237  -0.81643  -0.79138  -0.78838
 Alpha  occ. eigenvalues --   -0.76587  -0.65457  -0.59078  -0.57729  -0.55967
 Alpha  occ. eigenvalues --   -0.54899  -0.53205  -0.52982  -0.50292  -0.49979
 Alpha  occ. eigenvalues --   -0.45788  -0.34011  -0.32913  -0.32525  -0.24028
 Alpha virt. eigenvalues --    0.03380   0.04981   0.05228   0.05533   0.05977
 Alpha virt. eigenvalues --    0.06220   0.06603   0.08446   0.09644   0.10052
 Alpha virt. eigenvalues --    0.11601   0.11841   0.12497   0.13143   0.13551

 Mulliken charges:
               1
     1  C   -2.018711
     2  C   -2.018711
     3  C   -2.865155
     4  C   -2.865155
     5  C   -0.641521
     6  C   -0.641521
     7  C    5.157335
     8  C    5.157335
     9  N   -4.390583
    10  N   -4.390583
    11  H    1.316860
    12  H    1.316860
    13  H    1.373044
    14  H    1.373044
    15  H    1.307157
    16  H    1.307157
    17  H    0.761574
    18  H    0.761574
 Sum of Mulliken charges =  -0.00000

 Dipole moment (field-independent basis, Debye):
    X=             -0.0000    Y=              0.0000    Z=             -0.6653  Tot=              0.6653

 Test job not archived.
 1\1\GINC-SE401\SP\RHF\Aug-CC-pVDZ\C8H8N2\OHZDE\06-Apr-2025\0\\#t hf au
 g-cc-pvdz iop(5/13=1,5/36=2,99/5=2) pseudo=read geom=check guess=(read
 ,tcheck) scf=(maxcycle=1)\\title\\0,1\C,0,-0.367218,2.951058,0.128332\
 C,0,0.367218,-2.951058,0.128332\C,0,-0.964817,1.668994,0.237015\C,0,0.
 964817,-1.668994,0.237015\C,0,0.964817,2.761561,-0.145704\C,0,-0.96481
 7,-2.761561,-0.145704\C,0,0.021536,0.722146,0.022813\C,0,-0.021536,-0.
 722146,0.022813\N,0,1.189772,1.410224,-0.205634\N,0,-1.189772,-1.41022
 4,-0.205634\H,0,-0.856131,3.902314,0.249268\H,0,0.856131,-3.902314,0.2

 Normal termination of Gaussian 16 at Sun Apr  6 08:01:21 2025.
