 Gaussian 16, Revision C.01,

 ----------------------------------------------------------------------
 #t hf aug-cc-pvdz symm=none int=(grid=ultrafine) guess=(read,tcheck) s
 table=(opt,rrhf)
 ----------------------------------------------------------------------
 -----
 title
 -----
 Symbolic Z-matrix:
 Charge =  0 Multiplicity = 1

 SCF Done:  E(RHF) =  -568.270706922     A.U. after   15 cycles
 Normal termination of Gaussian 16 at Sun Apr  6 08:04:43 2025.
 Gaussian 16:  ES64L-G16RevC.01  3-Jul-2019

 ----------------------------------------------------------------------
 #t hf aug-cc-pvdz iop(5/13=1,5/36=2,99/5=2) pseudo=read geom=check gue
 ss=(read,tcheck) scf=(maxcycle=1)
 ----------------------------------------------------------------------
 -----
 title
 -----
 Structure from the checkpoint file:  "2-2-furylcyclopropyl-3H-imidazole.chk"
 Charge =  0 Multiplicity = 1

                         Standard orientation:
 ---------------------------------------------------------------------
 Center     Atomic      Atomic             Coordinates (Angstroms)
 Number     Number       Type             X           Y           Z
 ---------------------------------------------------------------------
      1          6           0        4.003632    0.781182   -0.318561
      2          6           0        2.827443    1.218501    0.371503
      3          6           0       -2.371864    1.192790   -0.026218
      4          6           0        3.730184   -0.458141   -0.785971
      5          6           0       -4.074244   -0.047206   -0.382089
      6          6           0       -1.871478   -0.079363   -0.130780
      7          6           0        1.920234    0.210847    0.273998
      8          6           0        0.008227   -1.281057    1.209323
      9          6           0       -0.510143   -0.639727   -0.057973
     10          6           0        0.549025    0.058342    0.769007
     11          7           0       -3.738614    1.201606   -0.180938
     12          7           0       -2.984446   -0.866017   -0.361682
     13          8           0        2.461749   -0.825836   -0.433788
     14          1           0        4.925307    1.321844   -0.446217
     15          1           0        2.677596    2.159109    0.872631
     16          1           0       -1.821739    2.102483    0.144386
     17          1           0        4.287911   -1.179392   -1.354371
     18          1           0       -5.072787   -0.417046   -0.546593
     19          1           0       -0.640952   -1.290605    2.073149
     20          1           0        0.657884   -2.137778    1.105053
     21          1           0       -0.139037   -1.085527   -0.973867
     22          1           0        0.211409    0.911932    1.338833
     23          1           0       -2.984259   -1.864464   -0.477790
 ---------------------------------------------------------------------

 SCF Done:  E(RHF) =  -570.907674533     A.U. after    2 cycles

 The electronic state is 1-A.
 Alpha  occ. eigenvalues --  -21.10980 -15.79418 -15.71280 -11.50034 -11.48370
 Alpha  occ. eigenvalues --  -11.46500 -11.44676 -11.43672 -11.42179 -11.41868
 Alpha  occ. eigenvalues --  -11.40215 -11.38289 -11.37600  -1.84658  -1.56234
 Alpha  occ. eigenvalues --   -1.33639  -1.26220  -1.19578  -1.09359  -1.05836
 Alpha  occ. eigenvalues --   -0.91401  -0.89658  -0.83514  -0.80912  -0.80253
 Alpha  occ. eigenvalues --   -0.76100  -0.73932  -0.72632  -0.63120  -0.62286
 Alpha  occ. eigenvalues --   -0.58778  -0.58227  -0.56655  -0.53872  -0.53161
 Alpha  occ. eigenvalues --   -0.51987  -0.50799  -0.49216  -0.44035  -0.43682
 Alpha  occ. eigenvalues --   -0.41987  -0.37080  -0.36174  -0.33297  -0.29642
 Alpha  occ. eigenvalues --   -0.28995
 Alpha virt. eigenvalues --    0.03245   0.04454   0.04961   0.05010   0.05496
 Alpha virt. eigenvalues --    0.05687   0.06216   0.06981   0.07255   0.07914
 Alpha virt. eigenvalues --    0.09047   0.10815   0.11040   0.11415   0.12082

 Mulliken charges:
               1
     1  C   -1.517910
     2  C   -4.665688
     3  C   -1.603404
     4  C   -0.389862
     5  C    1.106459
     6  C    3.986103
     7  C    6.925956
     8  C   -3.080430
     9  C   -0.847405
    10  C   -1.398334
    11  N   -3.281040
    12  N   -4.068891
    13  O   -4.844108
    14  H    1.344393
    15  H    1.353650
    16  H    1.353627
    17  H    1.517622
    18  H    1.668571
    19  H    1.431896
    20  H    1.492833
    21  H    1.369620
    22  H    1.228564
    23  H    0.917777
 Sum of Mulliken charges =  -0.00000

 Dipole moment (field-independent basis, Debye):
    X=              0.8051    Y=             -3.5208    Z=             -0.1933  Tot=              3.6168

 Test job not archived.
 1\1\GINC-SE259\SP\RHF\Aug-CC-pVDZ\C10H10N2O1\OHZDE\06-Apr-2025\0\\#t h
 f aug-cc-pvdz iop(5/13=1,5/36=2,99/5=2) pseudo=read geom=check guess=(
 read,tcheck) scf=(maxcycle=1)\\title\\0,1\C,0,4.003632,0.781182,-0.318
 561\C,0,2.827443,1.218501,0.371503\C,0,-2.371864,1.19279,-0.026218\C,0
 ,3.730184,-0.458141,-0.785971\C,0,-4.074244,-0.047206,-0.382089\C,0,-1
 .871478,-0.079363,-0.13078\C,0,1.920234,0.210847,0.273998\C,0,0.008227
 ,-1.281057,1.209323\C,0,-0.510143,-0.639727,-0.057973\C,0,0.549025,0.0
 58342,0.769007\N,0,-3.738614,1.201606,-0.180938\N,0,-2.984446,-0.86601

 Normal termination of Gaussian 16 at Sun Apr  6 08:05:30 2025.
