 Gaussian 16, Revision C.01,

 ----------------------------------------------------------------------
 #t hf aug-cc-pvdz symm=none int=(grid=ultrafine) guess=(read,tcheck) s
 table=(opt,rrhf)
 ----------------------------------------------------------------------
 -----
 title
 -----
 Symbolic Z-matrix:
 Charge =  0 Multiplicity = 1

 SCF Done:  E(RHF) =  -1105.98495895     A.U. after   14 cycles
 Normal termination of Gaussian 16 at Sun Apr  6 07:59:57 2025.
 Gaussian 16:  ES64L-G16RevC.01  3-Jul-2019

 ----------------------------------------------------------------------
 #t hf aug-cc-pvdz iop(5/13=1,5/36=2,99/5=2) pseudo=read geom=check gue
 ss=(read,tcheck) scf=(maxcycle=1)
 ----------------------------------------------------------------------
 -----
 title
 -----
 Structure from the checkpoint file:  "2-2-dichloroethanimidamide.chk"
 Charge =  0 Multiplicity = 1

                         Standard orientation:
 ---------------------------------------------------------------------
 Center     Atomic      Atomic             Coordinates (Angstroms)
 Number     Number       Type             X           Y           Z
 ---------------------------------------------------------------------
      1         17           0       -0.526261    1.700246   -0.274259
      2         17           0       -1.582682   -1.029631    0.088524
      3          7           0        2.158124    0.361416    0.398415
      4          7           0        1.210053   -1.612357   -0.532489
      5          6           0       -0.238755    0.057016    0.456190
      6          6           0        1.125544   -0.473564    0.016892
      7          1           0       -0.244149    0.225219    1.527203
      8          1           0        1.958781    1.347470    0.456439
      9          1           0        3.066064    0.149392    0.018031
     10          1           0        2.173372   -1.866659   -0.744155
 ---------------------------------------------------------------------

 SCF Done:  E(RHF) =  -1107.34530073     A.U. after    2 cycles

 The electronic state is 1-A.
 Alpha  occ. eigenvalues --  -99.90726 -99.89716 -15.78722 -15.73541 -11.53080
 Alpha  occ. eigenvalues --  -11.47256 -10.48018 -10.47093  -9.67912  -9.67258
 Alpha  occ. eigenvalues --   -9.67098  -9.66986  -9.66184  -9.66053  -1.48234
 Alpha  occ. eigenvalues --   -1.36478  -1.29183  -1.25603  -1.04348  -0.83712
 Alpha  occ. eigenvalues --   -0.72993  -0.72027  -0.68641  -0.62297  -0.60421
 Alpha  occ. eigenvalues --   -0.54916  -0.52488  -0.49953  -0.49444  -0.47506
 Alpha  occ. eigenvalues --   -0.40682  -0.35489
 Alpha virt. eigenvalues --    0.02713   0.04009   0.05184   0.05728   0.07060
 Alpha virt. eigenvalues --    0.07929   0.09455   0.11729   0.12343   0.13505
 Alpha virt. eigenvalues --    0.13684   0.14406   0.15223   0.15739   0.16599

 Mulliken charges:
               1
     1  Cl   0.336692
     2  Cl   0.342888
     3  N   -3.005443
     4  N   -3.054159
     5  C   -3.548334
     6  C    4.842822
     7  H    1.974285
     8  H    0.709908
     9  H    0.659218
    10  H    0.742124
 Sum of Mulliken charges =   0.00000

 Dipole moment (field-independent basis, Debye):
    X=              3.2788    Y=              1.2702    Z=              0.9418  Tot=              3.6402

 Test job not archived.
 1\1\GINC-SE432\SP\RHF\Aug-CC-pVDZ\C2H4Cl2N2\OHZDE\06-Apr-2025\0\\#t hf
  aug-cc-pvdz iop(5/13=1,5/36=2,99/5=2) pseudo=read geom=check guess=(r
 ead,tcheck) scf=(maxcycle=1)\\title\\0,1\Cl,0,-0.526261,1.700246,-0.27
 4259\Cl,0,-1.582683,-1.02963,0.088524\N,0,2.158124,0.361415,0.398415\N
 ,0,1.210052,-1.612358,-0.532489\C,0,-0.238755,0.057016,0.45619\C,0,1.1
 25544,-0.473565,0.016892\H,0,-0.244149,0.225219,1.527203\H,0,1.958781,
 1.347469,0.456439\H,0,3.066064,0.149391,0.018031\H,0,2.173371,-1.86666
 ,-0.744155\\Version=ES64L-G16RevC.01\State=1-A\HF=-1107.3453007\RMSD=2

 Normal termination of Gaussian 16 at Sun Apr  6 08:00:01 2025.
