 Gaussian 16, Revision C.01,

 ----------------------------------------------------------------------
 #t hf aug-cc-pvdz symm=none int=(grid=ultrafine) guess=(read,tcheck) s
 table=(opt,rrhf)
 ----------------------------------------------------------------------
 -----
 title
 -----
 Symbolic Z-matrix:
 Charge =  0 Multiplicity = 1

 SCF Done:  E(RHF) =  -377.151814764     A.U. after   15 cycles
 Normal termination of Gaussian 16 at Sun Apr  6 07:59:55 2025.
 Gaussian 16:  ES64L-G16RevC.01  3-Jul-2019

 ----------------------------------------------------------------------
 #t hf aug-cc-pvdz iop(5/13=1,5/36=2,99/5=2) pseudo=read geom=check gue
 ss=(read,tcheck) scf=(maxcycle=1)
 ----------------------------------------------------------------------
 -----
 title
 -----
 Structure from the checkpoint file:  "2-2--oxodiethenone.chk"
 Charge =  0 Multiplicity = 1

                         Standard orientation:
 ---------------------------------------------------------------------
 Center     Atomic      Atomic             Coordinates (Angstroms)
 Number     Number       Type             X           Y           Z
 ---------------------------------------------------------------------
      1          8           0        0.000000    0.000000    0.648088
      2          8           0        0.000000    3.317523   -0.078152
      3          8           0       -0.000000   -3.317523   -0.078152
      4          6           0       -0.698728    0.939522   -0.114391
      5          6           0        0.698728   -0.939522   -0.114391
      6          6           0       -0.313392    2.199290   -0.102139
      7          6           0        0.313392   -2.199290   -0.102139
      8          1           0       -1.576390    0.640518   -0.667959
      9          1           0        1.576390   -0.640518   -0.667959
 ---------------------------------------------------------------------

 SCF Done:  E(RHF) =  -378.729781342     A.U. after    2 cycles

 The electronic state is 1-A.
 Alpha  occ. eigenvalues --  -21.15525 -21.15503 -21.11573 -11.55746 -11.55630
 Alpha  occ. eigenvalues --  -11.45336 -11.45070  -1.82141  -1.78320  -1.76969
 Alpha  occ. eigenvalues --   -1.14449  -1.05084  -0.77017  -0.74690  -0.67997
 Alpha  occ. eigenvalues --   -0.61896  -0.61259  -0.60829  -0.57251  -0.52988
 Alpha  occ. eigenvalues --   -0.49224  -0.47875  -0.39148  -0.30427  -0.27640
 Alpha virt. eigenvalues --    0.02856   0.05426   0.07472   0.08956   0.09505
 Alpha virt. eigenvalues --    0.09824   0.10182   0.11497   0.11651   0.11781
 Alpha virt. eigenvalues --    0.12671   0.13500   0.14299   0.15167   0.16042

 Mulliken charges:
               1
     1  O   -3.177452
     2  O   -2.285009
     3  O   -2.285009
     4  C    0.722544
     5  C    0.722544
     6  C    1.630501
     7  C    1.630501
     8  H    1.520689
     9  H    1.520689
 Sum of Mulliken charges =  -0.00000

 Dipole moment (field-independent basis, Debye):
    X=             -0.0000    Y=              0.0000    Z=             -0.6678  Tot=              0.6678

 Test job not archived.
 1\1\GINC-SE403\SP\RHF\Aug-CC-pVDZ\C4H2O3\OHZDE\06-Apr-2025\0\\#t hf au
 g-cc-pvdz iop(5/13=1,5/36=2,99/5=2) pseudo=read geom=check guess=(read
 ,tcheck) scf=(maxcycle=1)\\title\\0,1\O,0,0.,0.,0.648088\O,0,0.,3.3175
 23,-0.078152\O,0,0.,-3.317523,-0.078152\C,0,-0.698728,0.939522,-0.1143
 91\C,0,0.698728,-0.939522,-0.114391\C,0,-0.313392,2.19929,-0.102139\C,
 0,0.313392,-2.19929,-0.102139\H,0,-1.57639,0.640518,-0.667959\H,0,1.57
 639,-0.640518,-0.667959\\Version=ES64L-G16RevC.01\State=1-A\HF=-378.72
 97813\RMSD=3.004e-01\Dipole=0.,0.,-0.2627197\Quadrupole=-0.1381817,2.7

 Normal termination of Gaussian 16 at Sun Apr  6 07:59:59 2025.
