 Gaussian 16, Revision C.01,

 ----------------------------------------------------------------------
 #t hf aug-cc-pvdz symm=none int=(grid=ultrafine) guess=(read,tcheck) s
 table=(opt,rrhf)
 ----------------------------------------------------------------------
 -----
 title
 -----
 Symbolic Z-matrix:
 Charge =  0 Multiplicity = 1

 SCF Done:  E(RHF) =  -1992.99313943     A.U. after   12 cycles

 1\1\GINC-SE404\Stability\RHF\Aug-CC-pVDZ\C4H6Cl4\OHZDE\06-Apr-2025\0\\
 #t hf aug-cc-pvdz symm=none int=(grid=ultrafine) guess=(read,tcheck) s
 table=(opt,rrhf)\\title\\0,1\C,0,1.119788,1.638607,0.\C,0,-1.119788,-1
 .638607,0.\C,0,-0.125681,0.772915,0.\C,0,0.125681,-0.772915,0.\Cl,0,-1
 .119788,1.196241,1.462338\Cl,0,-1.119788,1.196241,-1.462338\Cl,0,1.119
 788,-1.196241,-1.462338\Cl,0,1.119788,-1.196241,1.462338\H,0,1.713774,
 1.435038,0.887218\H,0,1.713774,1.435038,-0.887218\H,0,0.825079,2.68419
 9,0.\H,0,-0.825079,-2.684199,0.\H,0,-1.713774,-1.435038,-0.887218\H,0,

 Normal termination of Gaussian 16 at Sun Apr  6 08:00:30 2025.
 Gaussian 16:  ES64L-G16RevC.01  3-Jul-2019

 ----------------------------------------------------------------------
 #t hf aug-cc-pvdz iop(5/13=1,5/36=2,99/5=2) pseudo=read geom=check gue
 ss=(read,tcheck) scf=(maxcycle=1)
 ----------------------------------------------------------------------
 -----
 title
 -----
 Structure from the checkpoint file:  "2-2-3-3-tetrachlorobutane.chk"
 Charge =  0 Multiplicity = 1

                         Standard orientation:
 ---------------------------------------------------------------------
 Center     Atomic      Atomic             Coordinates (Angstroms)
 Number     Number       Type             X           Y           Z
 ---------------------------------------------------------------------
      1          6           0        1.119788    1.638607   -0.000000
      2          6           0       -1.119788   -1.638607   -0.000000
      3          6           0       -0.125681    0.772915   -0.000000
      4          6           0        0.125681   -0.772915   -0.000000
      5         17           0       -1.119788    1.196241    1.462338
      6         17           0       -1.119788    1.196241   -1.462338
      7         17           0        1.119788   -1.196241   -1.462338
      8         17           0        1.119788   -1.196241    1.462338
      9          1           0        1.713774    1.435038    0.887218
     10          1           0        1.713774    1.435038   -0.887218
     11          1           0        0.825079    2.684199   -0.000000
     12          1           0       -0.825079   -2.684199   -0.000000
     13          1           0       -1.713774   -1.435038   -0.887218
     14          1           0       -1.713774   -1.435038    0.887218
 ---------------------------------------------------------------------

 SCF Done:  E(RHF) =  -1994.77878172     A.U. after    2 cycles

 The electronic state is 1-AG.
 Alpha  occ. eigenvalues --  -99.90403 -99.90403 -99.90393 -99.90390 -11.56227
 Alpha  occ. eigenvalues --  -11.52586 -11.41177 -11.40041 -10.47844 -10.47836
 Alpha  occ. eigenvalues --  -10.47666 -10.47598  -9.67855  -9.67681  -9.67651
 Alpha  occ. eigenvalues --   -9.67555  -9.67170  -9.67065  -9.66992  -9.66983
 Alpha  occ. eigenvalues --   -9.66967  -9.66830  -9.66811  -9.66654  -1.47519
 Alpha  occ. eigenvalues --   -1.36095  -1.29413  -1.29351  -1.15569  -1.11868
 Alpha  occ. eigenvalues --   -0.98207  -0.84733  -0.72673  -0.72658  -0.67638
 Alpha  occ. eigenvalues --   -0.66407  -0.62430  -0.58682  -0.55892  -0.55725
 Alpha  occ. eigenvalues --   -0.54683  -0.54580  -0.53956  -0.51185  -0.50862
 Alpha  occ. eigenvalues --   -0.49817  -0.49605  -0.47714  -0.45471
 Alpha virt. eigenvalues --    0.03633   0.03899   0.04181   0.05430   0.06060
 Alpha virt. eigenvalues --    0.06649   0.07036   0.07144   0.07559   0.08868
 Alpha virt. eigenvalues --    0.09460   0.10963   0.11715   0.12234   0.12878

 Mulliken charges:
               1
     1  C   -3.989577
     2  C   -3.989577
     3  C    0.601446
     4  C    0.601446
     5  Cl  -0.108636
     6  Cl  -0.108636
     7  Cl  -0.108636
     8  Cl  -0.108636
     9  H    1.213788
    10  H    1.213788
    11  H    1.177829
    12  H    1.177829
    13  H    1.213788
    14  H    1.213788
 Sum of Mulliken charges =   0.00000

 Dipole moment (field-independent basis, Debye):
    X=              0.0000    Y=              0.0000    Z=              0.0000  Tot=              0.0000

 Test job not archived.
 1\1\GINC-SE404\SP\RHF\Aug-CC-pVDZ\C4H6Cl4\OHZDE\06-Apr-2025\0\\#t hf a
 ug-cc-pvdz iop(5/13=1,5/36=2,99/5=2) pseudo=read geom=check guess=(rea
 d,tcheck) scf=(maxcycle=1)\\title\\0,1\C,0,1.119788,1.638607,0.\C,0,-1
 .119788,-1.638607,0.\C,0,-0.125681,0.772915,0.\C,0,0.125681,-0.772915,
 0.\Cl,0,-1.119788,1.196241,1.462338\Cl,0,-1.119788,1.196241,-1.462338\
 Cl,0,1.119788,-1.196241,-1.462338\Cl,0,1.119788,-1.196241,1.462338\H,0
 ,1.713774,1.435038,0.887218\H,0,1.713774,1.435038,-0.887218\H,0,0.8250
 79,2.684199,0.\H,0,-0.825079,-2.684199,0.\H,0,-1.713774,-1.435038,-0.8

 Normal termination of Gaussian 16 at Sun Apr  6 08:00:37 2025.
