 Gaussian 16, Revision C.01,

 ----------------------------------------------------------------------
 #t hf aug-cc-pvdz symm=none int=(grid=ultrafine) guess=(read,tcheck) s
 table=(opt,rrhf)
 ----------------------------------------------------------------------
 -----
 title
 -----
 Symbolic Z-matrix:
 Charge =  0 Multiplicity = 1

 SCF Done:  E(RHF) =  -313.460817111     A.U. after   12 cycles
 Normal termination of Gaussian 16 at Sun Apr  6 08:01:42 2025.
 Gaussian 16:  ES64L-G16RevC.01  3-Jul-2019

 ----------------------------------------------------------------------
 #t hf aug-cc-pvdz iop(5/13=1,5/36=2,99/5=2) pseudo=read geom=check gue
 ss=(read,tcheck) scf=(maxcycle=1)
 ----------------------------------------------------------------------
 -----
 title
 -----
 Structure from the checkpoint file:  "2-2-4-trimethylpentane.chk"
 Charge =  0 Multiplicity = 1

                         Standard orientation:
 ---------------------------------------------------------------------
 Center     Atomic      Atomic             Coordinates (Angstroms)
 Number     Number       Type             X           Y           Z
 ---------------------------------------------------------------------
      1          6           0       -1.846468    1.363840   -0.077215
      2          6           0       -2.662406   -1.005759   -0.096294
      3          6           0        2.238415   -1.049347   -0.534903
      4          6           0        1.347049    0.062739    1.517236
      5          6           0        1.470851    1.310380   -0.660535
      6          6           0       -0.206189   -0.619162   -0.388682
      7          6           0       -1.491679   -0.085189    0.274492
      8          6           0        1.189357   -0.053191   -0.006364
      9          1           0       -1.878530    1.507566   -1.160137
     10          1           0       -2.830639    1.621044    0.318884
     11          1           0       -1.136791    2.079950    0.332372
     12          1           0       -2.842778   -0.992361   -1.174393
     13          1           0       -3.583115   -0.688469    0.396236
     14          1           0       -2.465759   -2.039230    0.193579
     15          1           0        2.126690   -2.027904   -0.064042
     16          1           0        3.250825   -0.693599   -0.333918
     17          1           0        2.141559   -1.185634   -1.614225
     18          1           0        2.366909    0.355952    1.774490
     19          1           0        0.675201    0.809842    1.941318
     20          1           0        1.141903   -0.890029    2.010264
     21          1           0        0.817786    2.095891   -0.286579
     22          1           0        2.499514    1.619425   -0.462797
     23          1           0        1.343993    1.257474   -1.743806
     24          1           0       -0.175142   -1.692454   -0.177183
     25          1           0       -0.319174   -0.537597   -1.476057
     26          1           0       -1.366031   -0.145726    1.359582
 ---------------------------------------------------------------------

 SCF Done:  E(RHF) =  -315.136070422     A.U. after    2 cycles

 The electronic state is 1-A.
 Alpha  occ. eigenvalues --  -11.43565 -11.41965 -11.38850 -11.38320 -11.38092
 Alpha  occ. eigenvalues --  -11.37787 -11.35950 -11.33427  -1.31460  -1.19606
 Alpha  occ. eigenvalues --   -1.00427  -1.00043  -0.99106  -0.98186  -0.81693
 Alpha  occ. eigenvalues --   -0.75478  -0.64758  -0.62243  -0.61358  -0.59328
 Alpha  occ. eigenvalues --   -0.57077  -0.55506  -0.53846  -0.53101  -0.52378
 Alpha  occ. eigenvalues --   -0.50540  -0.50090  -0.46969  -0.44565  -0.43425
 Alpha  occ. eigenvalues --   -0.41129  -0.39966  -0.37635
 Alpha virt. eigenvalues --    0.04146   0.04726   0.04973   0.05290   0.05361
 Alpha virt. eigenvalues --    0.05702   0.05837   0.06330   0.06573   0.07586
 Alpha virt. eigenvalues --    0.07915   0.08106   0.08337   0.08859   0.09058

 Mulliken charges:
               1
     1  C   -4.451124
     2  C   -4.533043
     3  C   -5.396443
     4  C   -5.805434
     5  C   -5.417419
     6  C   -3.695977
     7  C   -1.130428
     8  C    6.926396
     9  H    1.238533
    10  H    1.179392
    11  H    1.559917
    12  H    1.319614
    13  H    1.172791
    14  H    1.300205
    15  H    1.314125
    16  H    1.221074
    17  H    1.193990
    18  H    1.060865
    19  H    1.380791
    20  H    1.209297
    21  H    1.489066
    22  H    1.070563
    23  H    1.131493
    24  H    1.440836
    25  H    1.380147
    26  H    1.840774
 Sum of Mulliken charges =   0.00000

 Dipole moment (field-independent basis, Debye):
    X=             -0.0129    Y=              0.0029    Z=              0.1890  Tot=              0.1894

 Test job not archived.
 1\1\GINC-SE431\SP\RHF\Aug-CC-pVDZ\C8H18\OHZDE\06-Apr-2025\0\\#t hf aug
 -cc-pvdz iop(5/13=1,5/36=2,99/5=2) pseudo=read geom=check guess=(read,
 tcheck) scf=(maxcycle=1)\\title\\0,1\C,0,-1.846468,1.36384,-0.077215\C
 ,0,-2.662406,-1.005759,-0.096294\C,0,2.238415,-1.049347,-0.534903\C,0,
 1.347049,0.062739,1.517236\C,0,1.470851,1.31038,-0.660535\C,0,-0.20618
 9,-0.619162,-0.388682\C,0,-1.491679,-0.085189,0.274492\C,0,1.189357,-0
 .053191,-0.006364\H,0,-1.87853,1.507566,-1.160137\H,0,-2.830639,1.6210
 44,0.318884\H,0,-1.136791,2.07995,0.332372\H,0,-2.842778,-0.992361,-1.

 Normal termination of Gaussian 16 at Sun Apr  6 08:01:58 2025.
