 Gaussian 16, Revision C.01,

 ----------------------------------------------------------------------
 #t hf aug-cc-pvdz symm=none int=(grid=ultrafine) guess=(read,tcheck) s
 table=(opt,rrhf)
 ----------------------------------------------------------------------
 -----
 title
 -----
 Symbolic Z-matrix:
 Charge =  0 Multiplicity = 1

 SCF Done:  E(RHF) =  -235.389758088     A.U. after   11 cycles
 Normal termination of Gaussian 16 at Sun Apr  6 08:00:30 2025.
 Gaussian 16:  ES64L-G16RevC.01  3-Jul-2019

 ----------------------------------------------------------------------
 #t hf aug-cc-pvdz iop(5/13=1,5/36=2,99/5=2) pseudo=read geom=check gue
 ss=(read,tcheck) scf=(maxcycle=1)
 ----------------------------------------------------------------------
 -----
 title
 -----
 Structure from the checkpoint file:  "2-2-dimethylbutane.chk"
 Charge =  0 Multiplicity = 1

                         Standard orientation:
 ---------------------------------------------------------------------
 Center     Atomic      Atomic             Coordinates (Angstroms)
 Number     Number       Type             X           Y           Z
 ---------------------------------------------------------------------
      1          6           0       -1.909658   -1.067465    0.000000
      2          6           0        0.899358   -0.498996    1.255256
      3          6           0        0.899358    1.663266    0.000000
      4          6           0        0.899358   -0.498996   -1.255256
      5          6           0       -1.169008    0.270451    0.000000
      6          6           0        0.377490    0.217634    0.000000
      7          1           0       -1.674987   -1.665724    0.881080
      8          1           0       -2.987965   -0.901561    0.000000
      9          1           0       -1.674987   -1.665724   -0.881080
     10          1           0        0.598153   -1.546802    1.280112
     11          1           0        0.527055   -0.021077    2.164092
     12          1           0        1.990351   -0.471536    1.288745
     13          1           0        0.553781    2.206619   -0.882017
     14          1           0        0.553781    2.206619    0.882017
     15          1           0        1.990950    1.686803    0.000000
     16          1           0        0.598153   -1.546802   -1.280112
     17          1           0        1.990351   -0.471536   -1.288745
     18          1           0        0.527055   -0.021077   -2.164092
     19          1           0       -1.486539    0.848219    0.873569
     20          1           0       -1.486539    0.848219   -0.873569
 ---------------------------------------------------------------------

 SCF Done:  E(RHF) =  -236.648870630     A.U. after    2 cycles

 The electronic state is 1-A'.
 Alpha  occ. eigenvalues --  -11.41493 -11.39388 -11.38019 -11.37791 -11.36205
 Alpha  occ. eigenvalues --  -11.33473  -1.29881  -1.09618  -0.99907  -0.99726
 Alpha  occ. eigenvalues --   -0.89986  -0.75484  -0.62911  -0.62675  -0.59856
 Alpha  occ. eigenvalues --   -0.58021  -0.54872  -0.52698  -0.52174  -0.50461
 Alpha  occ. eigenvalues --   -0.48235  -0.47420  -0.41199  -0.40730  -0.39292
 Alpha virt. eigenvalues --    0.04044   0.05316   0.05336   0.05530   0.05692
 Alpha virt. eigenvalues --    0.05875   0.06069   0.06387   0.06594   0.08793
 Alpha virt. eigenvalues --    0.08905   0.09242   0.09272   0.09794   0.12259

 Mulliken charges:
               1
     1  C   -3.989618
     2  C   -5.191347
     3  C   -4.906296
     4  C   -5.191347
     5  C   -3.989751
     6  C    5.808337
     7  H    1.315716
     8  H    1.028332
     9  H    1.315716
    10  H    1.432158
    11  H    1.133694
    12  H    1.122425
    13  H    1.272149
    14  H    1.272149
    15  H    1.242000
    16  H    1.432158
    17  H    1.122425
    18  H    1.133694
    19  H    1.318703
    20  H    1.318703
 Sum of Mulliken charges =  -0.00000

 Dipole moment (field-independent basis, Debye):
    X=             -0.0770    Y=              0.0014    Z=              0.0000  Tot=              0.0770

 Test job not archived.
 1\1\GINC-SE258\SP\RHF\Aug-CC-pVDZ\C6H14\OHZDE\06-Apr-2025\0\\#t hf aug
 -cc-pvdz iop(5/13=1,5/36=2,99/5=2) pseudo=read geom=check guess=(read,
 tcheck) scf=(maxcycle=1)\\title\\0,1\C,0,-1.909658,-1.067465,0.\C,0,0.
 899358,-0.498996,1.255256\C,0,0.899358,1.663266,0.\C,0,0.899358,-0.498
 996,-1.255256\C,0,-1.169008,0.270451,0.\C,0,0.37749,0.217634,0.\H,0,-1
 .674987,-1.665724,0.88108\H,0,-2.987965,-0.901561,0.\H,0,-1.674987,-1.
 665724,-0.88108\H,0,0.598153,-1.546802,1.280112\H,0,0.527055,-0.021077
 ,2.164092\H,0,1.990351,-0.471536,1.288745\H,0,0.553781,2.206619,-0.882

 Normal termination of Gaussian 16 at Sun Apr  6 08:00:37 2025.
