 Gaussian 16, Revision C.01,

 ----------------------------------------------------------------------
 #t hf aug-cc-pvdz symm=none int=(grid=ultrafine) guess=(read,tcheck) s
 table=(opt,rrhf)
 ----------------------------------------------------------------------
 -----
 title
 -----
 Symbolic Z-matrix:
 Charge =  0 Multiplicity = 1

 SCF Done:  E(RHF) =  -352.502447530     A.U. after   12 cycles
 Normal termination of Gaussian 16 at Sun Apr  6 08:03:56 2025.
 Gaussian 16:  ES64L-G16RevC.01  3-Jul-2019

 ----------------------------------------------------------------------
 #t hf aug-cc-pvdz iop(5/13=1,5/36=2,99/5=2) pseudo=read geom=check gue
 ss=(read,tcheck) scf=(maxcycle=1)
 ----------------------------------------------------------------------
 -----
 title
 -----
 Structure from the checkpoint file:  "2-2-5-trimethylhexane.chk"
 Charge =  0 Multiplicity = 1

                         Standard orientation:
 ---------------------------------------------------------------------
 Center     Atomic      Atomic             Coordinates (Angstroms)
 Number     Number       Type             X           Y           Z
 ---------------------------------------------------------------------
      1          6           0        0.261359    2.728775    1.263761
      2          6           0        0.261359    2.728775   -1.263761
      3          6           0        0.261359   -2.190212   -1.255251
      4          6           0        0.261359   -2.190212    1.255251
      5          6           0       -1.897219   -2.110279    0.000000
      6          6           0        0.930924    0.602207   -0.000000
      7          6           0       -0.435871   -0.089408    0.000000
      8          6           0        0.902632    2.145688   -0.000000
      9          6           0       -0.433736   -1.639048    0.000000
     10          1           0        0.722844    2.323751    2.166617
     11          1           0       -0.807615    2.513614    1.310589
     12          1           0        0.375647    3.813898    1.290358
     13          1           0       -0.807615    2.513614   -1.310589
     14          1           0        0.375647    3.813898   -1.290358
     15          1           0        0.722844    2.323751   -2.166617
     16          1           0       -0.197356   -1.795095   -2.164364
     17          1           0        1.321852   -1.937870   -1.278005
     18          1           0        0.183154   -3.278767   -1.290423
     19          1           0        1.321852   -1.937870    1.278005
     20          1           0       -0.197356   -1.795095    2.164364
     21          1           0        0.183154   -3.278767    1.290423
     22          1           0       -2.428479   -1.746411   -0.882025
     23          1           0       -2.428479   -1.746411    0.882025
     24          1           0       -1.958193   -3.200485    0.000000
     25          1           0        1.502655    0.279924   -0.874023
     26          1           0        1.502655    0.279924    0.874023
     27          1           0       -1.005955    0.238235   -0.873903
     28          1           0       -1.005955    0.238235    0.873903
     29          1           0        1.951716    2.460219   -0.000000
 ---------------------------------------------------------------------

 SCF Done:  E(RHF) =  -354.381189844     A.U. after    2 cycles

 The electronic state is 1-A'.
 Alpha  occ. eigenvalues --  -11.43307 -11.42538 -11.40323 -11.38230 -11.37985
 Alpha  occ. eigenvalues --  -11.37780 -11.37415 -11.34997 -11.33350  -1.31824
 Alpha  occ. eigenvalues --   -1.22284  -1.06080  -0.99904  -0.99706  -0.99520
 Alpha  occ. eigenvalues --   -0.91794  -0.79205  -0.75356  -0.64201  -0.63835
 Alpha  occ. eigenvalues --   -0.60590  -0.59853  -0.59361  -0.58158  -0.54869
 Alpha  occ. eigenvalues --   -0.53680  -0.52957  -0.51111  -0.50329  -0.49616
 Alpha  occ. eigenvalues --   -0.47487  -0.45022  -0.43465  -0.42454  -0.41049
 Alpha  occ. eigenvalues --   -0.39673  -0.37543
 Alpha virt. eigenvalues --    0.04072   0.04550   0.04588   0.05269   0.05299
 Alpha virt. eigenvalues --    0.05416   0.05769   0.06330   0.06404   0.06984
 Alpha virt. eigenvalues --    0.07030   0.07224   0.08268   0.08584   0.08985

 Mulliken charges:
               1
     1  C   -4.325404
     2  C   -4.325404
     3  C   -5.363413
     4  C   -5.363413
     5  C   -5.535357
     6  C   -3.074894
     7  C   -4.551061
     8  C   -1.501889
     9  C    6.543842
    10  H    1.277266
    11  H    1.529123
    12  H    1.175079
    13  H    1.529123
    14  H    1.175079
    15  H    1.277266
    16  H    1.190909
    17  H    1.435659
    18  H    1.126376
    19  H    1.435659
    20  H    1.190909
    21  H    1.126376
    22  H    1.263628
    23  H    1.263628
    24  H    1.206445
    25  H    1.586708
    26  H    1.586708
    27  H    1.786964
    28  H    1.786964
    29  H    1.547126
 Sum of Mulliken charges =  -0.00000

 Dipole moment (field-independent basis, Debye):
    X=              0.2223    Y=              0.0652    Z=             -0.0000  Tot=              0.2317

 Test job not archived.
 1\1\GINC-SE432\SP\RHF\Aug-CC-pVDZ\C9H20\OHZDE\06-Apr-2025\0\\#t hf aug
 -cc-pvdz iop(5/13=1,5/36=2,99/5=2) pseudo=read geom=check guess=(read,
 tcheck) scf=(maxcycle=1)\\title\\0,1\C,0,0.261359,2.728775,1.263761\C,
 0,0.261359,2.728775,-1.263761\C,0,0.261359,-2.190212,-1.255251\C,0,0.2
 61359,-2.190212,1.255251\C,0,-1.897219,-2.110279,0.\C,0,0.930924,0.602
 207,0.\C,0,-0.435871,-0.089408,0.\C,0,0.902632,2.145688,0.\C,0,-0.4337
 36,-1.639048,0.\H,0,0.722844,2.323751,2.166617\H,0,-0.807615,2.513614,
 1.310589\H,0,0.375647,3.813898,1.290358\H,0,-0.807615,2.513614,-1.3105

 Normal termination of Gaussian 16 at Sun Apr  6 08:04:12 2025.
