 Gaussian 16, Revision C.01,

 ----------------------------------------------------------------------
 #t hf aug-cc-pvdz symm=none int=(grid=ultrafine) guess=(read,tcheck) s
 table=(opt,rrhf)
 ----------------------------------------------------------------------
 -----
 title
 -----
 Symbolic Z-matrix:
 Charge =  0 Multiplicity = 1

 SCF Done:  E(RHF) =  -1056.57187594     A.U. after   16 cycles
 Normal termination of Gaussian 16 at Sun Apr  6 08:00:02 2025.
 Gaussian 16:  ES64L-G16RevC.01  3-Jul-2019

 ----------------------------------------------------------------------
 #t hf aug-cc-pvdz iop(5/13=1,5/36=2,99/5=2) pseudo=read geom=check gue
 ss=(read,tcheck) scf=(maxcycle=1)
 ----------------------------------------------------------------------
 -----
 title
 -----
 Structure from the checkpoint file:  "2-2-dicyanoethanedithioicacid.chk"
 Charge =  0 Multiplicity = 1

                         Standard orientation:
 ---------------------------------------------------------------------
 Center     Atomic      Atomic             Coordinates (Angstroms)
 Number     Number       Type             X           Y           Z
 ---------------------------------------------------------------------
      1         16           0        2.003409    0.770859    0.144997
      2         16           0        0.824434   -1.874911   -0.296043
      3          7           0       -2.788831   -1.286739    0.056249
      4          7           0       -1.196262    2.646561   -0.557680
      5          6           0       -0.747144    0.287249    0.481702
      6          6           0        0.630661   -0.307408    0.072187
      7          6           0       -1.869388   -0.620646    0.224187
      8          6           0       -1.016190    1.603166   -0.112117
      9          1           0       -0.695773    0.434643    1.567730
     10          1           0        1.358300    1.937262    0.363284
 ---------------------------------------------------------------------

 SCF Done:  E(RHF) =  -1058.17428943     A.U. after    2 cycles

 The electronic state is 1-A.
 Alpha  occ. eigenvalues --  -75.76011 -75.71273 -15.81291 -15.79858 -13.21598
 Alpha  occ. eigenvalues --  -13.20441 -13.18253 -13.08292 -13.06743 -13.02374
 Alpha  occ. eigenvalues --  -11.58050 -11.53902 -11.49256 -11.47220  -8.10085
 Alpha  occ. eigenvalues --   -8.05477  -1.43072  -1.33199  -1.30900  -1.17951
 Alpha  occ. eigenvalues --   -1.12910  -0.85349  -0.81498  -0.74851  -0.67801
 Alpha  occ. eigenvalues --   -0.57739  -0.56449  -0.51094  -0.50235  -0.49792
 Alpha  occ. eigenvalues --   -0.47270  -0.46642  -0.44620  -0.44175  -0.27052
 Alpha  occ. eigenvalues --   -0.25981
 Alpha virt. eigenvalues --    0.00712   0.03763   0.04391   0.06152   0.07031
 Alpha virt. eigenvalues --    0.08157   0.09194   0.09625   0.10463   0.11513
 Alpha virt. eigenvalues --    0.12056   0.12566   0.13295   0.13647   0.14634

 Mulliken charges:
               1
     1  S   -0.185697
     2  S    1.427390
     3  N   -2.503175
     4  N   -2.627023
     5  C   -2.485594
     6  C   -1.159866
     7  C    2.407040
     8  C    2.411151
     9  H    1.720636
    10  H    0.995138
 Sum of Mulliken charges =   0.00000

 Dipole moment (field-independent basis, Debye):
    X=              4.8936    Y=             -2.5211    Z=              0.7890  Tot=              5.5610

 Test job not archived.
 1\1\GINC-SE434\SP\RHF\Aug-CC-pVDZ\C4H2N2S2\OHZDE\06-Apr-2025\0\\#t hf
 aug-cc-pvdz iop(5/13=1,5/36=2,99/5=2) pseudo=read geom=check guess=(re
 ad,tcheck) scf=(maxcycle=1)\\title\\0,1\S,0,2.003409,0.770859,0.144997
 \S,0,0.824434,-1.874911,-0.296043\N,0,-2.788831,-1.286739,0.056249\N,0
 ,-1.196262,2.646561,-0.55768\C,0,-0.747144,0.287249,0.481702\C,0,0.630
 661,-0.307408,0.072187\C,0,-1.869388,-0.620646,0.224187\C,0,-1.01619,1
 .603166,-0.112117\H,0,-0.695773,0.434643,1.56773\H,0,1.3583,1.937262,0
 .363284\\Version=ES64L-G16RevC.01\State=1-A\HF=-1058.1742894\RMSD=5.28

 Normal termination of Gaussian 16 at Sun Apr  6 08:00:07 2025.
