 Gaussian 16, Revision C.01,

 ----------------------------------------------------------------------
 #t hf aug-cc-pvdz symm=none int=(grid=ultrafine) guess=(read,tcheck) s
 table=(opt,rrhf)
 ----------------------------------------------------------------------
 -----
 title
 -----
 Symbolic Z-matrix:
 Charge =  0 Multiplicity = 1

 SCF Done:  E(RHF) =  -552.808131376     A.U. after   12 cycles
 Normal termination of Gaussian 16 at Sun Apr  6 08:00:20 2025.
 Gaussian 16:  ES64L-G16RevC.01  3-Jul-2019

 ----------------------------------------------------------------------
 #t hf aug-cc-pvdz iop(5/13=1,5/36=2,99/5=2) pseudo=read geom=check gue
 ss=(read,tcheck) scf=(maxcycle=1)
 ----------------------------------------------------------------------
 -----
 title
 -----
 Structure from the checkpoint file:  "2-2-3-3-tetrafluorobutane.chk"
 Charge =  0 Multiplicity = 1

                         Standard orientation:
 ---------------------------------------------------------------------
 Center     Atomic      Atomic             Coordinates (Angstroms)
 Number     Number       Type             X           Y           Z
 ---------------------------------------------------------------------
      1          6           0        0.328548    1.572029    1.131282
      2          6           0       -0.328548   -1.572029    1.131282
      3          6           0       -0.204552    0.748232   -0.013408
      4          6           0        0.204552   -0.748232   -0.013408
      5          9           0       -1.578360    0.789917   -0.017302
      6          9           0        0.204552    1.293625   -1.195961
      7          9           0       -0.204552   -1.293625   -1.195961
      8          9           0        1.578360   -0.789917   -0.017302
      9          1           0       -0.001444    2.599626    0.991670
     10          1           0       -0.053588    1.204459    2.080962
     11          1           0        1.415266    1.540080    1.139481
     12          1           0       -1.415266   -1.540080    1.139481
     13          1           0        0.001444   -2.599626    0.991670
     14          1           0        0.053588   -1.204459    2.080962
 ---------------------------------------------------------------------

 SCF Done:  E(RHF) =  -554.920473666     A.U. after    2 cycles

 The electronic state is 1-A.
 Alpha  occ. eigenvalues --  -29.28854 -29.28842 -29.28429 -29.28421 -11.58394
 Alpha  occ. eigenvalues --  -11.54479 -11.42467 -11.40137  -1.43983  -1.25248
 Alpha  occ. eigenvalues --   -1.06317  -1.01147  -0.85598  -0.82453  -0.77749
 Alpha  occ. eigenvalues --   -0.66578  -0.63460  -0.59486  -0.59158  -0.56284
 Alpha  occ. eigenvalues --   -0.55885  -0.44769  -0.44211  -0.39295  -0.38469
 Alpha  occ. eigenvalues --   -0.36621  -0.31717  -0.31492  -0.29069  -0.25720
 Alpha  occ. eigenvalues --   -0.24680  -0.21348  -0.21086
 Alpha virt. eigenvalues --    0.04057   0.05072   0.05659   0.06132   0.06328
 Alpha virt. eigenvalues --    0.07853   0.10288   0.11139   0.12156   0.12966
 Alpha virt. eigenvalues --    0.13700   0.14905   0.15660   0.16227   0.16435

 Mulliken charges:
               1
     1  C   -4.461211
     2  C   -4.461211
     3  C    0.565118
     4  C    0.565118
     5  F    0.065665
     6  F    0.304785
     7  F    0.304785
     8  F    0.065665
     9  H    1.164479
    10  H    1.231006
    11  H    1.130157
    12  H    1.130157
    13  H    1.164479
    14  H    1.231006
 Sum of Mulliken charges =   0.00000

 Dipole moment (field-independent basis, Debye):
    X=             -0.0000    Y=             -0.0000    Z=             -2.0559  Tot=              2.0559

 Test job not archived.
 1\1\GINC-SE431\SP\RHF\Aug-CC-pVDZ\C4H6F4\OHZDE\06-Apr-2025\0\\#t hf au
 g-cc-pvdz iop(5/13=1,5/36=2,99/5=2) pseudo=read geom=check guess=(read
 ,tcheck) scf=(maxcycle=1)\\title\\0,1\C,0,0.328548,1.572029,1.131282\C
 ,0,-0.328548,-1.572029,1.131282\C,0,-0.204552,0.748232,-0.013408\C,0,0
 .204552,-0.748232,-0.013408\F,0,-1.57836,0.789917,-0.017302\F,0,0.2045
 52,1.293625,-1.195961\F,0,-0.204552,-1.293625,-1.195961\F,0,1.57836,-0
 .789917,-0.017302\H,0,-0.001444,2.599626,0.99167\H,0,-0.053588,1.20445
 9,2.080962\H,0,1.415266,1.54008,1.139481\H,0,-1.415266,-1.54008,1.1394

 Normal termination of Gaussian 16 at Sun Apr  6 08:00:36 2025.
