 Gaussian 16, Revision C.01,

 ----------------------------------------------------------------------
 #t hf aug-cc-pvdz symm=none int=(grid=ultrafine) guess=(read,tcheck) s
 table=(opt,rrhf)
 ----------------------------------------------------------------------
 -----
 title
 -----
 Symbolic Z-matrix:
 Charge =  0 Multiplicity = 1

 SCF Done:  E(RHF) =  -357.243937004     A.U. after   14 cycles
 Normal termination of Gaussian 16 at Sun Apr  6 07:59:58 2025.
 Gaussian 16:  ES64L-G16RevC.01  3-Jul-2019

 ----------------------------------------------------------------------
 #t hf aug-cc-pvdz iop(5/13=1,5/36=2,99/5=2) pseudo=read geom=check gue
 ss=(read,tcheck) scf=(maxcycle=1)
 ----------------------------------------------------------------------
 -----
 title
 -----
 Structure from the checkpoint file:  "2-2--iminodiacetylenol.chk"
 Charge =  0 Multiplicity = 1

                         Standard orientation:
 ---------------------------------------------------------------------
 Center     Atomic      Atomic             Coordinates (Angstroms)
 Number     Number       Type             X           Y           Z
 ---------------------------------------------------------------------
      1          8           0       -3.400108   -0.733442   -0.118928
      2          8           0        3.400112   -0.733432   -0.118929
      3          7           0       -0.000000    1.083109    0.012803
      4          6           0       -1.191775    0.449091   -0.005616
      5          6           0        1.191770    0.449084   -0.005610
      6          6           0       -2.247386   -0.118373    0.033472
      7          6           0        2.247401   -0.118342    0.033478
      8          1           0       -3.781620   -0.952804    0.740381
      9          1           0        3.781529   -0.952982    0.740374
     10          1           0        0.000002    2.090260   -0.001864
 ---------------------------------------------------------------------

 SCF Done:  E(RHF) =  -358.781741149     A.U. after    2 cycles

 The electronic state is 1-A.
 Alpha  occ. eigenvalues --  -21.14562 -21.14502 -15.80975 -11.44537 -11.43381
 Alpha  occ. eigenvalues --  -11.42231 -11.42102  -1.77829  -1.77685  -1.43190
 Alpha  occ. eigenvalues --   -1.08042  -1.01430  -0.79165  -0.75558  -0.69455
 Alpha  occ. eigenvalues --   -0.67962  -0.58382  -0.55757  -0.51848  -0.51063
 Alpha  occ. eigenvalues --   -0.50818  -0.36962  -0.32330  -0.30260  -0.27144
 Alpha virt. eigenvalues --    0.02748   0.04257   0.05510   0.09143   0.10090
 Alpha virt. eigenvalues --    0.11758   0.11843   0.12398   0.12901   0.13389
 Alpha virt. eigenvalues --    0.13596   0.14062   0.16003   0.16576   0.18424

 Mulliken charges:
               1
     1  O   -3.451217
     2  O   -3.451223
     3  N   -3.150189
     4  C    0.538120
     5  C    0.538084
     6  C    3.275177
     7  C    3.275213
     8  H    0.841624
     9  H    0.841617
    10  H    0.742792
 Sum of Mulliken charges =   0.00000

 Dipole moment (field-independent basis, Debye):
    X=             -0.0001    Y=              0.1556    Z=              1.3823  Tot=              1.3911

 Test job not archived.
 1\1\GINC-SE402\SP\RHF\Aug-CC-pVDZ\C4H3N1O2\OHZDE\06-Apr-2025\0\\#t hf
 aug-cc-pvdz iop(5/13=1,5/36=2,99/5=2) pseudo=read geom=check guess=(re
 ad,tcheck) scf=(maxcycle=1)\\title\\0,1\O,0,-3.400108,-0.733442,-0.118
 928\O,0,3.400112,-0.733432,-0.118929\N,0,0.,1.083109,0.012803\C,0,-1.1
 91775,0.449091,-0.005616\C,0,1.19177,0.449084,-0.00561\C,0,-2.247386,-
 0.118373,0.033472\C,0,2.247401,-0.118342,0.033478\H,0,-3.78162,-0.9528
 04,0.740381\H,0,3.781529,-0.952982,0.740374\H,0,0.000002,2.09026,-0.00
 1864\\Version=ES64L-G16RevC.01\State=1-A\HF=-358.7817411\RMSD=6.377e-0

 Normal termination of Gaussian 16 at Sun Apr  6 08:00:03 2025.
