 Gaussian 16, Revision C.01,

 ----------------------------------------------------------------------
 #t hf aug-cc-pvdz symm=none int=(grid=ultrafine) guess=(read,tcheck) s
 table=(opt,rrhf)
 ----------------------------------------------------------------------
 -----
 title
 -----
 Symbolic Z-matrix:
 Charge =  0 Multiplicity = 1

 SCF Done:  E(RHF) =  -1036.12720677     A.U. after   12 cycles

 1\1\GINC-SE433\Stability\RHF\Aug-CC-pVDZ\C3H6Cl2\OHZDE\06-Apr-2025\0\\
 #t hf aug-cc-pvdz symm=none int=(grid=ultrafine) guess=(read,tcheck) s
 table=(opt,rrhf)\\title\\0,1\C,0,0.,0.,0.352403\Cl,0,1.474178,0.,-0.72
 2182\Cl,0,-1.474178,0.,-0.722182\C,0,0.,1.271429,1.177208\C,0,0.,-1.27
 1429,1.177208\H,0,0.,2.149972,0.537521\H,0,0.,-2.149972,0.537521\H,0,-
 0.887342,1.294212,1.80956\H,0,0.887342,1.294212,1.80956\H,0,0.887342,-
 1.294212,1.80956\H,0,-0.887342,-1.294212,1.80956\\Version=ES64L-G16Rev
 C.01\HF=-1036.1272068\RMSD=5.259e-09\Dipole=0.,0.,1.0428145\Quadrupole

 Normal termination of Gaussian 16 at Sun Apr  6 07:59:54 2025.
 Gaussian 16:  ES64L-G16RevC.01  3-Jul-2019

 ----------------------------------------------------------------------
 #t hf aug-cc-pvdz iop(5/13=1,5/36=2,99/5=2) pseudo=read geom=check gue
 ss=(read,tcheck) scf=(maxcycle=1)
 ----------------------------------------------------------------------
 -----
 title
 -----
 Structure from the checkpoint file:  "2-2-dichloropropane.chk"
 Charge =  0 Multiplicity = 1

                         Standard orientation:
 ---------------------------------------------------------------------
 Center     Atomic      Atomic             Coordinates (Angstroms)
 Number     Number       Type             X           Y           Z
 ---------------------------------------------------------------------
      1          6           0        0.000000    0.000000    0.352403
      2         17           0        1.474178   -0.000000   -0.722182
      3         17           0       -1.474178    0.000000   -0.722182
      4          6           0       -0.000000    1.271429    1.177208
      5          6           0       -0.000000   -1.271429    1.177208
      6          1           0       -0.000000    2.149972    0.537521
      7          1           0       -0.000000   -2.149972    0.537521
      8          1           0       -0.887342    1.294212    1.809560
      9          1           0        0.887342    1.294212    1.809560
     10          1           0        0.887342   -1.294212    1.809560
     11          1           0       -0.887342   -1.294212    1.809560
 ---------------------------------------------------------------------

 SCF Done:  E(RHF) =  -1037.22971736     A.U. after    2 cycles

 The electronic state is 1-A1.
 Alpha  occ. eigenvalues --  -99.88790 -99.88786 -11.51261 -11.41370 -11.39022
 Alpha  occ. eigenvalues --  -10.46154 -10.46034  -9.66097  -9.65960  -9.65331
 Alpha  occ. eigenvalues --   -9.65274  -9.65239  -9.65106  -1.41179  -1.27415
 Alpha  occ. eigenvalues --   -1.15563  -1.04986  -0.85591  -0.69338  -0.66697
 Alpha  occ. eigenvalues --   -0.64373  -0.58478  -0.57005  -0.52847  -0.52526
 Alpha  occ. eigenvalues --   -0.50148  -0.48570  -0.48139  -0.46088
 Alpha virt. eigenvalues --    0.03325   0.05368   0.05785   0.05882   0.06809
 Alpha virt. eigenvalues --    0.07072   0.07086   0.08406   0.09125   0.12863
 Alpha virt. eigenvalues --    0.13786   0.13809   0.14135   0.15485   0.16702

 Mulliken charges:
               1
     1  C   -1.237282
     2  Cl  -0.036126
     3  Cl  -0.036126
     4  C   -3.115010
     5  C   -3.115010
     6  H    1.290417
     7  H    1.290417
     8  H    1.239680
     9  H    1.239680
    10  H    1.239680
    11  H    1.239680
 Sum of Mulliken charges =   0.00000

 Dipole moment (field-independent basis, Debye):
    X=              0.0000    Y=              0.0000    Z=              2.7397  Tot=              2.7397

 Test job not archived.
 1\1\GINC-SE433\SP\RHF\Aug-CC-pVDZ\C3H6Cl2\OHZDE\06-Apr-2025\0\\#t hf a
 ug-cc-pvdz iop(5/13=1,5/36=2,99/5=2) pseudo=read geom=check guess=(rea
 d,tcheck) scf=(maxcycle=1)\\title\\0,1\C,0,0.,0.,0.352403\Cl,0,1.47417
 8,0.,-0.722182\Cl,0,-1.474178,0.,-0.722182\C,0,0.,1.271429,1.177208\C,
 0,0.,-1.271429,1.177208\H,0,0.,2.149972,0.537521\H,0,0.,-2.149972,0.53
 7521\H,0,-0.887342,1.294212,1.80956\H,0,0.887342,1.294212,1.80956\H,0,
 0.887342,-1.294212,1.80956\H,0,-0.887342,-1.294212,1.80956\\Version=ES
 64L-G16RevC.01\State=1-A1\HF=-1037.2297174\RMSD=1.988e-01\Dipole=0.,0.

 Normal termination of Gaussian 16 at Sun Apr  6 07:59:57 2025.
