 Gaussian 16, Revision C.01,

 ----------------------------------------------------------------------
 #t hf aug-cc-pvdz symm=none int=(grid=ultrafine) guess=(read,tcheck) s
 table=(opt,rrhf)
 ----------------------------------------------------------------------
 -----
 title
 -----
 Symbolic Z-matrix:
 Charge =  0 Multiplicity = 1

 SCF Done:  E(RHF) =  -593.884073407     A.U. after   13 cycles

 1\1\GINC-SE260\Stability\RHF\Aug-CC-pVDZ\C5H12S1\OHZDE\06-Apr-2025\0\\
 #t hf aug-cc-pvdz symm=none int=(grid=ultrafine) guess=(read,tcheck) s
 table=(opt,rrhf)\\title\\0,1\C,0,0.674889,0.42491,0.\C,0,1.189289,1.87
 5357,0.\H,0,2.280421,1.893123,0.\S,0,-1.677881,-1.162383,0.\H,0,-2.940
 602,-0.701861,0.\C,0,-0.86456,0.499457,0.\C,0,1.189289,-0.290385,1.258
 329\C,0,1.189289,-0.290385,-1.258329\H,0,-1.202991,1.037483,0.88438\H,
 0,-1.202991,1.037483,-0.88438\H,0,2.280323,-0.281639,1.280304\H,0,2.28
 0323,-0.281639,-1.280304\H,0,0.862904,-1.329613,1.294987\H,0,0.862904,

 Normal termination of Gaussian 16 at Sun Apr  6 08:00:37 2025.
 Gaussian 16:  ES64L-G16RevC.01  3-Jul-2019

 ----------------------------------------------------------------------
 #t hf aug-cc-pvdz iop(5/13=1,5/36=2,99/5=2) pseudo=read geom=check gue
 ss=(read,tcheck) scf=(maxcycle=1)
 ----------------------------------------------------------------------
 -----
 title
 -----
 Structure from the checkpoint file:  "2-2-dimethyl-1-propanethiol.chk"
 Charge =  0 Multiplicity = 1

                         Standard orientation:
 ---------------------------------------------------------------------
 Center     Atomic      Atomic             Coordinates (Angstroms)
 Number     Number       Type             X           Y           Z
 ---------------------------------------------------------------------
      1          6           0        0.674889    0.424910    0.000000
      2          6           0        1.189289    1.875357    0.000000
      3          1           0        2.280421    1.893123    0.000000
      4         16           0       -1.677881   -1.162383    0.000000
      5          1           0       -2.940602   -0.701861    0.000000
      6          6           0       -0.864560    0.499457    0.000000
      7          6           0        1.189289   -0.290385    1.258329
      8          6           0        1.189289   -0.290385   -1.258329
      9          1           0       -1.202991    1.037483    0.884380
     10          1           0       -1.202991    1.037483   -0.884380
     11          1           0        2.280323   -0.281639    1.280304
     12          1           0        2.280323   -0.281639   -1.280304
     13          1           0        0.862904   -1.329613    1.294987
     14          1           0        0.862904   -1.329613   -1.294987
     15          1           0        0.831671    0.202325    2.164531
     16          1           0        0.831671    0.202325   -2.164531
     17          1           0        0.846646    2.418019   -0.883096
     18          1           0        0.846646    2.418019    0.883096
 ---------------------------------------------------------------------

 SCF Done:  E(RHF) =  -595.151191258     A.U. after    2 cycles

 The electronic state is 1-A'.
 Alpha  occ. eigenvalues --  -75.67769 -13.14778 -13.08001 -13.02680 -11.42583
 Alpha  occ. eigenvalues --  -11.40599 -11.38668 -11.38367 -11.34862  -8.01624
 Alpha  occ. eigenvalues --   -1.31456  -1.12948  -1.00694  -1.00468  -0.94282
 Alpha  occ. eigenvalues --   -0.76953  -0.63776  -0.63399  -0.60691  -0.56926
 Alpha  occ. eigenvalues --   -0.55159  -0.52218  -0.51198  -0.50913  -0.44624
 Alpha  occ. eigenvalues --   -0.42653  -0.41783  -0.36447  -0.23264
 Alpha virt. eigenvalues --    0.03375   0.04475   0.05524   0.05590   0.05861
 Alpha virt. eigenvalues --    0.05941   0.06098   0.06338   0.06459   0.08982
 Alpha virt. eigenvalues --    0.09115   0.09551   0.11023   0.11979   0.13229

 Mulliken charges:
               1
     1  C    5.498786
     2  C   -4.699378
     3  H    1.261778
     4  S   -0.870678
     5  H    0.886422
     6  C   -4.542533
     7  C   -5.047655
     8  C   -5.047655
     9  H    1.351566
    10  H    1.351566
    11  H    1.212370
    12  H    1.212370
    13  H    1.333831
    14  H    1.333831
    15  H    1.149138
    16  H    1.149138
    17  H    1.233551
    18  H    1.233551
 Sum of Mulliken charges =  -0.00000

 Dipole moment (field-independent basis, Debye):
    X=              1.1098    Y=             -0.1266    Z=              0.0000  Tot=              1.1170

 Test job not archived.
 1\1\GINC-SE260\SP\RHF\Aug-CC-pVDZ\C5H12S1\OHZDE\06-Apr-2025\0\\#t hf a
 ug-cc-pvdz iop(5/13=1,5/36=2,99/5=2) pseudo=read geom=check guess=(rea
 d,tcheck) scf=(maxcycle=1)\\title\\0,1\C,0,0.674889,0.42491,0.\C,0,1.1
 89289,1.875357,0.\H,0,2.280421,1.893123,0.\S,0,-1.677881,-1.162383,0.\
 H,0,-2.940602,-0.701861,0.\C,0,-0.86456,0.499457,0.\C,0,1.189289,-0.29
 0385,1.258329\C,0,1.189289,-0.290385,-1.258329\H,0,-1.202991,1.037483,
 0.88438\H,0,-1.202991,1.037483,-0.88438\H,0,2.280323,-0.281639,1.28030
 4\H,0,2.280323,-0.281639,-1.280304\H,0,0.862904,-1.329613,1.294987\H,0

 Normal termination of Gaussian 16 at Sun Apr  6 08:01:14 2025.
