 Gaussian 16, Revision C.01,

 ----------------------------------------------------------------------
 #t hf aug-cc-pvdz symm=none int=(grid=ultrafine) guess=(read,tcheck) s
 table=(opt,rrhf)
 ----------------------------------------------------------------------
 -----
 title
 -----
 Symbolic Z-matrix:
 Charge =  0 Multiplicity = 1

 SCF Done:  E(RHF) =  -456.162592395     A.U. after   15 cycles
 Normal termination of Gaussian 16 at Sun Apr  6 08:00:54 2025.
 Gaussian 16:  ES64L-G16RevC.01  3-Jul-2019

 ----------------------------------------------------------------------
 #t hf aug-cc-pvdz iop(5/13=1,5/36=2,99/5=2) pseudo=read geom=check gue
 ss=(read,tcheck) scf=(maxcycle=1)
 ----------------------------------------------------------------------
 -----
 title
 -----
 Structure from the checkpoint file:  "2-2--bifuran.chk"
 Charge =  0 Multiplicity = 1

                         Standard orientation:
 ---------------------------------------------------------------------
 Center     Atomic      Atomic             Coordinates (Angstroms)
 Number     Number       Type             X           Y           Z
 ---------------------------------------------------------------------
      1          6           0       -0.340935    2.925198    0.000000
      2          6           0        0.340935   -2.925198    0.000000
      3          6           0       -0.990750    1.654854    0.000000
      4          6           0        0.990750   -1.654854    0.000000
      5          6           0        0.990750    2.673861    0.000000
      6          6           0       -0.990750   -2.673861    0.000000
      7          6           0        0.001025    0.717171    0.000000
      8          6           0       -0.001025   -0.717171    0.000000
      9          8           0        1.221122    1.331017    0.000000
     10          8           0       -1.221122   -1.331017    0.000000
     11          1           0       -0.806983    3.895142    0.000000
     12          1           0        0.806983   -3.895142    0.000000
     13          1           0       -2.047458    1.455961    0.000000
     14          1           0        2.047458   -1.455961    0.000000
     15          1           0        1.864288    3.299524    0.000000
     16          1           0       -1.864288   -3.299524    0.000000
 ---------------------------------------------------------------------

 SCF Done:  E(RHF) =  -458.221411044     A.U. after    2 cycles

 The electronic state is 1-AG.
 Alpha  occ. eigenvalues --  -21.11565 -21.11542 -11.50866 -11.48256 -11.46924
 Alpha  occ. eigenvalues --  -11.45291 -11.42962 -11.42725 -11.39696 -11.38174
 Alpha  occ. eigenvalues --   -1.86876  -1.83262  -1.20444  -1.20307  -1.12793
 Alpha  occ. eigenvalues --   -1.01678  -0.85964  -0.82618  -0.79121  -0.75780
 Alpha  occ. eigenvalues --   -0.74882  -0.66888  -0.60719  -0.55714  -0.55604
 Alpha  occ. eigenvalues --   -0.54244  -0.52925  -0.50998  -0.49132  -0.43804
 Alpha  occ. eigenvalues --   -0.43013  -0.37827  -0.34057  -0.33260  -0.26630
 Alpha virt. eigenvalues --    0.03320   0.04503   0.05383   0.05562   0.06039
 Alpha virt. eigenvalues --    0.06960   0.08995   0.10296   0.10575   0.11163
 Alpha virt. eigenvalues --    0.11489   0.12365   0.12904   0.12969   0.13887

 Mulliken charges:
               1
     1  C   -2.251921
     2  C   -2.251921
     3  C   -3.789922
     4  C   -3.789922
     5  C   -0.106130
     6  C   -0.106130
     7  C    6.781506
     8  C    6.781506
     9  O   -4.780247
    10  O   -4.780247
    11  H    1.304308
    12  H    1.304308
    13  H    1.342500
    14  H    1.342500
    15  H    1.499906
    16  H    1.499906
 Sum of Mulliken charges =  -0.00000

 Dipole moment (field-independent basis, Debye):
    X=             -0.0000    Y=             -0.0000    Z=              0.0000  Tot=              0.0000

 Test job not archived.
 1\1\GINC-SE401\SP\RHF\Aug-CC-pVDZ\C8H6O2\OHZDE\06-Apr-2025\0\\#t hf au
 g-cc-pvdz iop(5/13=1,5/36=2,99/5=2) pseudo=read geom=check guess=(read
 ,tcheck) scf=(maxcycle=1)\\title\\0,1\C,0,-0.340935,2.925198,0.\C,0,0.
 340935,-2.925198,0.\C,0,-0.99075,1.654854,0.\C,0,0.99075,-1.654854,0.\
 C,0,0.99075,2.673861,0.\C,0,-0.99075,-2.673861,0.\C,0,0.001025,0.71717
 1,0.\C,0,-0.001025,-0.717171,0.\O,0,1.221122,1.331017,0.\O,0,-1.221122
 ,-1.331017,0.\H,0,-0.806983,3.895142,0.\H,0,0.806983,-3.895142,0.\H,0,
 -2.047458,1.455961,0.\H,0,2.047458,-1.455961,0.\H,0,1.864288,3.299524,

 Normal termination of Gaussian 16 at Sun Apr  6 08:01:14 2025.
