 Gaussian 16, Revision C.01,

 ----------------------------------------------------------------------
 #t hf aug-cc-pvdz symm=none int=(grid=ultrafine) guess=(read,tcheck) s
 table=(opt,rrhf)
 ----------------------------------------------------------------------
 -----
 title
 -----
 Symbolic Z-matrix:
 Charge =  0 Multiplicity = 1

 SCF Done:  E(RHF) =  -848.101209218     A.U. after   17 cycles
 Normal termination of Gaussian 16 at Sun Apr  6 08:00:41 2025.
 Gaussian 16:  ES64L-G16RevC.01  3-Jul-2019

 ----------------------------------------------------------------------
 #t hf aug-cc-pvdz iop(5/13=1,5/36=2,99/5=2) pseudo=read geom=check gue
 ss=(read,tcheck) scf=(maxcycle=1)
 ----------------------------------------------------------------------
 -----
 title
 -----
 Structure from the checkpoint file:  "2-2-nitrosoamino-3-sulfanylpropanoic_acid.chk"
 Charge =  0 Multiplicity = 1

                         Standard orientation:
 ---------------------------------------------------------------------
 Center     Atomic      Atomic             Coordinates (Angstroms)
 Number     Number       Type             X           Y           Z
 ---------------------------------------------------------------------
      1         16           0       -2.712144   -0.669689    0.037222
      2          8           0        0.933734    2.198989    0.455731
      3          8           0       -0.813212    1.753882   -0.838351
      4          8           0        3.132632   -1.292924   -0.368579
      5          7           0        1.364274   -0.584057    0.618722
      6          7           0        2.135784   -0.617459   -0.478845
      7          6           0        0.002543   -0.066606    0.511530
      8          6           0       -0.932563   -0.985226   -0.286130
      9          6           0       -0.000890    1.370282   -0.050456
     10          1           0       -0.365039    0.012010    1.536683
     11          1           0       -0.768377   -0.838439   -1.350349
     12          1           0       -0.717791   -2.023048   -0.047362
     13          1           0        1.618464   -1.240568    1.355307
     14          1           0       -2.888807   -1.681240    0.906858
     15          1           0        1.575666    1.706649    0.984110
 ---------------------------------------------------------------------

 SCF Done:  E(RHF) =  -850.262168138     A.U. after    2 cycles

 The electronic state is 1-A.
 Alpha  occ. eigenvalues --  -75.70255 -21.13886 -21.11846 -21.06997 -15.91505
 Alpha  occ. eigenvalues --  -15.82425 -13.16023 -13.10825 -13.04508 -11.55751
 Alpha  occ. eigenvalues --  -11.50346 -11.43432  -8.04063  -1.89798  -1.84259
 Alpha  occ. eigenvalues --   -1.67708  -1.48263  -1.23902  -1.10863  -0.97302
 Alpha  occ. eigenvalues --   -0.94396  -0.80541  -0.74309  -0.73862  -0.66698
 Alpha  occ. eigenvalues --   -0.65215  -0.61435  -0.58833  -0.55359  -0.53478
 Alpha  occ. eigenvalues --   -0.52296  -0.50410  -0.46506  -0.41988  -0.36803
 Alpha  occ. eigenvalues --   -0.35219  -0.32174  -0.31131  -0.24988
 Alpha virt. eigenvalues --    0.02472   0.03945   0.04457   0.05107   0.05848
 Alpha virt. eigenvalues --    0.06986   0.09088   0.10165   0.10835   0.11290
 Alpha virt. eigenvalues --    0.12065   0.12830   0.13403   0.13862   0.14142

 Mulliken charges:
               1
     1  S   -0.558677
     2  O   -3.263298
     3  O   -3.121582
     4  O   -2.197999
     5  N   -0.691666
     6  N    0.968188
     7  C   -1.030841
     8  C   -3.629895
     9  C    5.968429
    10  H    2.099586
    11  H    1.443711
    12  H    1.217958
    13  H    0.714587
    14  H    1.038163
    15  H    1.043336
 Sum of Mulliken charges =  -0.00000

 Dipole moment (field-independent basis, Debye):
    X=             -0.4180    Y=             -0.6625    Z=              1.8000  Tot=              1.9631

 Test job not archived.
 1\1\GINC-SE259\SP\RHF\Aug-CC-pVDZ\C3H6N2O3S1\OHZDE\06-Apr-2025\0\\#t h
 f aug-cc-pvdz iop(5/13=1,5/36=2,99/5=2) pseudo=read geom=check guess=(
 read,tcheck) scf=(maxcycle=1)\\title\\0,1\S,0,-2.712144,-0.669688,0.03
 7222\O,0,0.933735,2.198989,0.455731\O,0,-0.813211,1.753882,-0.838351\O
 ,0,3.132632,-1.292925,-0.368579\N,0,1.364274,-0.584057,0.618722\N,0,2.
 135784,-0.61746,-0.478845\C,0,0.002543,-0.066606,0.51153\C,0,-0.932563
 ,-0.985226,-0.28613\C,0,-0.00089,1.370282,-0.050456\H,0,-0.365039,0.01
 201,1.536683\H,0,-0.768377,-0.838439,-1.350349\H,0,-0.717791,-2.023048

 Normal termination of Gaussian 16 at Sun Apr  6 08:01:16 2025.
