 Gaussian 16, Revision C.01,

 ----------------------------------------------------------------------
 #t hf aug-cc-pvdz symm=none int=(grid=ultrafine) guess=(read,tcheck) s
 table=(opt,rrhf)
 ----------------------------------------------------------------------
 -----
 title
 -----
 Symbolic Z-matrix:
 Charge =  0 Multiplicity = 1

 SCF Done:  E(RHF) =  -432.174330428     A.U. after   17 cycles
 Normal termination of Gaussian 16 at Sun Apr  6 08:00:32 2025.
 Gaussian 16:  ES64L-G16RevC.01  3-Jul-2019

 ----------------------------------------------------------------------
 #t hf aug-cc-pvdz iop(5/13=1,5/36=2,99/5=2) pseudo=read geom=check gue
 ss=(read,tcheck) scf=(maxcycle=1)
 ----------------------------------------------------------------------
 -----
 title
 -----
 Structure from the checkpoint file:  "2-2-oxoethylideneaminooxyethenone.chk"
 Charge =  0 Multiplicity = 1

                         Standard orientation:
 ---------------------------------------------------------------------
 Center     Atomic      Atomic             Coordinates (Angstroms)
 Number     Number       Type             X           Y           Z
 ---------------------------------------------------------------------
      1          8           0       -0.632058    0.672130   -0.429729
      2          8           0       -3.588830   -0.935067   -0.145234
      3          8           0        3.802898   -0.381162   -0.172489
      4          7           0        0.433297    0.185855    0.340131
      5          6           0       -1.809404    0.727301    0.307417
      6          6           0        1.516191    0.170796   -0.329905
      7          6           0       -2.745700   -0.171725    0.074575
      8          6           0        2.724311   -0.315122    0.366593
      9          1           0       -1.953915    1.509033    1.036401
     10          1           0        1.584308    0.490399   -1.366547
     11          1           0        2.568061   -0.615137    1.416763
 ---------------------------------------------------------------------

 SCF Done:  E(RHF) =  -433.994806653     A.U. after    2 cycles

 The electronic state is 1-A.
 Alpha  occ. eigenvalues --  -21.16169 -21.13180 -21.08955 -15.83360 -11.56348
 Alpha  occ. eigenvalues --  -11.50847 -11.45315 -11.44965  -1.87400  -1.78875
 Alpha  occ. eigenvalues --   -1.73099  -1.33518  -1.09547  -0.96151  -0.83886
 Alpha  occ. eigenvalues --   -0.76322  -0.68630  -0.67712  -0.63184  -0.59480
 Alpha  occ. eigenvalues --   -0.56995  -0.56594  -0.53731  -0.49745  -0.47079
 Alpha  occ. eigenvalues --   -0.40910  -0.34108  -0.32226  -0.29584
 Alpha virt. eigenvalues --    0.03427   0.05135   0.05889   0.08018   0.08268
 Alpha virt. eigenvalues --    0.09638   0.10283   0.10817   0.10918   0.11436
 Alpha virt. eigenvalues --    0.12316   0.12831   0.13191   0.13482   0.14501

 Mulliken charges:
               1
     1  O   -3.302860
     2  O   -2.344809
     3  O   -2.748233
     4  N   -0.589405
     5  C    0.833607
     6  C   -0.306233
     7  C    1.862956
     8  C    1.955748
     9  H    1.527231
    10  H    1.635072
    11  H    1.476927
 Sum of Mulliken charges =   0.00000

 Dipole moment (field-independent basis, Debye):
    X=             -1.9675    Y=             -0.0302    Z=             -0.2440  Tot=              1.9828

 Test job not archived.
 1\1\GINC-SE023\SP\RHF\Aug-CC-pVDZ\C4H3N1O3\OHZDE\06-Apr-2025\0\\#t hf
 aug-cc-pvdz iop(5/13=1,5/36=2,99/5=2) pseudo=read geom=check guess=(re
 ad,tcheck) scf=(maxcycle=1)\\title\\0,1\O,0,-0.632058,0.67213,-0.42972
 9\O,0,-3.58883,-0.935067,-0.145234\O,0,3.802898,-0.381162,-0.172489\N,
 0,0.433297,0.185855,0.340131\C,0,-1.809404,0.727301,0.307417\C,0,1.516
 191,0.170796,-0.329905\C,0,-2.7457,-0.171725,0.074575\C,0,2.724311,-0.
 315122,0.366593\H,0,-1.953915,1.509033,1.036401\H,0,1.584308,0.490399,
 -1.366547\H,0,2.568061,-0.615137,1.416763\\Version=ES64L-G16RevC.01\St

 Normal termination of Gaussian 16 at Sun Apr  6 08:00:38 2025.
