 Gaussian 16, Revision C.01,

 ----------------------------------------------------------------------
 #t hf aug-cc-pvdz symm=none int=(grid=ultrafine) guess=(read,tcheck) s
 table=(opt,rrhf)
 ----------------------------------------------------------------------
 -----
 title
 -----
 Symbolic Z-matrix:
 Charge =  0 Multiplicity = 1

 SCF Done:  E(RHF) =  -391.471712331     A.U. after   16 cycles
 Normal termination of Gaussian 16 at Sun Apr  6 08:00:06 2025.
 Gaussian 16:  ES64L-G16RevC.01  3-Jul-2019

 ----------------------------------------------------------------------
 #t hf aug-cc-pvdz iop(5/13=1,5/36=2,99/5=2) pseudo=read geom=check gue
 ss=(read,tcheck) scf=(maxcycle=1)
 ----------------------------------------------------------------------
 -----
 title
 -----
 Structure from the checkpoint file:  "2-2-dicyanoacetamide.chk"
 Charge =  0 Multiplicity = 1

                         Standard orientation:
 ---------------------------------------------------------------------
 Center     Atomic      Atomic             Coordinates (Angstroms)
 Number     Number       Type             X           Y           Z
 ---------------------------------------------------------------------
      1          8           0       -2.033652    0.612085   -0.561323
      2          7           0       -1.365161   -1.096228    0.782146
      3          7           0        1.209015    2.325639    0.584750
      4          7           0        1.852386   -1.914576   -0.073469
      5          6           0        0.319024    0.144506   -0.545846
      6          6           0       -1.174935   -0.099454   -0.102612
      7          6           0        0.820960    1.367479    0.085232
      8          6           0        1.211307   -0.986419   -0.292477
      9          1           0        0.261923    0.314072   -1.623641
     10          1           0       -0.620034   -1.690701    1.101554
     11          1           0       -2.304489   -1.280566    1.092902
 ---------------------------------------------------------------------

 SCF Done:  E(RHF) =  -393.177778754     A.U. after    2 cycles

 The electronic state is 1-A.
 Alpha  occ. eigenvalues --  -21.07552 -15.82636 -15.81167 -15.79808 -11.58142
 Alpha  occ. eigenvalues --  -11.54522 -11.48837 -11.47063  -1.75847  -1.42284
 Alpha  occ. eigenvalues --   -1.36772  -1.33209  -1.20658  -0.89104  -0.81710
 Alpha  occ. eigenvalues --   -0.77899  -0.75616  -0.66113  -0.58248  -0.57948
 Alpha  occ. eigenvalues --   -0.55438  -0.54305  -0.49920  -0.49119  -0.46948
 Alpha  occ. eigenvalues --   -0.46636  -0.36731  -0.33476
 Alpha virt. eigenvalues --    0.02213   0.04698   0.06127   0.08144   0.08739
 Alpha virt. eigenvalues --    0.09676   0.10412   0.10824   0.11404   0.11932
 Alpha virt. eigenvalues --    0.12548   0.12660   0.14084   0.14330   0.14987

 Mulliken charges:
               1
     1  O   -3.294288
     2  N   -3.114389
     3  N   -2.567817
     4  N   -2.422664
     5  C   -1.888369
     6  C    5.495809
     7  C    2.300957
     8  C    2.408209
     9  H    1.540611
    10  H    0.767325
    11  H    0.774616
 Sum of Mulliken charges =  -0.00000

 Dipole moment (field-independent basis, Debye):
    X=             -2.3107    Y=             -2.1984    Z=             -0.2617  Tot=              3.2001

 Test job not archived.
 1\1\GINC-SE433\SP\RHF\Aug-CC-pVDZ\C4H3N3O1\OHZDE\06-Apr-2025\0\\#t hf
 aug-cc-pvdz iop(5/13=1,5/36=2,99/5=2) pseudo=read geom=check guess=(re
 ad,tcheck) scf=(maxcycle=1)\\title\\0,1\O,0,-2.033653,0.612083,-0.5613
 23\N,0,-1.36516,-1.096229,0.782146\N,0,1.209013,2.32564,0.58475\N,0,1.
 852388,-1.914574,-0.073469\C,0,0.319024,0.144506,-0.545846\C,0,-1.1749
 35,-0.099455,-0.102612\C,0,0.820959,1.36748,0.085232\C,0,1.211308,-0.9
 86418,-0.292477\H,0,0.261923,0.314072,-1.623641\H,0,-0.620032,-1.69070
 2,1.101554\H,0,-2.304488,-1.280568,1.092902\\Version=ES64L-G16RevC.01\

 Normal termination of Gaussian 16 at Sun Apr  6 08:00:11 2025.
