 Gaussian 16, Revision C.01,

 ----------------------------------------------------------------------
 #t hf aug-cc-pvdz symm=none int=(grid=ultrafine) guess=(read,tcheck) s
 table=(opt,rrhf)
 ----------------------------------------------------------------------
 -----
 title
 -----
 Symbolic Z-matrix:
 Charge =  0 Multiplicity = 1

 SCF Done:  E(RHF) =  -196.355001592     A.U. after   10 cycles
 Normal termination of Gaussian 16 at Sun Apr  6 08:00:22 2025.
 Gaussian 16:  ES64L-G16RevC.01  3-Jul-2019

 ----------------------------------------------------------------------
 #t hf aug-cc-pvdz iop(5/13=1,5/36=2,99/5=2) pseudo=read geom=check gue
 ss=(read,tcheck) scf=(maxcycle=1)
 ----------------------------------------------------------------------
 -----
 title
 -----
 Structure from the checkpoint file:  "2-2-dimethylpropane.chk"
 Charge =  0 Multiplicity = 1

                         Standard orientation:
 ---------------------------------------------------------------------
 Center     Atomic      Atomic             Coordinates (Angstroms)
 Number     Number       Type             X           Y           Z
 ---------------------------------------------------------------------
      1          6           0        0.000000    0.000000    0.000000
      2          6           0        0.886726    0.886726    0.886726
      3          6           0       -0.886726   -0.886726    0.886726
      4          6           0        0.886726   -0.886726   -0.886726
      5          6           0       -0.886726    0.886726   -0.886726
      6          1           0       -1.529798    0.282357   -1.529798
      7          1           0        1.529798    1.529798    0.282357
      8          1           0        1.529798   -0.282357   -1.529798
      9          1           0        1.529798    0.282357    1.529798
     10          1           0       -1.529798   -0.282357    1.529798
     11          1           0        1.529798   -1.529798   -0.282357
     12          1           0       -0.282357    1.529798   -1.529798
     13          1           0        0.282357    1.529798    1.529798
     14          1           0        0.282357   -1.529798   -1.529798
     15          1           0       -0.282357   -1.529798    1.529798
     16          1           0       -1.529798    1.529798   -0.282357
     17          1           0       -1.529798   -1.529798    0.282357
 ---------------------------------------------------------------------

 SCF Done:  E(RHF) =  -197.405638544     A.U. after    2 cycles

 The electronic state is 1-A1.
 Alpha  occ. eigenvalues --  -11.39731 -11.37819 -11.37819 -11.37819 -11.33451
 Alpha  occ. eigenvalues --   -1.28634  -0.99747  -0.99747  -0.99747  -0.76446
 Alpha  occ. eigenvalues --   -0.61341  -0.61341  -0.61341  -0.54923  -0.54923
 Alpha  occ. eigenvalues --   -0.50421  -0.50421  -0.50421  -0.41436  -0.41436
 Alpha  occ. eigenvalues --   -0.41436
 Alpha virt. eigenvalues --    0.03775   0.05673   0.05673   0.05673   0.06288
 Alpha virt. eigenvalues --    0.06288   0.06353   0.06353   0.06353   0.09272
 Alpha virt. eigenvalues --    0.09272   0.09272   0.11499   0.13703   0.13703

 Mulliken charges:
               1
     1  C    2.902227
     2  C   -4.450183
     3  C   -4.450183
     4  C   -4.450183
     5  C   -4.450183
     6  H    1.241542
     7  H    1.241542
     8  H    1.241542
     9  H    1.241542
    10  H    1.241542
    11  H    1.241542
    12  H    1.241542
    13  H    1.241542
    14  H    1.241542
    15  H    1.241542
    16  H    1.241542
    17  H    1.241542
 Sum of Mulliken charges =  -0.00000

 Dipole moment (field-independent basis, Debye):
    X=              0.0000    Y=              0.0000    Z=             -0.0000  Tot=              0.0000

 Test job not archived.
 1\1\GINC-SE258\SP\RHF\Aug-CC-pVDZ\C5H12\OHZDE\06-Apr-2025\0\\#t hf aug
 -cc-pvdz iop(5/13=1,5/36=2,99/5=2) pseudo=read geom=check guess=(read,
 tcheck) scf=(maxcycle=1)\\title\\0,1\C,0,0.,0.,0.\C,0,0.886726,0.88672
 6,0.886726\C,0,-0.886726,-0.886726,0.886726\C,0,0.886726,-0.886726,-0.
 886726\C,0,-0.886726,0.886726,-0.886726\H,0,-1.529798,0.282357,-1.5297
 98\H,0,1.529798,1.529798,0.282357\H,0,1.529798,-0.282357,-1.529798\H,0
 ,1.529798,0.282357,1.529798\H,0,-1.529798,-0.282357,1.529798\H,0,1.529
 798,-1.529798,-0.282357\H,0,-0.282357,1.529798,-1.529798\H,0,0.282357,

 Normal termination of Gaussian 16 at Sun Apr  6 08:00:36 2025.
