 Gaussian 16, Revision C.01,

 ----------------------------------------------------------------------
 #t hf aug-cc-pvdz symm=none int=(grid=ultrafine) guess=(read,tcheck) s
 table=(opt,rrhf)
 ----------------------------------------------------------------------
 -----
 title
 -----
 Symbolic Z-matrix:
 Charge =  0 Multiplicity = 1

 SCF Done:  E(RHF) =  -1057.77223330     A.U. after   14 cycles
 Normal termination of Gaussian 16 at Sun Apr  6 08:00:09 2025.
 Gaussian 16:  ES64L-G16RevC.01  3-Jul-2019

 ----------------------------------------------------------------------
 #t hf aug-cc-pvdz iop(5/13=1,5/36=2,99/5=2) pseudo=read geom=check gue
 ss=(read,tcheck) scf=(maxcycle=1)
 ----------------------------------------------------------------------
 -----
 title
 -----
 Structure from the checkpoint file:  "2-2--disulfanediyldiacetonitrile.chk"
 Charge =  0 Multiplicity = 1

                         Standard orientation:
 ---------------------------------------------------------------------
 Center     Atomic      Atomic             Coordinates (Angstroms)
 Number     Number       Type             X           Y           Z
 ---------------------------------------------------------------------
      1         16           0        0.406791    0.942610    0.784578
      2         16           0       -0.406791   -0.942610    0.784578
      3          7           0        0.183607    4.290300   -0.635604
      4          7           0       -0.183607   -4.290300   -0.635604
      5          6           0       -0.625549    1.822703   -0.494613
      6          6           0        0.625549   -1.822703   -0.494613
      7          6           0       -0.183607    3.202009   -0.580957
      8          6           0        0.183607   -3.202009   -0.580957
      9          1           0       -0.505885    1.334775   -1.459501
     10          1           0       -1.669096    1.778086   -0.191095
     11          1           0        0.505885   -1.334775   -1.459501
     12          1           0        1.669096   -1.778086   -0.191095
 ---------------------------------------------------------------------

 SCF Done:  E(RHF) =  -1059.41049504     A.U. after    2 cycles

 The electronic state is 1-A.
 Alpha  occ. eigenvalues --  -75.75490 -75.75297 -15.78588 -15.78579 -13.20407
 Alpha  occ. eigenvalues --  -13.17612 -13.14717 -13.12819 -13.09661 -13.08599
 Alpha  occ. eigenvalues --  -11.49824 -11.49807 -11.45277 -11.45196  -8.09291
 Alpha  occ. eigenvalues --   -8.09196  -1.36997  -1.34623  -1.27958  -1.18794
 Alpha  occ. eigenvalues --   -1.08196  -0.95038  -0.73770  -0.73593  -0.68019
 Alpha  occ. eigenvalues --   -0.67804  -0.59123  -0.54931  -0.53863  -0.53495
 Alpha  occ. eigenvalues --   -0.46229  -0.46005  -0.43957  -0.43528  -0.38802
 Alpha  occ. eigenvalues --   -0.29317  -0.28910
 Alpha virt. eigenvalues --    0.01371   0.02386   0.04207   0.04489   0.07352
 Alpha virt. eigenvalues --    0.07855   0.08419   0.09241   0.09725   0.09938
 Alpha virt. eigenvalues --    0.11253   0.11644   0.12231   0.12711   0.13307

 Mulliken charges:
               1
     1  S    0.220214
     2  S    0.220214
     3  N   -2.237848
     4  N   -2.237848
     5  C   -3.320692
     6  C   -3.320692
     7  C    2.101061
     8  C    2.101061
     9  H    1.607614
    10  H    1.629651
    11  H    1.607614
    12  H    1.629651
 Sum of Mulliken charges =   0.00000

 Dipole moment (field-independent basis, Debye):
    X=             -0.0000    Y=             -0.0000    Z=              1.6665  Tot=              1.6665

 Test job not archived.
 1\1\GINC-SE402\SP\RHF\Aug-CC-pVDZ\C4H4N2S2\OHZDE\06-Apr-2025\0\\#t hf
 aug-cc-pvdz iop(5/13=1,5/36=2,99/5=2) pseudo=read geom=check guess=(re
 ad,tcheck) scf=(maxcycle=1)\\title\\0,1\S,0,0.406791,0.94261,0.784578\
 S,0,-0.406791,-0.94261,0.784578\N,0,0.183607,4.2903,-0.635604\N,0,-0.1
 83607,-4.2903,-0.635604\C,0,-0.625549,1.822703,-0.494613\C,0,0.625549,
 -1.822703,-0.494613\C,0,-0.183607,3.202009,-0.580957\C,0,0.183607,-3.2
 02009,-0.580957\H,0,-0.505885,1.334775,-1.459501\H,0,-1.669096,1.77808
 6,-0.191095\H,0,0.505885,-1.334775,-1.459501\H,0,1.669096,-1.778086,-0

 Normal termination of Gaussian 16 at Sun Apr  6 08:00:14 2025.
