 Gaussian 16, Revision C.01,

 ----------------------------------------------------------------------
 #t hf aug-cc-pvdz symm=none int=(grid=ultrafine) guess=(read,tcheck) s
 table=(opt,rrhf)
 ----------------------------------------------------------------------
 -----
 title
 -----
 Symbolic Z-matrix:
 Charge =  0 Multiplicity = 1

 SCF Done:  E(RHF) =  -1109.89876709     A.U. after   13 cycles
 Normal termination of Gaussian 16 at Sun Apr  6 08:00:02 2025.
 Gaussian 16:  ES64L-G16RevC.01  3-Jul-2019

 ----------------------------------------------------------------------
 #t hf aug-cc-pvdz iop(5/13=1,5/36=2,99/5=2) pseudo=read geom=check gue
 ss=(read,tcheck) scf=(maxcycle=1)
 ----------------------------------------------------------------------
 -----
 title
 -----
 Structure from the checkpoint file:  "2-2-difluoro-1-3-dithiolane.chk"
 Charge =  0 Multiplicity = 1

                         Standard orientation:
 ---------------------------------------------------------------------
 Center     Atomic      Atomic             Coordinates (Angstroms)
 Number     Number       Type             X           Y           Z
 ---------------------------------------------------------------------
      1         16           0       -0.180530   -1.510125    0.096697
      2         16           0       -0.180530    1.510125   -0.096698
      3          9           0        1.690299   -0.019073   -1.077617
      4          9           0        1.690298    0.019073    1.077618
      5          6           0        0.856748   -0.000000   -0.000000
      6          6           0       -1.750263   -0.681445   -0.334640
      7          6           0       -1.750262    0.681445    0.334641
      8          1           0       -2.551770   -1.315256    0.043945
      9          1           0       -1.841107   -0.594140   -1.415457
     10          1           0       -2.551770    1.315257   -0.043944
     11          1           0       -1.841105    0.594141    1.415458
 ---------------------------------------------------------------------

 SCF Done:  E(RHF) =  -1111.59307013     A.U. after    2 cycles

 The electronic state is 1-A.
 Alpha  occ. eigenvalues --  -75.70773 -75.70741 -29.29344 -29.29307 -13.14995
 Alpha  occ. eigenvalues --  -13.14566 -13.13525 -13.11950 -13.05704 -13.03611
 Alpha  occ. eigenvalues --  -11.55233 -11.46022 -11.41899  -8.05048  -8.04933
 Alpha  occ. eigenvalues --   -1.40448  -1.22542  -1.14714  -0.98493  -0.89248
 Alpha  occ. eigenvalues --   -0.82519  -0.68732  -0.68424  -0.61473  -0.58806
 Alpha  occ. eigenvalues --   -0.56391  -0.45486  -0.43714  -0.40001  -0.37685
 Alpha  occ. eigenvalues --   -0.34279  -0.30960  -0.26511  -0.22982  -0.21319
 Alpha  occ. eigenvalues --   -0.19391
 Alpha virt. eigenvalues --    0.02292   0.04822   0.04971   0.06493   0.06866
 Alpha virt. eigenvalues --    0.09056   0.10723   0.12016   0.12530   0.13238
 Alpha virt. eigenvalues --    0.13663   0.14274   0.14712   0.15566   0.16066

 Mulliken charges:
               1
     1  S    0.847998
     2  S    0.847999
     3  F    0.378833
     4  F    0.378832
     5  C   -0.966669
     6  C   -3.570601
     7  C   -3.570601
     8  H    1.375483
     9  H    1.451622
    10  H    1.375482
    11  H    1.451622
 Sum of Mulliken charges =   0.00000

 Dipole moment (field-independent basis, Debye):
    X=              2.1836    Y=              0.0000    Z=              0.0000  Tot=              2.1836

 Test job not archived.
 1\1\GINC-SE434\SP\RHF\Aug-CC-pVDZ\C3H4F2S2\OHZDE\06-Apr-2025\0\\#t hf
 aug-cc-pvdz iop(5/13=1,5/36=2,99/5=2) pseudo=read geom=check guess=(re
 ad,tcheck) scf=(maxcycle=1)\\title\\0,1\S,0,-0.18053,-1.510125,0.09669
 7\S,0,-0.18053,1.510125,-0.096698\F,0,1.690299,-0.019073,-1.077617\F,0
 ,1.690298,0.019073,1.077618\C,0,0.856748,0.,0.\C,0,-1.750263,-0.681445
 ,-0.33464\C,0,-1.750262,0.681445,0.334641\H,0,-2.55177,-1.315256,0.043
 945\H,0,-1.841107,-0.59414,-1.415457\H,0,-2.55177,1.315257,-0.043944\H
 ,0,-1.841105,0.594141,1.415458\\Version=ES64L-G16RevC.01\State=1-A\HF=

 Normal termination of Gaussian 16 at Sun Apr  6 08:00:07 2025.
