 Gaussian 16, Revision C.01,

 ----------------------------------------------------------------------
 #t hf aug-cc-pvdz symm=none int=(grid=ultrafine) guess=(read,tcheck) s
 table=(opt,rrhf)
 ----------------------------------------------------------------------
 -----
 title
 -----
 Symbolic Z-matrix:
 Charge =  0 Multiplicity = 1

 SCF Done:  E(RHF) =  -443.614036895     A.U. after   14 cycles
 Normal termination of Gaussian 16 at Sun Apr  6 08:00:00 2025.
 Gaussian 16:  ES64L-G16RevC.01  3-Jul-2019

 ----------------------------------------------------------------------
 #t hf aug-cc-pvdz iop(5/13=1,5/36=2,99/5=2) pseudo=read geom=check gue
 ss=(read,tcheck) scf=(maxcycle=1)
 ----------------------------------------------------------------------
 -----
 title
 -----
 Structure from the checkpoint file:  "2-2-difluoro-2-isocyanatoethane.chk"
 Charge =  0 Multiplicity = 1

                         Standard orientation:
 ---------------------------------------------------------------------
 Center     Atomic      Atomic             Coordinates (Angstroms)
 Number     Number       Type             X           Y           Z
 ---------------------------------------------------------------------
      1          9           0       -0.777482   -0.846334    1.091554
      2          9           0       -0.777487   -0.846342   -1.091545
      3          8           0        2.802791    0.007738   -0.000006
      4          7           0        0.529576    0.669815   -0.000003
      5          6           0       -0.715131   -0.014559    0.000002
      6          6           0       -1.891632    0.924090    0.000000
      7          6           0        1.670848    0.263476   -0.000005
      8          1           0       -2.809445    0.341143    0.000005
      9          1           0       -1.854854    1.552140   -0.887058
     10          1           0       -1.854850    1.552146    0.887056
 ---------------------------------------------------------------------

 SCF Done:  E(RHF) =  -445.363730733     A.U. after    2 cycles

 The electronic state is 1-A.
 Alpha  occ. eigenvalues --  -29.29382 -29.29340 -21.15262 -15.78223 -11.61647
 Alpha  occ. eigenvalues --  -11.59120 -11.40525  -1.79859  -1.50500  -1.26033
 Alpha  occ. eigenvalues --   -1.03541  -0.85415  -0.85326  -0.69052  -0.64978
 Alpha  occ. eigenvalues --   -0.61399  -0.59578  -0.57462  -0.56791  -0.45747
 Alpha  occ. eigenvalues --   -0.42619  -0.41590  -0.36159  -0.32269  -0.28861
 Alpha  occ. eigenvalues --   -0.27838  -0.22113
 Alpha virt. eigenvalues --    0.04102   0.05912   0.06131   0.07838   0.09691
 Alpha virt. eigenvalues --    0.10715   0.11372   0.11917   0.13308   0.14504
 Alpha virt. eigenvalues --    0.15076   0.16235   0.16397   0.17622   0.18994

 Mulliken charges:
               1
     1  F    0.505386
     2  F    0.505384
     3  O   -2.630708
     4  N   -3.054970
     5  C    1.718566
     6  C   -4.074893
     7  C    3.478666
     8  H    1.165631
     9  H    1.193470
    10  H    1.193467
 Sum of Mulliken charges =  -0.00000

 Dipole moment (field-independent basis, Debye):
    X=             -0.8554    Y=             -2.2380    Z=              0.0000  Tot=              2.3959

 Test job not archived.
 1\1\GINC-SE257\SP\RHF\Aug-CC-pVDZ\C3H3F2N1O1\OHZDE\06-Apr-2025\0\\#t h
 f aug-cc-pvdz iop(5/13=1,5/36=2,99/5=2) pseudo=read geom=check guess=(
 read,tcheck) scf=(maxcycle=1)\\title\\0,1\F,0,-0.777482,-0.846334,1.09
 1554\F,0,-0.777487,-0.846342,-1.091545\O,0,2.802791,0.007738,-0.000006
 \N,0,0.529576,0.669815,-0.000003\C,0,-0.715131,-0.014559,0.000002\C,0,
 -1.891632,0.92409,0.\C,0,1.670848,0.263476,-0.000005\H,0,-2.809445,0.3
 41143,0.000005\H,0,-1.854854,1.55214,-0.887058\H,0,-1.85485,1.552146,0
 .887056\\Version=ES64L-G16RevC.01\State=1-A\HF=-445.3637307\RMSD=1.974

 Normal termination of Gaussian 16 at Sun Apr  6 08:00:04 2025.
