 Gaussian 16, Revision C.01,

 ----------------------------------------------------------------------
 #t hf aug-cc-pvdz symm=none int=(grid=ultrafine) guess=(read,tcheck) s
 table=(opt,rrhf)
 ----------------------------------------------------------------------
 -----
 title
 -----
 Symbolic Z-matrix:
 Charge =  0 Multiplicity = 1

 SCF Done:  E(RHF) =  -396.273651469     A.U. after   14 cycles
 Normal termination of Gaussian 16 at Sun Apr  6 08:00:16 2025.
 Gaussian 16:  ES64L-G16RevC.01  3-Jul-2019

 ----------------------------------------------------------------------
 #t hf aug-cc-pvdz iop(5/13=1,5/36=2,99/5=2) pseudo=read geom=check gue
 ss=(read,tcheck) scf=(maxcycle=1)
 ----------------------------------------------------------------------
 -----
 title
 -----
 Structure from the checkpoint file:  "2-2--methyliminodiacetylenol.chk"
 Charge =  0 Multiplicity = 1

                         Standard orientation:
 ---------------------------------------------------------------------
 Center     Atomic      Atomic             Coordinates (Angstroms)
 Number     Number       Type             X           Y           Z
 ---------------------------------------------------------------------
      1          8           0        3.378898   -1.121353    0.151039
      2          8           0       -3.378897   -1.121355    0.151039
      3          7           0       -0.000000    0.726298   -0.101503
      4          6           0        1.173373    0.061418   -0.031423
      5          6           0       -1.173373    0.061419   -0.031423
      6          6           0        2.234557   -0.498966   -0.039656
      7          6           0       -2.234557   -0.498966   -0.039656
      8          6           0       -0.000000    2.188036    0.049856
      9          1           0        3.788790   -1.339293   -0.695372
     10          1           0       -3.788797   -1.339280   -0.695372
     11          1           0       -0.000002    2.478463    1.103218
     12          1           0        0.888064    2.590021   -0.432378
     13          1           0       -0.888061    2.590022   -0.432382
 ---------------------------------------------------------------------

 SCF Done:  E(RHF) =  -398.018252526     A.U. after    2 cycles

 The electronic state is 1-A.
 Alpha  occ. eigenvalues --  -21.14308 -21.14247 -15.78728 -11.44296 -11.43198
 Alpha  occ. eigenvalues --  -11.42379 -11.42334 -11.40630  -1.77541  -1.77414
 Alpha  occ. eigenvalues --   -1.46583  -1.07926  -1.06736  -0.96392  -0.79600
 Alpha  occ. eigenvalues --   -0.71143  -0.68408  -0.64510  -0.62799  -0.56896
 Alpha  occ. eigenvalues --   -0.56003  -0.54797  -0.50637  -0.50408  -0.48149
 Alpha  occ. eigenvalues --   -0.36660  -0.32393  -0.29325  -0.26071
 Alpha virt. eigenvalues --    0.02817   0.04348   0.05209   0.06554   0.06578
 Alpha virt. eigenvalues --    0.09153   0.09869   0.10962   0.11455   0.12273
 Alpha virt. eigenvalues --    0.12918   0.13426   0.13641   0.14154   0.15487

 Mulliken charges:
               1
     1  O   -3.529601
     2  O   -3.529601
     3  N   -3.442570
     4  C    1.218769
     5  C    1.218783
     6  C    3.012880
     7  C    3.012870
     8  C   -3.628262
     9  H    0.833471
    10  H    0.833472
    11  H    1.310757
    12  H    1.344516
    13  H    1.344516
 Sum of Mulliken charges =   0.00000

 Dipole moment (field-independent basis, Debye):
    X=             -0.0000    Y=              0.4268    Z=             -1.2550  Tot=              1.3256

 Test job not archived.
 1\1\GINC-SE403\SP\RHF\Aug-CC-pVDZ\C5H5N1O2\OHZDE\06-Apr-2025\0\\#t hf
 aug-cc-pvdz iop(5/13=1,5/36=2,99/5=2) pseudo=read geom=check guess=(re
 ad,tcheck) scf=(maxcycle=1)\\title\\0,1\O,0,3.378898,-1.121353,0.15103
 9\O,0,-3.378897,-1.121355,0.151039\N,0,0.,0.726298,-0.101503\C,0,1.173
 373,0.061418,-0.031423\C,0,-1.173373,0.061419,-0.031423\C,0,2.234557,-
 0.498966,-0.039656\C,0,-2.234557,-0.498966,-0.039656\C,0,0.,2.188036,0
 .049856\H,0,3.78879,-1.339293,-0.695372\H,0,-3.788797,-1.33928,-0.6953
 72\H,0,-0.000002,2.478463,1.103218\H,0,0.888064,2.590021,-0.432378\H,0

 Normal termination of Gaussian 16 at Sun Apr  6 08:00:36 2025.
