 Gaussian 16, Revision C.01,

 ----------------------------------------------------------------------
 #t hf aug-cc-pvdz symm=none int=(grid=ultrafine) guess=(read,tcheck) s
 table=(opt,rrhf)
 ----------------------------------------------------------------------
 -----
 title
 -----
 Symbolic Z-matrix:
 Charge =  0 Multiplicity = 1

 SCF Done:  E(RHF) =  -268.868409677     A.U. after   14 cycles
 Normal termination of Gaussian 16 at Sun Apr  6 08:00:36 2025.
 Gaussian 16:  ES64L-G16RevC.01  3-Jul-2019

 ----------------------------------------------------------------------
 #t hf aug-cc-pvdz iop(5/13=1,5/36=2,99/5=2) pseudo=read geom=check gue
 ss=(read,tcheck) scf=(maxcycle=1)
 ----------------------------------------------------------------------
 -----
 title
 -----
 Structure from the checkpoint file:  "2-3-dihydro-5-methylfuran.chk"
 Charge =  0 Multiplicity = 1

                         Standard orientation:
 ---------------------------------------------------------------------
 Center     Atomic      Atomic             Coordinates (Angstroms)
 Number     Number       Type             X           Y           Z
 ---------------------------------------------------------------------
      1          6           0       -1.368345   -0.812936    0.080163
      2          1           0       -1.906003   -1.388570   -0.670058
      3          1           0       -1.661689   -1.161174    1.072427
      4          8           0        0.046311   -1.092004   -0.079668
      5          6           0       -1.532303    0.714437   -0.061297
      6          1           0       -2.174500    1.121723    0.721203
      7          1           0       -1.979486    0.993680   -1.020378
      8          6           0       -0.096949    1.168984    0.041568
      9          1           0        0.227483    2.195282    0.084198
     10          6           0        2.190006    0.000476    0.008583
     11          1           0        2.539202   -0.503258   -0.895119
     12          1           0        2.646994    0.986271    0.059826
     13          1           0        2.528636   -0.591735    0.860936
     14          6           0        0.709071    0.109674    0.001700
 ---------------------------------------------------------------------

 SCF Done:  E(RHF) =  -270.138617282     A.U. after    2 cycles

 The electronic state is 1-A.
 Alpha  occ. eigenvalues --  -21.05186 -11.46591 -11.44668 -11.39545 -11.38502
 Alpha  occ. eigenvalues --  -11.35371  -1.77848  -1.18802  -1.13078  -0.98603
 Alpha  occ. eigenvalues --   -0.85025  -0.74145  -0.67273  -0.65648  -0.57984
 Alpha  occ. eigenvalues --   -0.57476  -0.52354  -0.48584  -0.47637  -0.46129
 Alpha  occ. eigenvalues --   -0.42476  -0.38893  -0.24929
 Alpha virt. eigenvalues --    0.03710   0.05317   0.05429   0.05663   0.06001
 Alpha virt. eigenvalues --    0.06174   0.07284   0.07440   0.10253   0.12235
 Alpha virt. eigenvalues --    0.12349   0.13782   0.14261   0.14477   0.14779

 Mulliken charges:
               1
     1  C   -2.003531
     2  H    1.419744
     3  H    1.440468
     4  O   -3.636542
     5  C   -3.333369
     6  H    1.187382
     7  H    1.233591
     8  C   -2.656368
     9  H    1.377974
    10  C   -4.408498
    11  H    1.138654
    12  H    1.169715
    13  H    1.168907
    14  C    5.901872
 Sum of Mulliken charges =  -0.00000

 Dipole moment (field-independent basis, Debye):
    X=             -0.0859    Y=             -0.0738    Z=             -0.0542  Tot=              0.1256

 Test job not archived.
 1\1\GINC-SE012\SP\RHF\Aug-CC-pVDZ\C5H8O1\OHZDE\06-Apr-2025\0\\#t hf au
 g-cc-pvdz iop(5/13=1,5/36=2,99/5=2) pseudo=read geom=check guess=(read
 ,tcheck) scf=(maxcycle=1)\\title\\0,1\C,0,-1.368345,-0.812936,0.080163
 \H,0,-1.906003,-1.38857,-0.670058\H,0,-1.661689,-1.161174,1.072427\O,0
 ,0.046311,-1.092004,-0.079668\C,0,-1.532303,0.714437,-0.061297\H,0,-2.
 1745,1.121723,0.721203\H,0,-1.979486,0.99368,-1.020378\C,0,-0.096949,1
 .168984,0.041568\H,0,0.227483,2.195282,0.084198\C,0,2.190006,0.000476,
 0.008583\H,0,2.539202,-0.503258,-0.895119\H,0,2.646994,0.986271,0.0598

 Normal termination of Gaussian 16 at Sun Apr  6 08:01:14 2025.
