 Gaussian 16, Revision C.01,

 ----------------------------------------------------------------------
 #t hf aug-cc-pvdz symm=none int=(grid=ultrafine) guess=(read,tcheck) s
 table=(opt,rrhf)
 ----------------------------------------------------------------------
 -----
 title
 -----
 Symbolic Z-matrix:
 Charge =  0 Multiplicity = 1

 SCF Done:  E(RHF) =  -981.995433738     A.U. after   15 cycles
 Normal termination of Gaussian 16 at Sun Apr  6 08:00:27 2025.
 Gaussian 16:  ES64L-G16RevC.01  3-Jul-2019

 ----------------------------------------------------------------------
 #t hf aug-cc-pvdz iop(5/13=1,5/36=2,99/5=2) pseudo=read geom=check gue
 ss=(read,tcheck) scf=(maxcycle=1)
 ----------------------------------------------------------------------
 -----
 title
 -----
 Structure from the checkpoint file:  "2-3-dihydro-1-3-4-thiadiazole-2-thiol.chk"
 Charge =  0 Multiplicity = 1

                         Standard orientation:
 ---------------------------------------------------------------------
 Center     Atomic      Atomic             Coordinates (Angstroms)
 Number     Number       Type             X           Y           Z
 ---------------------------------------------------------------------
      1         16           0        0.807257   -1.220346    0.197198
      2         16           0       -1.948226   -0.076614   -0.421874
      3          7           0        0.326375    1.278014    0.589110
      4          7           0        1.350166    1.260862   -0.340449
      5          6           0       -0.427430    0.038051    0.678459
      6          6           0        1.721627    0.074068   -0.599627
      7          1           0       -2.794969    0.485791    0.462355
      8          1           0       -0.239031    2.107672    0.478029
      9          1           0       -0.761306   -0.139902    1.694067
     10          1           0        2.549843   -0.147039   -1.253252
 ---------------------------------------------------------------------

 SCF Done:  E(RHF) =  -983.306295235     A.U. after    2 cycles

 The electronic state is 1-A.
 Alpha  occ. eigenvalues --  -75.71298 -75.69895 -15.78080 -15.77449 -13.17598
 Alpha  occ. eigenvalues --  -13.14316 -13.11954 -13.08640 -13.04630 -13.02952
 Alpha  occ. eigenvalues --  -11.46942 -11.43897  -8.05594  -8.03715  -1.57366
 Alpha  occ. eigenvalues --   -1.24247  -1.20542  -1.09199  -0.88693  -0.83711
 Alpha  occ. eigenvalues --   -0.72113  -0.64944  -0.60273  -0.53636  -0.51925
 Alpha  occ. eigenvalues --   -0.45513  -0.42781  -0.36958  -0.36355  -0.25264
 Alpha  occ. eigenvalues --   -0.22347
 Alpha virt. eigenvalues --    0.02679   0.03739   0.05098   0.06194   0.07662
 Alpha virt. eigenvalues --    0.09209   0.09755   0.11232   0.11612   0.12428
 Alpha virt. eigenvalues --    0.13481   0.13739   0.15137   0.15753   0.16246

 Mulliken charges:
               1
     1  S    1.530861
     2  S   -0.579660
     3  N   -1.054613
     4  N   -2.116974
     5  C   -1.607978
     6  C   -0.839322
     7  H    0.856213
     8  H    0.777363
     9  H    1.498371
    10  H    1.535740
 Sum of Mulliken charges =  -0.00000

 Dipole moment (field-independent basis, Debye):
    X=             -0.0402    Y=             -2.4919    Z=             -0.2797  Tot=              2.5079

 Test job not archived.
 1\1\GINC-SE011\SP\RHF\Aug-CC-pVDZ\C2H4N2S2\OHZDE\06-Apr-2025\0\\#t hf
 aug-cc-pvdz iop(5/13=1,5/36=2,99/5=2) pseudo=read geom=check guess=(re
 ad,tcheck) scf=(maxcycle=1)\\title\\0,1\S,0,0.807257,-1.220346,0.19719
 8\S,0,-1.948226,-0.076615,-0.421874\N,0,0.326375,1.278014,0.58911\N,0,
 1.350166,1.260862,-0.340449\C,0,-0.42743,0.038051,0.678459\C,0,1.72162
 7,0.074068,-0.599627\H,0,-2.794969,0.48579,0.462355\H,0,-0.239031,2.10
 7672,0.478029\H,0,-0.761306,-0.139902,1.694067\H,0,2.549843,-0.147039,
 -1.253252\\Version=ES64L-G16RevC.01\State=1-A\HF=-983.3062952\RMSD=1.1

 Normal termination of Gaussian 16 at Sun Apr  6 08:00:36 2025.
