 Gaussian 16, Revision C.01,

 ----------------------------------------------------------------------
 #t hf aug-cc-pvdz symm=none int=(grid=ultrafine) guess=(read,tcheck) s
 table=(opt,rrhf)
 ----------------------------------------------------------------------
 -----
 title
 -----
 Symbolic Z-matrix:
 Charge =  0 Multiplicity = 1

 SCF Done:  E(RHF) =  -627.364046593     A.U. after   14 cycles
 Normal termination of Gaussian 16 at Sun Apr  6 08:00:26 2025.
 Gaussian 16:  ES64L-G16RevC.01  3-Jul-2019

 ----------------------------------------------------------------------
 #t hf aug-cc-pvdz iop(5/13=1,5/36=2,99/5=2) pseudo=read geom=check gue
 ss=(read,tcheck) scf=(maxcycle=1)
 ----------------------------------------------------------------------
 -----
 title
 -----
 Structure from the checkpoint file:  "2-3-dihydrothiophene-2-ol.chk"
 Charge =  0 Multiplicity = 1

                         Standard orientation:
 ---------------------------------------------------------------------
 Center     Atomic      Atomic             Coordinates (Angstroms)
 Number     Number       Type             X           Y           Z
 ---------------------------------------------------------------------
      1         16           0       -0.392973   -1.265072    0.210669
      2          6           0        0.940796    0.017802    0.413655
      3          6           0        0.214760    1.365119    0.480256
      4          6           0       -1.100527    1.217509   -0.232047
      5          6           0       -1.506870   -0.035216   -0.406130
      6          8           0        1.821436    0.051739   -0.690597
      7          1           0        1.477232   -0.222621    1.331943
      8          1           0        0.856680    2.126103    0.033990
      9          1           0       -1.678393    2.075103   -0.546595
     10          1           0       -2.430535   -0.355575   -0.862849
     11          1           0        0.048225    1.648671    1.524486
     12          1           0        2.153911   -0.835726   -0.861306
 ---------------------------------------------------------------------

 SCF Done:  E(RHF) =  -628.654637295     A.U. after    2 cycles

 The electronic state is 1-A.
 Alpha  occ. eigenvalues --  -75.68186 -21.07993 -13.12492 -13.11057 -13.01564
 Alpha  occ. eigenvalues --  -11.47615 -11.43929 -11.40850 -11.37400  -8.02446
 Alpha  occ. eigenvalues --   -1.73043  -1.30793  -1.08152  -1.04026  -0.83942
 Alpha  occ. eigenvalues --   -0.78118  -0.70134  -0.66671  -0.55148  -0.54573
 Alpha  occ. eigenvalues --   -0.50489  -0.49583  -0.41914  -0.40124  -0.38067
 Alpha  occ. eigenvalues --   -0.30743  -0.21369
 Alpha virt. eigenvalues --    0.03526   0.04508   0.05741   0.05966   0.06212
 Alpha virt. eigenvalues --    0.06564   0.08017   0.11725   0.11834   0.12633
 Alpha virt. eigenvalues --    0.13520   0.14219   0.14380   0.15337   0.15999

 Mulliken charges:
               1
     1  S    0.912636
     2  C    0.144256
     3  C   -3.645965
     4  C   -0.343340
     5  C   -2.069594
     6  O   -2.939479
     7  H    1.689626
     8  H    1.356023
     9  H    1.432792
    10  H    1.280257
    11  H    1.296657
    12  H    0.886131
 Sum of Mulliken charges =  -0.00000

 Dipole moment (field-independent basis, Debye):
    X=              0.1676    Y=             -0.7224    Z=              0.3833  Tot=              0.8348

 Test job not archived.
 1\1\GINC-SE249\SP\RHF\Aug-CC-pVDZ\C4H6O1S1\OHZDE\06-Apr-2025\0\\#t hf
 aug-cc-pvdz iop(5/13=1,5/36=2,99/5=2) pseudo=read geom=check guess=(re
 ad,tcheck) scf=(maxcycle=1)\\title\\0,1\S,0,-0.392972,-1.265072,0.2106
 69\C,0,0.940796,0.017803,0.413655\C,0,0.214759,1.365119,0.480256\C,0,-
 1.100528,1.217508,-0.232047\C,0,-1.50687,-0.035217,-0.40613\O,0,1.8214
 36,0.05174,-0.690597\H,0,1.477232,-0.22262,1.331943\H,0,0.856678,2.126
 104,0.03399\H,0,-1.678395,2.075102,-0.546595\H,0,-2.430535,-0.355577,-
 0.862849\H,0,0.048224,1.648671,1.524486\H,0,2.153911,-0.835724,-0.8613

 Normal termination of Gaussian 16 at Sun Apr  6 08:00:37 2025.
