 Gaussian 16, Revision C.01,

 ----------------------------------------------------------------------
 #t hf aug-cc-pvdz symm=none int=(grid=ultrafine) guess=(read,tcheck) s
 table=(opt,rrhf)
 ----------------------------------------------------------------------
 -----
 title
 -----
 Symbolic Z-matrix:
 Charge =  0 Multiplicity = 1

 SCF Done:  E(RHF) =  -234.202053432     A.U. after   11 cycles
 Normal termination of Gaussian 16 at Sun Apr  6 08:00:41 2025.
 Gaussian 16:  ES64L-G16RevC.01  3-Jul-2019

 ----------------------------------------------------------------------
 #t hf aug-cc-pvdz iop(5/13=1,5/36=2,99/5=2) pseudo=read geom=check gue
 ss=(read,tcheck) scf=(maxcycle=1)
 ----------------------------------------------------------------------
 -----
 title
 -----
 Structure from the checkpoint file:  "2-3-dimethyl-2-butene.chk"
 Charge =  0 Multiplicity = 1

                         Standard orientation:
 ---------------------------------------------------------------------
 Center     Atomic      Atomic             Coordinates (Angstroms)
 Number     Number       Type             X           Y           Z
 ---------------------------------------------------------------------
      1          6           0        0.671348   -0.000000   -0.000000
      2          6           0       -0.671348    0.000000   -0.000000
      3          6           0        1.522644    1.246022    0.000000
      4          6           0        1.522644   -1.246022   -0.000000
      5          6           0       -1.522644   -1.246022    0.000000
      6          6           0       -1.522644    1.246022   -0.000000
      7          1           0        2.179680    1.256485    0.874962
      8          1           0        2.179680    1.256485   -0.874962
      9          1           0        0.958985    2.173276    0.000000
     10          1           0        2.179680   -1.256485    0.874962
     11          1           0        0.958985   -2.173276   -0.000000
     12          1           0        2.179680   -1.256485   -0.874962
     13          1           0       -2.179680   -1.256485   -0.874962
     14          1           0       -2.179680   -1.256485    0.874962
     15          1           0       -0.958985   -2.173276    0.000000
     16          1           0       -2.179680    1.256485   -0.874962
     17          1           0       -2.179680    1.256485    0.874962
     18          1           0       -0.958985    2.173276   -0.000000
 ---------------------------------------------------------------------

 SCF Done:  E(RHF) =  -235.428309741     A.U. after    2 cycles

 The electronic state is 1-AG.
 Alpha  occ. eigenvalues --  -11.44145 -11.39212 -11.38489 -11.38142 -11.36561
 Alpha  occ. eigenvalues --  -11.34183  -1.28209  -1.11436  -1.01873  -0.97822
 Alpha  occ. eigenvalues --   -0.89311  -0.69116  -0.63419  -0.59856  -0.59439
 Alpha  occ. eigenvalues --   -0.56892  -0.53314  -0.52214  -0.52111  -0.50233
 Alpha  occ. eigenvalues --   -0.50064  -0.44566  -0.40686  -0.30291
 Alpha virt. eigenvalues --    0.03574   0.04874   0.05544   0.05589   0.06011
 Alpha virt. eigenvalues --    0.06171   0.06522   0.07236   0.08357   0.08804
 Alpha virt. eigenvalues --    0.08882   0.10443   0.11247   0.12513   0.14011

 Mulliken charges:
               1
     1  C    3.746541
     2  C    3.746541
     3  C   -5.366336
     4  C   -5.366336
     5  C   -5.366336
     6  C   -5.366336
     7  H    0.984734
     8  H    0.984734
     9  H    1.523598
    10  H    0.984734
    11  H    1.523598
    12  H    0.984734
    13  H    0.984734
    14  H    0.984734
    15  H    1.523598
    16  H    0.984734
    17  H    0.984734
    18  H    1.523598
 Sum of Mulliken charges =  -0.00000

 Dipole moment (field-independent basis, Debye):
    X=             -0.0000    Y=             -0.0000    Z=             -0.0000  Tot=              0.0000

 Test job not archived.
 1\1\GINC-SE364\SP\RHF\Aug-CC-pVDZ\C6H12\OHZDE\06-Apr-2025\0\\#t hf aug
 -cc-pvdz iop(5/13=1,5/36=2,99/5=2) pseudo=read geom=check guess=(read,
 tcheck) scf=(maxcycle=1)\\title\\0,1\C,0,0.671348,0.,0.\C,0,-0.671348,
 0.,0.\C,0,1.522644,1.246022,0.\C,0,1.522644,-1.246022,0.\C,0,-1.522644
 ,-1.246022,0.\C,0,-1.522644,1.246022,0.\H,0,2.17968,1.256485,0.874962\
 H,0,2.17968,1.256485,-0.874962\H,0,0.958985,2.173276,0.\H,0,2.17968,-1
 .256485,0.874962\H,0,0.958985,-2.173276,0.\H,0,2.17968,-1.256485,-0.87
 4962\H,0,-2.17968,-1.256485,-0.874962\H,0,-2.17968,-1.256485,0.874962\

 Normal termination of Gaussian 16 at Sun Apr  6 08:01:14 2025.
