 Gaussian 16, Revision C.01,

 ----------------------------------------------------------------------
 #t hf aug-cc-pvdz symm=none int=(grid=ultrafine) guess=(read,tcheck) s
 table=(opt,rrhf)
 ----------------------------------------------------------------------
 -----
 title
 -----
 Symbolic Z-matrix:
 Charge =  0 Multiplicity = 1

 SCF Done:  E(RHF) =  -584.431978912     A.U. after   15 cycles
 Normal termination of Gaussian 16 at Sun Apr  6 08:00:21 2025.
 Gaussian 16:  ES64L-G16RevC.01  3-Jul-2019

 ----------------------------------------------------------------------
 #t hf aug-cc-pvdz iop(5/13=1,5/36=2,99/5=2) pseudo=read geom=check gue
 ss=(read,tcheck) scf=(maxcycle=1)
 ----------------------------------------------------------------------
 -----
 title
 -----
 Structure from the checkpoint file:  "2-3-dihydro-1-2-3-thiadiazole.chk"
 Charge =  0 Multiplicity = 1

                         Standard orientation:
 ---------------------------------------------------------------------
 Center     Atomic      Atomic             Coordinates (Angstroms)
 Number     Number       Type             X           Y           Z
 ---------------------------------------------------------------------
      1         16           0       -1.237044    0.001448   -0.107671
      2          7           0        0.008561   -1.244800    0.162871
      3          7           0        1.291262   -0.667661   -0.105066
      4          6           0       -0.008423    1.263519    0.104972
      5          6           0        1.217607    0.751160    0.046079
      6          1           0       -0.002263   -1.404163    1.165699
      7          1           0        1.571441   -0.928185   -1.047847
      8          1           0       -0.273152    2.302314    0.208260
      9          1           0        2.142819    1.306025    0.085693
 ---------------------------------------------------------------------

 SCF Done:  E(RHF) =  -585.528371376     A.U. after    2 cycles

 The electronic state is 1-A.
 Alpha  occ. eigenvalues --  -75.70788 -15.77578 -15.76712 -13.14469 -13.12499
 Alpha  occ. eigenvalues --  -13.03559 -11.44924 -11.39609  -8.04886  -1.53926
 Alpha  occ. eigenvalues --   -1.19692  -1.17395  -0.93092  -0.81446  -0.71820
 Alpha  occ. eigenvalues --   -0.66018  -0.58684  -0.53269  -0.46035  -0.43080
 Alpha  occ. eigenvalues --   -0.39336  -0.33222  -0.21618
 Alpha virt. eigenvalues --    0.03241   0.04950   0.05727   0.06025   0.07733
 Alpha virt. eigenvalues --    0.10015   0.11495   0.12197   0.13488   0.14159
 Alpha virt. eigenvalues --    0.14948   0.15618   0.15908   0.16820   0.19350

 Mulliken charges:
               1
     1  S    1.229823
     2  N   -1.734639
     3  N   -1.808997
     4  C   -1.426393
     5  C   -0.259314
     6  H    0.803202
     7  H    0.677836
     8  H    1.201172
     9  H    1.317310
 Sum of Mulliken charges =  -0.00000

 Dipole moment (field-independent basis, Debye):
    X=             -0.6258    Y=              0.7961    Z=             -0.2940  Tot=              1.0544

 Test job not archived.
 1\1\GINC-SE167\SP\RHF\Aug-CC-pVDZ\C2H4N2S1\OHZDE\06-Apr-2025\0\\#t hf
 aug-cc-pvdz iop(5/13=1,5/36=2,99/5=2) pseudo=read geom=check guess=(re
 ad,tcheck) scf=(maxcycle=1)\\title\\0,1\S,0,-1.237044,0.001448,-0.1076
 71\N,0,0.008561,-1.2448,0.162871\N,0,1.291262,-0.667661,-0.105066\C,0,
 -0.008423,1.263519,0.104972\C,0,1.217607,0.75116,0.046079\H,0,-0.00226
 3,-1.404163,1.165699\H,0,1.571441,-0.928185,-1.047847\H,0,-0.273152,2.
 302314,0.20826\H,0,2.142819,1.306025,0.085693\\Version=ES64L-G16RevC.0
 1\State=1-A\HF=-585.5283714\RMSD=5.719e-01\Dipole=-0.2461961,0.3132228

 Normal termination of Gaussian 16 at Sun Apr  6 08:00:36 2025.
