 Gaussian 16, Revision C.01,

 ----------------------------------------------------------------------
 #t hf aug-cc-pvdz symm=none int=(grid=ultrafine) guess=(read,tcheck) s
 table=(opt,rrhf)
 ----------------------------------------------------------------------
 -----
 title
 -----
 Symbolic Z-matrix:
 Charge =  0 Multiplicity = 1

 SCF Done:  E(RHF) =  -702.155392565     A.U. after   13 cycles
 Normal termination of Gaussian 16 at Sun Apr  6 08:00:43 2025.
 Gaussian 16:  ES64L-G16RevC.01  3-Jul-2019

 ----------------------------------------------------------------------
 #t hf aug-cc-pvdz iop(5/13=1,5/36=2,99/5=2) pseudo=read geom=check gue
 ss=(read,tcheck) scf=(maxcycle=1)
 ----------------------------------------------------------------------
 -----
 title
 -----
 Structure from the checkpoint file:  "2-3-dihydrothiophene-1-1-dioxide.chk"
 Charge =  0 Multiplicity = 1

                         Standard orientation:
 ---------------------------------------------------------------------
 Center     Atomic      Atomic             Coordinates (Angstroms)
 Number     Number       Type             X           Y           Z
 ---------------------------------------------------------------------
      1          8           0        1.368073   -0.041927    1.328654
      2         16           0        0.744052    0.002026    0.009543
      3          8           0        1.597344    0.012383   -1.173724
      4          6           0       -0.537812   -1.301973   -0.132311
      5          6           0       -1.894471   -0.605338    0.038088
      6          6           0       -1.683857    0.887280   -0.028918
      7          6           0       -0.438708    1.331798   -0.052416
      8          1           0       -0.319493   -2.041155    0.632439
      9          1           0       -0.409741   -1.736972   -1.119449
     10          1           0       -2.352765   -0.862446    0.995568
     11          1           0       -2.595132   -0.923617   -0.735185
     12          1           0       -2.540636    1.548631   -0.035815
     13          1           0       -0.081319    2.348887   -0.076348
 ---------------------------------------------------------------------

 SCF Done:  E(RHF) =  -703.803558936     A.U. after    2 cycles

 The electronic state is 1-A.
 Alpha  occ. eigenvalues --  -75.88004 -21.03728 -21.03632 -13.49053 -13.43301
 Alpha  occ. eigenvalues --  -13.32886 -11.49462 -11.47325 -11.43132 -11.41053
 Alpha  occ. eigenvalues --   -8.22972  -1.81535  -1.63367  -1.33405  -1.11343
 Alpha  occ. eigenvalues --   -1.05240  -0.87454  -0.81641  -0.72030  -0.68420
 Alpha  occ. eigenvalues --   -0.57836  -0.56878  -0.56131  -0.54119  -0.51824
 Alpha  occ. eigenvalues --   -0.47942  -0.39175  -0.37114  -0.36605  -0.34839
 Alpha  occ. eigenvalues --   -0.33389
 Alpha virt. eigenvalues --    0.02312   0.04471   0.04972   0.05201   0.05709
 Alpha virt. eigenvalues --    0.06502   0.09518   0.10394   0.10957   0.12260
 Alpha virt. eigenvalues --    0.12714   0.13393   0.14240   0.14384   0.14793

 Mulliken charges:
               1
     1  O   -2.595779
     2  S    6.321105
     3  O   -2.640257
     4  C   -3.917492
     5  C   -3.408790
     6  C    0.421128
     7  C   -2.528265
     8  H    1.453942
     9  H    1.482674
    10  H    1.336639
    11  H    1.260232
    12  H    1.511940
    13  H    1.302922
 Sum of Mulliken charges =   0.00000

 Dipole moment (field-independent basis, Debye):
    X=             -3.5333    Y=             -0.1640    Z=             -0.1335  Tot=              3.5396

 Test job not archived.
 1\1\GINC-SE047\SP\RHF\Aug-CC-pVDZ\C4H6O2S1\OHZDE\06-Apr-2025\0\\#t hf
 aug-cc-pvdz iop(5/13=1,5/36=2,99/5=2) pseudo=read geom=check guess=(re
 ad,tcheck) scf=(maxcycle=1)\\title\\0,1\O,0,1.368073,-0.041927,1.32865
 4\S,0,0.744052,0.002026,0.009543\O,0,1.597344,0.012383,-1.173724\C,0,-
 0.537812,-1.301973,-0.132311\C,0,-1.894471,-0.605338,0.038088\C,0,-1.6
 83857,0.88728,-0.028918\C,0,-0.438708,1.331798,-0.052416\H,0,-0.319494
 ,-2.041155,0.632439\H,0,-0.409741,-1.736972,-1.119449\H,0,-2.352765,-0
 .862446,0.995568\H,0,-2.595132,-0.923617,-0.735185\H,0,-2.540636,1.548

 Normal termination of Gaussian 16 at Sun Apr  6 08:01:14 2025.
