 Gaussian 16, Revision C.01,

 ----------------------------------------------------------------------
 #t hf aug-cc-pvdz symm=none int=(grid=ultrafine) guess=(read,tcheck) s
 table=(opt,rrhf)
 ----------------------------------------------------------------------
 -----
 title
 -----
 Symbolic Z-matrix:
 Charge =  0 Multiplicity = 1

 SCF Done:  E(RHF) =  -1147.24591473     A.U. after   14 cycles

 1\1\GINC-SE108\Stability\RHF\Aug-CC-pVDZ\C6H2Cl2\OHZDE\06-Apr-2025\0\\
 #t hf aug-cc-pvdz symm=none int=(grid=ultrafine) guess=(read,tcheck) s
 table=(opt,rrhf)\\title\\0,1\Cl,0,1.404145,1.587201,0.\Cl,0,1.404145,-
 1.5872,0.\C,0,-0.099467,0.708116,0.\C,0,-0.099467,-0.708116,0.\C,0,-1.
 288023,1.457987,0.\C,0,-1.288023,-1.457988,0.\C,0,-2.378023,0.619733,0
 .\C,0,-2.378023,-0.619734,0.\H,0,-1.277395,2.536568,0.\H,0,-1.277395,-
 2.536568,0.\\Version=ES64L-G16RevC.01\HF=-1147.2459147\RMSD=6.828e-09\
 Dipole=-0.4015299,-0.0000007,0.\Quadrupole=-2.2223848,4.2798342,-2.057

 Normal termination of Gaussian 16 at Sun Apr  6 08:00:30 2025.
 Gaussian 16:  ES64L-G16RevC.01  3-Jul-2019

 ----------------------------------------------------------------------
 #t hf aug-cc-pvdz iop(5/13=1,5/36=2,99/5=2) pseudo=read geom=check gue
 ss=(read,tcheck) scf=(maxcycle=1)
 ----------------------------------------------------------------------
 -----
 title
 -----
 Structure from the checkpoint file:  "2-3-dichloro-1-3-cyclohexadien-5-yne.chk"
 Charge =  0 Multiplicity = 1

                         Standard orientation:
 ---------------------------------------------------------------------
 Center     Atomic      Atomic             Coordinates (Angstroms)
 Number     Number       Type             X           Y           Z
 ---------------------------------------------------------------------
      1         17           0        1.404145    1.587201    0.000000
      2         17           0        1.404145   -1.587200    0.000000
      3          6           0       -0.099467    0.708116    0.000000
      4          6           0       -0.099467   -0.708116    0.000000
      5          6           0       -1.288023    1.457987    0.000000
      6          6           0       -1.288023   -1.457988    0.000000
      7          6           0       -2.378023    0.619733    0.000000
      8          6           0       -2.378023   -0.619734    0.000000
      9          1           0       -1.277395    2.536568    0.000000
     10          1           0       -1.277395   -2.536568    0.000000
 ---------------------------------------------------------------------

 SCF Done:  E(RHF) =  -1148.82220899     A.U. after    2 cycles

 The electronic state is 1-A'.
 Alpha  occ. eigenvalues --  -99.91088 -99.91069 -11.54084 -11.50090 -11.49289
 Alpha  occ. eigenvalues --  -11.45805 -11.44309 -11.42384 -10.48494 -10.48470
 Alpha  occ. eigenvalues --   -9.68610  -9.68326  -9.67710  -9.67427  -9.67425
 Alpha  occ. eigenvalues --   -9.67357  -1.45864  -1.33758  -1.29281  -1.12576
 Alpha  occ. eigenvalues --   -1.07160  -0.91769  -0.84157  -0.71536  -0.68009
 Alpha  occ. eigenvalues --   -0.66876  -0.61960  -0.59136  -0.56330  -0.55560
 Alpha  occ. eigenvalues --   -0.52314  -0.51917  -0.51044  -0.38336  -0.36930
 Alpha  occ. eigenvalues --   -0.36207
 Alpha virt. eigenvalues --    0.02810   0.03759   0.06361   0.06522   0.07568
 Alpha virt. eigenvalues --    0.07923   0.08748   0.09679   0.09728   0.11401
 Alpha virt. eigenvalues --    0.12308   0.12481   0.13148   0.13390   0.14080

 Mulliken charges:
               1
     1  Cl  -0.496454
     2  Cl  -0.496454
     3  C   -0.790387
     4  C   -0.790386
     5  C   -1.610006
     6  C   -1.610016
     7  C    1.364875
     8  C    1.364874
     9  H    1.531978
    10  H    1.531977
 Sum of Mulliken charges =  -0.00000

 Dipole moment (field-independent basis, Debye):
    X=             -1.4615    Y=             -0.0000    Z=              0.0000  Tot=              1.4615

 Test job not archived.
 1\1\GINC-SE108\SP\RHF\Aug-CC-pVDZ\C6H2Cl2\OHZDE\06-Apr-2025\0\\#t hf a
 ug-cc-pvdz iop(5/13=1,5/36=2,99/5=2) pseudo=read geom=check guess=(rea
 d,tcheck) scf=(maxcycle=1)\\title\\0,1\Cl,0,1.404145,1.587201,0.\Cl,0,
 1.404145,-1.5872,0.\C,0,-0.099467,0.708116,0.\C,0,-0.099467,-0.708116,
 0.\C,0,-1.288023,1.457987,0.\C,0,-1.288023,-1.457988,0.\C,0,-2.378023,
 0.619733,0.\C,0,-2.378023,-0.619734,0.\H,0,-1.277395,2.536568,0.\H,0,-
 1.277395,-2.536568,0.\\Version=ES64L-G16RevC.01\State=1-A'\HF=-1148.82
 2209\RMSD=2.337e+00\Dipole=-0.5749805,-0.0000005,0.\Quadrupole=-1.5361

 Normal termination of Gaussian 16 at Sun Apr  6 08:00:38 2025.
