 Gaussian 16, Revision C.01,

 ----------------------------------------------------------------------
 #t hf aug-cc-pvdz symm=none int=(grid=ultrafine) guess=(read,tcheck) s
 table=(opt,rrhf)
 ----------------------------------------------------------------------
 -----
 title
 -----
 Symbolic Z-matrix:
 Charge =  0 Multiplicity = 1

 SCF Done:  E(RHF) =  -461.474947099     A.U. after   16 cycles
 Normal termination of Gaussian 16 at Sun Apr  6 08:03:58 2025.
 Gaussian 16:  ES64L-G16RevC.01  3-Jul-2019

 ----------------------------------------------------------------------
 #t hf aug-cc-pvdz iop(5/13=1,5/36=2,99/5=2) pseudo=read geom=check gue
 ss=(read,tcheck) scf=(maxcycle=1)
 ----------------------------------------------------------------------
 -----
 title
 -----
 Structure from the checkpoint file:  "2-3-dimethylnaphthalene.chk"
 Charge =  0 Multiplicity = 1

                         Standard orientation:
 ---------------------------------------------------------------------
 Center     Atomic      Atomic             Coordinates (Angstroms)
 Number     Number       Type             X           Y           Z
 ---------------------------------------------------------------------
      1          6           0        0.000000    0.705545    3.172599
      2          6           0       -0.000000   -0.705545    3.172599
      3          6           0        0.000000    1.396736    1.988558
      4          6           0       -0.000000   -1.396736    1.988558
      5          6           0        0.000000    1.384878   -0.494217
      6          6           0       -0.000000   -1.384878   -0.494217
      7          6           0        0.000000    0.711893    0.749997
      8          6           0       -0.000000   -0.711893    0.749997
      9          6           0        0.000000    0.714904   -1.692605
     10          6           0       -0.000000   -0.714904   -1.692605
     11          6           0        0.000000    1.476613   -2.990942
     12          6           0       -0.000000   -1.476613   -2.990942
     13          1           0        0.000000    1.240249    4.113143
     14          1           0       -0.000000   -1.240249    4.113143
     15          1           0        0.000000    2.479711    1.986908
     16          1           0       -0.000000   -2.479711    1.986908
     17          1           0        0.000000    2.468780   -0.491189
     18          1           0       -0.000000   -2.468780   -0.491189
     19          1           0       -0.876451    1.238572   -3.598523
     20          1           0        0.000000    2.550606   -2.812154
     21          1           0        0.876451    1.238572   -3.598523
     22          1           0       -0.876451   -1.238572   -3.598523
     23          1           0        0.876451   -1.238572   -3.598523
     24          1           0       -0.000000   -2.550606   -2.812154
 ---------------------------------------------------------------------

 SCF Done:  E(RHF) =  -463.729191661     A.U. after    2 cycles

 The electronic state is 1-A1.
 Alpha  occ. eigenvalues --  -11.51584 -11.49209 -11.45070 -11.43980 -11.42985
 Alpha  occ. eigenvalues --  -11.41873 -11.41382 -11.40036 -11.39454 -11.38838
 Alpha  occ. eigenvalues --  -11.38186 -11.35588  -1.40217  -1.26399  -1.15221
 Alpha  occ. eigenvalues --   -1.11906  -1.08514  -0.99183  -0.98656  -0.86765
 Alpha  occ. eigenvalues --   -0.84502  -0.83957  -0.69624  -0.69291  -0.63817
 Alpha  occ. eigenvalues --   -0.62669  -0.60406  -0.59508  -0.56885  -0.55140
 Alpha  occ. eigenvalues --   -0.53649  -0.53517  -0.52120  -0.51350  -0.50137
 Alpha  occ. eigenvalues --   -0.45469  -0.42508  -0.41110  -0.40346  -0.37444
 Alpha  occ. eigenvalues --   -0.29895  -0.26799
 Alpha virt. eigenvalues --    0.03435   0.04538   0.05045   0.05611   0.06010
 Alpha virt. eigenvalues --    0.06493   0.06535   0.06645   0.06673   0.07665
 Alpha virt. eigenvalues --    0.08705   0.10100   0.10128   0.10342   0.11080

 Mulliken charges:
               1
     1  C   -2.903022
     2  C   -2.903022
     3  C   -3.560562
     4  C   -3.560562
     5  C   -3.246578
     6  C   -3.246578
     7  C    3.530423
     8  C    3.530423
     9  C    3.406947
    10  C    3.406947
    11  C   -5.774976
    12  C   -5.774976
    13  H    1.503284
    14  H    1.503284
    15  H    1.690117
    16  H    1.690117
    17  H    2.041219
    18  H    2.041219
    19  H    1.000471
    20  H    1.312205
    21  H    1.000471
    22  H    1.000471
    23  H    1.000471
    24  H    1.312205
 Sum of Mulliken charges =  -0.00000

 Dipole moment (field-independent basis, Debye):
    X=              0.0000    Y=              0.0000    Z=             -0.7547  Tot=              0.7547

 Test job not archived.
 1\1\GINC-SE412\SP\RHF\Aug-CC-pVDZ\C12H12\OHZDE\06-Apr-2025\0\\#t hf au
 g-cc-pvdz iop(5/13=1,5/36=2,99/5=2) pseudo=read geom=check guess=(read
 ,tcheck) scf=(maxcycle=1)\\title\\0,1\C,0,0.,0.705545,3.172599\C,0,0.,
 -0.705545,3.172599\C,0,0.,1.396736,1.988558\C,0,0.,-1.396736,1.988558\
 C,0,0.,1.384878,-0.494217\C,0,0.,-1.384878,-0.494217\C,0,0.,0.711893,0
 .749997\C,0,0.,-0.711893,0.749997\C,0,0.,0.714904,-1.692605\C,0,0.,-0.
 714904,-1.692605\C,0,0.,1.476613,-2.990942\C,0,0.,-1.476613,-2.990942\
 H,0,0.,1.240249,4.113143\H,0,0.,-1.240249,4.113143\H,0,0.,2.479711,1.9

 Normal termination of Gaussian 16 at Sun Apr  6 08:04:14 2025.
