 Gaussian 16, Revision C.01,

 ----------------------------------------------------------------------
 #t hf aug-cc-pvdz symm=none int=(grid=ultrafine) guess=(read,tcheck) s
 table=(opt,rrhf)
 ----------------------------------------------------------------------
 -----
 title
 -----
 Symbolic Z-matrix:
 Charge =  0 Multiplicity = 1

 SCF Done:  E(RHF) =  -229.819606046     A.U. after   13 cycles
 Normal termination of Gaussian 16 at Sun Apr  6 08:00:21 2025.
 Gaussian 16:  ES64L-G16RevC.01  3-Jul-2019

 ----------------------------------------------------------------------
 #t hf aug-cc-pvdz iop(5/13=1,5/36=2,99/5=2) pseudo=read geom=check gue
 ss=(read,tcheck) scf=(maxcycle=1)
 ----------------------------------------------------------------------
 -----
 title
 -----
 Structure from the checkpoint file:  "2-3-dihydrofuran.chk"
 Charge =  0 Multiplicity = 1

                         Standard orientation:
 ---------------------------------------------------------------------
 Center     Atomic      Atomic             Coordinates (Angstroms)
 Number     Number       Type             X           Y           Z
 ---------------------------------------------------------------------
      1          1           0        1.090371    2.042313    0.076465
      2          6           0        0.596543    1.086225    0.038981
      3          1           0        2.249849   -0.338569    0.019187
      4          6           0        1.198765   -0.096250    0.008788
      5          8           0        0.365292   -1.176016   -0.062866
      6          1           0       -1.297408    1.237766   -1.005784
      7          1           0       -1.452900    1.372802    0.739281
      8          6           0       -0.896856    0.873536   -0.055484
      9          1           0       -1.592746   -1.131235   -0.710934
     10          1           0       -1.364628   -0.974544    1.041627
     11          6           0       -0.990930   -0.663578    0.064896
 ---------------------------------------------------------------------

 SCF Done:  E(RHF) =  -230.885703114     A.U. after    2 cycles

 The electronic state is 1-A.
 Alpha  occ. eigenvalues --  -21.05785 -11.46969 -11.43341 -11.39424 -11.35968
 Alpha  occ. eigenvalues --   -1.77872  -1.18636  -1.06157  -0.85457  -0.78356
 Alpha  occ. eigenvalues --   -0.70635  -0.65727  -0.52863  -0.51420  -0.50496
 Alpha  occ. eigenvalues --   -0.47538  -0.45215  -0.39496  -0.25148
 Alpha virt. eigenvalues --    0.03587   0.05358   0.05941   0.06160   0.06219
 Alpha virt. eigenvalues --    0.06402   0.10470   0.11313   0.12562   0.13520
 Alpha virt. eigenvalues --    0.14115   0.14464   0.14907   0.15077   0.16456

 Mulliken charges:
               1
     1  H    1.275256
     2  C   -0.942699
     3  H    1.434303
     4  C    1.054725
     5  O   -3.086979
     6  H    1.244699
     7  H    1.241352
     8  C   -3.295387
     9  H    1.380136
    10  H    1.402096
    11  C   -1.707503
 Sum of Mulliken charges =  -0.00000

 Dipole moment (field-independent basis, Debye):
    X=             -0.4117    Y=              0.0998    Z=             -0.0446  Tot=              0.4259

 Test job not archived.
 1\1\GINC-SE046\SP\RHF\Aug-CC-pVDZ\C4H6O1\OHZDE\06-Apr-2025\0\\#t hf au
 g-cc-pvdz iop(5/13=1,5/36=2,99/5=2) pseudo=read geom=check guess=(read
 ,tcheck) scf=(maxcycle=1)\\title\\0,1\H,0,1.090374,2.042312,0.076465\C
 ,0,0.596544,1.086224,0.038981\H,0,2.249849,-0.338572,0.019187\C,0,1.19
 8765,-0.096252,0.008788\O,0,0.36529,-1.176016,-0.062866\H,0,-1.297406,
 1.237768,-1.005784\H,0,-1.452898,1.372804,0.739281\C,0,-0.896855,0.873
 537,-0.055484\H,0,-1.592748,-1.131233,-0.710934\H,0,-1.364629,-0.97454
 2,1.041627\C,0,-0.990931,-0.663577,0.064896\\Version=ES64L-G16RevC.01\

 Normal termination of Gaussian 16 at Sun Apr  6 08:00:36 2025.
