 Gaussian 16, Revision C.01,

 ----------------------------------------------------------------------
 #t hf aug-cc-pvdz symm=none int=(grid=ultrafine) guess=(read,tcheck) s
 table=(opt,rrhf)
 ----------------------------------------------------------------------
 -----
 title
 -----
 Symbolic Z-matrix:
 Charge =  0 Multiplicity = 1

 SCF Done:  E(RHF) =  -193.959539274     A.U. after   12 cycles
 Normal termination of Gaussian 16 at Sun Apr  6 08:00:27 2025.
 Gaussian 16:  ES64L-G16RevC.01  3-Jul-2019

 ----------------------------------------------------------------------
 #t hf aug-cc-pvdz iop(5/13=1,5/36=2,99/5=2) pseudo=read geom=check gue
 ss=(read,tcheck) scf=(maxcycle=1)
 ----------------------------------------------------------------------
 -----
 title
 -----
 Structure from the checkpoint file:  "2-3-pentadiene.chk"
 Charge =  0 Multiplicity = 1

                         Standard orientation:
 ---------------------------------------------------------------------
 Center     Atomic      Atomic             Coordinates (Angstroms)
 Number     Number       Type             X           Y           Z
 ---------------------------------------------------------------------
      1          6           0       -0.000000    0.000000    0.410032
      2          6           0       -0.000000    1.303082    0.410018
      3          6           0       -0.000000   -1.303082    0.410018
      4          6           0       -0.871882    2.172515   -0.457285
      5          6           0        0.871882   -2.172515   -0.457285
      6          1           0        0.676863    1.817656    1.088068
      7          1           0       -0.676863   -1.817656    1.088068
      8          1           0       -1.504967    2.819715    0.154671
      9          1           0       -0.264433    2.825078   -1.089145
     10          1           0       -1.514184    1.573281   -1.100088
     11          1           0        1.504967   -2.819715    0.154671
     12          1           0        0.264433   -2.825078   -1.089145
     13          1           0        1.514184   -1.573281   -1.100088
 ---------------------------------------------------------------------

 SCF Done:  E(RHF) =  -194.938541357     A.U. after    2 cycles

 The electronic state is 1-A.
 Alpha  occ. eigenvalues --  -11.41890 -11.41531 -11.39352 -11.37915 -11.36526
 Alpha  occ. eigenvalues --   -1.23545  -1.12713  -0.98326  -0.88868  -0.70211
 Alpha  occ. eigenvalues --   -0.63178  -0.57404  -0.56575  -0.55558  -0.52671
 Alpha  occ. eigenvalues --   -0.51494  -0.49738  -0.33269  -0.33241
 Alpha virt. eigenvalues --    0.03233   0.05181   0.05768   0.05943   0.06676
 Alpha virt. eigenvalues --    0.06694   0.06706   0.07276   0.10735   0.11375
 Alpha virt. eigenvalues --    0.11560   0.12229   0.13514   0.14174   0.14221

 Mulliken charges:
               1
     1  C    3.035527
     2  C   -2.093472
     3  C   -2.093472
     4  C   -4.387799
     5  C   -4.387799
     6  H    1.313029
     7  H    1.313029
     8  H    1.181304
     9  H    1.172950
    10  H    1.296226
    11  H    1.181304
    12  H    1.172950
    13  H    1.296226
 Sum of Mulliken charges =   0.00000

 Dipole moment (field-independent basis, Debye):
    X=              0.0000    Y=             -0.0000    Z=             -0.1279  Tot=              0.1279

 Test job not archived.
 1\1\GINC-SE301\SP\RHF\Aug-CC-pVDZ\C5H8\OHZDE\06-Apr-2025\0\\#t hf aug-
 cc-pvdz iop(5/13=1,5/36=2,99/5=2) pseudo=read geom=check guess=(read,t
 check) scf=(maxcycle=1)\\title\\0,1\C,0,0.,0.,0.410032\C,0,0.,1.303082
 ,0.410018\C,0,0.,-1.303082,0.410018\C,0,-0.871882,2.172515,-0.457285\C
 ,0,0.871882,-2.172515,-0.457285\H,0,0.676863,1.817656,1.088068\H,0,-0.
 676863,-1.817656,1.088068\H,0,-1.504967,2.819715,0.154671\H,0,-0.26443
 3,2.825078,-1.089145\H,0,-1.514184,1.573281,-1.100088\H,0,1.504967,-2.
 819715,0.154671\H,0,0.264433,-2.825078,-1.089145\H,0,1.514184,-1.57328

 Normal termination of Gaussian 16 at Sun Apr  6 08:00:35 2025.
