 Gaussian 16, Revision C.01,

 ----------------------------------------------------------------------
 #t hf aug-cc-pvdz symm=none int=(grid=ultrafine) guess=(read,tcheck) s
 table=(opt,rrhf)
 ----------------------------------------------------------------------
 -----
 title
 -----
 Symbolic Z-matrix:
 Charge =  0 Multiplicity = 1

 SCF Done:  E(RHF) =  -774.652649395     A.U. after   17 cycles
 Normal termination of Gaussian 16 at Sun Apr  6 08:00:29 2025.
 Gaussian 16:  ES64L-G16RevC.01  3-Jul-2019

 ----------------------------------------------------------------------
 #t hf aug-cc-pvdz iop(5/13=1,5/36=2,99/5=2) pseudo=read geom=check gue
 ss=(read,tcheck) scf=(maxcycle=1)
 ----------------------------------------------------------------------
 -----
 title
 -----
 Structure from the checkpoint file:  "2-3-furo-1-3-2-dioxathiole.chk"
 Charge =  0 Multiplicity = 1

                         Standard orientation:
 ---------------------------------------------------------------------
 Center     Atomic      Atomic             Coordinates (Angstroms)
 Number     Number       Type             X           Y           Z
 ---------------------------------------------------------------------
      1         16           0        1.989323   -0.009549   -0.145290
      2          8           0        0.854042   -1.274861    0.212013
      3          8           0        0.929171    1.296398    0.203214
      4          8           0       -1.541919   -1.139480   -0.026054
      5          6           0       -0.315704   -0.615131   -0.021948
      6          6           0       -0.319252    0.726214   -0.022953
      7          6           0       -1.682955    1.131606   -0.022667
      8          6           0       -2.386914   -0.036529   -0.038427
      9          1           0       -2.098136    2.123419   -0.033853
     10          1           0       -3.432428   -0.264049   -0.118917
 ---------------------------------------------------------------------

 SCF Done:  E(RHF) =  -776.471457063     A.U. after    2 cycles

 The electronic state is 1-A.
 Alpha  occ. eigenvalues --  -75.80057 -21.14399 -21.12944 -21.11853 -13.24364
 Alpha  occ. eigenvalues --  -13.22342 -13.12104 -11.50799 -11.47191 -11.45492
 Alpha  occ. eigenvalues --  -11.40395  -8.13174  -1.92452  -1.81990  -1.74243
 Alpha  occ. eigenvalues --   -1.21236  -1.09748  -0.99977  -0.85449  -0.78404
 Alpha  occ. eigenvalues --   -0.71558  -0.65664  -0.60973  -0.56466  -0.53810
 Alpha  occ. eigenvalues --   -0.50675  -0.49041  -0.46660  -0.42702  -0.39965
 Alpha  occ. eigenvalues --   -0.33954  -0.31121  -0.19628
 Alpha virt. eigenvalues --    0.03440   0.04834   0.06361   0.07031   0.08485
 Alpha virt. eigenvalues --    0.10104   0.10743   0.11408   0.11699   0.13077
 Alpha virt. eigenvalues --    0.13409   0.14029   0.14861   0.15135   0.15840

 Mulliken charges:
               1
     1  S    1.712147
     2  O   -3.087929
     3  O   -3.426020
     4  O   -3.577154
     5  C    3.545265
     6  C    2.998871
     7  C   -1.531638
     8  C    0.550225
     9  H    1.353179
    10  H    1.463053
 Sum of Mulliken charges =  -0.00000

 Dipole moment (field-independent basis, Debye):
    X=             -0.1997    Y=              0.1729    Z=             -0.0040  Tot=              0.2642

 Test job not archived.
 1\1\GINC-SE299\SP\RHF\Aug-CC-pVDZ\C4H2O3S1\OHZDE\06-Apr-2025\0\\#t hf
 aug-cc-pvdz iop(5/13=1,5/36=2,99/5=2) pseudo=read geom=check guess=(re
 ad,tcheck) scf=(maxcycle=1)\\title\\0,1\S,0,1.989323,-0.009549,-0.1452
 9\O,0,0.854042,-1.274861,0.212013\O,0,0.929171,1.296398,0.203214\O,0,-
 1.541919,-1.13948,-0.026054\C,0,-0.315704,-0.615131,-0.021948\C,0,-0.3
 19252,0.726214,-0.022953\C,0,-1.682955,1.131606,-0.022667\C,0,-2.38691
 4,-0.036529,-0.038427\H,0,-2.098136,2.123419,-0.033853\H,0,-3.432428,-
 0.264049,-0.118917\\Version=ES64L-G16RevC.01\State=1-A\HF=-776.4714571

 Normal termination of Gaussian 16 at Sun Apr  6 08:00:37 2025.
