 Gaussian 16, Revision C.01,

 ----------------------------------------------------------------------
 #t hf aug-cc-pvdz symm=none int=(grid=ultrafine) guess=(read,tcheck) s
 table=(opt,rrhf)
 ----------------------------------------------------------------------
 -----
 title
 -----
 Symbolic Z-matrix:
 Charge =  0 Multiplicity = 1

 SCF Done:  E(RHF) =  -552.492214528     A.U. after   14 cycles
 Normal termination of Gaussian 16 at Sun Apr  6 08:00:25 2025.
 Gaussian 16:  ES64L-G16RevC.01  3-Jul-2019

 ----------------------------------------------------------------------
 #t hf aug-cc-pvdz iop(5/13=1,5/36=2,99/5=2) pseudo=read geom=check gue
 ss=(read,tcheck) scf=(maxcycle=1)
 ----------------------------------------------------------------------
 -----
 title
 -----
 Structure from the checkpoint file:  "2-3-dihydrothiophene.chk"
 Charge =  0 Multiplicity = 1

                         Standard orientation:
 ---------------------------------------------------------------------
 Center     Atomic      Atomic             Coordinates (Angstroms)
 Number     Number       Type             X           Y           Z
 ---------------------------------------------------------------------
      1          6           0       -0.078596   -1.271647    0.190282
      2          1           0       -0.054339   -1.558641    1.240593
      3          1           0        0.112578   -2.148979   -0.421154
      4          6           0       -1.395081   -0.560009   -0.160033
      5          1           0       -2.213837   -0.949245    0.447464
      6          1           0       -1.665515   -0.738605   -1.207404
      7          6           0        0.114747    1.280233    0.074877
      8          1           0        0.490719    2.289118    0.151229
      9          6           0       -1.163345    0.913938    0.056193
     10          1           0       -1.979816    1.619897    0.117529
     11         16           0        1.277741   -0.043040   -0.081011
 ---------------------------------------------------------------------

 SCF Done:  E(RHF) =  -553.491668551     A.U. after    2 cycles

 The electronic state is 1-A.
 Alpha  occ. eigenvalues --  -75.67685 -13.10459 -13.10249 -13.00632 -11.44451
 Alpha  occ. eigenvalues --  -11.42329 -11.39563 -11.36919  -8.01878  -1.33057
 Alpha  occ. eigenvalues --   -1.07131  -1.05899  -0.85052  -0.77098  -0.68380
 Alpha  occ. eigenvalues --   -0.64371  -0.53049  -0.51877  -0.47827  -0.43645
 Alpha  occ. eigenvalues --   -0.40280  -0.36478  -0.20666
 Alpha virt. eigenvalues --    0.03314   0.04715   0.05752   0.05958   0.06103
 Alpha virt. eigenvalues --    0.06609   0.07917   0.12079   0.12472   0.12670
 Alpha virt. eigenvalues --    0.13955   0.14359   0.14527   0.15410   0.16056

 Mulliken charges:
               1
     1  C   -3.581913
     2  H    1.480977
     3  H    1.359819
     4  C   -3.170584
     5  H    1.217361
     6  H    1.322078
     7  C   -1.988220
     8  H    1.265588
     9  C   -0.364545
    10  H    1.445812
    11  S    1.013625
 Sum of Mulliken charges =  -0.00000

 Dipole moment (field-independent basis, Debye):
    X=              0.3983    Y=             -0.4958    Z=             -0.0902  Tot=              0.6424

 Test job not archived.
 1\1\GINC-SE253\SP\RHF\Aug-CC-pVDZ\C4H6S1\OHZDE\06-Apr-2025\0\\#t hf au
 g-cc-pvdz iop(5/13=1,5/36=2,99/5=2) pseudo=read geom=check guess=(read
 ,tcheck) scf=(maxcycle=1)\\title\\0,1\C,0,-0.078596,-1.271647,0.190282
 \H,0,-0.054339,-1.558641,1.240593\H,0,0.112578,-2.148979,-0.421154\C,0
 ,-1.395081,-0.560009,-0.160033\H,0,-2.213837,-0.949245,0.447464\H,0,-1
 .665515,-0.738605,-1.207404\C,0,0.114747,1.280233,0.074877\H,0,0.49071
 9,2.289118,0.151229\C,0,-1.163345,0.913938,0.056193\H,0,-1.979816,1.61
 9897,0.117529\S,0,1.277741,-0.04304,-0.081011\\Version=ES64L-G16RevC.0

 Normal termination of Gaussian 16 at Sun Apr  6 08:00:37 2025.
