 Gaussian 16, Revision C.01,

 ----------------------------------------------------------------------
 #t hf aug-cc-pvdz symm=none int=(grid=ultrafine) guess=(read,tcheck) s
 table=(opt,rrhf)
 ----------------------------------------------------------------------
 -----
 title
 -----
 Symbolic Z-matrix:
 Charge =  0 Multiplicity = 1

 SCF Done:  E(RHF) =  -383.680502859     A.U. after   15 cycles

 1\1\GINC-SE453\Stability\RHF\Aug-CC-pVDZ\C8H10O1\OHZDE\06-Apr-2025\0\\
 #t hf aug-cc-pvdz symm=none int=(grid=ultrafine) guess=(read,tcheck) s
 table=(opt,rrhf)\\title\\0,1\C,0,-0.213058,2.110789,-0.000013\C,0,1.04
 2586,1.522127,0.000007\C,0,-1.349117,1.31482,-0.000027\C,0,1.187094,0.
 132469,-0.000047\C,0,0.04657,-0.684289,-0.000161\C,0,-1.210519,-0.0679
 72,-0.000041\C,0,2.574664,-0.460211,0.000086\C,0,0.106756,-2.189188,-0
 .000088\O,0,-2.303561,-0.899154,0.000146\H,0,-0.310027,3.188042,0.0000
 26\H,0,1.926806,2.145506,0.000092\H,0,-2.337118,1.760334,0.000039\H,0,

 Normal termination of Gaussian 16 at Sun Apr  6 08:01:31 2025.
 Gaussian 16:  ES64L-G16RevC.01  3-Jul-2019

 ----------------------------------------------------------------------
 #t hf aug-cc-pvdz iop(5/13=1,5/36=2,99/5=2) pseudo=read geom=check gue
 ss=(read,tcheck) scf=(maxcycle=1)
 ----------------------------------------------------------------------
 -----
 title
 -----
 Structure from the checkpoint file:  "2-3-dimethylphenol.chk"
 Charge =  0 Multiplicity = 1

                         Standard orientation:
 ---------------------------------------------------------------------
 Center     Atomic      Atomic             Coordinates (Angstroms)
 Number     Number       Type             X           Y           Z
 ---------------------------------------------------------------------
      1          6           0       -0.213057    2.110789   -0.000013
      2          6           0        1.042587    1.522126    0.000007
      3          6           0       -1.349116    1.314821   -0.000027
      4          6           0        1.187094    0.132468   -0.000047
      5          6           0        0.046570   -0.684289   -0.000161
      6          6           0       -1.210519   -0.067971   -0.000041
      7          6           0        2.574664   -0.460213    0.000086
      8          6           0        0.106755   -2.189188   -0.000088
      9          8           0       -2.303562   -0.899153    0.000146
     10          1           0       -0.310025    3.188042    0.000026
     11          1           0        1.926807    2.145505    0.000092
     12          1           0       -2.337117    1.760335    0.000039
     13          1           0        2.748532   -1.085832    0.877800
     14          1           0        2.749166   -1.084720   -0.878307
     15          1           0        3.326642    0.326981    0.000827
     16          1           0       -0.398379   -2.599980    0.876317
     17          1           0       -0.408083   -2.600325   -0.870566
     18          1           0        1.128273   -2.557540   -0.005554
     19          1           0       -3.107182   -0.370499   -0.000145
 ---------------------------------------------------------------------

 SCF Done:  E(RHF) =  -385.505304233     A.U. after    2 cycles

 The electronic state is 1-A.
 Alpha  occ. eigenvalues --  -21.09724 -11.51690 -11.45998 -11.43970 -11.40914
 Alpha  occ. eigenvalues --  -11.40413 -11.39253 -11.37506 -11.35472  -1.75297
 Alpha  occ. eigenvalues --   -1.33747  -1.15305  -1.10909  -1.00772  -0.97272
 Alpha  occ. eigenvalues --   -0.83519  -0.82672  -0.68183  -0.64994  -0.62778
 Alpha  occ. eigenvalues --   -0.59003  -0.58134  -0.55584  -0.54240  -0.52746
 Alpha  occ. eigenvalues --   -0.52155  -0.50553  -0.46511  -0.42585  -0.41660
 Alpha  occ. eigenvalues --   -0.40080  -0.31189  -0.26385
 Alpha virt. eigenvalues --    0.03397   0.04584   0.05183   0.05739   0.06272
 Alpha virt. eigenvalues --    0.06625   0.07267   0.07323   0.07425   0.07860
 Alpha virt. eigenvalues --    0.11411   0.12420   0.12495   0.12696   0.12832

 Mulliken charges:
               1
     1  C   -1.480797
     2  C   -3.320239
     3  C   -5.811857
     4  C    4.349038
     5  C    0.848103
     6  C    8.031809
     7  C   -5.295557
     8  C   -5.170536
     9  O   -4.787296
    10  H    1.495549
    11  H    1.849054
    12  H    1.785998
    13  H    0.948376
    14  H    0.948841
    15  H    1.196123
    16  H    1.021150
    17  H    1.021744
    18  H    1.366892
    19  H    1.003602
 Sum of Mulliken charges =  -0.00000

 Dipole moment (field-independent basis, Debye):
    X=             -0.4430    Y=             -0.1557    Z=              0.0004  Tot=              0.4696

 Test job not archived.
 1\1\GINC-SE453\SP\RHF\Aug-CC-pVDZ\C8H10O1\OHZDE\06-Apr-2025\0\\#t hf a
 ug-cc-pvdz iop(5/13=1,5/36=2,99/5=2) pseudo=read geom=check guess=(rea
 d,tcheck) scf=(maxcycle=1)\\title\\0,1\C,0,-0.213058,2.110789,-0.00001
 3\C,0,1.042586,1.522127,0.000007\C,0,-1.349117,1.31482,-0.000027\C,0,1
 .187094,0.132469,-0.000047\C,0,0.04657,-0.684289,-0.000161\C,0,-1.2105
 19,-0.067972,-0.000041\C,0,2.574664,-0.460211,0.000086\C,0,0.106756,-2
 .189188,-0.000088\O,0,-2.303561,-0.899154,0.000146\H,0,-0.310027,3.188
 042,0.000026\H,0,1.926806,2.145506,0.000092\H,0,-2.337118,1.760334,0.0

 Normal termination of Gaussian 16 at Sun Apr  6 08:01:40 2025.
