 Gaussian 16, Revision C.01,

 ----------------------------------------------------------------------
 #t hf aug-cc-pvdz symm=none int=(grid=ultrafine) guess=(read,tcheck) s
 table=(opt,rrhf)
 ----------------------------------------------------------------------
 -----
 title
 -----
 Symbolic Z-matrix:
 Charge =  0 Multiplicity = 1

 SCF Done:  E(RHF) =  -447.301185779     A.U. after   13 cycles
 Normal termination of Gaussian 16 at Sun Apr  6 08:01:08 2025.
 Gaussian 16:  ES64L-G16RevC.01  3-Jul-2019

 ----------------------------------------------------------------------
 #t hf aug-cc-pvdz iop(5/13=1,5/36=2,99/5=2) pseudo=read geom=check gue
 ss=(read,tcheck) scf=(maxcycle=1)
 ----------------------------------------------------------------------
 -----
 title
 -----
 Structure from the checkpoint file:  "2-3-6-7-tetraazanaphthalene.chk"
 Charge =  0 Multiplicity = 1

                         Standard orientation:
 ---------------------------------------------------------------------
 Center     Atomic      Atomic             Coordinates (Angstroms)
 Number     Number       Type             X           Y           Z
 ---------------------------------------------------------------------
      1          6           0        0.000000    0.000000    0.697725
      2          6           0        0.000000    1.263786    1.332760
      3          6           0        0.000000    0.000000   -0.697725
      4          7           0        0.000000    2.398784    0.679888
      5          6           0        0.000000    1.263786   -1.332760
      6          7           0        0.000000    2.398784   -0.679888
      7          6           0       -0.000000   -1.263786   -1.332760
      8          7           0       -0.000000   -2.398784   -0.679888
      9          6           0       -0.000000   -1.263786    1.332760
     10          7           0       -0.000000   -2.398784    0.679888
     11          1           0        0.000000   -1.340928   -2.414429
     12          1           0        0.000000    1.340928    2.414429
     13          1           0       -0.000000   -1.340928    2.414429
     14          1           0        0.000000    1.340928   -2.414429
 ---------------------------------------------------------------------

 SCF Done:  E(RHF) =  -449.323769662     A.U. after    2 cycles

 The electronic state is 1-AG.
 Alpha  occ. eigenvalues --  -15.79699 -15.79677 -15.79090 -15.79083 -11.52842
 Alpha  occ. eigenvalues --  -11.50757 -11.48381 -11.48000 -11.47594 -11.42793
 Alpha  occ. eigenvalues --   -1.60227  -1.53195  -1.26931  -1.26568  -1.22333
 Alpha  occ. eigenvalues --   -1.00076  -0.99266  -0.92463  -0.75936  -0.75680
 Alpha  occ. eigenvalues --   -0.71812  -0.68567  -0.62962  -0.62386  -0.61836
 Alpha  occ. eigenvalues --   -0.58746  -0.56101  -0.44914  -0.44299  -0.43363
 Alpha  occ. eigenvalues --   -0.41081  -0.40837  -0.35902  -0.34616
 Alpha virt. eigenvalues --    0.02505   0.05036   0.05078   0.05745   0.06263
 Alpha virt. eigenvalues --    0.07307   0.07842   0.08712   0.09297   0.10291
 Alpha virt. eigenvalues --    0.10360   0.12149   0.12648   0.12755   0.13346

 Mulliken charges:
               1
     1  C    3.926265
     2  C   -1.410615
     3  C    3.926265
     4  N   -2.089811
     5  C   -1.410615
     6  N   -2.089811
     7  C   -1.410615
     8  N   -2.089811
     9  C   -1.410615
    10  N   -2.089811
    11  H    1.537293
    12  H    1.537293
    13  H    1.537293
    14  H    1.537293
 Sum of Mulliken charges =   0.00000

 Dipole moment (field-independent basis, Debye):
    X=              0.0000    Y=             -0.0000    Z=             -0.0000  Tot=              0.0000

 Test job not archived.
 1\1\GINC-SE086\SP\RHF\Aug-CC-pVDZ\C6H4N4\OHZDE\06-Apr-2025\0\\#t hf au
 g-cc-pvdz iop(5/13=1,5/36=2,99/5=2) pseudo=read geom=check guess=(read
 ,tcheck) scf=(maxcycle=1)\\title\\0,1\C,0,0.,0.,0.697725\C,0,0.,1.2637
 86,1.33276\C,0,0.,0.,-0.697725\N,0,0.,2.398784,0.679888\C,0,0.,1.26378
 6,-1.33276\N,0,0.,2.398784,-0.679888\C,0,0.,-1.263786,-1.33276\N,0,0.,
 -2.398784,-0.679888\C,0,0.,-1.263786,1.33276\N,0,0.,-2.398784,0.679888
 \H,0,0.,-1.340928,-2.414429\H,0,0.,1.340928,2.414429\H,0,0.,-1.340928,
 2.414429\H,0,0.,1.340928,-2.414429\\Version=ES64L-G16RevC.01\State=1-A

 Normal termination of Gaussian 16 at Sun Apr  6 08:01:14 2025.
