 Gaussian 16, Revision C.01,

 ----------------------------------------------------------------------
 #t hf aug-cc-pvdz symm=none int=(grid=ultrafine) guess=(read,tcheck) s
 table=(opt,rrhf)
 ----------------------------------------------------------------------
 -----
 title
 -----
 Symbolic Z-matrix:
 Charge =  0 Multiplicity = 1

 SCF Done:  E(RHF) =  -244.517440681     A.U. after   14 cycles
 Normal termination of Gaussian 16 at Sun Apr  6 08:00:20 2025.
 Gaussian 16:  ES64L-G16RevC.01  3-Jul-2019

 ----------------------------------------------------------------------
 #t hf aug-cc-pvdz iop(5/13=1,5/36=2,99/5=2) pseudo=read geom=check gue
 ss=(read,tcheck) scf=(maxcycle=1)
 ----------------------------------------------------------------------
 -----
 title
 -----
 Structure from the checkpoint file:  "2-3-dihydro-1-3-oxazole.chk"
 Charge =  0 Multiplicity = 1

                         Standard orientation:
 ---------------------------------------------------------------------
 Center     Atomic      Atomic             Coordinates (Angstroms)
 Number     Number       Type             X           Y           Z
 ---------------------------------------------------------------------
      1          8           0       -0.353454   -1.104461    0.000000
      2          7           0        0.000000    1.089677    0.000000
      3          6           0       -1.093179    0.134053    0.000000
      4          6           0        0.952187   -0.943381    0.000000
      5          6           0        1.214335    0.602031    0.000000
      6          1           0       -0.198428    2.081953    0.000000
      7          1           0       -1.707000    0.184886    0.898569
      8          1           0       -1.707000    0.184886   -0.898569
 ---------------------------------------------------------------------

 SCF Done:  E(RHF) =  -245.578601455     A.U. after    2 cycles

 The electronic state is 1-A'.
 Alpha  occ. eigenvalues --  -21.13783 -15.82428 -11.47875 -11.42714 -11.38714
 Alpha  occ. eigenvalues --   -1.86019  -1.43275  -1.08686  -0.90153  -0.77913
 Alpha  occ. eigenvalues --   -0.71798  -0.71260  -0.57271  -0.47609  -0.47372
 Alpha  occ. eigenvalues --   -0.44320  -0.34742  -0.33816
 Alpha virt. eigenvalues --    0.02377   0.04697   0.04856   0.06845   0.08404
 Alpha virt. eigenvalues --    0.09287   0.10806   0.12421   0.12984   0.13721
 Alpha virt. eigenvalues --    0.14817   0.15603   0.16225   0.16656   0.17596

 Mulliken charges:
               1
     1  O   -2.166284
     2  N   -1.722238
     3  C   -0.846859
     4  C    0.617274
     5  C    0.375941
     6  H    0.797260
     7  H    1.472453
     8  H    1.472453
 Sum of Mulliken charges =  -0.00000

 Dipole moment (field-independent basis, Debye):
    X=             -5.8262    Y=              2.3036    Z=             -0.0000  Tot=              6.2651

 Test job not archived.
 1\1\GINC-SE012\SP\RHF\Aug-CC-pVDZ\C3H3N1O1\OHZDE\06-Apr-2025\0\\#t hf
 aug-cc-pvdz iop(5/13=1,5/36=2,99/5=2) pseudo=read geom=check guess=(re
 ad,tcheck) scf=(maxcycle=1)\\title\\0,1\O,0,-0.353454,-1.104461,0.\N,0
 ,0.,1.089677,0.\C,0,-1.093179,0.134053,0.\C,0,0.952187,-0.943381,0.\C,
 0,1.214335,0.602031,0.\H,0,-0.198428,2.081953,0.\H,0,-1.707,0.184886,0
 .898569\H,0,-1.707,0.184886,-0.898569\\Version=ES64L-G16RevC.01\State=
 1-A'\HF=-245.5786015\RMSD=1.195e-01\Dipole=-2.2922118,0.9063175,0.\Qua
 drupole=-2.9461802,0.1188914,2.8272888,-0.7629248,0.,0.\PG=CS [SG(C3H1

 Normal termination of Gaussian 16 at Sun Apr  6 08:00:35 2025.
