 Gaussian 16, Revision C.01,

 ----------------------------------------------------------------------
 #t hf aug-cc-pvdz symm=none int=(grid=ultrafine) guess=(read,tcheck) s
 table=(opt,rrhf)
 ----------------------------------------------------------------------
 -----
 title
 -----
 Symbolic Z-matrix:
 Charge =  0 Multiplicity = 1

 SCF Done:  E(RHF) =  -470.361956946     A.U. after   15 cycles
 Normal termination of Gaussian 16 at Sun Apr  6 08:01:58 2025.
 Gaussian 16:  ES64L-G16RevC.01  3-Jul-2019

 ----------------------------------------------------------------------
 #t hf aug-cc-pvdz iop(5/13=1,5/36=2,99/5=2) pseudo=read geom=check gue
 ss=(read,tcheck) scf=(maxcycle=1)
 ----------------------------------------------------------------------
 -----
 title
 -----
 Structure from the checkpoint file:  "2-3-2--3--dipyrrolopyrrole.chk"
 Charge =  0 Multiplicity = 1

                         Standard orientation:
 ---------------------------------------------------------------------
 Center     Atomic      Atomic             Coordinates (Angstroms)
 Number     Number       Type             X           Y           Z
 ---------------------------------------------------------------------
      1          6           0        2.531827    0.838284    0.000719
      2          6           0       -2.531828    0.838284    0.000727
      3          6           0        2.945670   -0.478119    0.001541
      4          6           0       -2.945670   -0.478119    0.001498
      5          6           0        1.115603    0.798316   -0.000163
      6          6           0       -1.115604    0.798316   -0.000047
      7          6           0        0.708404   -0.539305    0.000275
      8          6           0       -0.708404   -0.539305    0.000396
      9          7           0        1.844970   -1.314880    0.000405
     10          7           0       -1.844969   -1.314880    0.000310
     11          7           0       -0.000000    1.623424   -0.012899
     12          1           0        3.182514    1.695453    0.001317
     13          1           0       -3.182515    1.695453    0.001272
     14          1           0        3.941593   -0.883817    0.003112
     15          1           0       -3.941593   -0.883818    0.003098
     16          1           0        1.888002   -2.315552   -0.003863
     17          1           0       -1.887996   -2.315553   -0.003452
     18          1           0        0.000005    2.622059    0.054138
 ---------------------------------------------------------------------

 SCF Done:  E(RHF) =  -472.555954296     A.U. after    2 cycles

 The electronic state is 1-A.
 Alpha  occ. eigenvalues --  -15.77804 -15.77592 -15.75954 -11.48523 -11.45305
 Alpha  occ. eigenvalues --  -11.45083 -11.41160 -11.40492 -11.38331 -11.37306
 Alpha  occ. eigenvalues --  -11.34645  -1.56086  -1.45659  -1.37790  -1.12439
 Alpha  occ. eigenvalues --   -1.10367  -1.08648  -0.98468  -0.84221  -0.80764
 Alpha  occ. eigenvalues --   -0.78836  -0.77216  -0.75024  -0.64338  -0.61274
 Alpha  occ. eigenvalues --   -0.59094  -0.56166  -0.54642  -0.53847  -0.53566
 Alpha  occ. eigenvalues --   -0.49775  -0.47514  -0.46155  -0.44637  -0.34234
 Alpha  occ. eigenvalues --   -0.32805  -0.24198  -0.21428
 Alpha virt. eigenvalues --    0.03167   0.04620   0.04941   0.05564   0.06127
 Alpha virt. eigenvalues --    0.06848   0.06872   0.10579   0.10763   0.11298
 Alpha virt. eigenvalues --    0.12150   0.12688   0.12761   0.13413   0.14399

 Mulliken charges:
               1
     1  C   -1.631441
     2  C   -1.631472
     3  C   -0.751745
     4  C   -0.751725
     5  C    3.013166
     6  C    3.013147
     7  C    1.769458
     8  C    1.769452
     9  N   -4.324219
    10  N   -4.324219
    11  N   -4.454502
    12  H    1.469159
    13  H    1.469157
    14  H    1.430016
    15  H    1.430013
    16  H    0.864179
    17  H    0.864183
    18  H    0.777392
 Sum of Mulliken charges =  -0.00000

 Dipole moment (field-independent basis, Debye):
    X=              0.0000    Y=             -1.8402    Z=              0.0707  Tot=              1.8415

 Test job not archived.
 1\1\GINC-SE028\SP\RHF\Aug-CC-pVDZ\C8H7N3\OHZDE\06-Apr-2025\0\\#t hf au
 g-cc-pvdz iop(5/13=1,5/36=2,99/5=2) pseudo=read geom=check guess=(read
 ,tcheck) scf=(maxcycle=1)\\title\\0,1\C,0,2.531827,0.838284,0.000719\C
 ,0,-2.531828,0.838284,0.000727\C,0,2.94567,-0.478119,0.001541\C,0,-2.9
 4567,-0.478119,0.001498\C,0,1.115603,0.798316,-0.000163\C,0,-1.115604,
 0.798316,-0.000047\C,0,0.708404,-0.539305,0.000275\C,0,-0.708404,-0.53
 9305,0.000396\N,0,1.84497,-1.31488,0.000405\N,0,-1.844969,-1.31488,0.0
 0031\N,0,0.,1.623424,-0.012899\H,0,3.182514,1.695453,0.001317\H,0,-3.1

 Normal termination of Gaussian 16 at Sun Apr  6 08:02:10 2025.
