 Gaussian 16, Revision C.01,

 ----------------------------------------------------------------------
 #t hf aug-cc-pvdz symm=none int=(grid=ultrafine) guess=(read,tcheck) s
 table=(opt,rrhf)
 ----------------------------------------------------------------------
 -----
 title
 -----
 Symbolic Z-matrix:
 Charge =  0 Multiplicity = 1

 SCF Done:  E(RHF) =  -304.730876985     A.U. after   12 cycles
 Normal termination of Gaussian 16 at Sun Apr  6 08:00:25 2025.
 Gaussian 16:  ES64L-G16RevC.01  3-Jul-2019

 ----------------------------------------------------------------------
 #t hf aug-cc-pvdz iop(5/13=1,5/36=2,99/5=2) pseudo=read geom=check gue
 ss=(read,tcheck) scf=(maxcycle=1)
 ----------------------------------------------------------------------
 -----
 title
 -----
 Structure from the checkpoint file:  "2-3-butanedione.chk"
 Charge =  0 Multiplicity = 1

                         Standard orientation:
 ---------------------------------------------------------------------
 Center     Atomic      Atomic             Coordinates (Angstroms)
 Number     Number       Type             X           Y           Z
 ---------------------------------------------------------------------
      1          6           0        1.188334   -1.577198    0.000000
      2          1           0        1.793080   -1.322397    0.871672
      3          1           0        0.948796   -2.636600    0.000000
      4          1           0        1.793080   -1.322397   -0.871672
      5          6           0       -1.188334    1.577198    0.000000
      6          1           0       -1.793080    1.322397    0.871672
      7          1           0       -0.948796    2.636600    0.000000
      8          1           0       -1.793080    1.322397   -0.871672
      9          6           0        0.078985    0.772271    0.000000
     10          8           0        1.188334    1.252788    0.000000
     11          6           0       -0.078985   -0.772271    0.000000
     12          8           0       -1.188334   -1.252788    0.000000
 ---------------------------------------------------------------------

 SCF Done:  E(RHF) =  -306.078865344     A.U. after    2 cycles

 The electronic state is 1-AG.
 Alpha  occ. eigenvalues --  -21.08237 -21.08211 -11.52608 -11.48280 -11.39831
 Alpha  occ. eigenvalues --  -11.39106  -1.75228  -1.71323  -1.14152  -1.10877
 Alpha  occ. eigenvalues --   -0.90877  -0.71413  -0.65710  -0.62089  -0.59510
 Alpha  occ. eigenvalues --   -0.58768  -0.55529  -0.53132  -0.48634  -0.46777
 Alpha  occ. eigenvalues --   -0.41672  -0.36619  -0.26861
 Alpha virt. eigenvalues --    0.03108   0.05455   0.05488   0.05970   0.07156
 Alpha virt. eigenvalues --    0.07169   0.08642   0.10892   0.11533   0.11705
 Alpha virt. eigenvalues --    0.12201   0.13434   0.13525   0.14970   0.15546

 Mulliken charges:
               1
     1  C   -4.416934
     2  H    1.330705
     3  H    1.244716
     4  H    1.330705
     5  C   -4.416934
     6  H    1.330705
     7  H    1.244716
     8  H    1.330705
     9  C    3.888072
    10  O   -3.377263
    11  C    3.888072
    12  O   -3.377263
 Sum of Mulliken charges =  -0.00000

 Dipole moment (field-independent basis, Debye):
    X=             -0.0000    Y=             -0.0000    Z=              0.0000  Tot=              0.0000

 Test job not archived.
 1\1\GINC-SE101\SP\RHF\Aug-CC-pVDZ\C4H6O2\OHZDE\06-Apr-2025\0\\#t hf au
 g-cc-pvdz iop(5/13=1,5/36=2,99/5=2) pseudo=read geom=check guess=(read
 ,tcheck) scf=(maxcycle=1)\\title\\0,1\C,0,1.188334,-1.577198,0.\H,0,1.
 79308,-1.322397,0.871672\H,0,0.948796,-2.6366,0.\H,0,1.79308,-1.322397
 ,-0.871672\C,0,-1.188334,1.577198,0.\H,0,-1.79308,1.322397,0.871672\H,
 0,-0.948796,2.6366,0.\H,0,-1.79308,1.322397,-0.871672\C,0,0.078985,0.7
 72271,0.\O,0,1.188334,1.252788,0.\C,0,-0.078985,-0.772271,0.\O,0,-1.18
 8334,-1.252788,0.\\Version=ES64L-G16RevC.01\State=1-AG\HF=-306.0788653

 Normal termination of Gaussian 16 at Sun Apr  6 08:00:36 2025.
