 Gaussian 16, Revision C.01,

 ----------------------------------------------------------------------
 #t hf aug-cc-pvdz symm=none int=(grid=ultrafine) guess=(read,tcheck) s
 table=(opt,rrhf)
 ----------------------------------------------------------------------
 -----
 title
 -----
 Symbolic Z-matrix:
 Charge =  0 Multiplicity = 1

 SCF Done:  E(RHF) =  -234.203060122     A.U. after   13 cycles
 Normal termination of Gaussian 16 at Sun Apr  6 08:00:51 2025.
 Gaussian 16:  ES64L-G16RevC.01  3-Jul-2019

 ----------------------------------------------------------------------
 #t hf aug-cc-pvdz iop(5/13=1,5/36=2,99/5=2) pseudo=read geom=check gue
 ss=(read,tcheck) scf=(maxcycle=1)
 ----------------------------------------------------------------------
 -----
 title
 -----
 Structure from the checkpoint file:  "2-3-dimethyl-1-butene.chk"
 Charge =  0 Multiplicity = 1

                         Standard orientation:
 ---------------------------------------------------------------------
 Center     Atomic      Atomic             Coordinates (Angstroms)
 Number     Number       Type             X           Y           Z
 ---------------------------------------------------------------------
      1          6           0       -1.071798    1.395295   -0.516943
      2          1           0       -2.097308    1.655846   -0.745207
      3          1           0       -0.324065    2.139068   -0.752121
      4          6           0       -1.846494   -0.781611    0.354048
      5          1           0       -1.822725   -1.041562    1.416022
      6          1           0       -2.835490   -0.389471    0.122101
      7          1           0       -1.717430   -1.714418   -0.199086
      8          6           0       -0.767616    0.217558    0.024788
      9          6           0        1.126951   -1.341248   -0.574524
     10          1           0        2.119063   -1.686706   -0.279687
     11          1           0        0.459313   -2.201864   -0.554699
     12          1           0        1.185647   -0.984025   -1.604310
     13          6           0        0.651228   -0.212141    0.359200
     14          1           0        0.614475   -0.630270    1.372557
     15          6           0        1.673172    0.925370    0.370849
     16          1           0        1.815739    1.345990   -0.626310
     17          1           0        1.368190    1.732615    1.036949
     18          1           0        2.641935    0.555459    0.709287
 ---------------------------------------------------------------------

 SCF Done:  E(RHF) =  -235.426454204     A.U. after    2 cycles

 The electronic state is 1-A.
 Alpha  occ. eigenvalues --  -11.43620 -11.40244 -11.38165 -11.37585 -11.37013
 Alpha  occ. eigenvalues --  -11.34493  -1.29011  -1.11826  -1.00766  -0.97740
 Alpha  occ. eigenvalues --   -0.87270  -0.72759  -0.64401  -0.61790  -0.58701
 Alpha  occ. eigenvalues --   -0.56275  -0.55667  -0.53267  -0.51928  -0.49095
 Alpha  occ. eigenvalues --   -0.45913  -0.43591  -0.40809  -0.32852
 Alpha virt. eigenvalues --    0.03834   0.05230   0.05521   0.05780   0.05904
 Alpha virt. eigenvalues --    0.05996   0.06337   0.06642   0.07486   0.08527
 Alpha virt. eigenvalues --    0.08761   0.10120   0.12094   0.12475   0.13374

 Mulliken charges:
               1
     1  C   -4.625477
     2  H    1.693190
     3  H    1.629336
     4  C   -5.294329
     5  H    1.151420
     6  H    1.339744
     7  H    1.271745
     8  C    3.436167
     9  C   -4.081976
    10  H    1.287304
    11  H    1.309460
    12  H    1.391592
    13  C   -2.134708
    14  H    1.480973
    15  C   -3.637943
    16  H    1.390869
    17  H    1.291651
    18  H    1.100982
 Sum of Mulliken charges =   0.00000

 Dipole moment (field-independent basis, Debye):
    X=              0.1285    Y=             -0.3961    Z=              0.2808  Tot=              0.5022

 Test job not archived.
 1\1\GINC-SE257\SP\RHF\Aug-CC-pVDZ\C6H12\OHZDE\06-Apr-2025\0\\#t hf aug
 -cc-pvdz iop(5/13=1,5/36=2,99/5=2) pseudo=read geom=check guess=(read,
 tcheck) scf=(maxcycle=1)\\title\\0,1\C,0,-1.071798,1.395295,-0.516943\
 H,0,-2.097308,1.655846,-0.745207\H,0,-0.324065,2.139068,-0.752121\C,0,
 -1.846494,-0.781611,0.354048\H,0,-1.822725,-1.041562,1.416022\H,0,-2.8
 3549,-0.389471,0.122101\H,0,-1.71743,-1.714418,-0.199086\C,0,-0.767616
 ,0.217558,0.024788\C,0,1.126951,-1.341248,-0.574524\H,0,2.119063,-1.68
 6706,-0.279687\H,0,0.459313,-2.201864,-0.554699\H,0,1.185647,-0.984025

 Normal termination of Gaussian 16 at Sun Apr  6 08:01:15 2025.
