 Gaussian 16, Revision C.01,

 ----------------------------------------------------------------------
 #t hf aug-cc-pvdz symm=none int=(grid=ultrafine) guess=(read,tcheck) s
 table=(opt,rrhf)
 ----------------------------------------------------------------------
 -----
 title
 -----
 Symbolic Z-matrix:
 Charge =  0 Multiplicity = 1

 SCF Done:  E(RHF) =  -627.304698985     A.U. after   14 cycles
 Normal termination of Gaussian 16 at Sun Apr  6 08:00:28 2025.
 Gaussian 16:  ES64L-G16RevC.01  3-Jul-2019

 ----------------------------------------------------------------------
 #t hf aug-cc-pvdz iop(5/13=1,5/36=2,99/5=2) pseudo=read geom=check gue
 ss=(read,tcheck) scf=(maxcycle=1)
 ----------------------------------------------------------------------
 -----
 title
 -----
 Structure from the checkpoint file:  "2-3-dihydrothiophene-1-oxide.chk"
 Charge =  0 Multiplicity = 1

                         Standard orientation:
 ---------------------------------------------------------------------
 Center     Atomic      Atomic             Coordinates (Angstroms)
 Number     Number       Type             X           Y           Z
 ---------------------------------------------------------------------
      1          6           0       -1.465797    0.872297    0.156005
      2          6           0       -1.620855   -0.609455    0.335459
      3          6           0       -0.276897    1.302884   -0.242595
      4          6           0       -0.393911   -1.261059   -0.306555
      5          8           0        1.765599   -0.030829    0.858773
      6         16           0        0.967718    0.002094   -0.419379
      7          1           0       -2.288404    1.542754    0.376595
      8          1           0       -1.699412   -0.844109    1.400319
      9          1           0       -2.540491   -0.970775   -0.129233
     10          1           0        0.033909    2.327308   -0.379703
     11          1           0        0.024673   -2.096585    0.248885
     12          1           0       -0.593786   -1.573461   -1.330850
 ---------------------------------------------------------------------

 SCF Done:  E(RHF) =  -628.623116141     A.U. after    2 cycles

 The electronic state is 1-A.
 Alpha  occ. eigenvalues --  -75.78213 -20.99306 -13.32817 -13.21265 -13.17986
 Alpha  occ. eigenvalues --  -11.47269 -11.44446 -11.41257 -11.39169  -8.12387
 Alpha  occ. eigenvalues --   -1.67356  -1.32161  -1.08395  -1.06094  -0.86615
 Alpha  occ. eigenvalues --   -0.79405  -0.70856  -0.66488  -0.55116  -0.54009
 Alpha  occ. eigenvalues --   -0.50482  -0.49952  -0.46848  -0.42997  -0.34048
 Alpha  occ. eigenvalues --   -0.31467  -0.24860
 Alpha virt. eigenvalues --    0.02784   0.04832   0.05200   0.05329   0.05965
 Alpha virt. eigenvalues --    0.06286   0.08455   0.09707   0.11597   0.12513
 Alpha virt. eigenvalues --    0.13305   0.13678   0.13923   0.14596   0.15311

 Mulliken charges:
               1
     1  C    0.055345
     2  C   -3.293500
     3  C   -2.230287
     4  C   -3.588391
     5  O   -2.265213
     6  S    3.040597
     7  H    1.459256
     8  H    1.366221
     9  H    1.211740
    10  H    1.302823
    11  H    1.415701
    12  H    1.525709
 Sum of Mulliken charges =   0.00000

 Dipole moment (field-independent basis, Debye):
    X=             -2.0099    Y=             -0.1787    Z=             -0.9984  Tot=              2.2513

 Test job not archived.
 1\1\GINC-SE047\SP\RHF\Aug-CC-pVDZ\C4H6O1S1\OHZDE\06-Apr-2025\0\\#t hf
 aug-cc-pvdz iop(5/13=1,5/36=2,99/5=2) pseudo=read geom=check guess=(re
 ad,tcheck) scf=(maxcycle=1)\\title\\0,1\C,0,-1.465797,0.872297,0.15600
 5\C,0,-1.620855,-0.609455,0.335459\C,0,-0.276897,1.302884,-0.242595\C,
 0,-0.393911,-1.261059,-0.306555\O,0,1.765599,-0.030829,0.858773\S,0,0.
 967718,0.002094,-0.419379\H,0,-2.288404,1.542755,0.376595\H,0,-1.69941
 2,-0.844109,1.400319\H,0,-2.540491,-0.970774,-0.129233\H,0,0.03391,2.3
 27308,-0.379703\H,0,0.024673,-2.096585,0.248885\H,0,-0.593786,-1.57346

 Normal termination of Gaussian 16 at Sun Apr  6 08:00:37 2025.
