 Gaussian 16, Revision C.01,

 ----------------------------------------------------------------------
 #t hf aug-cc-pvdz symm=none int=(grid=ultrafine) guess=(read,tcheck) s
 table=(opt,rrhf)
 ----------------------------------------------------------------------
 -----
 title
 -----
 Symbolic Z-matrix:
 Charge =  0 Multiplicity = 1

 SCF Done:  E(RHF) =  -235.388230937     A.U. after   11 cycles
 Normal termination of Gaussian 16 at Sun Apr  6 08:01:16 2025.
 Gaussian 16:  ES64L-G16RevC.01  3-Jul-2019

 ----------------------------------------------------------------------
 #t hf aug-cc-pvdz iop(5/13=1,5/36=2,99/5=2) pseudo=read geom=check gue
 ss=(read,tcheck) scf=(maxcycle=1)
 ----------------------------------------------------------------------
 -----
 title
 -----
 Structure from the checkpoint file:  "2-3-dimethylbutane.chk"
 Charge =  0 Multiplicity = 1

                         Standard orientation:
 ---------------------------------------------------------------------
 Center     Atomic      Atomic             Coordinates (Angstroms)
 Number     Number       Type             X           Y           Z
 ---------------------------------------------------------------------
      1          6           0       -0.230967    0.739015    0.000000
      2          6           0        0.230967    1.496803    1.250954
      3          6           0        0.230967    1.496803   -1.250954
      4          1           0       -0.181582    1.079091    2.167949
      5          1           0        1.320994    1.480162    1.335695
      6          1           0        1.320994    1.480162   -1.335695
      7          1           0       -0.181582    1.079091   -2.167949
      8          1           0       -0.077437    2.542265    1.200790
      9          1           0       -0.077437    2.542265   -1.200790
     10          1           0       -1.328230    0.732224    0.000000
     11          6           0        0.230967   -0.739015    0.000000
     12          6           0       -0.230967   -1.496803    1.250954
     13          6           0       -0.230967   -1.496803   -1.250954
     14          1           0        0.181582   -1.079091    2.167949
     15          1           0       -1.320994   -1.480162    1.335695
     16          1           0       -1.320994   -1.480162   -1.335695
     17          1           0        0.077437   -2.542265   -1.200790
     18          1           0        0.181582   -1.079091   -2.167949
     19          1           0        0.077437   -2.542265    1.200790
     20          1           0        1.328230   -0.732224    0.000000
 ---------------------------------------------------------------------

 SCF Done:  E(RHF) =  -236.648389827     A.U. after    2 cycles

 The electronic state is 1-AG.
 Alpha  occ. eigenvalues --  -11.41776 -11.39762 -11.38054 -11.37447 -11.36130
 Alpha  occ. eigenvalues --  -11.33403  -1.29023  -1.11653  -1.00718  -0.97743
 Alpha  occ. eigenvalues --   -0.88053  -0.77857  -0.63103  -0.62160  -0.59230
 Alpha  occ. eigenvalues --   -0.57721  -0.54530  -0.53126  -0.52413  -0.50119
 Alpha  occ. eigenvalues --   -0.47599  -0.46552  -0.43243  -0.40186  -0.39204
 Alpha virt. eigenvalues --    0.04447   0.05266   0.05409   0.05692   0.05781
 Alpha virt. eigenvalues --    0.05870   0.05917   0.06294   0.06577   0.08248
 Alpha virt. eigenvalues --    0.08632   0.09073   0.09111   0.11763   0.12744

 Mulliken charges:
               1
     1  C   -1.090626
     2  C   -4.177131
     3  C   -4.177131
     4  H    1.405192
     5  H    1.282923
     6  H    1.282923
     7  H    1.405192
     8  H    1.159113
     9  H    1.159113
    10  H    1.750434
    11  C   -1.090626
    12  C   -4.177131
    13  C   -4.177131
    14  H    1.405192
    15  H    1.282923
    16  H    1.282923
    17  H    1.159113
    18  H    1.405192
    19  H    1.159113
    20  H    1.750434
 Sum of Mulliken charges =   0.00000

 Dipole moment (field-independent basis, Debye):
    X=              0.0000    Y=              0.0000    Z=             -0.0000  Tot=              0.0000

 Test job not archived.
 1\1\GINC-SE410\SP\RHF\Aug-CC-pVDZ\C6H14\OHZDE\06-Apr-2025\0\\#t hf aug
 -cc-pvdz iop(5/13=1,5/36=2,99/5=2) pseudo=read geom=check guess=(read,
 tcheck) scf=(maxcycle=1)\\title\\0,1\C,0,-0.230967,0.739015,0.\C,0,0.2
 30967,1.496803,1.250954\C,0,0.230967,1.496803,-1.250954\H,0,-0.181582,
 1.079091,2.167949\H,0,1.320994,1.480162,1.335695\H,0,1.320994,1.480162
 ,-1.335695\H,0,-0.181582,1.079091,-2.167949\H,0,-0.077437,2.542265,1.2
 0079\H,0,-0.077437,2.542265,-1.20079\H,0,-1.32823,0.732224,0.\C,0,0.23
 0967,-0.739015,0.\C,0,-0.230967,-1.496803,1.250954\C,0,-0.230967,-1.49

 Normal termination of Gaussian 16 at Sun Apr  6 08:01:22 2025.
