 Gaussian 16, Revision C.01,

 ----------------------------------------------------------------------
 #t hf aug-cc-pvdz symm=none int=(grid=ultrafine) guess=(read,tcheck) s
 table=(opt,rrhf)
 ----------------------------------------------------------------------
 -----
 title
 -----
 Symbolic Z-matrix:
 Charge =  0 Multiplicity = 1

 SCF Done:  E(RHF) =  -324.808225430     A.U. after   15 cycles
 Normal termination of Gaussian 16 at Sun Apr  6 08:01:04 2025.
 Gaussian 16:  ES64L-G16RevC.01  3-Jul-2019

 ----------------------------------------------------------------------
 #t hf aug-cc-pvdz iop(5/13=1,5/36=2,99/5=2) pseudo=read geom=check gue
 ss=(read,tcheck) scf=(maxcycle=1)
 ----------------------------------------------------------------------
 -----
 title
 -----
 Structure from the checkpoint file:  "2-3-dimethylpyridine.chk"
 Charge =  0 Multiplicity = 1

                         Standard orientation:
 ---------------------------------------------------------------------
 Center     Atomic      Atomic             Coordinates (Angstroms)
 Number     Number       Type             X           Y           Z
 ---------------------------------------------------------------------
      1          6           0        1.299716   -1.582465    0.000000
      2          6           0       -0.088674   -1.564388    0.000000
      3          6           0        1.965699   -0.367634    0.000000
      4          6           0       -0.770283   -0.353502    0.000000
      5          6           0        0.000000    0.825444    0.000000
      6          6           0       -2.273731   -0.308186    0.000000
      7          6           0       -0.652970    2.180273    0.000000
      8          7           0        1.335751    0.807581    0.000000
      9          1           0        1.849802   -2.513184    0.000000
     10          1           0       -0.646412   -2.492987    0.000000
     11          1           0        3.049088   -0.329331    0.000000
     12          1           0       -2.693885   -1.312990    0.000000
     13          1           0       -2.659868    0.216687    0.876553
     14          1           0       -2.659868    0.216687   -0.876553
     15          1           0       -1.290044    2.316709    0.877173
     16          1           0        0.112433    2.951380    0.000000
     17          1           0       -1.290044    2.316709   -0.877173
 ---------------------------------------------------------------------

 SCF Done:  E(RHF) =  -326.388389423     A.U. after    2 cycles

 The electronic state is 1-A'.
 Alpha  occ. eigenvalues --  -15.72528 -11.49457 -11.45295 -11.43098 -11.40960
 Alpha  occ. eigenvalues --  -11.39761 -11.38398 -11.36456  -1.45136  -1.21247
 Alpha  occ. eigenvalues --   -1.16688  -1.04840  -0.98840  -0.86627  -0.83804
 Alpha  occ. eigenvalues --   -0.69622  -0.63851  -0.61382  -0.60436  -0.56104
 Alpha  occ. eigenvalues --   -0.55535  -0.54223  -0.53125  -0.50723  -0.50412
 Alpha  occ. eigenvalues --   -0.44077  -0.35736  -0.34501  -0.31808
 Alpha virt. eigenvalues --    0.03389   0.04654   0.05324   0.05592   0.06319
 Alpha virt. eigenvalues --    0.06368   0.07102   0.07586   0.08524   0.09467
 Alpha virt. eigenvalues --    0.11233   0.11784   0.12225   0.12375   0.13264

 Mulliken charges:
               1
     1  C   -1.448045
     2  C   -0.289270
     3  C   -1.405679
     4  C    3.237917
     5  C    1.891915
     6  C   -5.409653
     7  C   -4.659483
     8  N   -4.080553
     9  H    1.439879
    10  H    1.848092
    11  H    1.620861
    12  H    1.415842
    13  H    1.119279
    14  H    1.119279
    15  H    1.141682
    16  H    1.316256
    17  H    1.141682
 Sum of Mulliken charges =   0.00000

 Dipole moment (field-independent basis, Debye):
    X=             -1.3256    Y=             -1.1909    Z=             -0.0000  Tot=              1.7820

 Test job not archived.
 1\1\GINC-SE298\SP\RHF\Aug-CC-pVDZ\C7H9N1\OHZDE\06-Apr-2025\0\\#t hf au
 g-cc-pvdz iop(5/13=1,5/36=2,99/5=2) pseudo=read geom=check guess=(read
 ,tcheck) scf=(maxcycle=1)\\title\\0,1\C,0,1.299716,-1.582465,0.\C,0,-0
 .088674,-1.564388,0.\C,0,1.965699,-0.367634,0.\C,0,-0.770283,-0.353502
 ,0.\C,0,0.,0.825444,0.\C,0,-2.273731,-0.308186,0.\C,0,-0.65297,2.18027
 3,0.\N,0,1.335751,0.807581,0.\H,0,1.849802,-2.513184,0.\H,0,-0.646412,
 -2.492987,0.\H,0,3.049088,-0.329331,0.\H,0,-2.693885,-1.31299,0.\H,0,-
 2.659868,0.216687,0.876553\H,0,-2.659868,0.216687,-0.876553\H,0,-1.290

 Normal termination of Gaussian 16 at Sun Apr  6 08:01:16 2025.
