 Gaussian 16, Revision C.01,

 ----------------------------------------------------------------------
 #t hf aug-cc-pvdz symm=none int=(grid=ultrafine) guess=(read,tcheck) s
 table=(opt,rrhf)
 ----------------------------------------------------------------------
 -----
 title
 -----
 Symbolic Z-matrix:
 Charge =  0 Multiplicity = 1

 SCF Done:  E(RHF) =  -643.293755187     A.U. after   15 cycles
 Normal termination of Gaussian 16 at Sun Apr  6 08:00:26 2025.
 Gaussian 16:  ES64L-G16RevC.01  3-Jul-2019

 ----------------------------------------------------------------------
 #t hf aug-cc-pvdz iop(5/13=1,5/36=2,99/5=2) pseudo=read geom=check gue
 ss=(read,tcheck) scf=(maxcycle=1)
 ----------------------------------------------------------------------
 -----
 title
 -----
 Structure from the checkpoint file:  "2-3-dihydro-1-2-thiazole-1-oxide.chk"
 Charge =  0 Multiplicity = 1

                         Standard orientation:
 ---------------------------------------------------------------------
 Center     Atomic      Atomic             Coordinates (Angstroms)
 Number     Number       Type             X           Y           Z
 ---------------------------------------------------------------------
      1          6           0       -1.470654    0.825217    0.180286
      2          6           0       -1.553390   -0.662462    0.294602
      3          6           0       -0.306511    1.283031   -0.252180
      4          7           0       -0.356943   -1.153514   -0.388425
      5          8           0        1.719592    0.003041    0.864117
      6         16           0        0.944753   -0.019129   -0.414780
      7          1           0       -2.309000    1.451695    0.454288
      8          1           0       -1.613318   -0.957897    1.349242
      9          1           0       -2.442883   -1.050971   -0.208260
     10          1           0        0.004141    2.307754   -0.379815
     11          1           0       -0.029788   -2.068961   -0.109186
 ---------------------------------------------------------------------

 SCF Done:  E(RHF) =  -644.664156776     A.U. after    2 cycles

 The electronic state is 1-A.
 Alpha  occ. eigenvalues --  -75.80824 -21.00581 -15.75449 -13.35324 -13.22667
 Alpha  occ. eigenvalues --  -13.20572 -11.47684 -11.43873 -11.40210  -8.14954
 Alpha  occ. eigenvalues --   -1.69689  -1.43422  -1.17353  -1.08785  -0.89446
 Alpha  occ. eigenvalues --   -0.81290  -0.73796  -0.65600  -0.58129  -0.53438
 Alpha  occ. eigenvalues --   -0.52613  -0.49258  -0.47046  -0.41202  -0.33452
 Alpha  occ. eigenvalues --   -0.32583  -0.26256
 Alpha virt. eigenvalues --    0.02857   0.04702   0.05244   0.05831   0.05961
 Alpha virt. eigenvalues --    0.08354   0.09225   0.10416   0.12491   0.12817
 Alpha virt. eigenvalues --    0.13358   0.13925   0.14217   0.15230   0.15756

 Mulliken charges:
               1
     1  C   -0.114885
     2  C   -2.879140
     3  C   -2.314896
     4  N   -2.079393
     5  O   -2.290138
     6  S    3.659224
     7  H    1.429801
     8  H    1.300598
     9  H    1.307700
    10  H    1.357149
    11  H    0.623981
 Sum of Mulliken charges =   0.00000

 Dipole moment (field-independent basis, Debye):
    X=             -2.0324    Y=             -0.3076    Z=             -0.4090  Tot=              2.0959

 Test job not archived.
 1\1\GINC-SE168\SP\RHF\Aug-CC-pVDZ\C3H5N1O1S1\OHZDE\06-Apr-2025\0\\#t h
 f aug-cc-pvdz iop(5/13=1,5/36=2,99/5=2) pseudo=read geom=check guess=(
 read,tcheck) scf=(maxcycle=1)\\title\\0,1\C,0,-1.470654,0.825217,0.180
 286\C,0,-1.55339,-0.662462,0.294602\C,0,-0.306511,1.283031,-0.25218\N,
 0,-0.356943,-1.153514,-0.388425\O,0,1.719592,0.003041,0.864117\S,0,0.9
 44753,-0.019129,-0.41478\H,0,-2.309,1.451695,0.454288\H,0,-1.613318,-0
 .957897,1.349242\H,0,-2.442883,-1.050971,-0.20826\H,0,0.004141,2.30775
 4,-0.379815\H,0,-0.029788,-2.068961,-0.109186\\Version=ES64L-G16RevC.0

 Normal termination of Gaussian 16 at Sun Apr  6 08:00:37 2025.
