 Gaussian 16, Revision C.01,

 ----------------------------------------------------------------------
 #t hf aug-cc-pvdz symm=none int=(grid=ultrafine) guess=(read,tcheck) s
 table=(opt,rrhf)
 ----------------------------------------------------------------------
 -----
 title
 -----
 Symbolic Z-matrix:
 Charge =  0 Multiplicity = 1

 SCF Done:  E(RHF) =  -1097.33627500     A.U. after   17 cycles
 Normal termination of Gaussian 16 at Sun Apr  6 08:00:30 2025.
 Gaussian 16:  ES64L-G16RevC.01  3-Jul-2019

 ----------------------------------------------------------------------
 #t hf aug-cc-pvdz iop(5/13=1,5/36=2,99/5=2) pseudo=read geom=check gue
 ss=(read,tcheck) scf=(maxcycle=1)
 ----------------------------------------------------------------------
 -----
 title
 -----
 Structure from the checkpoint file:  "2-3-thieno-1-3-2-dioxathiole.chk"
 Charge =  0 Multiplicity = 1

                         Standard orientation:
 ---------------------------------------------------------------------
 Center     Atomic      Atomic             Coordinates (Angstroms)
 Number     Number       Type             X           Y           Z
 ---------------------------------------------------------------------
      1         16           0        1.786816   -0.999206   -0.026846
      2         16           0       -2.245223   -0.148491   -0.179660
      3          8           0       -1.005016   -1.270226    0.235149
      4          8           0       -1.330231    1.236629    0.220211
      5          6           0        0.134146   -0.525701    0.028191
      6          6           0       -0.017500    0.819744    0.026189
      7          6           0        1.196636    1.540976   -0.022378
      8          6           0        2.258331    0.681032   -0.056911
      9          1           0        1.283391    2.615343   -0.042028
     10          1           0        3.303414    0.920280   -0.147308
 ---------------------------------------------------------------------

 SCF Done:  E(RHF) =  -1099.08846485     A.U. after    2 cycles

 The electronic state is 1-A.
 Alpha  occ. eigenvalues --  -75.79459 -75.73624 -21.12246 -21.11562 -13.24241
 Alpha  occ. eigenvalues --  -13.22684 -13.20425 -13.16928 -13.11973 -13.05257
 Alpha  occ. eigenvalues --  -11.49900 -11.46220 -11.44696 -11.40490  -8.12655
 Alpha  occ. eigenvalues --   -8.08014  -1.88109  -1.73996  -1.36135  -1.10491
 Alpha  occ. eigenvalues --   -1.08740  -0.98827  -0.84373  -0.76554  -0.69076
 Alpha  occ. eigenvalues --   -0.62539  -0.59545  -0.53122  -0.52145  -0.48315
 Alpha  occ. eigenvalues --   -0.46337  -0.43093  -0.41152  -0.38416  -0.31365
 Alpha  occ. eigenvalues --   -0.27387  -0.19476
 Alpha virt. eigenvalues --    0.03111   0.04844   0.06139   0.06579   0.07411
 Alpha virt. eigenvalues --    0.08791   0.10313   0.10536   0.11986   0.12657
 Alpha virt. eigenvalues --    0.13538   0.14123   0.14585   0.15263   0.15583

 Mulliken charges:
               1
     1  S    2.111662
     2  S    1.816459
     3  O   -3.357346
     4  O   -3.471660
     5  C    1.010491
     6  C    3.163515
     7  C   -1.542706
     8  C   -2.484549
     9  H    1.523183
    10  H    1.230951
 Sum of Mulliken charges =   0.00000

 Dipole moment (field-independent basis, Debye):
    X=              1.3345    Y=             -1.3888    Z=             -0.0765  Tot=              1.9276

 Test job not archived.
 1\1\GINC-SE301\SP\RHF\Aug-CC-pVDZ\C4H2O2S2\OHZDE\06-Apr-2025\0\\#t hf
 aug-cc-pvdz iop(5/13=1,5/36=2,99/5=2) pseudo=read geom=check guess=(re
 ad,tcheck) scf=(maxcycle=1)\\title\\0,1\S,0,1.786816,-0.999206,-0.0268
 46\S,0,-2.245223,-0.148491,-0.17966\O,0,-1.005016,-1.270226,0.235149\O
 ,0,-1.330231,1.236629,0.220211\C,0,0.134146,-0.525701,0.028191\C,0,-0.
 0175,0.819744,0.026189\C,0,1.196636,1.540976,-0.022378\C,0,2.258331,0.
 681032,-0.056911\H,0,1.283391,2.615343,-0.042028\H,0,3.303414,0.92028,
 -0.147308\\Version=ES64L-G16RevC.01\State=1-A\HF=-1099.0884648\RMSD=1.

 Normal termination of Gaussian 16 at Sun Apr  6 08:00:37 2025.
