 Gaussian 16, Revision C.01,

 ----------------------------------------------------------------------
 #t hf aug-cc-pvdz symm=none int=(grid=ultrafine) guess=(read,tcheck) s
 table=(opt,rrhf)
 ----------------------------------------------------------------------
 -----
 title
 -----
 Symbolic Z-matrix:
 Charge =  0 Multiplicity = 1

 SCF Done:  E(RHF) =  -412.397843294     A.U. after   15 cycles
 Normal termination of Gaussian 16 at Sun Apr  6 08:00:33 2025.
 Gaussian 16:  ES64L-G16RevC.01  3-Jul-2019

 ----------------------------------------------------------------------
 #t hf aug-cc-pvdz iop(5/13=1,5/36=2,99/5=2) pseudo=read geom=check gue
 ss=(read,tcheck) scf=(maxcycle=1)
 ----------------------------------------------------------------------
 -----
 title
 -----
 Structure from the checkpoint file:  "2-3-diamino-1-3-butadiene-1-4-dione.chk"
 Charge =  0 Multiplicity = 1

                         Standard orientation:
 ---------------------------------------------------------------------
 Center     Atomic      Atomic             Coordinates (Angstroms)
 Number     Number       Type             X           Y           Z
 ---------------------------------------------------------------------
      1          8           0        0.662791    2.150274   -1.440821
      2          8           0       -0.662791   -2.150274   -1.440821
      3          7           0       -1.126502    1.290107    1.322386
      4          7           0        1.126502   -1.290107    1.322386
      5          6           0       -0.235728    0.702221    0.369706
      6          6           0        0.235728   -0.702221    0.369706
      7          6           0        0.235728    1.488873   -0.589450
      8          6           0       -0.235728   -1.488873   -0.589450
      9          1           0       -0.752204    1.293584    2.261984
     10          1           0       -2.038657    0.851873    1.326339
     11          1           0        0.752204   -1.293584    2.261984
     12          1           0        2.038657   -0.851873    1.326339
 ---------------------------------------------------------------------

 SCF Done:  E(RHF) =  -414.194865790     A.U. after    2 cycles

 The electronic state is 1-A.
 Alpha  occ. eigenvalues --  -21.14473 -21.14458 -15.76632 -15.76615 -11.55467
 Alpha  occ. eigenvalues --  -11.54857 -11.47380 -11.43230  -1.78223  -1.77768
 Alpha  occ. eigenvalues --   -1.40707  -1.32529  -1.12225  -1.00961  -0.76524
 Alpha  occ. eigenvalues --   -0.69695  -0.68037  -0.66798  -0.65992  -0.60090
 Alpha  occ. eigenvalues --   -0.59405  -0.55450  -0.55333  -0.50814  -0.48081
 Alpha  occ. eigenvalues --   -0.42029  -0.36411  -0.31401  -0.27050
 Alpha virt. eigenvalues --    0.02739   0.05117   0.05462   0.06413   0.07712
 Alpha virt. eigenvalues --    0.08987   0.10228   0.11031   0.11476   0.11886
 Alpha virt. eigenvalues --    0.12612   0.13817   0.14346   0.14424   0.14911

 Mulliken charges:
               1
     1  O   -2.503041
     2  O   -2.503041
     3  N   -3.093508
     4  N   -3.093508
     5  C    2.291506
     6  C    2.291506
     7  C    2.362217
     8  C    2.362217
     9  H    0.473973
    10  H    0.468853
    11  H    0.473973
    12  H    0.468853
 Sum of Mulliken charges =  -0.00000

 Dipole moment (field-independent basis, Debye):
    X=              0.0000    Y=              0.0000    Z=              0.4784  Tot=              0.4784

 Test job not archived.
 1\1\GINC-SE222\SP\RHF\Aug-CC-pVDZ\C4H4N2O2\OHZDE\06-Apr-2025\0\\#t hf
 aug-cc-pvdz iop(5/13=1,5/36=2,99/5=2) pseudo=read geom=check guess=(re
 ad,tcheck) scf=(maxcycle=1)\\title\\0,1\O,0,0.662791,2.150274,-1.44082
 1\O,0,-0.662791,-2.150274,-1.440821\N,0,-1.126502,1.290107,1.322386\N,
 0,1.126502,-1.290107,1.322386\C,0,-0.235728,0.702221,0.369706\C,0,0.23
 5728,-0.702221,0.369706\C,0,0.235728,1.488873,-0.58945\C,0,-0.235728,-
 1.488873,-0.58945\H,0,-0.752204,1.293584,2.261984\H,0,-2.038657,0.8518
 73,1.326339\H,0,0.752204,-1.293584,2.261984\H,0,2.038657,-0.851873,1.3

 Normal termination of Gaussian 16 at Sun Apr  6 08:00:37 2025.
