 Gaussian 16, Revision C.01,

 ----------------------------------------------------------------------
 #t hf aug-cc-pvdz symm=none int=(grid=ultrafine) guess=(read,tcheck) s
 table=(opt,rrhf)
 ----------------------------------------------------------------------
 -----
 title
 -----
 Symbolic Z-matrix:
 Charge =  0 Multiplicity = 1

 SCF Done:  E(RHF) =  -186.914252211     A.U. after   11 cycles
 Normal termination of Gaussian 16 at Sun Apr  6 08:00:18 2025.
 Gaussian 16:  ES64L-G16RevC.01  3-Jul-2019

 ----------------------------------------------------------------------
 #t hf aug-cc-pvdz iop(5/13=1,5/36=2,99/5=2) pseudo=read geom=check gue
 ss=(read,tcheck) scf=(maxcycle=1)
 ----------------------------------------------------------------------
 -----
 title
 -----
 Structure from the checkpoint file:  "2-3-diazabutadiene.chk"
 Charge =  0 Multiplicity = 1

                         Standard orientation:
 ---------------------------------------------------------------------
 Center     Atomic      Atomic             Coordinates (Angstroms)
 Number     Number       Type             X           Y           Z
 ---------------------------------------------------------------------
      1          6           0        0.655134    1.533738    0.000000
      2          7           0        0.655134    0.265229    0.000000
      3          7           0       -0.655134   -0.265229    0.000000
      4          6           0       -0.655134   -1.533738    0.000000
      5          1           0       -0.265958    2.114793    0.000000
      6          1           0        1.612147    2.041686    0.000000
      7          1           0        0.265958   -2.114793    0.000000
      8          1           0       -1.612147   -2.041686    0.000000
 ---------------------------------------------------------------------

 SCF Done:  E(RHF) =  -187.776964292     A.U. after    2 cycles

 The electronic state is 1-AG.
 Alpha  occ. eigenvalues --  -15.76269 -15.75848 -11.42813 -11.41380  -1.50083
 Alpha  occ. eigenvalues --   -1.22098  -0.90815  -0.80529  -0.66971  -0.66873
 Alpha  occ. eigenvalues --   -0.53890  -0.52921  -0.48330  -0.36202  -0.34661
 Alpha virt. eigenvalues --    0.04042   0.04879   0.06133   0.06505   0.08283
 Alpha virt. eigenvalues --    0.11180   0.11901   0.12389   0.15695   0.15742
 Alpha virt. eigenvalues --    0.16379   0.17806   0.18450   0.18842   0.19500

 Mulliken charges:
               1
     1  C   -1.211408
     2  N   -1.629381
     3  N   -1.629381
     4  C   -1.211408
     5  H    1.433210
     6  H    1.407579
     7  H    1.433210
     8  H    1.407579
 Sum of Mulliken charges =  -0.00000

 Dipole moment (field-independent basis, Debye):
    X=              0.0000    Y=             -0.0000    Z=              0.0000  Tot=              0.0000

 Test job not archived.
 1\1\GINC-SE107\SP\RHF\Aug-CC-pVDZ\C2H4N2\OHZDE\06-Apr-2025\0\\#t hf au
 g-cc-pvdz iop(5/13=1,5/36=2,99/5=2) pseudo=read geom=check guess=(read
 ,tcheck) scf=(maxcycle=1)\\title\\0,1\C,0,0.655134,1.533738,0.\N,0,0.6
 55134,0.265229,0.\N,0,-0.655134,-0.265229,0.\C,0,-0.655134,-1.533738,0
 .\H,0,-0.265958,2.114793,0.\H,0,1.612147,2.041686,0.\H,0,0.265958,-2.1
 14793,0.\H,0,-1.612147,-2.041686,0.\\Version=ES64L-G16RevC.01\State=1-
 AG\HF=-187.7769643\RMSD=5.691e-02\Dipole=0.,0.,0.\Quadrupole=-1.930343
 9,3.8803216,-1.9499777,2.1842529,0.,0.\PG=C02H [SGH(C2H4N2)]\\@

 Normal termination of Gaussian 16 at Sun Apr  6 08:00:34 2025.
