 Gaussian 16, Revision C.01,

 ----------------------------------------------------------------------
 #t hf aug-cc-pvdz symm=none int=(grid=ultrafine) guess=(read,tcheck) s
 table=(opt,rrhf)
 ----------------------------------------------------------------------
 -----
 title
 -----
 Symbolic Z-matrix:
 Charge =  0 Multiplicity = 1

 SCF Done:  E(RHF) =  -413.685070199     A.U. after   13 cycles
 Normal termination of Gaussian 16 at Sun Apr  6 08:00:24 2025.
 Gaussian 16:  ES64L-G16RevC.01  3-Jul-2019

 ----------------------------------------------------------------------
 #t hf aug-cc-pvdz iop(5/13=1,5/36=2,99/5=2) pseudo=read geom=check gue
 ss=(read,tcheck) scf=(maxcycle=1)
 ----------------------------------------------------------------------
 -----
 title
 -----
 Structure from the checkpoint file:  "2-3-3-trifluoropropene.chk"
 Charge =  0 Multiplicity = 1

                         Standard orientation:
 ---------------------------------------------------------------------
 Center     Atomic      Atomic             Coordinates (Angstroms)
 Number     Number       Type             X           Y           Z
 ---------------------------------------------------------------------
      1          6           0       -1.639261    1.150479    0.000000
      2          1           0       -2.490302    0.487611    0.000000
      3          1           0       -1.809141    2.216402    0.000000
      4          6           0       -0.417478    0.652524    0.000000
      5          9           0        0.670083    1.440552    0.000000
      6          6           0       -0.079576   -0.806625    0.000000
      7          1           0       -0.974900   -1.428241    0.000000
      8          9           0        0.670083   -1.123278    1.097373
      9          9           0        0.670083   -1.123278   -1.097373
 ---------------------------------------------------------------------

 SCF Done:  E(RHF) =  -415.237800461     A.U. after    2 cycles

 The electronic state is 1-A'.
 Alpha  occ. eigenvalues --  -29.30067 -29.29138 -29.29099 -11.55552 -11.49125
 Alpha  occ. eigenvalues --  -11.41994  -1.37981  -1.17624  -0.95550  -0.81458
 Alpha  occ. eigenvalues --   -0.79305  -0.72782  -0.64842  -0.58810  -0.50699
 Alpha  occ. eigenvalues --   -0.44606  -0.40986  -0.38918  -0.33966  -0.30208
 Alpha  occ. eigenvalues --   -0.28529  -0.27039  -0.25755  -0.22332
 Alpha virt. eigenvalues --    0.03431   0.05275   0.05906   0.10610   0.10830
 Alpha virt. eigenvalues --    0.11392   0.12309   0.13571   0.14446   0.14527
 Alpha virt. eigenvalues --    0.15459   0.17289   0.19462   0.20499   0.21384

 Mulliken charges:
               1
     1  C   -3.978670
     2  H    1.309296
     3  H    1.477886
     4  C   -0.341765
     5  F    0.847878
     6  C   -1.758592
     7  H    1.744696
     8  F    0.349636
     9  F    0.349636
 Sum of Mulliken charges =  -0.00000

 Dipole moment (field-independent basis, Debye):
    X=              3.0875    Y=              0.2010    Z=             -0.0000  Tot=              3.0941

 Test job not archived.
 1\1\GINC-SE044\SP\RHF\Aug-CC-pVDZ\C3H3F3\OHZDE\06-Apr-2025\0\\#t hf au
 g-cc-pvdz iop(5/13=1,5/36=2,99/5=2) pseudo=read geom=check guess=(read
 ,tcheck) scf=(maxcycle=1)\\title\\0,1\C,0,-1.639261,1.150479,0.\H,0,-2
 .490302,0.487611,0.\H,0,-1.809141,2.216402,0.\C,0,-0.417478,0.652524,0
 .\F,0,0.670083,1.440552,0.\C,0,-0.079576,-0.806625,0.\H,0,-0.9749,-1.4
 28241,0.\F,0,0.670083,-1.123278,1.097373\F,0,0.670083,-1.123278,-1.097
 373\\Version=ES64L-G16RevC.01\State=1-A'\HF=-415.2378005\RMSD=3.561e-0
 1\Dipole=1.2147335,0.0790917,0.\Quadrupole=-0.2420794,1.6344764,-1.392

 Normal termination of Gaussian 16 at Sun Apr  6 08:00:37 2025.
