 Gaussian 16, Revision C.01,

 ----------------------------------------------------------------------
 #t hf aug-cc-pvdz symm=none int=(grid=ultrafine) guess=(read,tcheck) s
 table=(opt,rrhf)
 ----------------------------------------------------------------------
 -----
 title
 -----
 Symbolic Z-matrix:
 Charge =  0 Multiplicity = 1

 SCF Done:  E(RHF) =  -2216.13544418     A.U. after   15 cycles
 Normal termination of Gaussian 16 at Sun Apr  6 08:02:05 2025.
 Gaussian 16:  ES64L-G16RevC.01  3-Jul-2019

 ----------------------------------------------------------------------
 #t hf aug-cc-pvdz iop(5/13=1,5/36=2,99/5=2) pseudo=read geom=check gue
 ss=(read,tcheck) scf=(maxcycle=1)
 ----------------------------------------------------------------------
 -----
 title
 -----
 Structure from the checkpoint file:  "2-3-5-6-tetrachlorobenzene-1-4-diol.chk"
 Charge =  0 Multiplicity = 1

                         Standard orientation:
 ---------------------------------------------------------------------
 Center     Atomic      Atomic             Coordinates (Angstroms)
 Number     Number       Type             X           Y           Z
 ---------------------------------------------------------------------
      1         17           0        0.000000    1.591361    2.692912
      2          6           0        0.000000    0.696756    1.212282
      3          6           0       -0.000000   -0.696756    1.212282
      4         17           0       -0.000000   -1.591361    2.692912
      5          6           0        0.000000   -1.409756    0.008295
      6          8           0        0.000000   -2.759999    0.052901
      7          6           0        0.000000   -0.695960   -1.189657
      8         17           0        0.000000   -1.601358   -2.678734
      9          6           0        0.000000    0.695960   -1.189657
     10          6           0        0.000000    1.409756    0.008295
     11          8           0        0.000000    2.759999    0.052901
     12         17           0        0.000000    1.601358   -2.678734
     13          1           0        0.000000   -3.106114   -0.849754
     14          1           0        0.000000    3.106114   -0.849754
 ---------------------------------------------------------------------

 SCF Done:  E(RHF) =  -2218.77856088     A.U. after    2 cycles

 The electronic state is 1-A1.
 Alpha  occ. eigenvalues --  -99.93559 -99.93542 -99.91123 -99.91102 -21.12995
 Alpha  occ. eigenvalues --  -21.12958 -11.59353 -11.53109 -11.52187 -11.52079
 Alpha  occ. eigenvalues --  -11.49908 -11.44871 -10.50966 -10.50948 -10.48556
 Alpha  occ. eigenvalues --  -10.48533  -9.71097  -9.70790  -9.70273  -9.70124
 Alpha  occ. eigenvalues --   -9.69882  -9.69814  -9.68698  -9.68379  -9.67763
 Alpha  occ. eigenvalues --   -9.67542  -9.67452  -9.67379  -1.80664  -1.78738
 Alpha  occ. eigenvalues --   -1.45918  -1.39858  -1.35852  -1.33663  -1.24315
 Alpha  occ. eigenvalues --   -1.09865  -1.09670  -0.92647  -0.90395  -0.77781
 Alpha  occ. eigenvalues --   -0.73104  -0.72359  -0.66814  -0.66799  -0.64494
 Alpha  occ. eigenvalues --   -0.62876  -0.60694  -0.59334  -0.58675  -0.55935
 Alpha  occ. eigenvalues --   -0.54462  -0.53884  -0.52129  -0.51249  -0.50561
 Alpha  occ. eigenvalues --   -0.50248  -0.47001  -0.46426  -0.40425  -0.37056
 Alpha  occ. eigenvalues --   -0.27501
 Alpha virt. eigenvalues --    0.02891   0.04078   0.05276   0.05617   0.07139
 Alpha virt. eigenvalues --    0.07514   0.07691   0.08336   0.10041   0.10756
 Alpha virt. eigenvalues --    0.10934   0.11238   0.11492   0.11943   0.13477

 Mulliken charges:
               1
     1  Cl  -0.541639
     2  C   -0.743825
     3  C   -0.743825
     4  Cl  -0.541639
     5  C    8.930436
     6  O   -4.383552
     7  C   -3.729537
     8  Cl  -0.672071
     9  C   -3.729537
    10  C    8.930436
    11  O   -4.383552
    12  Cl  -0.672071
    13  H    1.140188
    14  H    1.140188
 Sum of Mulliken charges =  -0.00000

 Dipole moment (field-independent basis, Debye):
    X=              0.0000    Y=              0.0000    Z=             -1.0433  Tot=              1.0433

 Test job not archived.
 1\1\GINC-SE084\SP\RHF\Aug-CC-pVDZ\C6H2Cl4O2\OHZDE\06-Apr-2025\0\\#t hf
  aug-cc-pvdz iop(5/13=1,5/36=2,99/5=2) pseudo=read geom=check guess=(r
 ead,tcheck) scf=(maxcycle=1)\\title\\0,1\Cl,0,0.,1.591361,2.692912\C,0
 ,0.,0.696756,1.212282\C,0,0.,-0.696756,1.212282\Cl,0,0.,-1.591361,2.69
 2912\C,0,0.,-1.409756,0.008295\O,0,0.,-2.759999,0.052901\C,0,0.,-0.695
 96,-1.189657\Cl,0,0.,-1.601358,-2.678734\C,0,0.,0.69596,-1.189657\C,0,
 0.,1.409756,0.008295\O,0,0.,2.759999,0.052901\Cl,0,0.,1.601358,-2.6787
 34\H,0,0.,-3.106114,-0.849754\H,0,0.,3.106114,-0.849754\\Version=ES64L

 Normal termination of Gaussian 16 at Sun Apr  6 08:02:11 2025.
