 Gaussian 16, Revision C.01,

 ----------------------------------------------------------------------
 #t hf aug-cc-pvdz symm=none int=(grid=ultrafine) guess=(read,tcheck) s
 table=(opt,rrhf)
 ----------------------------------------------------------------------
 -----
 title
 -----
 Symbolic Z-matrix:
 Charge =  0 Multiplicity = 1

 SCF Done:  E(RHF) =  -233.020848736     A.U. after   12 cycles
 Normal termination of Gaussian 16 at Sun Apr  6 08:00:38 2025.
 Gaussian 16:  ES64L-G16RevC.01  3-Jul-2019

 ----------------------------------------------------------------------
 #t hf aug-cc-pvdz iop(5/13=1,5/36=2,99/5=2) pseudo=read geom=check gue
 ss=(read,tcheck) scf=(maxcycle=1)
 ----------------------------------------------------------------------
 -----
 title
 -----
 Structure from the checkpoint file:  "2-3-dimethylbutadiene.chk"
 Charge =  0 Multiplicity = 1

                         Standard orientation:
 ---------------------------------------------------------------------
 Center     Atomic      Atomic             Coordinates (Angstroms)
 Number     Number       Type             X           Y           Z
 ---------------------------------------------------------------------
      1          6           0        0.046940    0.737664    0.000000
      2          6           0       -0.046940   -0.737664    0.000000
      3          6           0        1.229298   -1.540526    0.000000
      4          6           0       -1.229298   -1.365802   -0.000001
      5          6           0       -1.229298    1.540526    0.000000
      6          6           0        1.229298    1.365802   -0.000001
      7          1           0        1.011005   -2.606697    0.000002
      8          1           0        1.839074   -1.319891   -0.878346
      9          1           0        1.839074   -1.319889    0.878347
     10          1           0       -1.285187   -2.445953   -0.000001
     11          1           0       -2.170393   -0.836461   -0.000001
     12          1           0       -1.839074    1.319889    0.878347
     13          1           0       -1.011005    2.606697    0.000002
     14          1           0       -1.839074    1.319891   -0.878346
     15          1           0        2.170393    0.836461   -0.000001
     16          1           0        1.285187    2.445953   -0.000001
 ---------------------------------------------------------------------

 SCF Done:  E(RHF) =  -234.207432119     A.U. after    2 cycles

 The electronic state is 1-A.
 Alpha  occ. eigenvalues --  -11.45357 -11.40546 -11.38895 -11.38316 -11.37716
 Alpha  occ. eigenvalues --  -11.35924  -1.29359  -1.11893  -1.01386  -0.97239
 Alpha  occ. eigenvalues --   -0.84752  -0.70607  -0.65446  -0.60793  -0.57948
 Alpha  occ. eigenvalues --   -0.56011  -0.55781  -0.52650  -0.51159  -0.46652
 Alpha  occ. eigenvalues --   -0.42522  -0.39360  -0.30270
 Alpha virt. eigenvalues --    0.03555   0.04825   0.05709   0.05722   0.06030
 Alpha virt. eigenvalues --    0.06066   0.07505   0.07528   0.07980   0.08506
 Alpha virt. eigenvalues --    0.11018   0.11363   0.12030   0.12834   0.13395

 Mulliken charges:
               1
     1  C    3.036364
     2  C    3.036364
     3  C   -4.521027
     4  C   -5.361768
     5  C   -4.521027
     6  C   -5.361768
     7  H    1.255901
     8  H    1.065361
     9  H    1.065359
    10  H    1.663151
    11  H    1.796659
    12  H    1.065359
    13  H    1.255901
    14  H    1.065361
    15  H    1.796659
    16  H    1.663151
 Sum of Mulliken charges =  -0.00000

 Dipole moment (field-independent basis, Debye):
    X=              0.0000    Y=             -0.0000    Z=             -0.0000  Tot=              0.0000

 Test job not archived.
 1\1\GINC-SE388\SP\RHF\Aug-CC-pVDZ\C6H10\OHZDE\06-Apr-2025\0\\#t hf aug
 -cc-pvdz iop(5/13=1,5/36=2,99/5=2) pseudo=read geom=check guess=(read,
 tcheck) scf=(maxcycle=1)\\title\\0,1\C,0,0.04694,0.737664,0.\C,0,-0.04
 694,-0.737664,0.\C,0,1.229298,-1.540526,0.\C,0,-1.229298,-1.365802,-0.
 000001\C,0,-1.229298,1.540526,0.\C,0,1.229298,1.365802,-0.000001\H,0,1
 .011005,-2.606697,0.000002\H,0,1.839074,-1.319891,-0.878346\H,0,1.8390
 74,-1.319889,0.878347\H,0,-1.285187,-2.445953,-0.000001\H,0,-2.170393,
 -0.836461,-0.000001\H,0,-1.839074,1.319889,0.878347\H,0,-1.011005,2.60

 Normal termination of Gaussian 16 at Sun Apr  6 08:01:13 2025.
