 Gaussian 16, Revision C.01,

 ----------------------------------------------------------------------
 #t hf aug-cc-pvdz symm=none int=(grid=ultrafine) guess=(read,tcheck) s
 table=(opt,rrhf)
 ----------------------------------------------------------------------
 -----
 title
 -----
 Symbolic Z-matrix:
 Charge =  0 Multiplicity = 1

 SCF Done:  E(RHF) =  -313.459218829     A.U. after   12 cycles
 Normal termination of Gaussian 16 at Sun Apr  6 08:02:36 2025.
 Gaussian 16:  ES64L-G16RevC.01  3-Jul-2019

 ----------------------------------------------------------------------
 #t hf aug-cc-pvdz iop(5/13=1,5/36=2,99/5=2) pseudo=read geom=check gue
 ss=(read,tcheck) scf=(maxcycle=1)
 ----------------------------------------------------------------------
 -----
 title
 -----
 Structure from the checkpoint file:  "2-3-4-trimethylpentane.chk"
 Charge =  0 Multiplicity = 1

                         Standard orientation:
 ---------------------------------------------------------------------
 Center     Atomic      Atomic             Coordinates (Angstroms)
 Number     Number       Type             X           Y           Z
 ---------------------------------------------------------------------
      1          6           0       -1.643780   -0.744140    1.267860
      2          6           0       -2.416221    0.092866   -0.979081
      3          6           0        1.568432   -1.626417   -0.343229
      4          6           0        2.566669    0.643816   -0.042519
      5          6           0       -0.183821    1.829717    0.314524
      6          6           0       -1.228311   -0.457857   -0.180043
      7          6           0        1.328673   -0.222989    0.228474
      8          6           0        0.031928    0.441798   -0.307623
      9          1           0       -2.484667   -1.439569    1.291217
     10          1           0       -0.835389   -1.189503    1.848803
     11          1           0       -1.961332    0.164639    1.782113
     12          1           0       -2.136078    0.303073   -2.013245
     13          1           0       -2.813834    1.012725   -0.547434
     14          1           0       -3.231892   -0.632223   -0.997675
     15          1           0        2.532205   -2.012895   -0.007877
     16          1           0        0.808890   -2.343326   -0.035097
     17          1           0        1.585518   -1.607030   -1.436276
     18          1           0        2.520811    1.609052    0.458909
     19          1           0        2.684972    0.828086   -1.113860
     20          1           0        3.469540    0.139486    0.305210
     21          1           0       -1.127132    2.269864   -0.006227
     22          1           0        0.602929    2.524328    0.025850
     23          1           0       -0.194597    1.779952    1.405178
     24          1           0       -0.977247   -1.415409   -0.640316
     25          1           0        1.230226   -0.318172    1.315434
     26          1           0        0.185662    0.586165   -1.384882
 ---------------------------------------------------------------------

 SCF Done:  E(RHF) =  -315.135693579     A.U. after    2 cycles

 The electronic state is 1-A.
 Alpha  occ. eigenvalues --  -11.42803 -11.41849 -11.39209 -11.38072 -11.37816
 Alpha  occ. eigenvalues --  -11.37046 -11.35871 -11.33497  -1.31363  -1.17383
 Alpha  occ. eigenvalues --   -1.07025  -0.99537  -0.99238  -0.92023  -0.83242
 Alpha  occ. eigenvalues --   -0.76025  -0.65399  -0.62395  -0.60421  -0.59218
 Alpha  occ. eigenvalues --   -0.56435  -0.55331  -0.54364  -0.52805  -0.52319
 Alpha  occ. eigenvalues --   -0.50902  -0.48656  -0.46412  -0.45427  -0.44721
 Alpha  occ. eigenvalues --   -0.41311  -0.38909  -0.37358
 Alpha virt. eigenvalues --    0.04368   0.04779   0.04890   0.05261   0.05416
 Alpha virt. eigenvalues --    0.05580   0.05812   0.06315   0.06557   0.07679
 Alpha virt. eigenvalues --    0.07848   0.08164   0.08378   0.08649   0.09359

 Mulliken charges:
               1
     1  C   -4.939126
     2  C   -5.016962
     3  C   -4.724695
     4  C   -4.669956
     5  C   -5.674114
     6  C   -0.014099
     7  C   -0.954654
     8  C    1.168016
     9  H    1.178581
    10  H    1.378409
    11  H    1.366758
    12  H    1.189507
    13  H    1.528632
    14  H    1.095183
    15  H    1.129006
    16  H    1.361861
    17  H    1.301072
    18  H    1.390211
    19  H    1.243387
    20  H    1.124553
    21  H    1.209161
    22  H    1.231322
    23  H    1.443893
    24  H    1.840507
    25  H    1.972503
    26  H    1.841041
 Sum of Mulliken charges =   0.00000

 Dipole moment (field-independent basis, Debye):
    X=              0.0373    Y=             -0.1146    Z=              0.0186  Tot=              0.1219

 Test job not archived.
 1\1\GINC-SE050\SP\RHF\Aug-CC-pVDZ\C8H18\OHZDE\06-Apr-2025\0\\#t hf aug
 -cc-pvdz iop(5/13=1,5/36=2,99/5=2) pseudo=read geom=check guess=(read,
 tcheck) scf=(maxcycle=1)\\title\\0,1\C,0,-1.64378,-0.74414,1.26786\C,0
 ,-2.416221,0.092866,-0.979081\C,0,1.568432,-1.626417,-0.343229\C,0,2.5
 66669,0.643816,-0.042519\C,0,-0.183821,1.829717,0.314524\C,0,-1.228311
 ,-0.457857,-0.180043\C,0,1.328673,-0.222989,0.228474\C,0,0.031928,0.44
 1798,-0.307623\H,0,-2.484667,-1.439569,1.291217\H,0,-0.835389,-1.18950
 3,1.848803\H,0,-1.961332,0.164639,1.782113\H,0,-2.136078,0.303073,-2.0

 Normal termination of Gaussian 16 at Sun Apr  6 08:03:00 2025.
