 Gaussian 16, Revision C.01,

 ----------------------------------------------------------------------
 #t hf aug-cc-pvdz symm=none int=(grid=ultrafine) guess=(read,tcheck) s
 table=(opt,rrhf)
 ----------------------------------------------------------------------
 -----
 title
 -----
 Symbolic Z-matrix:
 Charge =  0 Multiplicity = 1

 SCF Done:  E(RHF) =  -321.578109109     A.U. after   15 cycles
 Normal termination of Gaussian 16 at Sun Apr  6 08:00:28 2025.
 Gaussian 16:  ES64L-G16RevC.01  3-Jul-2019

 ----------------------------------------------------------------------
 #t hf aug-cc-pvdz iop(5/13=1,5/36=2,99/5=2) pseudo=read geom=check gue
 ss=(read,tcheck) scf=(maxcycle=1)
 ----------------------------------------------------------------------
 -----
 title
 -----
 Structure from the checkpoint file:  "2-3H-pyridinone.chk"
 Charge =  0 Multiplicity = 1

                         Standard orientation:
 ---------------------------------------------------------------------
 Center     Atomic      Atomic             Coordinates (Angstroms)
 Number     Number       Type             X           Y           Z
 ---------------------------------------------------------------------
      1          7           0        0.359121   -1.270880    0.172755
      2          6           0        1.043903   -0.042270    0.020425
      3          6           0        0.260787    1.248686    0.217829
      4          6           0       -1.197071    1.126889   -0.072399
      5          6           0       -1.753015   -0.083323   -0.174172
      6          6           0       -0.920479   -1.259790    0.050067
      7          8           0        2.221256   -0.028129   -0.243650
      8          1           0        0.736325    2.029916   -0.376191
      9          1           0       -1.785070    2.030930   -0.170963
     10          1           0       -2.808335   -0.220042   -0.363668
     11          1           0       -1.424810   -2.220985    0.136930
     12          1           0        0.393242    1.560219    1.263311
 ---------------------------------------------------------------------

 SCF Done:  E(RHF) =  -323.021934833     A.U. after    2 cycles

 The electronic state is 1-A.
 Alpha  occ. eigenvalues --  -21.04494 -15.74318 -11.50857 -11.49012 -11.47069
 Alpha  occ. eigenvalues --  -11.42777 -11.40493  -1.71415  -1.42255  -1.22179
 Alpha  occ. eigenvalues --   -1.09696  -0.92866  -0.86113  -0.72244  -0.67152
 Alpha  occ. eigenvalues --   -0.64898  -0.62931  -0.57769  -0.53987  -0.51451
 Alpha  occ. eigenvalues --   -0.47613  -0.44088  -0.38016  -0.32845  -0.28382
 Alpha virt. eigenvalues --    0.02475   0.04437   0.04947   0.05661   0.06033
 Alpha virt. eigenvalues --    0.06682   0.09622   0.11049   0.11546   0.12395
 Alpha virt. eigenvalues --    0.12653   0.13045   0.13487   0.13781   0.14054

 Mulliken charges:
               1
     1  N   -2.955541
     2  C    4.308304
     3  C   -3.924927
     4  C    0.072088
     5  C   -0.372301
     6  C   -0.763670
     7  O   -3.226015
     8  H    1.180884
     9  H    1.409593
    10  H    1.442219
    11  H    1.543462
    12  H    1.285904
 Sum of Mulliken charges =  -0.00000

 Dipole moment (field-independent basis, Debye):
    X=             -3.3191    Y=              1.8112    Z=              0.1579  Tot=              3.7845

 Test job not archived.
 1\1\GINC-SE269\SP\RHF\Aug-CC-pVDZ\C5H5N1O1\OHZDE\06-Apr-2025\0\\#t hf
 aug-cc-pvdz iop(5/13=1,5/36=2,99/5=2) pseudo=read geom=check guess=(re
 ad,tcheck) scf=(maxcycle=1)\\title\\0,1\N,0,0.359121,-1.27088,0.172755
 \C,0,1.043903,-0.04227,0.020425\C,0,0.260787,1.248686,0.217829\C,0,-1.
 197071,1.126889,-0.072399\C,0,-1.753015,-0.083323,-0.174172\C,0,-0.920
 479,-1.25979,0.050067\O,0,2.221256,-0.028129,-0.24365\H,0,0.736325,2.0
 29916,-0.376191\H,0,-1.78507,2.03093,-0.170963\H,0,-2.808335,-0.220042
 ,-0.363668\H,0,-1.42481,-2.220985,0.13693\H,0,0.393242,1.560219,1.2633

 Normal termination of Gaussian 16 at Sun Apr  6 08:00:37 2025.
