 Gaussian 16, Revision C.01,

 ----------------------------------------------------------------------
 #t hf aug-cc-pvdz symm=none int=(grid=ultrafine) guess=(read,tcheck) s
 table=(opt,rrhf)
 ----------------------------------------------------------------------
 -----
 title
 -----
 Symbolic Z-matrix:
 Charge =  0 Multiplicity = 1

 SCF Done:  E(RHF) =  -598.371662522     A.U. after   14 cycles
 Normal termination of Gaussian 16 at Sun Apr  6 08:00:54 2025.
 Gaussian 16:  ES64L-G16RevC.01  3-Jul-2019

 ----------------------------------------------------------------------
 #t hf aug-cc-pvdz iop(5/13=1,5/36=2,99/5=2) pseudo=read geom=check gue
 ss=(read,tcheck) scf=(maxcycle=1)
 ----------------------------------------------------------------------
 -----
 title
 -----
 Structure from the checkpoint file:  "2-4-5-trifluoro-6-methylpyrimidine.chk"
 Charge =  0 Multiplicity = 1

                         Standard orientation:
 ---------------------------------------------------------------------
 Center     Atomic      Atomic             Coordinates (Angstroms)
 Number     Number       Type             X           Y           Z
 ---------------------------------------------------------------------
      1          6           0       -1.022816    0.186174   -0.000039
      2          6           0       -0.513038   -1.102920   -0.000143
      3          6           0       -0.116583    1.240174    0.000005
      4          6           0        1.559349   -0.205422   -0.000000
      5          6           0       -1.388160   -2.314502    0.000022
      6          7           0        0.818742   -1.284102   -0.000133
      7          7           0        1.178216    1.060469    0.000038
      8          9           0       -2.341445    0.427343    0.000001
      9          9           0       -0.566309    2.486423    0.000014
     10          9           0        2.872628   -0.397773    0.000055
     11          1           0       -1.162280   -2.925605   -0.874234
     12          1           0       -1.170278   -2.919635    0.880532
     13          1           0       -2.442518   -2.054287   -0.005320
 ---------------------------------------------------------------------

 SCF Done:  E(RHF) =  -600.741722147     A.U. after    2 cycles

 The electronic state is 1-A.
 Alpha  occ. eigenvalues --  -29.33425 -29.31984 -29.31585 -15.78250 -15.77283
 Alpha  occ. eigenvalues --  -11.58165 -11.53648 -11.53324 -11.47483 -11.41765
 Alpha  occ. eigenvalues --   -1.60170  -1.39354  -1.31759  -1.13224  -1.09548
 Alpha  occ. eigenvalues --   -1.01678  -0.84387  -0.81130  -0.76646  -0.70604
 Alpha  occ. eigenvalues --   -0.69280  -0.60303  -0.57960  -0.57593  -0.55297
 Alpha  occ. eigenvalues --   -0.50455  -0.47988  -0.43886  -0.42091  -0.41741
 Alpha  occ. eigenvalues --   -0.40791  -0.36102  -0.32776  -0.32045  -0.29820
 Alpha  occ. eigenvalues --   -0.29236  -0.22013
 Alpha virt. eigenvalues --    0.03326   0.05909   0.06059   0.07853   0.09365
 Alpha virt. eigenvalues --    0.09664   0.10221   0.10294   0.11222   0.11447
 Alpha virt. eigenvalues --    0.12135   0.12982   0.14036   0.14075   0.14356

 Mulliken charges:
               1
     1  C   -1.080766
     2  C    1.911675
     3  C    1.746711
     4  C    2.587170
     5  C   -4.206848
     6  N   -3.966468
     7  N   -3.778034
     8  F    1.172152
     9  F    1.115916
    10  F    0.930104
    11  H    1.139600
    12  H    1.139708
    13  H    1.289079
 Sum of Mulliken charges =  -0.00000

 Dipole moment (field-independent basis, Debye):
    X=             -2.7361    Y=              1.8886    Z=              0.0009  Tot=              3.3247

 Test job not archived.
 1\1\GINC-SE270\SP\RHF\Aug-CC-pVDZ\C5H3F3N2\OHZDE\06-Apr-2025\0\\#t hf
 aug-cc-pvdz iop(5/13=1,5/36=2,99/5=2) pseudo=read geom=check guess=(re
 ad,tcheck) scf=(maxcycle=1)\\title\\0,1\C,0,-1.022816,0.186174,-0.0000
 39\C,0,-0.513038,-1.10292,-0.000143\C,0,-0.116583,1.240174,0.000005\C,
 0,1.559349,-0.205422,0.\C,0,-1.38816,-2.314502,0.000022\N,0,0.818742,-
 1.284102,-0.000133\N,0,1.178216,1.060469,0.000038\F,0,-2.341445,0.4273
 43,0.000001\F,0,-0.566309,2.486423,0.000014\F,0,2.872628,-0.397773,0.0
 00055\H,0,-1.16228,-2.925605,-0.874234\H,0,-1.170278,-2.919635,0.88053

 Normal termination of Gaussian 16 at Sun Apr  6 08:01:15 2025.
