 Gaussian 16, Revision C.01,

 ----------------------------------------------------------------------
 #t hf aug-cc-pvdz symm=none int=(grid=ultrafine) guess=(read,tcheck) s
 table=(opt,rrhf)
 ----------------------------------------------------------------------
 -----
 title
 -----
 Symbolic Z-matrix:
 Charge =  0 Multiplicity = 1

 SCF Done:  E(RHF) =  -377.985001675     A.U. after   15 cycles
 Normal termination of Gaussian 16 at Sun Apr  6 08:01:25 2025.
 Gaussian 16:  ES64L-G16RevC.01  3-Jul-2019

 ----------------------------------------------------------------------
 #t hf aug-cc-pvdz iop(5/13=1,5/36=2,99/5=2) pseudo=read geom=check gue
 ss=(read,tcheck) scf=(maxcycle=1)
 ----------------------------------------------------------------------
 -----
 title
 -----
 Structure from the checkpoint file:  "2-4-hexadiynedial.chk"
 Charge =  0 Multiplicity = 1

                         Standard orientation:
 ---------------------------------------------------------------------
 Center     Atomic      Atomic             Coordinates (Angstroms)
 Number     Number       Type             X           Y           Z
 ---------------------------------------------------------------------
      1          8           0        4.066762    0.495957    0.360134
      2          8           0       -4.066767    0.495911   -0.360185
      3          6           0        0.673589   -0.167678   -0.057506
      4          6           0       -0.673588   -0.167673    0.057516
      5          6           0        1.882141   -0.160213   -0.149051
      6          6           0       -1.882140   -0.160196    0.149061
      7          6           0        3.314251   -0.185757   -0.295724
      8          6           0       -3.314249   -0.185720    0.295752
      9          1           0        3.682946   -0.885828   -1.064540
     10          1           0       -3.682935   -0.885690    1.064664
 ---------------------------------------------------------------------

 SCF Done:  E(RHF) =  -379.602089697     A.U. after    2 cycles

 The electronic state is 1-A.
 Alpha  occ. eigenvalues --  -21.10078 -21.10063 -11.55671 -11.55403 -11.53851
 Alpha  occ. eigenvalues --  -11.47983 -11.46779 -11.46740  -1.74219  -1.73947
 Alpha  occ. eigenvalues --   -1.25046  -1.14129  -1.01664  -0.93951  -0.82453
 Alpha  occ. eigenvalues --   -0.73182  -0.70361  -0.57260  -0.56944  -0.54445
 Alpha  occ. eigenvalues --   -0.54343  -0.47490  -0.47266  -0.35848  -0.35777
 Alpha  occ. eigenvalues --   -0.33760  -0.33396
 Alpha virt. eigenvalues --    0.02105   0.04190   0.06005   0.06314   0.06922
 Alpha virt. eigenvalues --    0.08267   0.10112   0.10153   0.11052   0.11284
 Alpha virt. eigenvalues --    0.12387   0.13004   0.13730   0.13983   0.14162

 Mulliken charges:
               1
     1  O   -2.540859
     2  O   -2.540857
     3  C    7.152785
     4  C    7.152740
     5  C   -4.487100
     6  C   -4.487152
     7  C   -0.831326
     8  C   -0.831311
     9  H    0.706543
    10  H    0.706538
 Sum of Mulliken charges =  -0.00000

 Dipole moment (field-independent basis, Debye):
    X=              0.0000    Y=             -1.1340    Z=              0.0001  Tot=              1.1340

 Test job not archived.
 1\1\GINC-SE136\SP\RHF\Aug-CC-pVDZ\C6H2O2\OHZDE\06-Apr-2025\0\\#t hf au
 g-cc-pvdz iop(5/13=1,5/36=2,99/5=2) pseudo=read geom=check guess=(read
 ,tcheck) scf=(maxcycle=1)\\title\\0,1\O,0,4.066762,0.495957,0.360134\O
 ,0,-4.066767,0.495911,-0.360185\C,0,0.673589,-0.167678,-0.057506\C,0,-
 0.673588,-0.167673,0.057516\C,0,1.882141,-0.160213,-0.149051\C,0,-1.88
 214,-0.160196,0.149061\C,0,3.314251,-0.185757,-0.295724\C,0,-3.314249,
 -0.18572,0.295752\H,0,3.682946,-0.885828,-1.06454\H,0,-3.682935,-0.885
 69,1.064664\\Version=ES64L-G16RevC.01\State=1-A\HF=-379.6020897\RMSD=5

 Normal termination of Gaussian 16 at Sun Apr  6 08:01:30 2025.
