 Gaussian 16, Revision C.01,

 ----------------------------------------------------------------------
 #t hf aug-cc-pvdz symm=none int=(grid=ultrafine) guess=(read,tcheck) s
 table=(opt,rrhf)
 ----------------------------------------------------------------------
 -----
 title
 -----
 Symbolic Z-matrix:
 Charge =  0 Multiplicity = 1

 SCF Done:  E(RHF) =  -383.682309583     A.U. after   15 cycles

 1\1\GINC-SE044\Stability\RHF\Aug-CC-pVDZ\C8H10O1\OHZDE\06-Apr-2025\0\\
 #t hf aug-cc-pvdz symm=none int=(grid=ultrafine) guess=(read,tcheck) s
 table=(opt,rrhf)\\title\\0,1\C,0,-1.194148,-1.273079,-0.003365\C,0,0.1
 57194,-1.604887,-0.000788\C,0,-0.609182,1.03961,-0.002377\C,0,-1.60199
 1,0.056026,-0.003248\C,0,0.749394,0.743892,-0.000095\C,0,1.120492,-0.6
 06384,0.001279\C,0,-3.06105,0.433615,0.003949\C,0,1.799096,1.819578,-0
 .000742\O,0,2.465444,-0.884994,0.002866\H,0,-1.932914,-2.064353,-0.006
 041\H,0,0.460474,-2.645819,-0.001658\H,0,-0.904309,2.082983,-0.004426\

 Normal termination of Gaussian 16 at Sun Apr  6 08:02:41 2025.
 Gaussian 16:  ES64L-G16RevC.01  3-Jul-2019

 ----------------------------------------------------------------------
 #t hf aug-cc-pvdz iop(5/13=1,5/36=2,99/5=2) pseudo=read geom=check gue
 ss=(read,tcheck) scf=(maxcycle=1)
 ----------------------------------------------------------------------
 -----
 title
 -----
 Structure from the checkpoint file:  "2-4-dimethylphenol.chk"
 Charge =  0 Multiplicity = 1

                         Standard orientation:
 ---------------------------------------------------------------------
 Center     Atomic      Atomic             Coordinates (Angstroms)
 Number     Number       Type             X           Y           Z
 ---------------------------------------------------------------------
      1          6           0       -1.194148   -1.273079   -0.003365
      2          6           0        0.157194   -1.604887   -0.000788
      3          6           0       -0.609182    1.039610   -0.002377
      4          6           0       -1.601991    0.056026   -0.003248
      5          6           0        0.749394    0.743892   -0.000095
      6          6           0        1.120492   -0.606384    0.001279
      7          6           0       -3.061050    0.433615    0.003949
      8          6           0        1.799096    1.819578   -0.000742
      9          8           0        2.465444   -0.884994    0.002866
     10          1           0       -1.932914   -2.064353   -0.006041
     11          1           0        0.460474   -2.645819   -0.001658
     12          1           0       -0.904309    2.082983   -0.004426
     13          1           0       -3.301613    1.113926   -0.815300
     14          1           0       -3.696847   -0.445427   -0.096389
     15          1           0       -3.338323    0.937663    0.932716
     16          1           0        2.446613    1.742179    0.874661
     17          1           0        2.448306    1.739421   -0.874651
     18          1           0        1.340514    2.807196   -0.002729
     19          1           0        2.595723   -1.838040    0.003211
 ---------------------------------------------------------------------

 SCF Done:  E(RHF) =  -385.505132101     A.U. after    2 cycles

 The electronic state is 1-A.
 Alpha  occ. eigenvalues --  -21.09618 -11.50579 -11.45039 -11.43480 -11.42459
 Alpha  occ. eigenvalues --  -11.40551 -11.38309 -11.38115 -11.35606  -1.75077
 Alpha  occ. eigenvalues --   -1.33771  -1.15480  -1.11149  -0.99791  -0.97189
 Alpha  occ. eigenvalues --   -0.86489  -0.80179  -0.68862  -0.63801  -0.63038
 Alpha  occ. eigenvalues --   -0.58265  -0.56616  -0.56303  -0.55613  -0.54419
 Alpha  occ. eigenvalues --   -0.50503  -0.50469  -0.45941  -0.43237  -0.41189
 Alpha  occ. eigenvalues --   -0.40109  -0.32086  -0.25781
 Alpha virt. eigenvalues --    0.03489   0.04780   0.04855   0.06090   0.06155
 Alpha virt. eigenvalues --    0.06311   0.06884   0.07379   0.07484   0.09401
 Alpha virt. eigenvalues --    0.10012   0.11282   0.12141   0.12900   0.13167

 Mulliken charges:
               1
     1  C   -1.812284
     2  C   -5.636364
     3  C   -0.649279
     4  C    2.498688
     5  C    1.087089
     6  C    6.744832
     7  C   -5.259658
     8  C   -5.278162
     9  O   -4.801531
    10  H    1.722429
    11  H    1.731697
    12  H    1.938000
    13  H    1.020173
    14  H    1.266539
    15  H    1.022208
    16  H    1.040753
    17  H    1.045159
    18  H    1.251141
    19  H    1.068568
 Sum of Mulliken charges =   0.00000

 Dipole moment (field-independent basis, Debye):
    X=              0.2463    Y=             -0.4079    Z=              0.0088  Tot=              0.4765

 Test job not archived.
 1\1\GINC-SE044\SP\RHF\Aug-CC-pVDZ\C8H10O1\OHZDE\06-Apr-2025\0\\#t hf a
 ug-cc-pvdz iop(5/13=1,5/36=2,99/5=2) pseudo=read geom=check guess=(rea
 d,tcheck) scf=(maxcycle=1)\\title\\0,1\C,0,-1.194148,-1.273079,-0.0033
 65\C,0,0.157194,-1.604887,-0.000788\C,0,-0.609182,1.03961,-0.002377\C,
 0,-1.601991,0.056026,-0.003248\C,0,0.749394,0.743892,-0.000095\C,0,1.1
 20492,-0.606384,0.001279\C,0,-3.06105,0.433615,0.003949\C,0,1.799096,1
 .819578,-0.000742\O,0,2.465444,-0.884994,0.002866\H,0,-1.932914,-2.064
 353,-0.006041\H,0,0.460474,-2.645819,-0.001658\H,0,-0.904309,2.082983,

 Normal termination of Gaussian 16 at Sun Apr  6 08:02:55 2025.
