 Gaussian 16, Revision C.01,

 ----------------------------------------------------------------------
 #t hf aug-cc-pvdz symm=none int=(grid=ultrafine) guess=(read,tcheck) s
 table=(opt,rrhf)
 ----------------------------------------------------------------------
 -----
 title
 -----
 Symbolic Z-matrix:
 Charge =  0 Multiplicity = 1

 SCF Done:  E(RHF) =  -512.995062461     A.U. after   13 cycles

 1\1\GINC-SE255\Stability\RHF\Aug-CC-pVDZ\C9H15N3\OHZDE\06-Apr-2025\0\\
 #t hf aug-cc-pvdz symm=none int=(grid=ultrafine) guess=(read,tcheck) s
 table=(opt,rrhf)\\title\\0,1\C,0,1.213746,-0.485195,-0.451299\C,0,-0.1
 86751,1.291886,-0.452061\C,0,-1.025519,-0.80954,-0.451492\C,0,3.106193
 ,-1.226077,1.022311\C,0,-0.489286,3.302497,1.02027\C,0,-2.620272,-2.07
 0057,1.021573\C,0,2.607524,-1.040956,-0.418867\C,0,-0.402257,2.77685,-
 0.420576\C,0,-2.203885,-1.738495,-0.419487\N,0,1.071093,0.842916,-0.45
 1579\N,0,0.196001,-1.350037,-0.450873\N,0,-1.265574,0.504278,-0.451645

 Normal termination of Gaussian 16 at Sun Apr  6 08:04:07 2025.
 Gaussian 16:  ES64L-G16RevC.01  3-Jul-2019

 ----------------------------------------------------------------------
 #t hf aug-cc-pvdz iop(5/13=1,5/36=2,99/5=2) pseudo=read geom=check gue
 ss=(read,tcheck) scf=(maxcycle=1)
 ----------------------------------------------------------------------
 -----
 title
 -----
 Structure from the checkpoint file:  "2-4-6-triethyl-1-3-5-triazine.chk"
 Charge =  0 Multiplicity = 1

                         Standard orientation:
 ---------------------------------------------------------------------
 Center     Atomic      Atomic             Coordinates (Angstroms)
 Number     Number       Type             X           Y           Z
 ---------------------------------------------------------------------
      1          6           0        1.213750   -0.485186   -0.451299
      2          6           0       -0.186761    1.291885   -0.452061
      3          6           0       -1.025513   -0.809548   -0.451492
      4          6           0        3.106202   -1.226053    1.022311
      5          6           0       -0.489311    3.302493    1.020270
      6          6           0       -2.620256   -2.070077    1.021573
      7          6           0        2.607532   -1.040936   -0.418867
      8          6           0       -0.402278    2.776847   -0.420576
      9          6           0       -2.203872   -1.738512   -0.419487
     10          7           0        1.071087    0.842924   -0.451579
     11          7           0        0.196011   -1.350035   -0.450873
     12          7           0       -1.265578    0.504269   -0.451645
     13          1           0        3.118889   -0.274412    1.553900
     14          1           0        4.118835   -1.629241    1.024095
     15          1           0        2.464880   -1.917359    1.569345
     16          1           0       -1.319169    2.838256    1.553364
     17          1           0       -0.646278    4.381080    1.021356
     18          1           0        0.430731    3.093042    1.566254
     19          1           0       -1.805204   -2.554601    1.559462
     20          1           0       -3.476117   -2.744974    1.022972
     21          1           0       -2.900225   -1.166017    1.562599
     22          1           0        2.608932   -2.000676   -0.934359
     23          1           0        3.265836   -0.353835   -0.949473
     24          1           0        0.427535    3.257462   -0.937555
     25          1           0       -1.327141    3.003005   -0.950185
     26          1           0       -3.033400   -1.262433   -0.941151
     27          1           0       -1.935704   -2.654880   -0.944181
 ---------------------------------------------------------------------

 SCF Done:  E(RHF) =  -515.482056754     A.U. after    2 cycles

 The electronic state is 1-A.
 Alpha  occ. eigenvalues --  -15.72781 -15.72730 -15.72729 -11.51032 -11.51027
 Alpha  occ. eigenvalues --  -11.48403 -11.40877 -11.40876 -11.40437 -11.36739
 Alpha  occ. eigenvalues --  -11.36739 -11.36044  -1.56536  -1.33531  -1.33530
 Alpha  occ. eigenvalues --   -1.16561  -1.16557  -1.15163  -0.96776  -0.96769
 Alpha  occ. eigenvalues --   -0.91916  -0.83262  -0.83255  -0.70232  -0.67173
 Alpha  occ. eigenvalues --   -0.62059  -0.61651  -0.61649  -0.59071  -0.59062
 Alpha  occ. eigenvalues --   -0.57891  -0.55567  -0.51671  -0.51669  -0.49677
 Alpha  occ. eigenvalues --   -0.49451  -0.49450  -0.48063  -0.47651  -0.46527
 Alpha  occ. eigenvalues --   -0.46526  -0.38444  -0.38441  -0.34577  -0.34576
 Alpha virt. eigenvalues --    0.03954   0.04740   0.04741   0.05642   0.05644
 Alpha virt. eigenvalues --    0.06441   0.06540   0.06540   0.06687   0.07156
 Alpha virt. eigenvalues --    0.07161   0.07500   0.08821   0.08828   0.09091

 Mulliken charges:
               1
     1  C    7.343641
     2  C    7.343085
     3  C    7.344211
     4  C   -4.269009
     5  C   -4.269335
     6  C   -4.269171
     7  C   -5.167760
     8  C   -5.166859
     9  C   -5.167761
    10  N   -5.173050
    11  N   -5.177274
    12  N   -5.171341
    13  H    1.427124
    14  H    1.197383
    15  H    1.425254
    16  H    1.426988
    17  H    1.197467
    18  H    1.425481
    19  H    1.426196
    20  H    1.197435
    21  H    1.426173
    22  H    1.608450
    23  H    1.608857
    24  H    1.608118
    25  H    1.608662
    26  H    1.607816
    27  H    1.609218
 Sum of Mulliken charges =  -0.00000

 Dipole moment (field-independent basis, Debye):
    X=             -0.0008    Y=              0.0011    Z=              0.3083  Tot=              0.3083

 Test job not archived.
 1\1\GINC-SE255\SP\RHF\Aug-CC-pVDZ\C9H15N3\OHZDE\06-Apr-2025\0\\#t hf a
 ug-cc-pvdz iop(5/13=1,5/36=2,99/5=2) pseudo=read geom=check guess=(rea
 d,tcheck) scf=(maxcycle=1)\\title\\0,1\C,0,1.213746,-0.485195,-0.45129
 9\C,0,-0.186751,1.291886,-0.452061\C,0,-1.025519,-0.80954,-0.451492\C,
 0,3.106193,-1.226077,1.022311\C,0,-0.489286,3.302497,1.02027\C,0,-2.62
 0272,-2.070057,1.021573\C,0,2.607524,-1.040956,-0.418867\C,0,-0.402257
 ,2.77685,-0.420576\C,0,-2.203885,-1.738495,-0.419487\N,0,1.071093,0.84
 2916,-0.451579\N,0,0.196001,-1.350037,-0.450873\N,0,-1.265574,0.504278

 Normal termination of Gaussian 16 at Sun Apr  6 08:04:28 2025.
