 Gaussian 16, Revision C.01,

 ----------------------------------------------------------------------
 #t hf aug-cc-pvdz symm=none int=(grid=ultrafine) guess=(read,tcheck) s
 table=(opt,rrhf)
 ----------------------------------------------------------------------
 -----
 title
 -----
 Symbolic Z-matrix:
 Charge =  0 Multiplicity = 1

 SCF Done:  E(RHF) =  -315.734955789     A.U. after   14 cycles
 Normal termination of Gaussian 16 at Sun Apr  6 08:01:19 2025.
 Gaussian 16:  ES64L-G16RevC.01  3-Jul-2019

 ----------------------------------------------------------------------
 #t hf aug-cc-pvdz iop(5/13=1,5/36=2,99/5=2) pseudo=read geom=check gue
 ss=(read,tcheck) scf=(maxcycle=1)
 ----------------------------------------------------------------------
 -----
 title
 -----
 Structure from the checkpoint file:  "2-4-dihydro-1-2-4-triazol-3-one.chk"
 Charge =  0 Multiplicity = 1

                         Standard orientation:
 ---------------------------------------------------------------------
 Center     Atomic      Atomic             Coordinates (Angstroms)
 Number     Number       Type             X           Y           Z
 ---------------------------------------------------------------------
      1          6           0        0.585236   -1.371153    0.000000
      2          6           0       -0.000000    0.803622   -0.000000
      3          7           0       -0.706083   -1.394643    0.000000
      4          7           0        1.075996   -0.090990    0.000000
      5          7           0       -1.065835   -0.067566   -0.000000
      6          8           0        0.019362    2.016386   -0.000000
      7          1           0        1.203231   -2.252103    0.000000
      8          1           0        2.035972    0.202774    0.000000
      9          1           0       -2.034065    0.195812   -0.000000
 ---------------------------------------------------------------------

 SCF Done:  E(RHF) =  -317.101471659     A.U. after    2 cycles

 The electronic state is 1-A'.
 Alpha  occ. eigenvalues --  -21.02878 -15.80758 -15.79998 -15.77696 -11.52022
 Alpha  occ. eigenvalues --  -11.45923  -1.73633  -1.61527  -1.36102  -1.20022
 Alpha  occ. eigenvalues --   -0.90502  -0.89169  -0.73419  -0.67083  -0.64975
 Alpha  occ. eigenvalues --   -0.61341  -0.52053  -0.46257  -0.45862  -0.44105
 Alpha  occ. eigenvalues --   -0.30137  -0.26893
 Alpha virt. eigenvalues --    0.02902   0.05007   0.05777   0.09501   0.09822
 Alpha virt. eigenvalues --    0.10548   0.12103   0.12293   0.14511   0.14760
 Alpha virt. eigenvalues --    0.15717   0.17392   0.17515   0.18290   0.18569

 Mulliken charges:
               1
     1  C    1.134914
     2  C    4.755349
     3  N   -1.525060
     4  N   -2.523330
     5  N   -2.005250
     6  O   -2.983096
     7  H    1.558000
     8  H    0.760674
     9  H    0.827800
 Sum of Mulliken charges =   0.00000

 Dipole moment (field-independent basis, Debye):
    X=              1.6007    Y=             -1.7741    Z=              0.0000  Tot=              2.3895

 Test job not archived.
 1\1\GINC-SE023\SP\RHF\Aug-CC-pVDZ\C2H3N3O1\OHZDE\06-Apr-2025\0\\#t hf
 aug-cc-pvdz iop(5/13=1,5/36=2,99/5=2) pseudo=read geom=check guess=(re
 ad,tcheck) scf=(maxcycle=1)\\title\\0,1\C,0,0.585236,-1.371153,0.\C,0,
 0.,0.803622,0.\N,0,-0.706083,-1.394643,0.\N,0,1.075996,-0.09099,0.\N,0
 ,-1.065835,-0.067566,0.\O,0,0.019362,2.016386,0.\H,0,1.203231,-2.25210
 3,0.\H,0,2.035972,0.202774,0.\H,0,-2.034065,0.195812,0.\\Version=ES64L
 -G16RevC.01\State=1-A'\HF=-317.1014717\RMSD=8.086e-02\Dipole=0.6297598
 ,-0.6979887,0.\Quadrupole=6.4209215,-5.6137534,-0.8071682,-3.0921587,0

 Normal termination of Gaussian 16 at Sun Apr  6 08:01:23 2025.
