 Gaussian 16, Revision C.01,

 ----------------------------------------------------------------------
 #t hf aug-cc-pvdz symm=none int=(grid=ultrafine) guess=(read,tcheck) s
 table=(opt,rrhf)
 ----------------------------------------------------------------------
 -----
 title
 -----
 Symbolic Z-matrix:
 Charge =  0 Multiplicity = 1

 SCF Done:  E(RHF) =  -1180.56980833     A.U. after   15 cycles
 Normal termination of Gaussian 16 at Sun Apr  6 08:00:49 2025.
 Gaussian 16:  ES64L-G16RevC.01  3-Jul-2019

 ----------------------------------------------------------------------
 #t hf aug-cc-pvdz iop(5/13=1,5/36=2,99/5=2) pseudo=read geom=check gue
 ss=(read,tcheck) scf=(maxcycle=1)
 ----------------------------------------------------------------------
 -----
 title
 -----
 Structure from the checkpoint file:  "2-4-dichloropyrimidine.chk"
 Charge =  0 Multiplicity = 1

                         Standard orientation:
 ---------------------------------------------------------------------
 Center     Atomic      Atomic             Coordinates (Angstroms)
 Number     Number       Type             X           Y           Z
 ---------------------------------------------------------------------
      1         17           0       -2.599175   -0.886996   -0.000001
      2         17           0        2.613285   -0.893714    0.000000
      3          7           0        0.001967   -0.687993    0.000000
      4          7           0       -1.233601    1.339871    0.000000
      5          6           0       -1.116676    0.025543    0.000000
      6          6           0        1.121365    0.005739    0.000000
      7          6           0        1.154461    1.395274    0.000000
      8          6           0       -0.082104    2.017431    0.000000
      9          1           0        2.080180    1.947300    0.000000
     10          1           0       -0.160883    3.097694    0.000002
 ---------------------------------------------------------------------

 SCF Done:  E(RHF) =  -1182.24555151     A.U. after    2 cycles

 The electronic state is 1-A.
 Alpha  occ. eigenvalues --  -99.92213 -99.90889 -15.77906 -15.77383 -11.53851
 Alpha  occ. eigenvalues --  -11.51862 -11.49692 -11.42903 -10.49640 -10.48343
 Alpha  occ. eigenvalues --   -9.69631  -9.68686  -9.68547  -9.68323  -9.67398
 Alpha  occ. eigenvalues --   -9.67251  -1.57964  -1.40058  -1.34425  -1.29997
 Alpha  occ. eigenvalues --   -1.16875  -0.95800  -0.94170  -0.77049  -0.71312
 Alpha  occ. eigenvalues --   -0.67814  -0.65939  -0.61950  -0.61245  -0.58064
 Alpha  occ. eigenvalues --   -0.53036  -0.52467  -0.51749  -0.47137  -0.43075
 Alpha  occ. eigenvalues --   -0.38819  -0.38621
 Alpha virt. eigenvalues --    0.02755   0.05064   0.06216   0.07064   0.07591
 Alpha virt. eigenvalues --    0.07624   0.08010   0.10235   0.10856   0.11165
 Alpha virt. eigenvalues --    0.11264   0.12455   0.13190   0.13681   0.14163

 Mulliken charges:
               1
     1  Cl   0.295462
     2  Cl  -0.218402
     3  N   -2.655619
     4  N   -2.784014
     5  C    0.942956
     6  C    0.463359
     7  C    0.354001
     8  C    0.310549
     9  H    1.661217
    10  H    1.630490
 Sum of Mulliken charges =  -0.00000

 Dipole moment (field-independent basis, Debye):
    X=              1.5912    Y=              2.8505    Z=              0.0000  Tot=              3.2646

 Test job not archived.
 1\1\GINC-SE275\SP\RHF\Aug-CC-pVDZ\C4H2Cl2N2\OHZDE\06-Apr-2025\0\\#t hf
  aug-cc-pvdz iop(5/13=1,5/36=2,99/5=2) pseudo=read geom=check guess=(r
 ead,tcheck) scf=(maxcycle=1)\\title\\0,1\Cl,0,-2.599175,-0.886996,-0.0
 00001\Cl,0,2.613285,-0.893714,0.\N,0,0.001967,-0.687993,0.\N,0,-1.2336
 01,1.339871,0.\C,0,-1.116676,0.025543,0.\C,0,1.121365,0.005739,0.\C,0,
 1.154461,1.395274,0.\C,0,-0.082104,2.017431,0.\H,0,2.08018,1.9473,0.\H
 ,0,-0.160883,3.097694,0.000002\\Version=ES64L-G16RevC.01\State=1-A\HF=
 -1182.2455515\RMSD=8.112e-01\Dipole=0.6260102,1.1214886,0.0000005\Quad

 Normal termination of Gaussian 16 at Sun Apr  6 08:01:14 2025.
