 Gaussian 16, Revision C.01,

 ----------------------------------------------------------------------
 #t hf aug-cc-pvdz symm=none int=(grid=ultrafine) guess=(read,tcheck) s
 table=(opt,rrhf)
 ----------------------------------------------------------------------
 -----
 title
 -----
 Symbolic Z-matrix:
 Charge =  0 Multiplicity = 1

 SCF Done:  E(RHF) =  -1655.49319391     A.U. after   12 cycles

 1\1\GINC-SE276\Stability\RHF\Aug-CC-pVDZ\C3Cl3N3\OHZDE\06-Apr-2025\0\\
 #t hf aug-cc-pvdz symm=none int=(grid=ultrafine) guess=(read,tcheck) s
 table=(opt,rrhf)\\title\\0,1\C,0,0.,1.278542,0.\C,0,1.10725,-0.639271,
 0.\C,0,-1.10725,-0.639271,0.\N,0,0.,-1.366438,0.\N,0,-1.18337,0.683219
 ,0.\N,0,1.18337,0.683219,0.\Cl,0,0.,3.006062,0.\Cl,0,2.603326,-1.50303
 1,0.\Cl,0,-2.603326,-1.503031,0.\\Version=ES64L-G16RevC.01\HF=-1655.49
 31939\RMSD=8.743e-09\Dipole=0.,-0.0000001,0.\Quadrupole=-0.7684602,-0.
 7684671,1.5369273,0.,0.,0.\PG=Unknown\\@

 Normal termination of Gaussian 16 at Sun Apr  6 08:00:31 2025.
 Gaussian 16:  ES64L-G16RevC.01  3-Jul-2019

 ----------------------------------------------------------------------
 #t hf aug-cc-pvdz iop(5/13=1,5/36=2,99/5=2) pseudo=read geom=check gue
 ss=(read,tcheck) scf=(maxcycle=1)
 ----------------------------------------------------------------------
 -----
 title
 -----
 Structure from the checkpoint file:  "2-4-6-trichloro-1-3-5-triazine.chk"
 Charge =  0 Multiplicity = 1

                         Standard orientation:
 ---------------------------------------------------------------------
 Center     Atomic      Atomic             Coordinates (Angstroms)
 Number     Number       Type             X           Y           Z
 ---------------------------------------------------------------------
      1          6           0       -0.000000    0.000000    1.278542
      2          6           0        0.000000    1.107250   -0.639271
      3          6           0       -0.000000   -1.107250   -0.639271
      4          7           0        0.000000   -0.000000   -1.366438
      5          7           0        0.000000   -1.183370    0.683219
      6          7           0        0.000000    1.183370    0.683219
      7         17           0       -0.000000    0.000000    3.006062
      8         17           0        0.000000    2.603326   -1.503031
      9         17           0       -0.000000   -2.603326   -1.503031
 ---------------------------------------------------------------------

 SCF Done:  E(RHF) =  -1657.44450037     A.U. after    2 cycles

 The electronic state is 1-A1.
 Alpha  occ. eigenvalues --  -99.93463 -99.93458 -99.93458 -15.79669 -15.79669
 Alpha  occ. eigenvalues --  -15.79584 -11.56168 -11.56168 -11.53850 -10.50964
 Alpha  occ. eigenvalues --  -10.50964 -10.50911  -9.70923  -9.70923  -9.70890
 Alpha  occ. eigenvalues --   -9.70021  -9.69917  -9.69917  -9.69834  -9.69834
 Alpha  occ. eigenvalues --   -9.69792  -1.65102  -1.44808  -1.44808  -1.33026
 Alpha  occ. eigenvalues --   -1.31682  -1.31682  -0.98672  -0.98672  -0.78983
 Alpha  occ. eigenvalues --   -0.77833  -0.71265  -0.65461  -0.65461  -0.61359
 Alpha  occ. eigenvalues --   -0.60397  -0.60397  -0.55255  -0.55255  -0.53582
 Alpha  occ. eigenvalues --   -0.53071  -0.44500  -0.44500  -0.42584  -0.42584
 Alpha virt. eigenvalues --    0.04073   0.04826   0.05075   0.05075   0.06755
 Alpha virt. eigenvalues --    0.06755   0.09300   0.09300   0.09934   0.10139
 Alpha virt. eigenvalues --    0.11538   0.11538   0.13048   0.13048   0.14163

 Mulliken charges:
               1
     1  C    1.955386
     2  C    1.955386
     3  C    1.955386
     4  N   -2.307009
     5  N   -2.307009
     6  N   -2.307009
     7  Cl   0.351623
     8  Cl   0.351623
     9  Cl   0.351623
 Sum of Mulliken charges =  -0.00000

 Dipole moment (field-independent basis, Debye):
    X=             -0.0000    Y=              0.0000    Z=             -0.0000  Tot=              0.0000

 Test job not archived.
 1\1\GINC-SE276\SP\RHF\Aug-CC-pVDZ\C3Cl3N3\OHZDE\06-Apr-2025\0\\#t hf a
 ug-cc-pvdz iop(5/13=1,5/36=2,99/5=2) pseudo=read geom=check guess=(rea
 d,tcheck) scf=(maxcycle=1)\\title\\0,1\C,0,0.,1.278542,0.\C,0,1.10725,
 -0.639271,0.\C,0,-1.10725,-0.639271,0.\N,0,0.,-1.366438,0.\N,0,-1.1833
 7,0.683219,0.\N,0,1.18337,0.683219,0.\Cl,0,0.,3.006062,0.\Cl,0,2.60332
 6,-1.503031,0.\Cl,0,-2.603326,-1.503031,0.\\Version=ES64L-G16RevC.01\S
 tate=1-A1\HF=-1657.4445004\RMSD=7.998e-02\Dipole=0.,-0.0000007,0.\Quad
 rupole=-0.3689511,-0.3689535,0.7379046,0.,0.,0.\PG=C02V [C2(N1C1Cl1),S

 Normal termination of Gaussian 16 at Sun Apr  6 08:00:37 2025.
