 Gaussian 16, Revision C.01,

 ----------------------------------------------------------------------
 #t hf aug-cc-pvdz symm=none int=(grid=ultrafine) guess=(read,tcheck) s
 table=(opt,rrhf)
 ----------------------------------------------------------------------
 -----
 title
 -----
 Symbolic Z-matrix:
 Charge =  0 Multiplicity = 1

 SCF Done:  E(RHF) =  -343.775624455     A.U. after   14 cycles
 Normal termination of Gaussian 16 at Sun Apr  6 08:01:48 2025.
 Gaussian 16:  ES64L-G16RevC.01  3-Jul-2019

 ----------------------------------------------------------------------
 #t hf aug-cc-pvdz iop(5/13=1,5/36=2,99/5=2) pseudo=read geom=check gue
 ss=(read,tcheck) scf=(maxcycle=1)
 ----------------------------------------------------------------------
 -----
 title
 -----
 Structure from the checkpoint file:  "2-4-pentanedione.chk"
 Charge =  0 Multiplicity = 1

                         Standard orientation:
 ---------------------------------------------------------------------
 Center     Atomic      Atomic             Coordinates (Angstroms)
 Number     Number       Type             X           Y           Z
 ---------------------------------------------------------------------
      1          6           0        0.000000    1.243074    0.098143
      2          6           0       -0.000000   -1.243074    0.098143
      3          6           0        1.350214    1.778331   -0.300826
      4          6           0       -1.350214   -1.778331   -0.300826
      5          6           0        0.000000    0.000000    0.994477
      6          8           0       -1.040368    1.730141   -0.279145
      7          8           0        1.040368   -1.730141   -0.279145
      8          1           0        1.852898    2.184930    0.580181
      9          1           0        1.978873    0.968481   -0.675930
     10          1           0        1.241245    2.557857   -1.049844
     11          1           0       -1.241245   -2.557857   -1.049844
     12          1           0       -1.852898   -2.184930    0.580181
     13          1           0       -1.978873   -0.968481   -0.675930
     14          1           0       -0.895614    0.031398    1.611420
     15          1           0        0.895614   -0.031398    1.611420
 ---------------------------------------------------------------------

 SCF Done:  E(RHF) =  -345.334381324     A.U. after    2 cycles

 The electronic state is 1-A.
 Alpha  occ. eigenvalues --  -21.06371 -21.06367 -11.51619 -11.50187 -11.42045
 Alpha  occ. eigenvalues --  -11.39289 -11.39163  -1.73233  -1.70888  -1.20399
 Alpha  occ. eigenvalues --   -1.11207  -1.04627  -0.79873  -0.74256  -0.65547
 Alpha  occ. eigenvalues --   -0.64330  -0.62473  -0.59297  -0.59030  -0.55415
 Alpha  occ. eigenvalues --   -0.51066  -0.50227  -0.48438  -0.42636  -0.42622
 Alpha  occ. eigenvalues --   -0.30465  -0.28165
 Alpha virt. eigenvalues --    0.03035   0.04885   0.05630   0.05692   0.06372
 Alpha virt. eigenvalues --    0.06660   0.07263   0.07424   0.10425   0.10726
 Alpha virt. eigenvalues --    0.11099   0.13254   0.13585   0.13977   0.14143

 Mulliken charges:
               1
     1  C    4.214400
     2  C    4.214400
     3  C   -4.270446
     4  C   -4.270446
     5  C   -3.629513
     6  O   -3.400538
     7  O   -3.400538
     8  H    1.239155
     9  H    1.329313
    10  H    1.278614
    11  H    1.278614
    12  H    1.239155
    13  H    1.329313
    14  H    1.424259
    15  H    1.424259
 Sum of Mulliken charges =  -0.00000

 Dipole moment (field-independent basis, Debye):
    X=              0.0000    Y=             -0.0000    Z=              0.7358  Tot=              0.7358

 Test job not archived.
 1\1\GINC-SE212\SP\RHF\Aug-CC-pVDZ\C5H8O2\OHZDE\06-Apr-2025\0\\#t hf au
 g-cc-pvdz iop(5/13=1,5/36=2,99/5=2) pseudo=read geom=check guess=(read
 ,tcheck) scf=(maxcycle=1)\\title\\0,1\C,0,0.,1.243074,0.098143\C,0,0.,
 -1.243074,0.098143\C,0,1.350214,1.778331,-0.300826\C,0,-1.350214,-1.77
 8331,-0.300826\C,0,0.,0.,0.994477\O,0,-1.040368,1.730141,-0.279145\O,0
 ,1.040368,-1.730141,-0.279145\H,0,1.852898,2.18493,0.580181\H,0,1.9788
 73,0.968481,-0.67593\H,0,1.241245,2.557857,-1.049844\H,0,-1.241245,-2.
 557857,-1.049844\H,0,-1.852898,-2.18493,0.580181\H,0,-1.978873,-0.9684

 Normal termination of Gaussian 16 at Sun Apr  6 08:01:58 2025.
