 Gaussian 16, Revision C.01,

 ----------------------------------------------------------------------
 #t hf aug-cc-pvdz symm=none int=(grid=ultrafine) guess=(read,tcheck) s
 table=(opt,rrhf)
 ----------------------------------------------------------------------
 -----
 title
 -----
 Symbolic Z-matrix:
 Charge =  0 Multiplicity = 1

 SCF Done:  E(RHF) =  -527.781934552     A.U. after   16 cycles
 Normal termination of Gaussian 16 at Sun Apr  6 08:01:42 2025.
 Gaussian 16:  ES64L-G16RevC.01  3-Jul-2019

 ----------------------------------------------------------------------
 #t hf aug-cc-pvdz iop(5/13=1,5/36=2,99/5=2) pseudo=read geom=check gue
 ss=(read,tcheck) scf=(maxcycle=1)
 ----------------------------------------------------------------------
 -----
 title
 -----
 Structure from the checkpoint file:  "2-4-hexadiynedioic_acid.chk"
 Charge =  0 Multiplicity = 1

                         Standard orientation:
 ---------------------------------------------------------------------
 Center     Atomic      Atomic             Coordinates (Angstroms)
 Number     Number       Type             X           Y           Z
 ---------------------------------------------------------------------
      1          8           0        3.930220    0.922903   -0.701602
      2          8           0       -3.930220   -0.922899   -0.701611
      3          8           0        3.973285   -0.836514    0.665513
      4          8           0       -3.973285    0.836512    0.665510
      5          6           0        3.332555    0.099218   -0.070156
      6          6           0       -3.332555   -0.099217   -0.070161
      7          6           0        1.886554    0.027690   -0.032419
      8          6           0       -1.886554   -0.027691   -0.032422
      9          6           0        0.677478    0.008906   -0.032785
     10          6           0       -0.677478   -0.008907   -0.032786
     11          1           0        3.342337   -1.424609    1.100947
     12          1           0       -3.342337    1.424605    1.100948
 ---------------------------------------------------------------------

 SCF Done:  E(RHF) =  -529.984659938     A.U. after    2 cycles

 The electronic state is 1-A.
 Alpha  occ. eigenvalues --  -21.15896 -21.15892 -21.09079 -21.09045 -11.60398
 Alpha  occ. eigenvalues --  -11.59824 -11.55752 -11.49778 -11.48962 -11.48690
 Alpha  occ. eigenvalues --   -1.86102  -1.85745  -1.69103  -1.69082  -1.26119
 Alpha  occ. eigenvalues --   -1.14769  -1.01052  -0.92743  -0.82174  -0.77022
 Alpha  occ. eigenvalues --   -0.74855  -0.61217  -0.61021  -0.59094  -0.58826
 Alpha  occ. eigenvalues --   -0.52751  -0.52260  -0.49873  -0.49852  -0.39330
 Alpha  occ. eigenvalues --   -0.39087  -0.36315  -0.36105  -0.34275  -0.33731
 Alpha virt. eigenvalues --    0.01653   0.03958   0.05639   0.06465   0.06672
 Alpha virt. eigenvalues --    0.07178   0.10329   0.10728   0.10963   0.11220
 Alpha virt. eigenvalues --    0.12096   0.12192   0.12940   0.13229   0.13251

 Mulliken charges:
               1
     1  O   -3.028570
     2  O   -3.028569
     3  O   -2.916805
     4  O   -2.916806
     5  C    4.187997
     6  C    4.188001
     7  C   -5.768684
     8  C   -5.768687
     9  C    6.450842
    10  C    6.450839
    11  H    1.075221
    12  H    1.075220
 Sum of Mulliken charges =  -0.00000

 Dipole moment (field-independent basis, Debye):
    X=             -0.0000    Y=             -0.0000    Z=              1.9375  Tot=              1.9375

 Test job not archived.
 1\1\GINC-SE165\SP\RHF\Aug-CC-pVDZ\C6H2O4\OHZDE\06-Apr-2025\0\\#t hf au
 g-cc-pvdz iop(5/13=1,5/36=2,99/5=2) pseudo=read geom=check guess=(read
 ,tcheck) scf=(maxcycle=1)\\title\\0,1\O,0,3.93022,0.922903,-0.701602\O
 ,0,-3.93022,-0.922899,-0.701611\O,0,3.973285,-0.836514,0.665513\O,0,-3
 .973285,0.836512,0.66551\C,0,3.332555,0.099218,-0.070156\C,0,-3.332555
 ,-0.099217,-0.070161\C,0,1.886554,0.02769,-0.032419\C,0,-1.886554,-0.0
 27691,-0.032422\C,0,0.677478,0.008906,-0.032785\C,0,-0.677478,-0.00890
 7,-0.032786\H,0,3.342337,-1.424609,1.100947\H,0,-3.342337,1.424605,1.1

 Normal termination of Gaussian 16 at Sun Apr  6 08:01:51 2025.
