 Gaussian 16, Revision C.01,

 ----------------------------------------------------------------------
 #t hf aug-cc-pvdz symm=none int=(grid=ultrafine) guess=(read,tcheck) s
 table=(opt,rrhf)
 ----------------------------------------------------------------------
 -----
 title
 -----
 Symbolic Z-matrix:
 Charge =  0 Multiplicity = 1

 SCF Done:  E(RHF) =  -305.576026415     A.U. after   15 cycles
 Normal termination of Gaussian 16 at Sun Apr  6 08:00:59 2025.
 Gaussian 16:  ES64L-G16RevC.01  3-Jul-2019

 ----------------------------------------------------------------------
 #t hf aug-cc-pvdz iop(5/13=1,5/36=2,99/5=2) pseudo=read geom=check gue
 ss=(read,tcheck) scf=(maxcycle=1)
 ----------------------------------------------------------------------
 -----
 title
 -----
 Structure from the checkpoint file:  "2-4-cyclohexadienone.chk"
 Charge =  0 Multiplicity = 1

                         Standard orientation:
 ---------------------------------------------------------------------
 Center     Atomic      Atomic             Coordinates (Angstroms)
 Number     Number       Type             X           Y           Z
 ---------------------------------------------------------------------
      1          6           0       -1.079574    0.025415   -0.000044
      2          6           0       -0.317064    1.276053    0.000024
      3          6           0        1.029994    1.272817    0.000051
      4          6           0        1.811253    0.048223   -0.000048
      5          6           0        1.208607   -1.145981   -0.000088
      6          6           0       -0.278700   -1.273628    0.000176
      7          8           0       -2.298529    0.003676   -0.000115
      8          1           0       -0.888881    2.193888    0.000022
      9          1           0        1.565351    2.214743    0.000240
     10          1           0        2.890068    0.123598   -0.000248
     11          1           0        1.792087   -2.058324   -0.000305
     12          1           0       -0.608643   -1.860082    0.864683
     13          1           0       -0.608845   -1.860624   -0.863902
 ---------------------------------------------------------------------

 SCF Done:  E(RHF) =  -306.976124974     A.U. after    2 cycles

 The electronic state is 1-A.
 Alpha  occ. eigenvalues --  -21.03842 -11.52943 -11.47117 -11.44383 -11.41980
 Alpha  occ. eigenvalues --  -11.40962 -11.38476  -1.69630  -1.31493  -1.12495
 Alpha  occ. eigenvalues --   -1.06632  -0.89635  -0.83362  -0.71523  -0.66076
 Alpha  occ. eigenvalues --   -0.61997  -0.60753  -0.59356  -0.52875  -0.47652
 Alpha  occ. eigenvalues --   -0.46737  -0.45311  -0.42835  -0.29397  -0.27634
 Alpha virt. eigenvalues --    0.02823   0.04708   0.04890   0.06164   0.06664
 Alpha virt. eigenvalues --    0.06779   0.07074   0.09850   0.12207   0.13343
 Alpha virt. eigenvalues --    0.13344   0.13482   0.13825   0.13963   0.14174

 Mulliken charges:
               1
     1  C    3.889324
     2  C   -3.058211
     3  C    1.105962
     4  C   -1.091904
     5  C    0.028702
     6  C   -5.512587
     7  O   -3.699554
     8  H    1.530041
     9  H    1.414036
    10  H    1.542785
    11  H    1.322617
    12  H    1.264430
    13  H    1.264360
 Sum of Mulliken charges =  -0.00000

 Dipole moment (field-independent basis, Debye):
    X=              2.2985    Y=             -0.3451    Z=              0.0001  Tot=              2.3243

 Test job not archived.
 1\1\GINC-SE275\SP\RHF\Aug-CC-pVDZ\C6H6O1\OHZDE\06-Apr-2025\0\\#t hf au
 g-cc-pvdz iop(5/13=1,5/36=2,99/5=2) pseudo=read geom=check guess=(read
 ,tcheck) scf=(maxcycle=1)\\title\\0,1\C,0,-1.079574,0.025415,-0.000044
 \C,0,-0.317064,1.276053,0.000024\C,0,1.029994,1.272817,0.000051\C,0,1.
 811253,0.048223,-0.000048\C,0,1.208607,-1.145981,-0.000088\C,0,-0.2787
 ,-1.273628,0.000176\O,0,-2.298529,0.003675,-0.000115\H,0,-0.888882,2.1
 93888,0.000022\H,0,1.56535,2.214743,0.00024\H,0,2.890068,0.123598,-0.0
 00248\H,0,1.792087,-2.058324,-0.000305\H,0,-0.608643,-1.860082,0.86468

 Normal termination of Gaussian 16 at Sun Apr  6 08:01:14 2025.
