 Gaussian 16, Revision C.01,

 ----------------------------------------------------------------------
 #t hf aug-cc-pvdz symm=none int=(grid=ultrafine) guess=(read,tcheck) s
 table=(opt,rrhf)
 ----------------------------------------------------------------------
 -----
 title
 -----
 Symbolic Z-matrix:
 Charge =  0 Multiplicity = 1

 SCF Done:  E(RHF) =  -426.369415191     A.U. after   15 cycles
 Normal termination of Gaussian 16 at Sun Apr  6 08:00:43 2025.
 Gaussian 16:  ES64L-G16RevC.01  3-Jul-2019

 ----------------------------------------------------------------------
 #t hf aug-cc-pvdz iop(5/13=1,5/36=2,99/5=2) pseudo=read geom=check gue
 ss=(read,tcheck) scf=(maxcycle=1)
 ----------------------------------------------------------------------
 -----
 title
 -----
 Structure from the checkpoint file:  "2-4-difluorofuran.chk"
 Charge =  0 Multiplicity = 1

                         Standard orientation:
 ---------------------------------------------------------------------
 Center     Atomic      Atomic             Coordinates (Angstroms)
 Number     Number       Type             X           Y           Z
 ---------------------------------------------------------------------
      1          9           0       -2.349093   -0.439318   -0.000000
      2          9           0        2.398437   -0.465192   -0.000000
      3          8           0       -0.734830    1.107764   -0.000000
      4          6           0       -1.057992   -0.187509   -0.000000
      5          6           0        1.115249   -0.099449   -0.000000
      6          6           0        0.013570   -1.010677   -0.000000
      7          6           0        0.647558    1.167846   -0.000000
      8          1           0        0.028831   -2.084299    0.000001
      9          1           0        1.095398    2.141517   -0.000000
 ---------------------------------------------------------------------

 SCF Done:  E(RHF) =  -428.042494189     A.U. after    2 cycles

 The electronic state is 1-A.
 Alpha  occ. eigenvalues --  -29.33228 -29.30851 -21.14514 -11.54046 -11.51317
 Alpha  occ. eigenvalues --  -11.44200 -11.41223  -1.89295  -1.28273  -1.17509
 Alpha  occ. eigenvalues --   -0.95928  -0.91271  -0.80560  -0.65982  -0.65061
 Alpha  occ. eigenvalues --   -0.62209  -0.59514  -0.49461  -0.48974  -0.43203
 Alpha  occ. eigenvalues --   -0.41184  -0.40332  -0.32400  -0.28610  -0.27915
 Alpha  occ. eigenvalues --   -0.22387
 Alpha virt. eigenvalues --    0.03781   0.05694   0.09126   0.10356   0.10674
 Alpha virt. eigenvalues --    0.11237   0.11791   0.11913   0.12826   0.13412
 Alpha virt. eigenvalues --    0.14593   0.15142   0.15570   0.16744   0.17065

 Mulliken charges:
               1
     1  F    1.029426
     2  F    0.978027
     3  O   -3.649222
     4  C    2.353206
     5  C    0.901064
     6  C   -4.244017
     7  C   -0.178970
     8  H    1.314382
     9  H    1.496104
 Sum of Mulliken charges =  -0.00000

 Dipole moment (field-independent basis, Debye):
    X=             -0.4990    Y=             -1.1724    Z=              0.0000  Tot=              1.2742

 Test job not archived.
 1\1\GINC-SE261\SP\RHF\Aug-CC-pVDZ\C4H2F2O1\OHZDE\06-Apr-2025\0\\#t hf
 aug-cc-pvdz iop(5/13=1,5/36=2,99/5=2) pseudo=read geom=check guess=(re
 ad,tcheck) scf=(maxcycle=1)\\title\\0,1\F,0,-2.349093,-0.439318,0.\F,0
 ,2.398437,-0.465192,0.\O,0,-0.73483,1.107764,0.\C,0,-1.057992,-0.18750
 9,0.\C,0,1.115249,-0.099449,0.\C,0,0.01357,-1.010677,0.\C,0,0.647558,1
 .167846,0.\H,0,0.028831,-2.084299,0.000001\H,0,1.095398,2.141517,0.\\V
 ersion=ES64L-G16RevC.01\State=1-A\HF=-428.0424942\RMSD=8.080e-01\Dipol
 e=-0.1963359,-0.4612431,0.0000005\Quadrupole=5.816075,-1.0229722,-4.79

 Normal termination of Gaussian 16 at Sun Apr  6 08:01:13 2025.
