 Gaussian 16, Revision C.01,

 ----------------------------------------------------------------------
 #t hf aug-cc-pvdz symm=none int=(grid=ultrafine) guess=(read,tcheck) s
 table=(opt,rrhf)
 ----------------------------------------------------------------------
 -----
 title
 -----
 Symbolic Z-matrix:
 Charge =  0 Multiplicity = 1

 SCF Done:  E(RHF) =  -324.811673945     A.U. after   15 cycles
 Normal termination of Gaussian 16 at Sun Apr  6 08:02:14 2025.
 Gaussian 16:  ES64L-G16RevC.01  3-Jul-2019

 ----------------------------------------------------------------------
 #t hf aug-cc-pvdz iop(5/13=1,5/36=2,99/5=2) pseudo=read geom=check gue
 ss=(read,tcheck) scf=(maxcycle=1)
 ----------------------------------------------------------------------
 -----
 title
 -----
 Structure from the checkpoint file:  "2-4-dimethylpyridine.chk"
 Charge =  0 Multiplicity = 1

                         Standard orientation:
 ---------------------------------------------------------------------
 Center     Atomic      Atomic             Coordinates (Angstroms)
 Number     Number       Type             X           Y           Z
 ---------------------------------------------------------------------
      1          6           0        1.153465    1.135016   -0.007007
      2          6           0        0.013587   -0.948032   -0.008764
      3          6           0       -0.091847    1.747296    0.002284
      4          6           0        1.221900   -0.256301   -0.010428
      5          6           0       -1.196914   -0.255109    0.000772
      6          6           0        2.541088   -0.977755    0.007212
      7          6           0       -2.516394   -0.975301    0.001562
      8          7           0       -1.245756    1.082383    0.006775
      9          1           0        2.053167    1.736401   -0.014432
     10          1           0        0.010024   -2.030698   -0.017846
     11          1           0       -0.165664    2.829419    0.003732
     12          1           0        2.444441   -1.995475   -0.368921
     13          1           0        3.285505   -0.457038   -0.595106
     14          1           0        2.932172   -1.038201    1.025756
     15          1           0       -2.388031   -2.056557   -0.001058
     16          1           0       -3.098551   -0.693608    0.880030
     17          1           0       -3.102079   -0.689810   -0.873359
 ---------------------------------------------------------------------

 SCF Done:  E(RHF) =  -326.388828021     A.U. after    2 cycles

 The electronic state is 1-A.
 Alpha  occ. eigenvalues --  -15.72063 -11.48598 -11.45592 -11.43980 -11.40995
 Alpha  occ. eigenvalues --  -11.39637 -11.38630 -11.36287  -1.45055  -1.22465
 Alpha  occ. eigenvalues --   -1.15361  -1.03547  -1.00899  -0.87394  -0.82199
 Alpha  occ. eigenvalues --   -0.68456  -0.63705  -0.63317  -0.59400  -0.57309
 Alpha  occ. eigenvalues --   -0.56398  -0.55239  -0.51606  -0.49955  -0.49784
 Alpha  occ. eigenvalues --   -0.44350  -0.34915  -0.34654  -0.32631
 Alpha virt. eigenvalues --    0.03285   0.04747   0.05122   0.05688   0.05853
 Alpha virt. eigenvalues --    0.06406   0.07365   0.07514   0.08016   0.10072
 Alpha virt. eigenvalues --    0.11080   0.12019   0.12498   0.12696   0.12734

 Mulliken charges:
               1
     1  C   -1.938096
     2  C   -3.107610
     3  C   -1.022991
     4  C    5.862531
     5  C    2.583352
     6  C   -5.392158
     7  C   -4.820821
     8  N   -4.274477
     9  H    1.657108
    10  H    1.808486
    11  H    1.554861
    12  H    1.274541
    13  H    1.159370
    14  H    1.161461
    15  H    1.243741
    16  H    1.119552
    17  H    1.131149
 Sum of Mulliken charges =  -0.00000

 Dipole moment (field-independent basis, Debye):
    X=              1.6115    Y=             -1.0615    Z=              0.0250  Tot=              1.9299

 Test job not archived.
 1\1\GINC-SE084\SP\RHF\Aug-CC-pVDZ\C7H9N1\OHZDE\06-Apr-2025\0\\#t hf au
 g-cc-pvdz iop(5/13=1,5/36=2,99/5=2) pseudo=read geom=check guess=(read
 ,tcheck) scf=(maxcycle=1)\\title\\0,1\C,0,1.153465,1.135016,-0.007007\
 C,0,0.013587,-0.948032,-0.008764\C,0,-0.091847,1.747296,0.002284\C,0,1
 .2219,-0.256301,-0.010428\C,0,-1.196914,-0.255109,0.000772\C,0,2.54108
 8,-0.977755,0.007212\C,0,-2.516394,-0.975301,0.001562\N,0,-1.245756,1.
 082383,0.006775\H,0,2.053167,1.736401,-0.014432\H,0,0.010024,-2.030698
 ,-0.017846\H,0,-0.165664,2.829419,0.003732\H,0,2.444441,-1.995475,-0.3

 Normal termination of Gaussian 16 at Sun Apr  6 08:02:20 2025.
