 Gaussian 16, Revision C.01,

 ----------------------------------------------------------------------
 #t hf aug-cc-pvdz symm=none int=(grid=ultrafine) guess=(read,tcheck) s
 table=(opt,rrhf)
 ----------------------------------------------------------------------
 -----
 title
 -----
 Symbolic Z-matrix:
 Charge =  0 Multiplicity = 1

 SCF Done:  E(RHF) =  -1678.52860660     A.U. after   15 cycles
 Normal termination of Gaussian 16 at Sun Apr  6 08:01:17 2025.
 Gaussian 16:  ES64L-G16RevC.01  3-Jul-2019

 ----------------------------------------------------------------------
 #t hf aug-cc-pvdz iop(5/13=1,5/36=2,99/5=2) pseudo=read geom=check gue
 ss=(read,tcheck) scf=(maxcycle=1)
 ----------------------------------------------------------------------
 -----
 title
 -----
 Structure from the checkpoint file:  "2-4-5-trichloro-6-methylpyrimidine.chk"
 Charge =  0 Multiplicity = 1

                         Standard orientation:
 ---------------------------------------------------------------------
 Center     Atomic      Atomic             Coordinates (Angstroms)
 Number     Number       Type             X           Y           Z
 ---------------------------------------------------------------------
      1          6           0        1.021460    0.038369    0.000000
      2          6           0        0.640074   -1.308976    0.000000
      3          6           0        0.000000    0.987794    0.000000
      4          6           0       -1.528760   -0.650022    0.000000
      5          6           0        1.636021   -2.424461    0.000000
      6          7           0       -0.656618   -1.639019    0.000000
      7          7           0       -1.273552    0.646231    0.000000
      8         17           0        2.695285    0.484019    0.000000
      9         17           0        0.352375    2.685355    0.000000
     10         17           0       -3.211246   -1.098954    0.000000
     11          1           0        2.284076   -2.364524    0.875642
     12          1           0        1.111227   -3.374788    0.000000
     13          1           0        2.284076   -2.364524   -0.875642
 ---------------------------------------------------------------------

 SCF Done:  E(RHF) =  -1680.64816127     A.U. after    2 cycles

 The electronic state is 1-A'.
 Alpha  occ. eigenvalues --  -99.92430 -99.92413 -99.91165 -15.78122 -15.77454
 Alpha  occ. eigenvalues --  -11.55202 -11.53993 -11.52067 -11.46587 -11.41226
 Alpha  occ. eigenvalues --  -10.49888 -10.49854 -10.48609  -9.70022  -9.69759
 Alpha  occ. eigenvalues --   -9.69067  -9.68862  -9.68784  -9.68739  -9.68610
 Alpha  occ. eigenvalues --   -9.67703  -9.67520  -1.59205  -1.41343  -1.38732
 Alpha  occ. eigenvalues --   -1.33683  -1.30413  -1.16796  -1.09126  -0.94457
 Alpha  occ. eigenvalues --   -0.91648  -0.74996  -0.74269  -0.68817  -0.68129
 Alpha  occ. eigenvalues --   -0.63835  -0.60512  -0.59586  -0.58596  -0.56660
 Alpha  occ. eigenvalues --   -0.56383  -0.54444  -0.52348  -0.51813  -0.51767
 Alpha  occ. eigenvalues --   -0.48121  -0.42624  -0.38471  -0.38286
 Alpha virt. eigenvalues --    0.02873   0.05461   0.05980   0.06181   0.06420
 Alpha virt. eigenvalues --    0.06652   0.07239   0.07866   0.08133   0.09499
 Alpha virt. eigenvalues --    0.09992   0.11055   0.11484   0.12115   0.12416

 Mulliken charges:
               1
     1  C    1.202853
     2  C    5.477233
     3  C   -0.497603
     4  C    1.589360
     5  C   -4.213676
     6  N   -3.555642
     7  N   -3.274741
     8  Cl  -0.520754
     9  Cl  -0.168244
    10  Cl   0.254898
    11  H    1.181796
    12  H    1.342724
    13  H    1.181796
 Sum of Mulliken charges =  -0.00000

 Dipole moment (field-independent basis, Debye):
    X=              1.7964    Y=             -1.6881    Z=             -0.0000  Tot=              2.4651

 Test job not archived.
 1\1\GINC-SE270\SP\RHF\Aug-CC-pVDZ\C5H3Cl3N2\OHZDE\06-Apr-2025\0\\#t hf
  aug-cc-pvdz iop(5/13=1,5/36=2,99/5=2) pseudo=read geom=check guess=(r
 ead,tcheck) scf=(maxcycle=1)\\title\\0,1\C,0,1.02146,0.038369,0.\C,0,0
 .640074,-1.308976,0.\C,0,0.,0.987794,0.\C,0,-1.52876,-0.650022,0.\C,0,
 1.636021,-2.424461,0.\N,0,-0.656618,-1.639019,0.\N,0,-1.273552,0.64623
 1,0.\Cl,0,2.695285,0.484019,0.\Cl,0,0.352375,2.685355,0.\Cl,0,-3.21124
 6,-1.098954,0.\H,0,2.284076,-2.364524,0.875642\H,0,1.111227,-3.374788,
 0.\H,0,2.284076,-2.364524,-0.875642\\Version=ES64L-G16RevC.01\State=1-

 Normal termination of Gaussian 16 at Sun Apr  6 08:01:24 2025.
