 Gaussian 16, Revision C.01,

 ----------------------------------------------------------------------
 #t hf aug-cc-pvdz symm=none int=(grid=ultrafine) guess=(read,tcheck) s
 table=(opt,rrhf)
 ----------------------------------------------------------------------
 -----
 title
 -----
 Symbolic Z-matrix:
 Charge =  0 Multiplicity = 1

 SCF Done:  E(RHF) =  -734.807319401     A.U. after   17 cycles
 Normal termination of Gaussian 16 at Sun Apr  6 08:00:57 2025.
 Gaussian 16:  ES64L-G16RevC.01  3-Jul-2019

 ----------------------------------------------------------------------
 #t hf aug-cc-pvdz iop(5/13=1,5/36=2,99/5=2) pseudo=read geom=check gue
 ss=(read,tcheck) scf=(maxcycle=1)
 ----------------------------------------------------------------------
 -----
 title
 -----
 Structure from the checkpoint file:  "2-4-dicyanothiophene.chk"
 Charge =  0 Multiplicity = 1

                         Standard orientation:
 ---------------------------------------------------------------------
 Center     Atomic      Atomic             Coordinates (Angstroms)
 Number     Number       Type             X           Y           Z
 ---------------------------------------------------------------------
      1         16           0       -0.785680    1.458954   -0.000008
      2          7           0       -3.431367   -1.222926    0.000007
      3          7           0        3.697033   -0.916364    0.000004
      4          6           0       -1.052269   -0.263674    0.000002
      5          6           0        1.258799   -0.088174    0.000000
      6          6           0        0.130306   -0.953110    0.000005
      7          6           0        0.907286    1.241520   -0.000007
      8          6           0       -2.359652   -0.797434    0.000005
      9          6           0        2.606930   -0.544009    0.000002
     10          1           0        0.193528   -2.029602    0.000011
     11          1           0        1.569280    2.090663   -0.000012
 ---------------------------------------------------------------------

 SCF Done:  E(RHF) =  -736.542318358     A.U. after    2 cycles

 The electronic state is 1-A.
 Alpha  occ. eigenvalues --  -75.77661 -15.78901 -15.78509 -13.24392 -13.22034
 Alpha  occ. eigenvalues --  -13.09441 -11.55689 -11.52289 -11.50001 -11.47053
 Alpha  occ. eigenvalues --  -11.46616 -11.44695  -8.12136  -1.46213  -1.33579
 Alpha  occ. eigenvalues --   -1.31115  -1.16181  -1.13912  -0.93285  -0.89968
 Alpha  occ. eigenvalues --   -0.79937  -0.68577  -0.60762  -0.60076  -0.58838
 Alpha  occ. eigenvalues --   -0.54384  -0.53795  -0.52378  -0.47636  -0.46109
 Alpha  occ. eigenvalues --   -0.45721  -0.42411  -0.36068  -0.31826
 Alpha virt. eigenvalues --    0.01672   0.04634   0.05867   0.05988   0.06621
 Alpha virt. eigenvalues --    0.07891   0.08913   0.09196   0.10951   0.11146
 Alpha virt. eigenvalues --    0.11384   0.11759   0.11877   0.12448   0.12886

 Mulliken charges:
               1
     1  S    1.665887
     2  N   -2.310332
     3  N   -2.328895
     4  C    2.673596
     5  C    4.981501
     6  C   -5.578135
     7  C   -4.755664
     8  C    1.048845
     9  C    1.551189
    10  H    1.670179
    11  H    1.381830
 Sum of Mulliken charges =   0.00000

 Dipole moment (field-independent basis, Debye):
    X=             -1.4281    Y=              4.6533    Z=             -0.0000  Tot=              4.8675

 Test job not archived.
 1\1\GINC-SE261\SP\RHF\Aug-CC-pVDZ\C6H2N2S1\OHZDE\06-Apr-2025\0\\#t hf
 aug-cc-pvdz iop(5/13=1,5/36=2,99/5=2) pseudo=read geom=check guess=(re
 ad,tcheck) scf=(maxcycle=1)\\title\\0,1\S,0,-0.78568,1.458954,-0.00000
 8\N,0,-3.431367,-1.222926,0.000007\N,0,3.697033,-0.916364,0.000004\C,0
 ,-1.052269,-0.263674,0.000002\C,0,1.258799,-0.088174,0.\C,0,0.130306,-
 0.95311,0.000005\C,0,0.907286,1.24152,-0.000007\C,0,-2.359652,-0.79743
 4,0.000005\C,0,2.60693,-0.544009,0.000002\H,0,0.193528,-2.029602,0.000
 011\H,0,1.56928,2.090663,-0.000012\\Version=ES64L-G16RevC.01\State=1-A

 Normal termination of Gaussian 16 at Sun Apr  6 08:01:15 2025.
