 Gaussian 16, Revision C.01,

 ----------------------------------------------------------------------
 #t hf aug-cc-pvdz symm=none int=(grid=ultrafine) guess=(read,tcheck) s
 table=(opt,rrhf)
 ----------------------------------------------------------------------
 -----
 title
 -----
 Symbolic Z-matrix:
 Charge =  0 Multiplicity = 1

 SCF Done:  E(RHF) =  -230.612748744     A.U. after   11 cycles
 Normal termination of Gaussian 16 at Sun Apr  6 08:01:21 2025.
 Gaussian 16:  ES64L-G16RevC.01  3-Jul-2019

 ----------------------------------------------------------------------
 #t hf aug-cc-pvdz iop(5/13=1,5/36=2,99/5=2) pseudo=read geom=check gue
 ss=(read,tcheck) scf=(maxcycle=1)
 ----------------------------------------------------------------------
 -----
 title
 -----
 Structure from the checkpoint file:  "2-4-hexadiyne.chk"
 Charge =  0 Multiplicity = 1

                         Standard orientation:
 ---------------------------------------------------------------------
 Center     Atomic      Atomic             Coordinates (Angstroms)
 Number     Number       Type             X           Y           Z
 ---------------------------------------------------------------------
      1          6           0        0.000000    0.681952    0.000000
      2          6           0       -0.000000   -0.681952    0.000000
      3          6           0        0.000000    1.889462    0.000000
      4          6           0       -0.000000   -1.889462    0.000000
      5          6           0        0.000000    3.341026    0.000000
      6          6           0       -0.000000   -3.341026    0.000000
      7          1           0        0.000000    3.732419    1.019522
      8          1           0        0.882932    3.732419   -0.509761
      9          1           0       -0.882932    3.732419   -0.509761
     10          1           0       -0.000000   -3.732419    1.019522
     11          1           0       -0.882932   -3.732419   -0.509761
     12          1           0        0.882932   -3.732419   -0.509761
 ---------------------------------------------------------------------

 SCF Done:  E(RHF) =  -231.726907364     A.U. after    2 cycles

 The electronic state is 1-A1.
 Alpha  occ. eigenvalues --  -11.47415 -11.45312 -11.45239 -11.40795 -11.40617
 Alpha  occ. eigenvalues --  -11.39738  -1.22029  -1.15766  -1.06238  -0.96510
 Alpha  occ. eigenvalues --   -0.78706  -0.62328  -0.59276  -0.59276  -0.58777
 Alpha  occ. eigenvalues --   -0.58777  -0.58235  -0.44311  -0.44311  -0.30663
 Alpha  occ. eigenvalues --   -0.30663
 Alpha virt. eigenvalues --    0.02575   0.04138   0.06360   0.06360   0.06943
 Alpha virt. eigenvalues --    0.06943   0.07620   0.09491   0.11402   0.13014
 Alpha virt. eigenvalues --    0.13770   0.13770   0.13843   0.15419   0.15419

 Mulliken charges:
               1
     1  C    5.743057
     2  C    5.743057
     3  C   -2.042435
     4  C   -2.042435
     5  C   -5.580878
     6  C   -5.580878
     7  H    0.626752
     8  H    0.626752
     9  H    0.626752
    10  H    0.626752
    11  H    0.626752
    12  H    0.626752
 Sum of Mulliken charges =   0.00000

 Dipole moment (field-independent basis, Debye):
    X=              0.0000    Y=             -0.0000    Z=              0.0000  Tot=              0.0000

 Test job not archived.
 1\1\GINC-SE101\SP\RHF\Aug-CC-pVDZ\C6H6\OHZDE\06-Apr-2025\0\\#t hf aug-
 cc-pvdz iop(5/13=1,5/36=2,99/5=2) pseudo=read geom=check guess=(read,t
 check) scf=(maxcycle=1)\\title\\0,1\C,0,0.,0.,0.681952\C,0,0.,0.,-0.68
 1952\C,0,0.,0.,1.889462\C,0,0.,0.,-1.889462\C,0,0.,0.,3.341026\C,0,0.,
 0.,-3.341026\H,0,0.,1.019522,3.732419\H,0,-0.882932,-0.509761,3.732419
 \H,0,0.882932,-0.509761,3.732419\H,0,0.,1.019522,-3.732419\H,0,0.88293
 2,-0.509761,-3.732419\H,0,-0.882932,-0.509761,-3.732419\\Version=ES64L
 -G16RevC.01\State=1-A1\HF=-231.7269074\RMSD=8.209e+00\Dipole=0.,0.,0.\

 Normal termination of Gaussian 16 at Sun Apr  6 08:01:26 2025.
