 Gaussian 16, Revision C.01,

 ----------------------------------------------------------------------
 #t hf aug-cc-pvdz symm=none int=(grid=ultrafine) guess=(read,tcheck) s
 table=(opt,rrhf)
 ----------------------------------------------------------------------
 -----
 title
 -----
 Symbolic Z-matrix:
 Charge =  0 Multiplicity = 1

 SCF Done:  E(RHF) =  -460.474326291     A.U. after   14 cycles
 Normal termination of Gaussian 16 at Sun Apr  6 08:01:25 2025.
 Gaussian 16:  ES64L-G16RevC.01  3-Jul-2019

 ----------------------------------------------------------------------
 #t hf aug-cc-pvdz iop(5/13=1,5/36=2,99/5=2) pseudo=read geom=check gue
 ss=(read,tcheck) scf=(maxcycle=1)
 ----------------------------------------------------------------------
 -----
 title
 -----
 Structure from the checkpoint file:  "2-4-difluoropyrimidine.chk"
 Charge =  0 Multiplicity = 1

                         Standard orientation:
 ---------------------------------------------------------------------
 Center     Atomic      Atomic             Coordinates (Angstroms)
 Number     Number       Type             X           Y           Z
 ---------------------------------------------------------------------
      1          9           0        2.232197   -0.973360   -0.000000
      2          9           0       -2.243497   -1.002072   -0.000000
      3          7           0       -0.001263   -1.004142   -0.000000
      4          7           0        1.229175    1.028037    0.000001
      5          6           0        1.103378   -0.278453   -0.000000
      6          6           0       -1.109868   -0.306047   -0.000000
      7          6           0       -1.160118    1.080797    0.000001
      8          6           0        0.074651    1.704920    0.000001
      9          1           0       -2.093703    1.619545    0.000001
     10          1           0        0.151767    2.784779    0.000002
 ---------------------------------------------------------------------

 SCF Done:  E(RHF) =  -462.324264077     A.U. after    2 cycles

 The electronic state is 1-A.
 Alpha  occ. eigenvalues --  -29.32624 -29.31420 -15.77632 -15.76994 -11.56217
 Alpha  occ. eigenvalues --  -11.53354 -11.49863 -11.42832  -1.58991  -1.37794
 Alpha  occ. eigenvalues --   -1.26379  -1.04053  -1.03341  -0.87826  -0.73868
 Alpha  occ. eigenvalues --   -0.71084  -0.66745  -0.66208  -0.62407  -0.52122
 Alpha  occ. eigenvalues --   -0.47632  -0.45204  -0.43439  -0.41169  -0.38380
 Alpha  occ. eigenvalues --   -0.32187  -0.31479  -0.29420  -0.27776
 Alpha virt. eigenvalues --    0.03102   0.05118   0.08840   0.09226   0.09732
 Alpha virt. eigenvalues --    0.10312   0.10777   0.11479   0.11555   0.12736
 Alpha virt. eigenvalues --    0.13076   0.13235   0.15395   0.15559   0.15771

 Mulliken charges:
               1
     1  F    1.012369
     2  F    0.970985
     3  N   -3.482125
     4  N   -3.368438
     5  C    1.935091
     6  C    1.884003
     7  C   -1.973957
     8  C    0.002695
     9  H    1.463434
    10  H    1.555943
 Sum of Mulliken charges =   0.00000

 Dipole moment (field-independent basis, Debye):
    X=             -1.6957    Y=             -1.1562    Z=             -0.0000  Tot=              2.0524

 Test job not archived.
 1\1\GINC-SE014\SP\RHF\Aug-CC-pVDZ\C4H2F2N2\OHZDE\06-Apr-2025\0\\#t hf
 aug-cc-pvdz iop(5/13=1,5/36=2,99/5=2) pseudo=read geom=check guess=(re
 ad,tcheck) scf=(maxcycle=1)\\title\\0,1\F,0,2.232197,-0.97336,0.\F,0,-
 2.243497,-1.002072,0.\N,0,-0.001263,-1.004142,0.\N,0,1.229175,1.028037
 ,0.000001\C,0,1.103378,-0.278453,0.\C,0,-1.109868,-0.306047,0.\C,0,-1.
 160118,1.080797,0.000001\C,0,0.074651,1.70492,0.000001\H,0,-2.093703,1
 .619545,0.000001\H,0,0.151768,2.784779,0.000002\\Version=ES64L-G16RevC
 .01\State=1-A\HF=-462.3242641\RMSD=6.701e-01\Dipole=-0.6671489,-0.4548

 Normal termination of Gaussian 16 at Sun Apr  6 08:01:31 2025.
