 Gaussian 16, Revision C.01,

 ----------------------------------------------------------------------
 #t hf aug-cc-pvdz symm=none int=(grid=ultrafine) guess=(read,tcheck) s
 table=(opt,rrhf)
 ----------------------------------------------------------------------
 -----
 title
 -----
 Symbolic Z-matrix:
 Charge =  0 Multiplicity = 1

 SCF Done:  E(RHF) =  -411.999930281     A.U. after   15 cycles
 Normal termination of Gaussian 16 at Sun Apr  6 08:01:35 2025.
 Gaussian 16:  ES64L-G16RevC.01  3-Jul-2019

 ----------------------------------------------------------------------
 #t hf aug-cc-pvdz iop(5/13=1,5/36=2,99/5=2) pseudo=read geom=check gue
 ss=(read,tcheck) scf=(maxcycle=1)
 ----------------------------------------------------------------------
 -----
 title
 -----
 Structure from the checkpoint file:  "2-5-diethynyl-1-3-4-oxadiazole.chk"
 Charge =  0 Multiplicity = 1

                         Standard orientation:
 ---------------------------------------------------------------------
 Center     Atomic      Atomic             Coordinates (Angstroms)
 Number     Number       Type             X           Y           Z
 ---------------------------------------------------------------------
      1          8           0        0.000000   -0.687878    0.000070
      2          7           0        0.688992    1.412640   -0.000142
      3          7           0       -0.688992    1.412640   -0.000140
      4          6           0        1.060811    0.167259   -0.000017
      5          6           0       -1.060811    0.167259   -0.000015
      6          6           0        2.366481   -0.358061    0.000033
      7          6           0       -2.366481   -0.358061    0.000038
      8          6           0        3.480741   -0.800640    0.000075
      9          6           0       -3.480741   -0.800640    0.000084
     10          1           0        4.469667   -1.188310    0.000112
     11          1           0       -4.469667   -1.188310    0.000122
 ---------------------------------------------------------------------

 SCF Done:  E(RHF) =  -413.806865526     A.U. after    2 cycles

 The electronic state is 1-A.
 Alpha  occ. eigenvalues --  -21.16874 -15.78902 -15.78226 -11.54470 -11.53162
 Alpha  occ. eigenvalues --  -11.47755 -11.45926 -11.44629 -11.44204  -1.93077
 Alpha  occ. eigenvalues --   -1.50532  -1.27815  -1.15932  -1.10694  -0.93718
 Alpha  occ. eigenvalues --   -0.91144  -0.79403  -0.76243  -0.71887  -0.68057
 Alpha  occ. eigenvalues --   -0.63253  -0.57082  -0.49894  -0.44450  -0.43266
 Alpha  occ. eigenvalues --   -0.42860  -0.41940  -0.41424  -0.39298  -0.33202
 Alpha virt. eigenvalues --    0.02490   0.03857   0.07819   0.08145   0.08351
 Alpha virt. eigenvalues --    0.09689   0.10064   0.10287   0.10997   0.12764
 Alpha virt. eigenvalues --    0.12807   0.12932   0.13607   0.14328   0.14810

 Mulliken charges:
               1
     1  O   -3.328395
     2  N   -1.863604
     3  N   -1.863604
     4  C    4.440764
     5  C    4.440764
     6  C    2.581264
     7  C    2.581264
     8  C   -4.033940
     9  C   -4.033940
    10  H    0.539714
    11  H    0.539714
 Sum of Mulliken charges =   0.00000

 Dipole moment (field-independent basis, Debye):
    X=             -0.0000    Y=             -3.4470    Z=              0.0003  Tot=              3.4470

 Test job not archived.
 1\1\GINC-SE012\SP\RHF\Aug-CC-pVDZ\C6H2N2O1\OHZDE\06-Apr-2025\0\\#t hf
 aug-cc-pvdz iop(5/13=1,5/36=2,99/5=2) pseudo=read geom=check guess=(re
 ad,tcheck) scf=(maxcycle=1)\\title\\0,1\O,0,0.,0.687878,0.00007\N,0,-0
 .688992,-1.41264,-0.000142\N,0,0.688992,-1.41264,-0.00014\C,0,-1.06081
 1,-0.167259,-0.000017\C,0,1.060811,-0.167259,-0.000015\C,0,-2.366481,0
 .358061,0.000033\C,0,2.366481,0.358061,0.000038\C,0,-3.480741,0.80064,
 0.000075\C,0,3.480741,0.80064,0.000084\H,0,-4.469667,1.18831,0.000112\
 H,0,4.469667,1.18831,0.000122\\Version=ES64L-G16RevC.01\State=1-A\HF=-

 Normal termination of Gaussian 16 at Sun Apr  6 08:01:41 2025.
