 Gaussian 16, Revision C.01,

 ----------------------------------------------------------------------
 #t hf aug-cc-pvdz symm=none int=(grid=ultrafine) guess=(read,tcheck) s
 table=(opt,rrhf)
 ----------------------------------------------------------------------
 -----
 title
 -----
 Symbolic Z-matrix:
 Charge =  0 Multiplicity = 1

 SCF Done:  E(RHF) =  -305.580413112     A.U. after   14 cycles
 Normal termination of Gaussian 16 at Sun Apr  6 08:01:38 2025.
 Gaussian 16:  ES64L-G16RevC.01  3-Jul-2019

 ----------------------------------------------------------------------
 #t hf aug-cc-pvdz iop(5/13=1,5/36=2,99/5=2) pseudo=read geom=check gue
 ss=(read,tcheck) scf=(maxcycle=1)
 ----------------------------------------------------------------------
 -----
 title
 -----
 Structure from the checkpoint file:  "2-5-cyclohexadienone.chk"
 Charge =  0 Multiplicity = 1

                         Standard orientation:
 ---------------------------------------------------------------------
 Center     Atomic      Atomic             Coordinates (Angstroms)
 Number     Number       Type             X           Y           Z
 ---------------------------------------------------------------------
      1          6           0        0.000000   -0.000000    1.108167
      2          6           0        0.000000    1.252736    0.329165
      3          6           0        0.000000    1.253135   -1.006331
      4          6           0        0.000000    0.000000   -1.814407
      5          6           0       -0.000000   -1.253135   -1.006331
      6          6           0       -0.000000   -1.252736    0.329165
      7          8           0        0.000000   -0.000000    2.331070
      8          1           0        0.000000    2.170549    0.902157
      9          1           0        0.000000    2.189815   -1.551879
     10          1           0       -0.863698    0.000000   -2.492840
     11          1           0        0.863698   -0.000000   -2.492840
     12          1           0       -0.000000   -2.189815   -1.551879
     13          1           0       -0.000000   -2.170549    0.902157
 ---------------------------------------------------------------------

 SCF Done:  E(RHF) =  -306.979500434     A.U. after    2 cycles

 The electronic state is 1-A1.
 Alpha  occ. eigenvalues --  -21.03701 -11.52460 -11.46662 -11.45158 -11.43196
 Alpha  occ. eigenvalues --  -11.40277 -11.38583  -1.69282  -1.31892  -1.12090
 Alpha  occ. eigenvalues --   -1.07260  -0.87153  -0.86290  -0.71465  -0.65175
 Alpha  occ. eigenvalues --   -0.61992  -0.61824  -0.59553  -0.52646  -0.49906
 Alpha  occ. eigenvalues --   -0.46169  -0.46154  -0.37644  -0.32073  -0.27637
 Alpha virt. eigenvalues --    0.02732   0.04527   0.05012   0.05791   0.06384
 Alpha virt. eigenvalues --    0.06644   0.09726   0.10634   0.11258   0.11422
 Alpha virt. eigenvalues --    0.13118   0.13160   0.13429   0.13640   0.13825

 Mulliken charges:
               1
     1  C    3.344047
     2  C   -2.220171
     3  C    1.150372
     4  C   -5.685577
     5  C    1.150372
     6  C   -2.220171
     7  O   -3.830428
     8  H    1.605374
     9  H    1.335991
    10  H    1.214412
    11  H    1.214412
    12  H    1.335991
    13  H    1.605374
 Sum of Mulliken charges =   0.00000

 Dipole moment (field-independent basis, Debye):
    X=             -0.0000    Y=              0.0000    Z=             -3.1279  Tot=              3.1279

 Test job not archived.
 1\1\GINC-SE011\SP\RHF\Aug-CC-pVDZ\C6H6O1\OHZDE\06-Apr-2025\0\\#t hf au
 g-cc-pvdz iop(5/13=1,5/36=2,99/5=2) pseudo=read geom=check guess=(read
 ,tcheck) scf=(maxcycle=1)\\title\\0,1\C,0,0.,0.,1.108167\C,0,0.,1.2527
 36,0.329165\C,0,0.,1.253135,-1.006331\C,0,0.,0.,-1.814407\C,0,0.,-1.25
 3135,-1.006331\C,0,0.,-1.252736,0.329165\O,0,0.,0.,2.33107\H,0,0.,2.17
 0549,0.902157\H,0,0.,2.189815,-1.551879\H,0,-0.863698,0.,-2.49284\H,0,
 0.863698,0.,-2.49284\H,0,0.,-2.189815,-1.551879\H,0,0.,-2.170549,0.902
 157\\Version=ES64L-G16RevC.01\State=1-A1\HF=-306.9795004\RMSD=1.799e+0

 Normal termination of Gaussian 16 at Sun Apr  6 08:01:42 2025.
