 Gaussian 16, Revision C.01,

 ----------------------------------------------------------------------
 #t hf aug-cc-pvdz symm=none int=(grid=ultrafine) guess=(read,tcheck) s
 table=(opt,rrhf)
 ----------------------------------------------------------------------
 -----
 title
 -----
 Symbolic Z-matrix:
 Charge =  0 Multiplicity = 1

 SCF Done:  E(RHF) =  -244.425925324     A.U. after   15 cycles
 Normal termination of Gaussian 16 at Sun Apr  6 08:01:17 2025.
 Gaussian 16:  ES64L-G16RevC.01  3-Jul-2019

 ----------------------------------------------------------------------
 #t hf aug-cc-pvdz iop(5/13=1,5/36=2,99/5=2) pseudo=read geom=check gue
 ss=(read,tcheck) scf=(maxcycle=1)
 ----------------------------------------------------------------------
 -----
 title
 -----
 Structure from the checkpoint file:  "2-5-dihydro-1-2-oxazole.chk"
 Charge =  0 Multiplicity = 1

                         Standard orientation:
 ---------------------------------------------------------------------
 Center     Atomic      Atomic             Coordinates (Angstroms)
 Number     Number       Type             X           Y           Z
 ---------------------------------------------------------------------
      1          8           0        0.216353   -1.131231   -0.000019
      2          7           0       -1.034393   -0.361706    0.000007
      3          6           0        1.141200   -0.042904    0.000000
      4          6           0       -1.003507    0.912445    0.000005
      5          6           0        0.486279    1.267076   -0.000055
      6          1           0       -1.812095   -1.012001    0.000017
      7          1           0        1.788873   -0.112785    0.883419
      8          1           0        1.789317   -0.113123   -0.883034
 ---------------------------------------------------------------------

 SCF Done:  E(RHF) =  -245.480508430     A.U. after    2 cycles

 The electronic state is 1-A.
 Alpha  occ. eigenvalues --  -21.11270 -15.87248 -11.45169 -11.42392 -11.40038
 Alpha  occ. eigenvalues --   -1.84839  -1.34193  -1.15730  -0.90707  -0.78460
 Alpha  occ. eigenvalues --   -0.67398  -0.66418  -0.55716  -0.54107  -0.49498
 Alpha  occ. eigenvalues --   -0.35137  -0.33903  -0.33121
 Alpha virt. eigenvalues --    0.02843   0.03152   0.05190   0.06108   0.09023
 Alpha virt. eigenvalues --    0.09978   0.10333   0.11634   0.12362   0.14619
 Alpha virt. eigenvalues --    0.14911   0.16127   0.16802   0.17684   0.18030

 Mulliken charges:
               1
     1  O   -2.471351
     2  N   -0.319925
     3  C   -0.333506
     4  C    0.281039
     5  C   -0.826093
     6  H    0.881263
     7  H    1.394284
     8  H    1.394289
 Sum of Mulliken charges =   0.00000

 Dipole moment (field-independent basis, Debye):
    X=              0.9831    Y=             -4.8971    Z=              0.0001  Tot=              4.9948

 Test job not archived.
 1\1\GINC-SE208\SP\RHF\Aug-CC-pVDZ\C3H3N1O1\OHZDE\06-Apr-2025\0\\#t hf
 aug-cc-pvdz iop(5/13=1,5/36=2,99/5=2) pseudo=read geom=check guess=(re
 ad,tcheck) scf=(maxcycle=1)\\title\\0,1\O,0,0.216355,-1.131231,-0.0000
 19\N,0,-1.034393,-0.361708,0.000007\C,0,1.1412,-0.042903,0.\C,0,-1.003
 508,0.912444,0.000005\C,0,0.486277,1.267077,-0.000055\H,0,-1.812094,-1
 .012004,0.000017\H,0,1.788873,-0.112783,0.883419\H,0,1.789317,-0.11312
 1,-0.883034\\Version=ES64L-G16RevC.01\State=1-A\HF=-245.4805084\RMSD=1
 .884e-01\Dipole=0.386792,-1.9266793,0.0000429\Quadrupole=2.1035105,-4.

 Normal termination of Gaussian 16 at Sun Apr  6 08:01:21 2025.
