 Gaussian 16, Revision C.01,

 ----------------------------------------------------------------------
 #t hf aug-cc-pvdz symm=none int=(grid=ultrafine) guess=(read,tcheck) s
 table=(opt,rrhf)
 ----------------------------------------------------------------------
 -----
 title
 -----
 Symbolic Z-matrix:
 Charge =  0 Multiplicity = 1

 SCF Done:  E(RHF) =  -702.158571154     A.U. after   13 cycles
 Normal termination of Gaussian 16 at Sun Apr  6 08:01:44 2025.
 Gaussian 16:  ES64L-G16RevC.01  3-Jul-2019

 ----------------------------------------------------------------------
 #t hf aug-cc-pvdz iop(5/13=1,5/36=2,99/5=2) pseudo=read geom=check gue
 ss=(read,tcheck) scf=(maxcycle=1)
 ----------------------------------------------------------------------
 -----
 title
 -----
 Structure from the checkpoint file:  "2-5-dihydrothiophene-1-1-dioxide.chk"
 Charge =  0 Multiplicity = 1

                         Standard orientation:
 ---------------------------------------------------------------------
 Center     Atomic      Atomic             Coordinates (Angstroms)
 Number     Number       Type             X           Y           Z
 ---------------------------------------------------------------------
      1          8           0        1.270824   -1.445451   -0.000000
      2         16           0        0.002229   -0.724554   -0.000000
      3          8           0       -1.257213   -1.461278   -0.000000
      4          6           0       -0.004596    0.507527    1.362305
      5          6           0       -0.004596    1.830288    0.665220
      6          6           0       -0.004596    1.830288   -0.665220
      7          6           0       -0.004596    0.507527   -1.362305
      8          1           0        0.883848    0.328649    1.967200
      9          1           0       -0.896445    0.325784    1.961332
     10          1           0       -0.004535    2.742025    1.247250
     11          1           0       -0.004535    2.742025   -1.247250
     12          1           0        0.883848    0.328649   -1.967200
     13          1           0       -0.896445    0.325784   -1.961332
 ---------------------------------------------------------------------

 SCF Done:  E(RHF) =  -703.804190481     A.U. after    2 cycles

 The electronic state is 1-A'.
 Alpha  occ. eigenvalues --  -75.87924 -21.04075 -21.04030 -13.49357 -13.42650
 Alpha  occ. eigenvalues --  -13.33324 -11.48497 -11.46218 -11.44286 -11.40759
 Alpha  occ. eigenvalues --   -8.22861  -1.81720  -1.63899  -1.32994  -1.11502
 Alpha  occ. eigenvalues --   -1.05099  -0.87088  -0.81385  -0.71753  -0.66054
 Alpha  occ. eigenvalues --   -0.63122  -0.57308  -0.55244  -0.54097  -0.53998
 Alpha  occ. eigenvalues --   -0.43585  -0.38087  -0.37821  -0.37182  -0.34390
 Alpha  occ. eigenvalues --   -0.34389
 Alpha virt. eigenvalues --    0.02373   0.04418   0.05170   0.05792   0.05843
 Alpha virt. eigenvalues --    0.06150   0.09468   0.10795   0.11168   0.12701
 Alpha virt. eigenvalues --    0.12955   0.13272   0.13645   0.14037   0.14598

 Mulliken charges:
               1
     1  O   -2.731064
     2  S    7.244218
     3  O   -2.730695
     4  C   -5.044855
     5  C    0.054416
     6  C    0.054416
     7  C   -5.044855
     8  H    1.336948
     9  H    1.336903
    10  H    1.425358
    11  H    1.425358
    12  H    1.336948
    13  H    1.336903
 Sum of Mulliken charges =  -0.00000

 Dipole moment (field-independent basis, Debye):
    X=             -0.0151    Y=              2.7756    Z=              0.0000  Tot=              2.7757

 Test job not archived.
 1\1\GINC-SE047\SP\RHF\Aug-CC-pVDZ\C4H6O2S1\OHZDE\06-Apr-2025\0\\#t hf
 aug-cc-pvdz iop(5/13=1,5/36=2,99/5=2) pseudo=read geom=check guess=(re
 ad,tcheck) scf=(maxcycle=1)\\title\\0,1\O,0,1.270824,-1.445451,0.\S,0,
 0.002229,-0.724554,0.\O,0,-1.257213,-1.461278,0.\C,0,-0.004596,0.50752
 7,1.362305\C,0,-0.004596,1.830288,0.66522\C,0,-0.004596,1.830288,-0.66
 522\C,0,-0.004596,0.507527,-1.362305\H,0,0.883848,0.328649,1.9672\H,0,
 -0.896445,0.325784,1.961332\H,0,-0.004535,2.742025,1.24725\H,0,-0.0045
 35,2.742025,-1.24725\H,0,0.883848,0.328649,-1.9672\H,0,-0.896445,0.325

 Normal termination of Gaussian 16 at Sun Apr  6 08:01:57 2025.
