 Gaussian 16, Revision C.01,

 ----------------------------------------------------------------------
 #t hf aug-cc-pvdz symm=none int=(grid=ultrafine) guess=(read,tcheck) s
 table=(opt,rrhf)
 ----------------------------------------------------------------------
 -----
 title
 -----
 Symbolic Z-matrix:
 Charge =  0 Multiplicity = 1

 SCF Done:  E(RHF) =  -627.370231880     A.U. after   14 cycles
 Normal termination of Gaussian 16 at Sun Apr  6 08:00:56 2025.
 Gaussian 16:  ES64L-G16RevC.01  3-Jul-2019

 ----------------------------------------------------------------------
 #t hf aug-cc-pvdz iop(5/13=1,5/36=2,99/5=2) pseudo=read geom=check gue
 ss=(read,tcheck) scf=(maxcycle=1)
 ----------------------------------------------------------------------
 -----
 title
 -----
 Structure from the checkpoint file:  "2-5-dihydrothiophene-3-ol.chk"
 Charge =  0 Multiplicity = 1

                         Standard orientation:
 ---------------------------------------------------------------------
 Center     Atomic      Atomic             Coordinates (Angstroms)
 Number     Number       Type             X           Y           Z
 ---------------------------------------------------------------------
      1         16           0        0.486424   -1.562232    0.000000
      2          6           0        1.185552    0.135916    0.000000
      3          6           0        0.000000    1.049246    0.000000
      4          6           0       -1.213614    0.503766    0.000000
      5          6           0       -1.274556   -0.989952    0.000000
      6          8           0        0.322895    2.373917    0.000000
      7          1           0        1.804678    0.296812    0.883239
      8          1           0       -2.125549    1.088447    0.000000
      9          1           0       -1.777269   -1.389274   -0.882273
     10          1           0        1.804678    0.296812   -0.883239
     11          1           0       -1.777269   -1.389274    0.882273
     12          1           0       -0.479502    2.906985    0.000000
 ---------------------------------------------------------------------

 SCF Done:  E(RHF) =  -628.659189202     A.U. after    2 cycles

 The electronic state is 1-A'.
 Alpha  occ. eigenvalues --  -75.66991 -21.11198 -13.11396 -13.09667 -13.00222
 Alpha  occ. eigenvalues --  -11.48170 -11.42533 -11.41897 -11.37919  -8.01021
 Alpha  occ. eigenvalues --   -1.76323  -1.30330  -1.07542  -1.04331  -0.87072
 Alpha  occ. eigenvalues --   -0.77706  -0.67089  -0.63269  -0.59858  -0.58935
 Alpha  occ. eigenvalues --   -0.51094  -0.46779  -0.44292  -0.43484  -0.35882
 Alpha  occ. eigenvalues --   -0.28993  -0.21874
 Alpha virt. eigenvalues --    0.03034   0.04678   0.05447   0.05957   0.06190
 Alpha virt. eigenvalues --    0.06755   0.08015   0.10643   0.11831   0.13033
 Alpha virt. eigenvalues --    0.14234   0.14442   0.14746   0.15019   0.15304

 Mulliken charges:
               1
     1  S    1.551853
     2  C   -4.785578
     3  C    5.870280
     4  C   -2.144145
     5  C   -4.308100
     6  O   -3.945907
     7  H    1.331519
     8  H    1.545386
     9  H    1.288593
    10  H    1.331519
    11  H    1.288593
    12  H    0.975987
 Sum of Mulliken charges =  -0.00000

 Dipole moment (field-independent basis, Debye):
    X=             -0.2216    Y=              0.4558    Z=              0.0000  Tot=              0.5068

 Test job not archived.
 1\1\GINC-SE046\SP\RHF\Aug-CC-pVDZ\C4H6O1S1\OHZDE\06-Apr-2025\0\\#t hf
 aug-cc-pvdz iop(5/13=1,5/36=2,99/5=2) pseudo=read geom=check guess=(re
 ad,tcheck) scf=(maxcycle=1)\\title\\0,1\S,0,0.486424,-1.562232,0.\C,0,
 1.185552,0.135916,0.\C,0,0.,1.049246,0.\C,0,-1.213614,0.503766,0.\C,0,
 -1.274556,-0.989952,0.\O,0,0.322895,2.373917,0.\H,0,1.804678,0.296812,
 0.883239\H,0,-2.125549,1.088447,0.\H,0,-1.777269,-1.389274,-0.882273\H
 ,0,1.804678,0.296812,-0.883239\H,0,-1.777269,-1.389274,0.882273\H,0,-0
 .479502,2.906985,0.\\Version=ES64L-G16RevC.01\State=1-A'\HF=-628.65918

 Normal termination of Gaussian 16 at Sun Apr  6 08:01:14 2025.
