 Gaussian 16, Revision C.01,

 ----------------------------------------------------------------------
 #t hf aug-cc-pvdz symm=none int=(grid=ultrafine) guess=(read,tcheck) s
 table=(opt,rrhf)
 ----------------------------------------------------------------------
 -----
 title
 -----
 Symbolic Z-matrix:
 Charge =  0 Multiplicity = 1

 SCF Done:  E(RHF) =  -383.682321754     A.U. after   15 cycles

 1\1\GINC-SE108\Stability\RHF\Aug-CC-pVDZ\C8H10O1\OHZDE\06-Apr-2025\0\\
 #t hf aug-cc-pvdz symm=none int=(grid=ultrafine) guess=(read,tcheck) s
 table=(opt,rrhf)\\title\\0,1\C,0,1.129531,-1.313585,-0.00856\C,0,-0.23
 851,-1.556011,-0.001692\C,0,0.696232,1.03898,-0.007975\C,0,1.61563,-0.
 006887,-0.009477\C,0,-1.168888,-0.520347,0.002959\C,0,-0.670298,0.7883
 04,-0.000863\C,0,3.095047,0.276324,0.010869\C,0,-2.651007,-0.783942,0.
 006802\O,0,-1.498806,1.880695,-0.001109\H,0,1.821316,-2.145686,-0.0152
 81\H,0,-0.597329,-2.578032,-0.002925\H,0,1.028405,2.069063,-0.014268\H

 Normal termination of Gaussian 16 at Sun Apr  6 08:02:34 2025.
 Gaussian 16:  ES64L-G16RevC.01  3-Jul-2019

 ----------------------------------------------------------------------
 #t hf aug-cc-pvdz iop(5/13=1,5/36=2,99/5=2) pseudo=read geom=check gue
 ss=(read,tcheck) scf=(maxcycle=1)
 ----------------------------------------------------------------------
 -----
 title
 -----
 Structure from the checkpoint file:  "2-5-dimethylphenol.chk"
 Charge =  0 Multiplicity = 1

                         Standard orientation:
 ---------------------------------------------------------------------
 Center     Atomic      Atomic             Coordinates (Angstroms)
 Number     Number       Type             X           Y           Z
 ---------------------------------------------------------------------
      1          6           0        1.129531   -1.313585   -0.008560
      2          6           0       -0.238510   -1.556011   -0.001692
      3          6           0        0.696232    1.038980   -0.007975
      4          6           0        1.615630   -0.006887   -0.009477
      5          6           0       -1.168888   -0.520347    0.002959
      6          6           0       -0.670298    0.788304   -0.000863
      7          6           0        3.095047    0.276324    0.010869
      8          6           0       -2.651007   -0.783942    0.006802
      9          8           0       -1.498806    1.880695   -0.001109
     10          1           0        1.821316   -2.145686   -0.015281
     11          1           0       -0.597329   -2.578032   -0.002925
     12          1           0        1.028405    2.069063   -0.014268
     13          1           0        3.349610    1.113290   -0.640203
     14          1           0        3.430665    0.535881    1.018029
     15          1           0        3.668352   -0.591678   -0.312831
     16          1           0       -3.141766   -0.362979    0.890092
     17          1           0       -3.146115   -0.365455   -0.875291
     18          1           0       -2.851563   -1.853728    0.008728
     19          1           0       -2.417548    1.596761    0.000440
 ---------------------------------------------------------------------

 SCF Done:  E(RHF) =  -385.506270575     A.U. after    2 cycles

 The electronic state is 1-A.
 Alpha  occ. eigenvalues --  -21.09686 -11.50989 -11.45864 -11.42922 -11.42571
 Alpha  occ. eigenvalues --  -11.40262 -11.39915 -11.38277 -11.35484  -1.75225
 Alpha  occ. eigenvalues --   -1.33710  -1.17467  -1.06829  -1.05633  -0.95221
 Alpha  occ. eigenvalues --   -0.85779  -0.81484  -0.66967  -0.66084  -0.62425
 Alpha  occ. eigenvalues --   -0.59360  -0.58833  -0.57024  -0.56035  -0.52279
 Alpha  occ. eigenvalues --   -0.51033  -0.50646  -0.46847  -0.42898  -0.41646
 Alpha  occ. eigenvalues --   -0.40517  -0.31394  -0.26335
 Alpha virt. eigenvalues --    0.03414   0.04805   0.05067   0.05409   0.05496
 Alpha virt. eigenvalues --    0.06784   0.07094   0.07365   0.07820   0.08640
 Alpha virt. eigenvalues --    0.10140   0.11626   0.12096   0.12339   0.12995

 Mulliken charges:
               1
     1  C   -3.557495
     2  C   -0.824915
     3  C   -3.781274
     4  C    3.793687
     5  C    0.454009
     6  C    6.403159
     7  C   -5.872589
     8  C   -5.271218
     9  O   -4.792386
    10  H    1.853808
    11  H    1.824004
    12  H    1.984420
    13  H    1.078596
    14  H    1.091451
    15  H    1.231695
    16  H    0.993275
    17  H    0.994784
    18  H    1.222290
    19  H    1.174699
 Sum of Mulliken charges =   0.00000

 Dipole moment (field-independent basis, Debye):
    X=             -0.6900    Y=             -0.1917    Z=              0.0292  Tot=              0.7167

 Test job not archived.
 1\1\GINC-SE108\SP\RHF\Aug-CC-pVDZ\C8H10O1\OHZDE\06-Apr-2025\0\\#t hf a
 ug-cc-pvdz iop(5/13=1,5/36=2,99/5=2) pseudo=read geom=check guess=(rea
 d,tcheck) scf=(maxcycle=1)\\title\\0,1\C,0,1.129531,-1.313585,-0.00856
 \C,0,-0.23851,-1.556011,-0.001692\C,0,0.696232,1.03898,-0.007975\C,0,1
 .61563,-0.006887,-0.009477\C,0,-1.168888,-0.520347,0.002959\C,0,-0.670
 298,0.788304,-0.000863\C,0,3.095047,0.276324,0.010869\C,0,-2.651007,-0
 .783942,0.006802\O,0,-1.498806,1.880695,-0.001109\H,0,1.821316,-2.1456
 86,-0.015281\H,0,-0.597329,-2.578032,-0.002925\H,0,1.028405,2.069063,-

 Normal termination of Gaussian 16 at Sun Apr  6 08:02:54 2025.
