 Gaussian 16, Revision C.01,

 ----------------------------------------------------------------------
 #t hf aug-cc-pvdz symm=none int=(grid=ultrafine) guess=(read,tcheck) s
 table=(opt,rrhf)
 ----------------------------------------------------------------------
 -----
 title
 -----
 Symbolic Z-matrix:
 Charge =  0 Multiplicity = 1

 SCF Done:  E(RHF) =  -552.494918841     A.U. after   12 cycles
 Normal termination of Gaussian 16 at Sun Apr  6 08:01:18 2025.
 Gaussian 16:  ES64L-G16RevC.01  3-Jul-2019

 ----------------------------------------------------------------------
 #t hf aug-cc-pvdz iop(5/13=1,5/36=2,99/5=2) pseudo=read geom=check gue
 ss=(read,tcheck) scf=(maxcycle=1)
 ----------------------------------------------------------------------
 -----
 title
 -----
 Structure from the checkpoint file:  "2-5-dihydrothiophene.chk"
 Charge =  0 Multiplicity = 1

                         Standard orientation:
 ---------------------------------------------------------------------
 Center     Atomic      Atomic             Coordinates (Angstroms)
 Number     Number       Type             X           Y           Z
 ---------------------------------------------------------------------
      1         16           0        0.000000    0.000000    1.252467
      2          6           0        0.000000    1.350899   -0.004471
      3          6           0       -0.000000   -1.350899   -0.004471
      4          6           0        0.000000    0.662535   -1.335066
      5          6           0       -0.000000   -0.662535   -1.335066
      6          1           0       -0.881617    1.980110    0.130213
      7          1           0        0.881617    1.980110    0.130213
      8          1           0        0.881617   -1.980110    0.130213
      9          1           0       -0.881617   -1.980110    0.130213
     10          1           0        0.000000    1.252912   -2.242943
     11          1           0       -0.000000   -1.252912   -2.242943
 ---------------------------------------------------------------------

 SCF Done:  E(RHF) =  -553.493341479     A.U. after    2 cycles

 The electronic state is 1-A1.
 Alpha  occ. eigenvalues --  -75.66607 -13.10545 -13.08477 -12.99783 -11.44753
 Alpha  occ. eigenvalues --  -11.41960 -11.41326 -11.37401  -8.00650  -1.32290
 Alpha  occ. eigenvalues --   -1.06527  -1.06359  -0.86003  -0.76757  -0.68594
 Alpha  occ. eigenvalues --   -0.61855  -0.58466  -0.51433  -0.50125  -0.43083
 Alpha  occ. eigenvalues --   -0.35738  -0.35021  -0.21676
 Alpha virt. eigenvalues --    0.03047   0.04880   0.05481   0.05918   0.06188
 Alpha virt. eigenvalues --    0.06584   0.07805   0.11824   0.12624   0.12690
 Alpha virt. eigenvalues --    0.14421   0.14513   0.14631   0.15142   0.15291

 Mulliken charges:
               1
     1  S    1.442997
     2  C   -4.569347
     3  C   -4.569347
     4  C   -0.132118
     5  C   -0.132118
     6  H    1.279382
     7  H    1.279382
     8  H    1.279382
     9  H    1.279382
    10  H    1.421203
    11  H    1.421203
 Sum of Mulliken charges =  -0.00000

 Dipole moment (field-independent basis, Debye):
    X=             -0.0000    Y=             -0.0000    Z=             -0.1090  Tot=              0.1090

 Test job not archived.
 1\1\GINC-SE107\SP\RHF\Aug-CC-pVDZ\C4H6S1\OHZDE\06-Apr-2025\0\\#t hf au
 g-cc-pvdz iop(5/13=1,5/36=2,99/5=2) pseudo=read geom=check guess=(read
 ,tcheck) scf=(maxcycle=1)\\title\\0,1\S,0,0.,0.,1.252467\C,0,0.,1.3508
 99,-0.004471\C,0,0.,-1.350899,-0.004471\C,0,0.,0.662535,-1.335066\C,0,
 0.,-0.662535,-1.335066\H,0,-0.881617,1.98011,0.130213\H,0,0.881617,1.9
 8011,0.130213\H,0,0.881617,-1.98011,0.130213\H,0,-0.881617,-1.98011,0.
 130213\H,0,0.,1.252912,-2.242943\H,0,0.,-1.252912,-2.242943\\Version=E
 S64L-G16RevC.01\State=1-A1\HF=-553.4933415\RMSD=1.369e+00\Dipole=0.,0.

 Normal termination of Gaussian 16 at Sun Apr  6 08:01:21 2025.
