 Gaussian 16, Revision C.01,

 ----------------------------------------------------------------------
 #t hf aug-cc-pvdz symm=none int=(grid=ultrafine) guess=(read,tcheck) s
 table=(opt,rrhf)
 ----------------------------------------------------------------------
 -----
 title
 -----
 Symbolic Z-matrix:
 Charge =  0 Multiplicity = 1

 SCF Done:  E(RHF) =  -324.809425199     A.U. after   15 cycles
 Normal termination of Gaussian 16 at Sun Apr  6 08:02:06 2025.
 Gaussian 16:  ES64L-G16RevC.01  3-Jul-2019

 ----------------------------------------------------------------------
 #t hf aug-cc-pvdz iop(5/13=1,5/36=2,99/5=2) pseudo=read geom=check gue
 ss=(read,tcheck) scf=(maxcycle=1)
 ----------------------------------------------------------------------
 -----
 title
 -----
 Structure from the checkpoint file:  "2-5-dimethylpyridine.chk"
 Charge =  0 Multiplicity = 1

                         Standard orientation:
 ---------------------------------------------------------------------
 Center     Atomic      Atomic             Coordinates (Angstroms)
 Number     Number       Type             X           Y           Z
 ---------------------------------------------------------------------
      1          6           0       -1.178683   -0.742088    0.000000
      2          6           0        0.047290   -1.388143    0.000000
      3          6           0        0.000000    1.309459    0.000000
      4          6           0       -1.228041    0.649909    0.000000
      5          6           0        1.221409   -0.633508    0.000000
      6          6           0       -2.528268    1.405525    0.000000
      7          6           0        2.580459   -1.275923    0.000000
      8          7           0        1.185094    0.702648    0.000000
      9          1           0       -2.095720   -1.319232    0.000000
     10          1           0        0.097475   -2.468673    0.000000
     11          1           0        0.024650    2.395020    0.000000
     12          1           0       -3.128947    1.163181    0.878919
     13          1           0       -2.357997    2.481564    0.000000
     14          1           0       -3.128947    1.163181   -0.878919
     15          1           0        3.147907   -0.961093   -0.876888
     16          1           0        3.147907   -0.961093    0.876888
     17          1           0        2.513018   -2.362770    0.000000
 ---------------------------------------------------------------------

 SCF Done:  E(RHF) =  -326.386593429     A.U. after    2 cycles

 The electronic state is 1-A'.
 Alpha  occ. eigenvalues --  -15.72449 -11.48381 -11.44599 -11.43635 -11.41333
 Alpha  occ. eigenvalues --  -11.39163 -11.38548 -11.36527  -1.45127  -1.21473
 Alpha  occ. eigenvalues --   -1.15901  -1.06376  -0.96500  -0.88793  -0.83039
 Alpha  occ. eigenvalues --   -0.68381  -0.63817  -0.62476  -0.59154  -0.57178
 Alpha  occ. eigenvalues --   -0.56570  -0.53597  -0.51907  -0.50845  -0.49716
 Alpha  occ. eigenvalues --   -0.44613  -0.35913  -0.34442  -0.31688
 Alpha virt. eigenvalues --    0.03427   0.04820   0.05178   0.05470   0.05968
 Alpha virt. eigenvalues --    0.06546   0.07537   0.07578   0.07714   0.09698
 Alpha virt. eigenvalues --    0.10288   0.11717   0.11917   0.12708   0.13260

 Mulliken charges:
               1
     1  C   -1.653115
     2  C   -2.697534
     3  C   -1.516399
     4  C    5.232757
     5  C    3.084358
     6  C   -5.693969
     7  C   -5.062846
     8  N   -4.013688
     9  H    1.813824
    10  H    1.634437
    11  H    1.654681
    12  H    1.144349
    13  H    1.356137
    14  H    1.144349
    15  H    1.155819
    16  H    1.155819
    17  H    1.261025
 Sum of Mulliken charges =   0.00000

 Dipole moment (field-independent basis, Debye):
    X=             -1.5130    Y=             -0.8772    Z=             -0.0000  Tot=              1.7488

 Test job not archived.
 1\1\GINC-SE108\SP\RHF\Aug-CC-pVDZ\C7H9N1\OHZDE\06-Apr-2025\0\\#t hf au
 g-cc-pvdz iop(5/13=1,5/36=2,99/5=2) pseudo=read geom=check guess=(read
 ,tcheck) scf=(maxcycle=1)\\title\\0,1\C,0,-1.178683,-0.742088,0.\C,0,0
 .04729,-1.388143,0.\C,0,0.,1.309459,0.\C,0,-1.228041,0.649909,0.\C,0,1
 .221409,-0.633508,0.\C,0,-2.528268,1.405525,0.\C,0,2.580459,-1.275923,
 0.\N,0,1.185094,0.702648,0.\H,0,-2.09572,-1.319232,0.\H,0,0.097475,-2.
 468673,0.\H,0,0.02465,2.39502,0.\H,0,-3.128947,1.163181,0.878919\H,0,-
 2.357997,2.481564,0.\H,0,-3.128947,1.163181,-0.878919\H,0,3.147907,-0.

 Normal termination of Gaussian 16 at Sun Apr  6 08:02:12 2025.
