 Gaussian 16, Revision C.01,

 ----------------------------------------------------------------------
 #t hf aug-cc-pvdz symm=none int=(grid=ultrafine) guess=(read,tcheck) s
 table=(opt,rrhf)
 ----------------------------------------------------------------------
 -----
 title
 -----
 Symbolic Z-matrix:
 Charge =  0 Multiplicity = 1

 SCF Done:  E(RHF) =  -627.307651468     A.U. after   14 cycles
 Normal termination of Gaussian 16 at Sun Apr  6 08:01:26 2025.
 Gaussian 16:  ES64L-G16RevC.01  3-Jul-2019

 ----------------------------------------------------------------------
 #t hf aug-cc-pvdz iop(5/13=1,5/36=2,99/5=2) pseudo=read geom=check gue
 ss=(read,tcheck) scf=(maxcycle=1)
 ----------------------------------------------------------------------
 -----
 title
 -----
 Structure from the checkpoint file:  "2-5-dihydrothiophene-1-oxide.chk"
 Charge =  0 Multiplicity = 1

                         Standard orientation:
 ---------------------------------------------------------------------
 Center     Atomic      Atomic             Coordinates (Angstroms)
 Number     Number       Type             X           Y           Z
 ---------------------------------------------------------------------
      1          6           0        0.373882    1.565307    0.663411
      2          6           0        0.373882    1.565307   -0.663411
      3          6           0        0.373882    0.225203    1.327115
      4          6           0        0.373882    0.225203   -1.327115
      5          8           0       -1.474114   -1.250243    0.000000
      6         16           0        0.015228   -1.034346    0.000000
      7          1           0        0.372606    2.471237    1.255926
      8          1           0        0.372606    2.471237   -1.255926
      9          1           0        1.331542   -0.026308    1.789128
     10          1           0       -0.416106    0.087751    2.065993
     11          1           0       -0.416106    0.087751   -2.065993
     12          1           0        1.331542   -0.026308   -1.789128
 ---------------------------------------------------------------------

 SCF Done:  E(RHF) =  -628.626179187     A.U. after    2 cycles

 The electronic state is 1-A'.
 Alpha  occ. eigenvalues --  -75.78047 -20.99522 -13.32900 -13.22122 -13.17845
 Alpha  occ. eigenvalues --  -11.46309 -11.43563 -11.42415 -11.38832  -8.12200
 Alpha  occ. eigenvalues --   -1.67648  -1.31497  -1.08489  -1.05765  -0.87010
 Alpha  occ. eigenvalues --   -0.79024  -0.70560  -0.64003  -0.61099  -0.53220
 Alpha  occ. eigenvalues --   -0.51646  -0.48662  -0.46936  -0.38366  -0.35336
 Alpha  occ. eigenvalues --   -0.31633  -0.25193
 Alpha virt. eigenvalues --    0.02829   0.04796   0.05144   0.05162   0.06323
 Alpha virt. eigenvalues --    0.06650   0.08252   0.11212   0.11781   0.11875
 Alpha virt. eigenvalues --    0.12285   0.13984   0.14368   0.14648   0.14745

 Mulliken charges:
               1
     1  C   -0.167950
     2  C   -0.167950
     3  C   -4.557894
     4  C   -4.557894
     5  O   -2.388864
     6  S    3.645678
     7  H    1.401552
     8  H    1.401552
     9  H    1.351770
    10  H    1.344114
    11  H    1.344114
    12  H    1.351770
 Sum of Mulliken charges =  -0.00000

 Dipole moment (field-independent basis, Debye):
    X=              1.7536    Y=              0.6909    Z=              0.0000  Tot=              1.8848

 Test job not archived.
 1\1\GINC-SE046\SP\RHF\Aug-CC-pVDZ\C4H6O1S1\OHZDE\06-Apr-2025\0\\#t hf
 aug-cc-pvdz iop(5/13=1,5/36=2,99/5=2) pseudo=read geom=check guess=(re
 ad,tcheck) scf=(maxcycle=1)\\title\\0,1\C,0,1.587197,-0.663411,0.26604
 5\C,0,1.587197,0.663411,0.266045\C,0,0.353161,-1.327115,-0.25648\C,0,0
 .353161,1.327115,-0.25648\O,0,-1.726065,0.,0.869953\S,0,-0.946541,0.,-
 0.417329\H,0,2.420926,-1.255926,0.620455\H,0,2.420926,1.255926,0.62045
 5\H,0,0.494961,-1.789128,-1.23641\H,0,-0.081439,-2.065993,0.417387\H,0
 ,-0.081439,2.065993,0.417387\H,0,0.494961,1.789128,-1.23641\\Version=E

 Normal termination of Gaussian 16 at Sun Apr  6 08:01:29 2025.
