 Gaussian 16, Revision C.01,

 ----------------------------------------------------------------------
 #t hf aug-cc-pvdz symm=none int=(grid=ultrafine) guess=(read,tcheck) s
 table=(opt,rrhf)
 ----------------------------------------------------------------------
 -----
 title
 -----
 Symbolic Z-matrix:
 Charge =  0 Multiplicity = 1

 SCF Done:  E(RHF) =  -643.300533293     A.U. after   15 cycles
 Normal termination of Gaussian 16 at Sun Apr  6 08:01:22 2025.
 Gaussian 16:  ES64L-G16RevC.01  3-Jul-2019

 ----------------------------------------------------------------------
 #t hf aug-cc-pvdz iop(5/13=1,5/36=2,99/5=2) pseudo=read geom=check gue
 ss=(read,tcheck) scf=(maxcycle=1)
 ----------------------------------------------------------------------
 -----
 title
 -----
 Structure from the checkpoint file:  "2-5-dihydro-1-2-thiazole-1-oxide.chk"
 Charge =  0 Multiplicity = 1

                         Standard orientation:
 ---------------------------------------------------------------------
 Center     Atomic      Atomic             Coordinates (Angstroms)
 Number     Number       Type             X           Y           Z
 ---------------------------------------------------------------------
      1          6           0       -1.589968    0.591998    0.318003
      2          6           0       -1.482626   -0.731595    0.240541
      3          6           0       -0.409779    1.297050   -0.271302
      4          7           0       -0.319737   -1.200523   -0.391951
      5          8           0        1.667032   -0.003415    0.897793
      6         16           0        0.936297    0.011580   -0.400006
      7          1           0       -2.429540    1.112221    0.749196
      8          1           0       -2.206329   -1.457624    0.580961
      9          1           0       -0.583145    1.663910   -1.286760
     10          1           0        0.010173    2.099326    0.334185
     11          1           0        0.024228   -2.116844   -0.139614
 ---------------------------------------------------------------------

 SCF Done:  E(RHF) =  -644.673230067     A.U. after    2 cycles

 The electronic state is 1-A.
 Alpha  occ. eigenvalues --  -75.81137 -21.01383 -15.76915 -13.35950 -13.23216
 Alpha  occ. eigenvalues --  -13.20739 -11.46244 -11.43495 -11.38485  -8.15246
 Alpha  occ. eigenvalues --   -1.70496  -1.44181  -1.17325  -1.08265  -0.89517
 Alpha  occ. eigenvalues --   -0.81354  -0.74113  -0.63736  -0.57966  -0.53940
 Alpha  occ. eigenvalues --   -0.53370  -0.51258  -0.48960  -0.39892  -0.34304
 Alpha  occ. eigenvalues --   -0.29903  -0.26962
 Alpha virt. eigenvalues --    0.03086   0.04701   0.05366   0.05749   0.06296
 Alpha virt. eigenvalues --    0.08128   0.10245   0.11445   0.12189   0.12597
 Alpha virt. eigenvalues --    0.13561   0.14018   0.14455   0.14767   0.15910

 Mulliken charges:
               1
     1  C    0.021373
     2  C   -0.360774
     3  C   -4.498537
     4  N   -2.725857
     5  O   -2.436981
     6  S    3.877583
     7  H    1.285115
     8  H    1.322396
     9  H    1.456464
    10  H    1.408494
    11  H    0.650725
 Sum of Mulliken charges =  -0.00000

 Dipole moment (field-independent basis, Debye):
    X=             -0.9629    Y=             -0.5785    Z=             -0.9366  Tot=              1.4626

 Test job not archived.
 1\1\GINC-SE209\SP\RHF\Aug-CC-pVDZ\C3H5N1O1S1\OHZDE\06-Apr-2025\0\\#t h
 f aug-cc-pvdz iop(5/13=1,5/36=2,99/5=2) pseudo=read geom=check guess=(
 read,tcheck) scf=(maxcycle=1)\\title\\0,1\C,0,-1.589968,0.591998,0.318
 003\C,0,-1.482626,-0.731595,0.240541\C,0,-0.409779,1.29705,-0.271302\N
 ,0,-0.319737,-1.200523,-0.391951\O,0,1.667032,-0.003415,0.897793\S,0,0
 .936297,0.01158,-0.400006\H,0,-2.42954,1.112221,0.749196\H,0,-2.206329
 ,-1.457624,0.580961\H,0,-0.583145,1.66391,-1.28676\H,0,0.010173,2.0993
 26,0.334185\H,0,0.024228,-2.116844,-0.139614\\Version=ES64L-G16RevC.01

 Normal termination of Gaussian 16 at Sun Apr  6 08:01:26 2025.
