 Gaussian 16, Revision C.01,

 ----------------------------------------------------------------------
 #t hf aug-cc-pvdz symm=none int=(grid=ultrafine) guess=(read,tcheck) s
 table=(opt,rrhf)
 ----------------------------------------------------------------------
 -----
 title
 -----
 Symbolic Z-matrix:
 Charge =  0 Multiplicity = 1

 SCF Done:  E(RHF) =  -741.199858785     A.U. after   14 cycles
 Normal termination of Gaussian 16 at Sun Apr  6 08:02:05 2025.
 Gaussian 16:  ES64L-G16RevC.01  3-Jul-2019

 ----------------------------------------------------------------------
 #t hf aug-cc-pvdz iop(5/13=1,5/36=2,99/5=2) pseudo=read geom=check gue
 ss=(read,tcheck) scf=(maxcycle=1)
 ----------------------------------------------------------------------
 -----
 title
 -----
 Structure from the checkpoint file:  "2-5-dihydro-2-methylthiophene-1-1-dioxide.chk"
 Charge =  0 Multiplicity = 1

                         Standard orientation:
 ---------------------------------------------------------------------
 Center     Atomic      Atomic             Coordinates (Angstroms)
 Number     Number       Type             X           Y           Z
 ---------------------------------------------------------------------
      1          6           0        1.685700   -1.598566    0.155043
      2          6           0        1.000120   -0.422584   -0.529065
      3          6           0        1.568891    0.929035   -0.216112
      4          6           0        0.733478    1.900514    0.142277
      5          6           0       -0.724568    1.573344    0.203570
      6         16           0       -0.774100   -0.249045   -0.007386
      7          8           0       -0.956176   -0.865654    1.303800
      8          8           0       -1.661019   -0.613275   -1.108479
      9          1           0        1.194401   -2.537785   -0.094112
     10          1           0        2.721514   -1.657362   -0.182632
     11          1           0        1.674864   -1.482978    1.236789
     12          1           0        0.941234   -0.587664   -1.606882
     13          1           0        2.639629    1.076501   -0.276618
     14          1           0        1.070634    2.897063    0.393682
     15          1           0       -1.307196    2.010364   -0.607179
     16          1           0       -1.193646    1.807560    1.158274
 ---------------------------------------------------------------------

 SCF Done:  E(RHF) =  -743.050102525     A.U. after    2 cycles

 The electronic state is 1-A.
 Alpha  occ. eigenvalues --  -75.87305 -21.03827 -21.03684 -13.48687 -13.42092
 Alpha  occ. eigenvalues --  -13.33670 -11.48995 -11.46719 -11.44551 -11.41344
 Alpha  occ. eigenvalues --  -11.39327  -8.22259  -1.81359  -1.63678  -1.34086
 Alpha  occ. eigenvalues --   -1.16581  -1.05590  -0.99001  -0.84468  -0.80665
 Alpha  occ. eigenvalues --   -0.71103  -0.65591  -0.63759  -0.60889  -0.55372
 Alpha  occ. eigenvalues --   -0.54978  -0.53785  -0.51659  -0.49482  -0.43187
 Alpha  occ. eigenvalues --   -0.37943  -0.37574  -0.36228  -0.34172  -0.33375
 Alpha virt. eigenvalues --    0.02770   0.04235   0.05024   0.05490   0.05769
 Alpha virt. eigenvalues --    0.06009   0.06744   0.07354   0.10617   0.11004
 Alpha virt. eigenvalues --    0.11227   0.11866   0.12536   0.13574   0.13705

 Mulliken charges:
               1
     1  C   -3.650906
     2  C   -3.782997
     3  C   -0.220789
     4  C    0.047378
     5  C   -5.108407
     6  S    7.434908
     7  O   -2.803225
     8  O   -2.819048
     9  H    1.219717
    10  H    1.137687
    11  H    1.444094
    12  H    1.483504
    13  H    1.541471
    14  H    1.402703
    15  H    1.337220
    16  H    1.336690
 Sum of Mulliken charges =  -0.00000

 Dipole moment (field-independent basis, Debye):
    X=              2.0893    Y=              1.5712    Z=             -0.1977  Tot=              2.6216

 Test job not archived.
 1\1\GINC-SE222\SP\RHF\Aug-CC-pVDZ\C5H8O2S1\OHZDE\06-Apr-2025\0\\#t hf
 aug-cc-pvdz iop(5/13=1,5/36=2,99/5=2) pseudo=read geom=check guess=(re
 ad,tcheck) scf=(maxcycle=1)\\title\\0,1\C,0,1.6857,-1.598566,0.155043\
 C,0,1.00012,-0.422584,-0.529065\C,0,1.568891,0.929035,-0.216112\C,0,0.
 733478,1.900514,0.142277\C,0,-0.724568,1.573344,0.20357\S,0,-0.7741,-0
 .249045,-0.007386\O,0,-0.956176,-0.865654,1.3038\O,0,-1.661019,-0.6132
 75,-1.108479\H,0,1.194401,-2.537785,-0.094112\H,0,2.721514,-1.657362,-
 0.182632\H,0,1.674864,-1.482978,1.236789\H,0,0.941234,-0.587664,-1.606

 Normal termination of Gaussian 16 at Sun Apr  6 08:02:13 2025.
