 Gaussian 16, Revision C.01,

 ----------------------------------------------------------------------
 #t hf aug-cc-pvdz symm=none int=(grid=ultrafine) guess=(read,tcheck) s
 table=(opt,rrhf)
 ----------------------------------------------------------------------
 -----
 title
 -----
 Symbolic Z-matrix:
 Charge =  0 Multiplicity = 1

 SCF Done:  E(RHF) =  -309.094820158     A.U. after   12 cycles

 1\1\GINC-SE167\Stability\RHF\Aug-CC-pVDZ\C6H12O1\OHZDE\06-Apr-2025\0\\
 #t hf aug-cc-pvdz symm=none int=(grid=ultrafine) guess=(read,tcheck) s
 table=(opt,rrhf)\\title\\0,1\C,0,0.,0.764255,-1.297167\C,0,0.,-0.76425
 5,-1.297167\C,0,-0.468541,1.090526,0.123716\C,0,0.468541,-1.090526,0.1
 23716\C,0,0.032579,2.405081,0.690505\C,0,-0.032579,-2.405081,0.690505\
 O,0,0.,0.,0.938605\H,0,1.011237,1.147828,-1.454012\H,0,-0.646734,1.200
 592,-2.057687\H,0,-1.011237,-1.147828,-1.454012\H,0,0.646734,-1.200592
 ,-2.057687\H,0,-1.565793,1.083362,0.154246\H,0,1.565793,-1.083362,0.15

 Normal termination of Gaussian 16 at Sun Apr  6 08:02:04 2025.
 Gaussian 16:  ES64L-G16RevC.01  3-Jul-2019

 ----------------------------------------------------------------------
 #t hf aug-cc-pvdz iop(5/13=1,5/36=2,99/5=2) pseudo=read geom=check gue
 ss=(read,tcheck) scf=(maxcycle=1)
 ----------------------------------------------------------------------
 -----
 title
 -----
 Structure from the checkpoint file:  "2-5-dimethyltetrahydrofuran.chk"
 Charge =  0 Multiplicity = 1

                         Standard orientation:
 ---------------------------------------------------------------------
 Center     Atomic      Atomic             Coordinates (Angstroms)
 Number     Number       Type             X           Y           Z
 ---------------------------------------------------------------------
      1          6           0       -0.000000    0.764255   -1.297167
      2          6           0       -0.000000   -0.764255   -1.297167
      3          6           0       -0.468541    1.090526    0.123716
      4          6           0        0.468541   -1.090526    0.123716
      5          6           0        0.032579    2.405081    0.690505
      6          6           0       -0.032579   -2.405081    0.690505
      7          8           0       -0.000000   -0.000000    0.938605
      8          1           0        1.011237    1.147828   -1.454012
      9          1           0       -0.646734    1.200592   -2.057687
     10          1           0       -1.011237   -1.147828   -1.454012
     11          1           0        0.646734   -1.200592   -2.057687
     12          1           0       -1.565793    1.083362    0.154246
     13          1           0        1.565793   -1.083362    0.154246
     14          1           0       -0.297960    2.529471    1.721560
     15          1           0        1.122913    2.439253    0.673182
     16          1           0       -0.351842    3.243340    0.105964
     17          1           0       -1.122913   -2.439253    0.673182
     18          1           0        0.351842   -3.243340    0.105964
     19          1           0        0.297960   -2.529471    1.721560
 ---------------------------------------------------------------------

 SCF Done:  E(RHF) =  -310.602170053     A.U. after    2 cycles

 The electronic state is 1-A.
 Alpha  occ. eigenvalues --  -21.01865 -11.46143 -11.44042 -11.40896 -11.38708
 Alpha  occ. eigenvalues --  -11.36643 -11.34525  -1.74485  -1.20337  -1.16165
 Alpha  occ. eigenvalues --   -1.04329  -0.93509  -0.82666  -0.79286  -0.67325
 Alpha  occ. eigenvalues --   -0.66142  -0.59464  -0.57769  -0.56800  -0.54970
 Alpha  occ. eigenvalues --   -0.51007  -0.50983  -0.45869  -0.44132  -0.43270
 Alpha  occ. eigenvalues --   -0.42826  -0.35400  -0.27710
 Alpha virt. eigenvalues --    0.04178   0.04828   0.05140   0.05324   0.05618
 Alpha virt. eigenvalues --    0.05629   0.05902   0.06763   0.06771   0.08354
 Alpha virt. eigenvalues --    0.09105   0.09338   0.12151   0.12447   0.13449

 Mulliken charges:
               1
     1  C   -3.021259
     2  C   -3.021259
     3  C    0.363293
     4  C    0.363293
     5  C   -3.693412
     6  C   -3.693412
     7  O   -3.702535
     8  H    1.527557
     9  H    1.235016
    10  H    1.527557
    11  H    1.235016
    12  H    1.750159
    13  H    1.750159
    14  H    1.227171
    15  H    1.283477
    16  H    1.179264
    17  H    1.283477
    18  H    1.179264
    19  H    1.227171
 Sum of Mulliken charges =  -0.00000

 Dipole moment (field-independent basis, Debye):
    X=              0.0000    Y=              0.0000    Z=             -0.8623  Tot=              0.8623

 Test job not archived.
 1\1\GINC-SE167\SP\RHF\Aug-CC-pVDZ\C6H12O1\OHZDE\06-Apr-2025\0\\#t hf a
 ug-cc-pvdz iop(5/13=1,5/36=2,99/5=2) pseudo=read geom=check guess=(rea
 d,tcheck) scf=(maxcycle=1)\\title\\0,1\C,0,0.,0.764255,-1.297167\C,0,0
 .,-0.764255,-1.297167\C,0,-0.468541,1.090526,0.123716\C,0,0.468541,-1.
 090526,0.123716\C,0,0.032579,2.405081,0.690505\C,0,-0.032579,-2.405081
 ,0.690505\O,0,0.,0.,0.938605\H,0,1.011237,1.147828,-1.454012\H,0,-0.64
 6734,1.200592,-2.057687\H,0,-1.011237,-1.147828,-1.454012\H,0,0.646734
 ,-1.200592,-2.057687\H,0,-1.565793,1.083362,0.154246\H,0,1.565793,-1.0

 Normal termination of Gaussian 16 at Sun Apr  6 08:02:09 2025.
