 Gaussian 16, Revision C.01,

 ----------------------------------------------------------------------
 #t hf aug-cc-pvdz symm=none int=(grid=ultrafine) guess=(read,tcheck) s
 table=(opt,rrhf)
 ----------------------------------------------------------------------
 -----
 title
 -----
 Symbolic Z-matrix:
 Charge =  0 Multiplicity = 1

 SCF Done:  E(RHF) =  -321.581354664     A.U. after   14 cycles
 Normal termination of Gaussian 16 at Sun Apr  6 08:01:25 2025.
 Gaussian 16:  ES64L-G16RevC.01  3-Jul-2019

 ----------------------------------------------------------------------
 #t hf aug-cc-pvdz iop(5/13=1,5/36=2,99/5=2) pseudo=read geom=check gue
 ss=(read,tcheck) scf=(maxcycle=1)
 ----------------------------------------------------------------------
 -----
 title
 -----
 Structure from the checkpoint file:  "2-5H-pyridinone.chk"
 Charge =  0 Multiplicity = 1

                         Standard orientation:
 ---------------------------------------------------------------------
 Center     Atomic      Atomic             Coordinates (Angstroms)
 Number     Number       Type             X           Y           Z
 ---------------------------------------------------------------------
      1          7           0       -1.254654    0.394118    0.000000
      2          6           0        0.000000    1.081090    0.000000
      3          6           0        1.244764    0.286621    0.000000
      4          6           0        1.223615   -1.045676    0.000000
      5          6           0       -0.067291   -1.783582    0.000000
      6          6           0       -1.258745   -0.878361    0.000000
      7          8           0        0.015804    2.291171    0.000000
      8          1           0        2.166216    0.852058    0.000000
      9          1           0        2.142475   -1.619589    0.000000
     10          1           0       -0.136811   -2.456207    0.864752
     11          1           0       -2.232984   -1.368807    0.000000
     12          1           0       -0.136811   -2.456207   -0.864752
 ---------------------------------------------------------------------

 SCF Done:  E(RHF) =  -323.025219048     A.U. after    2 cycles

 The electronic state is 1-A'.
 Alpha  occ. eigenvalues --  -21.04437 -15.74783 -11.51384 -11.48872 -11.46744
 Alpha  occ. eigenvalues --  -11.43720 -11.40269  -1.71173  -1.42267  -1.22157
 Alpha  occ. eigenvalues --   -1.10278  -0.90289  -0.88838  -0.71591  -0.67221
 Alpha  occ. eigenvalues --   -0.64162  -0.64033  -0.58854  -0.53102  -0.52528
 Alpha  occ. eigenvalues --   -0.48008  -0.41525  -0.37981  -0.33974  -0.28644
 Alpha virt. eigenvalues --    0.02310   0.04458   0.04936   0.05364   0.06179
 Alpha virt. eigenvalues --    0.09196   0.09555   0.10127   0.10572   0.12141
 Alpha virt. eigenvalues --    0.12791   0.12836   0.13223   0.13465   0.14023

 Mulliken charges:
               1
     1  N   -3.072892
     2  C    2.790101
     3  C   -0.861231
     4  C    0.886163
     5  C   -3.219067
     6  C   -0.089727
     7  O   -3.328423
     8  H    1.414586
     9  H    1.393235
    10  H    1.231615
    11  H    1.624025
    12  H    1.231615
 Sum of Mulliken charges =   0.00000

 Dipole moment (field-independent basis, Debye):
    X=              1.1732    Y=             -4.0568    Z=             -0.0000  Tot=              4.2230

 Test job not archived.
 1\1\GINC-SE167\SP\RHF\Aug-CC-pVDZ\C5H5N1O1\OHZDE\06-Apr-2025\0\\#t hf
 aug-cc-pvdz iop(5/13=1,5/36=2,99/5=2) pseudo=read geom=check guess=(re
 ad,tcheck) scf=(maxcycle=1)\\title\\0,1\N,0,-1.254654,0.394118,0.\C,0,
 0.,1.08109,0.\C,0,1.244764,0.286621,0.\C,0,1.223615,-1.045676,0.\C,0,-
 0.067291,-1.783582,0.\C,0,-1.258745,-0.878361,0.\O,0,0.015804,2.291171
 ,0.\H,0,2.166216,0.852058,0.\H,0,2.142475,-1.619589,0.\H,0,-0.136811,-
 2.456207,0.864752\H,0,-2.232984,-1.368807,0.\H,0,-0.136811,-2.456207,-
 0.864752\\Version=ES64L-G16RevC.01\State=1-A'\HF=-323.025219\RMSD=1.43

 Normal termination of Gaussian 16 at Sun Apr  6 08:01:30 2025.
