 Gaussian 16, Revision C.01,

 ----------------------------------------------------------------------
 #t hf aug-cc-pvdz symm=none int=(grid=ultrafine) guess=(read,tcheck) s
 table=(opt,rrhf)
 ----------------------------------------------------------------------
 -----
 title
 -----
 Symbolic Z-matrix:
 Charge =  0 Multiplicity = 1

 SCF Done:  E(RHF) =  -383.682180020     A.U. after   15 cycles

 1\1\GINC-SE343\Stability\RHF\Aug-CC-pVDZ\C8H10O1\OHZDE\06-Apr-2025\0\\
 #t hf aug-cc-pvdz symm=none int=(grid=ultrafine) guess=(read,tcheck) s
 table=(opt,rrhf)\\title\\0,1\C,0,0.029432,-2.115963,0.\C,0,-1.177779,-
 1.432184,0.\C,0,1.221499,-1.401498,0.\C,0,-1.215878,-0.038978,0.\C,0,1
 .232186,-0.009912,0.\C,0,0.,0.652782,0.\C,0,-2.522797,0.709811,0.\C,0,
 2.513155,0.776894,0.\O,0,0.045187,2.025498,0.\H,0,0.042486,-3.19709,0.
 \H,0,-2.110575,-1.981915,0.\H,0,2.16631,-1.93024,0.\H,0,-2.631669,1.34
 7832,0.882868\H,0,-2.631669,1.347832,-0.882868\H,0,-3.362725,0.017813,

 Normal termination of Gaussian 16 at Sun Apr  6 08:02:29 2025.
 Gaussian 16:  ES64L-G16RevC.01  3-Jul-2019

 ----------------------------------------------------------------------
 #t hf aug-cc-pvdz iop(5/13=1,5/36=2,99/5=2) pseudo=read geom=check gue
 ss=(read,tcheck) scf=(maxcycle=1)
 ----------------------------------------------------------------------
 -----
 title
 -----
 Structure from the checkpoint file:  "2-6-dimethylphenol.chk"
 Charge =  0 Multiplicity = 1

                         Standard orientation:
 ---------------------------------------------------------------------
 Center     Atomic      Atomic             Coordinates (Angstroms)
 Number     Number       Type             X           Y           Z
 ---------------------------------------------------------------------
      1          6           0        0.029432   -2.115963    0.000000
      2          6           0       -1.177779   -1.432184    0.000000
      3          6           0        1.221499   -1.401498    0.000000
      4          6           0       -1.215878   -0.038978    0.000000
      5          6           0        1.232186   -0.009912    0.000000
      6          6           0        0.000000    0.652782    0.000000
      7          6           0       -2.522797    0.709811    0.000000
      8          6           0        2.513155    0.776894    0.000000
      9          8           0        0.045187    2.025498    0.000000
     10          1           0        0.042486   -3.197090    0.000000
     11          1           0       -2.110575   -1.981915    0.000000
     12          1           0        2.166310   -1.930240    0.000000
     13          1           0       -2.631669    1.347832    0.882868
     14          1           0       -2.631669    1.347832   -0.882868
     15          1           0       -3.362725    0.017813    0.000000
     16          1           0        2.580324    1.426517   -0.874653
     17          1           0        2.580324    1.426517    0.874653
     18          1           0        3.374227    0.110457    0.000000
     19          1           0       -0.847434    2.382583    0.000000
 ---------------------------------------------------------------------

 SCF Done:  E(RHF) =  -385.505997453     A.U. after    2 cycles

 The electronic state is 1-A'.
 Alpha  occ. eigenvalues --  -21.09600 -11.50823 -11.45657 -11.43886 -11.41566
 Alpha  occ. eigenvalues --  -11.40798 -11.39864 -11.38095 -11.35749  -1.75357
 Alpha  occ. eigenvalues --   -1.33354  -1.17198  -1.10033  -1.00216  -0.98352
 Alpha  occ. eigenvalues --   -0.83504  -0.82604  -0.69367  -0.65169  -0.61897
 Alpha  occ. eigenvalues --   -0.59803  -0.56604  -0.56427  -0.55977  -0.54235
 Alpha  occ. eigenvalues --   -0.50227  -0.49588  -0.47640  -0.42930  -0.42337
 Alpha  occ. eigenvalues --   -0.39916  -0.31396  -0.26151
 Alpha virt. eigenvalues --    0.03343   0.04780   0.04874   0.05938   0.06012
 Alpha virt. eigenvalues --    0.06320   0.06981   0.07142   0.07540   0.07905
 Alpha virt. eigenvalues --    0.11387   0.12142   0.12245   0.12768   0.12926

 Mulliken charges:
               1
     1  C   -3.053585
     2  C   -1.457494
     3  C   -2.254546
     4  C    1.139283
     5  C    1.171457
     6  C    6.797545
     7  C   -5.068193
     8  C   -5.127742
     9  O   -4.785860
    10  H    1.461836
    11  H    1.766101
    12  H    1.751308
    13  H    0.953677
    14  H    0.953677
    15  H    1.252836
    16  H    1.045149
    17  H    1.045149
    18  H    1.254520
    19  H    1.154882
 Sum of Mulliken charges =   0.00000

 Dipole moment (field-independent basis, Debye):
    X=             -0.6924    Y=              0.6484    Z=             -0.0000  Tot=              0.9486

 Test job not archived.
 1\1\GINC-SE343\SP\RHF\Aug-CC-pVDZ\C8H10O1\OHZDE\06-Apr-2025\0\\#t hf a
 ug-cc-pvdz iop(5/13=1,5/36=2,99/5=2) pseudo=read geom=check guess=(rea
 d,tcheck) scf=(maxcycle=1)\\title\\0,1\C,0,0.029432,-2.115963,0.\C,0,-
 1.177779,-1.432184,0.\C,0,1.221499,-1.401498,0.\C,0,-1.215878,-0.03897
 8,0.\C,0,1.232186,-0.009912,0.\C,0,0.,0.652782,0.\C,0,-2.522797,0.7098
 11,0.\C,0,2.513155,0.776894,0.\O,0,0.045187,2.025498,0.\H,0,0.042486,-
 3.19709,0.\H,0,-2.110575,-1.981915,0.\H,0,2.16631,-1.93024,0.\H,0,-2.6
 31669,1.347832,0.882868\H,0,-2.631669,1.347832,-0.882868\H,0,-3.362725

 Normal termination of Gaussian 16 at Sun Apr  6 08:02:52 2025.
