 Gaussian 16, Revision C.01,

 ----------------------------------------------------------------------
 #t hf aug-cc-pvdz symm=none int=(grid=ultrafine) guess=(read,tcheck) s
 table=(opt,rrhf)
 ----------------------------------------------------------------------
 -----
 title
 -----
 Symbolic Z-matrix:
 Charge =  0 Multiplicity = 1

 SCF Done:  E(RHF) =  -339.600338905     A.U. after   13 cycles
 Normal termination of Gaussian 16 at Sun Apr  6 08:01:46 2025.
 Gaussian 16:  ES64L-G16RevC.01  3-Jul-2019

 ----------------------------------------------------------------------
 #t hf aug-cc-pvdz iop(5/13=1,5/36=2,99/5=2) pseudo=read geom=check gue
 ss=(read,tcheck) scf=(maxcycle=1)
 ----------------------------------------------------------------------
 -----
 title
 -----
 Structure from the checkpoint file:  "2-6-diazabicyclo-3-3-0-octa-3-7-9-triene.chk"
 Charge =  0 Multiplicity = 1

                         Standard orientation:
 ---------------------------------------------------------------------
 Center     Atomic      Atomic             Coordinates (Angstroms)
 Number     Number       Type             X           Y           Z
 ---------------------------------------------------------------------
      1          6           0        1.327665    1.176379    0.000000
      2          6           0       -1.327665   -1.176379    0.000000
      3          6           0        2.119092    0.047739    0.000000
      4          6           0       -2.119092   -0.047739    0.000000
      5          6           0       -0.008256    0.695795    0.000000
      6          6           0        0.008256   -0.695795    0.000000
      7          7           0        1.327665   -1.085752    0.000000
      8          7           0       -1.327665    1.085752    0.000000
      9          1           0        1.685808    2.190986    0.000000
     10          1           0       -1.685808   -2.190986    0.000000
     11          1           0        3.191771   -0.033733    0.000000
     12          1           0       -3.191771    0.033733    0.000000
     13          1           0        1.673163   -2.026299    0.000000
     14          1           0       -1.673163    2.026299    0.000000
 ---------------------------------------------------------------------

 SCF Done:  E(RHF) =  -341.195594462     A.U. after    2 cycles

 The electronic state is 1-AG.
 Alpha  occ. eigenvalues --  -15.77260 -15.77258 -11.45537 -11.44622 -11.41489
 Alpha  occ. eigenvalues --  -11.39810 -11.37225 -11.34630  -1.53826  -1.40442
 Alpha  occ. eigenvalues --   -1.12783  -1.09817  -1.00308  -0.82495  -0.81971
 Alpha  occ. eigenvalues --   -0.78184  -0.71590  -0.62614  -0.59411  -0.57700
 Alpha  occ. eigenvalues --   -0.54732  -0.51386  -0.49279  -0.48985  -0.45155
 Alpha  occ. eigenvalues --   -0.35920  -0.26854  -0.24012
 Alpha virt. eigenvalues --    0.03484   0.04770   0.05445   0.05460   0.06043
 Alpha virt. eigenvalues --    0.07258   0.10461   0.11217   0.11235   0.13216
 Alpha virt. eigenvalues --    0.13702   0.13845   0.14371   0.14598   0.14648

 Mulliken charges:
               1
     1  C   -1.625951
     2  C   -1.625951
     3  C   -0.492394
     4  C   -0.492394
     5  C    2.499908
     6  C    2.499908
     7  N   -3.922615
     8  N   -3.922615
     9  H    1.397382
    10  H    1.397382
    11  H    1.373847
    12  H    1.373847
    13  H    0.769824
    14  H    0.769824
 Sum of Mulliken charges =  -0.00000

 Dipole moment (field-independent basis, Debye):
    X=             -0.0000    Y=              0.0000    Z=              0.0000  Tot=              0.0000

 Test job not archived.
 1\1\GINC-SE168\SP\RHF\Aug-CC-pVDZ\C6H6N2\OHZDE\06-Apr-2025\0\\#t hf au
 g-cc-pvdz iop(5/13=1,5/36=2,99/5=2) pseudo=read geom=check guess=(read
 ,tcheck) scf=(maxcycle=1)\\title\\0,1\C,0,1.327665,1.176379,0.\C,0,-1.
 327665,-1.176379,0.\C,0,2.119092,0.047739,0.\C,0,-2.119092,-0.047739,0
 .\C,0,-0.008256,0.695795,0.\C,0,0.008256,-0.695795,0.\N,0,1.327665,-1.
 085752,0.\N,0,-1.327665,1.085752,0.\H,0,1.685808,2.190986,0.\H,0,-1.68
 5808,-2.190986,0.\H,0,3.191771,-0.033733,0.\H,0,-3.191771,0.033733,0.\
 H,0,1.673163,-2.026299,0.\H,0,-1.673163,2.026299,0.\\Version=ES64L-G16

 Normal termination of Gaussian 16 at Sun Apr  6 08:01:58 2025.
