 Gaussian 16, Revision C.01,

 ----------------------------------------------------------------------
 #t hf aug-cc-pvdz symm=none int=(grid=ultrafine) guess=(read,tcheck) s
 table=(opt,rrhf)
 ----------------------------------------------------------------------
 -----
 title
 -----
 Symbolic Z-matrix:
 Charge =  0 Multiplicity = 1

 SCF Done:  E(RHF) =  -379.229449348     A.U. after   12 cycles
 Normal termination of Gaussian 16 at Sun Apr  6 08:01:30 2025.
 Gaussian 16:  ES64L-G16RevC.01  3-Jul-2019

 ----------------------------------------------------------------------
 #t hf aug-cc-pvdz iop(5/13=1,5/36=2,99/5=2) pseudo=read geom=check gue
 ss=(read,tcheck) scf=(maxcycle=1)
 ----------------------------------------------------------------------
 -----
 title
 -----
 Structure from the checkpoint file:  "2-6-dioxabicyclo-3-3-0-octa-3-7-9-triene.chk"
 Charge =  0 Multiplicity = 1

                         Standard orientation:
 ---------------------------------------------------------------------
 Center     Atomic      Atomic             Coordinates (Angstroms)
 Number     Number       Type             X           Y           Z
 ---------------------------------------------------------------------
      1          6           0        1.309093    1.172916    0.000000
      2          6           0       -1.309093   -1.172916    0.000000
      3          6           0        2.068867    0.039777    0.000000
      4          6           0       -2.068867   -0.039777    0.000000
      5          6           0       -0.023065    0.680222    0.000000
      6          6           0        0.023065   -0.680222    0.000000
      7          8           0        1.309093   -1.111529    0.000000
      8          8           0       -1.309093    1.111529    0.000000
      9          1           0        1.675271    2.183812    0.000000
     10          1           0       -1.675271   -2.183812    0.000000
     11          1           0        3.132307   -0.112935    0.000000
     12          1           0       -3.132307    0.112935    0.000000
 ---------------------------------------------------------------------

 SCF Done:  E(RHF) =  -380.908952120     A.U. after    2 cycles

 The electronic state is 1-AG.
 Alpha  occ. eigenvalues --  -21.12092 -21.12058 -11.49065 -11.47988 -11.45098
 Alpha  occ. eigenvalues --  -11.43935 -11.40850 -11.38176  -1.87720  -1.80772
 Alpha  occ. eigenvalues --   -1.20164  -1.17692  -1.03195  -0.85558  -0.81809
 Alpha  occ. eigenvalues --   -0.76187  -0.69342  -0.65303  -0.62574  -0.54766
 Alpha  occ. eigenvalues --   -0.52185  -0.51357  -0.51101  -0.47043  -0.40037
 Alpha  occ. eigenvalues --   -0.38854  -0.29595  -0.28295
 Alpha virt. eigenvalues --    0.03308   0.04374   0.05710   0.06443   0.09113
 Alpha virt. eigenvalues --    0.09693   0.11036   0.11094   0.11843   0.13082
 Alpha virt. eigenvalues --    0.13095   0.13673   0.13781   0.14655   0.15153

 Mulliken charges:
               1
     1  C   -1.767067
     2  C   -1.767067
     3  C    0.271990
     4  C    0.271990
     5  C    3.016926
     6  C    3.016926
     7  O   -4.338912
     8  O   -4.338912
     9  H    1.351705
    10  H    1.351705
    11  H    1.465358
    12  H    1.465358
 Sum of Mulliken charges =   0.00000

 Dipole moment (field-independent basis, Debye):
    X=              0.0000    Y=              0.0000    Z=              0.0000  Tot=              0.0000

 Test job not archived.
 1\1\GINC-SE398\SP\RHF\Aug-CC-pVDZ\C6H4O2\OHZDE\06-Apr-2025\0\\#t hf au
 g-cc-pvdz iop(5/13=1,5/36=2,99/5=2) pseudo=read geom=check guess=(read
 ,tcheck) scf=(maxcycle=1)\\title\\0,1\C,0,1.309093,1.172916,0.\C,0,-1.
 309093,-1.172916,0.\C,0,2.068867,0.039777,0.\C,0,-2.068867,-0.039777,0
 .\C,0,-0.023065,0.680222,0.\C,0,0.023065,-0.680222,0.\O,0,1.309093,-1.
 111529,0.\O,0,-1.309093,1.111529,0.\H,0,1.675271,2.183812,0.\H,0,-1.67
 5271,-2.183812,0.\H,0,3.132307,-0.112935,0.\H,0,-3.132307,0.112935,0.\
 \Version=ES64L-G16RevC.01\State=1-AG\HF=-380.9089521\RMSD=1.466e+00\Di

 Normal termination of Gaussian 16 at Sun Apr  6 08:01:34 2025.
