 Gaussian 16, Revision C.01,

 ----------------------------------------------------------------------
 #t hf aug-cc-pvdz symm=none int=(grid=ultrafine) guess=(read,tcheck) s
 table=(opt,rrhf)
 ----------------------------------------------------------------------
 -----
 title
 -----
 Symbolic Z-matrix:
 Charge =  0 Multiplicity = 1

 SCF Done:  E(RHF) =  -742.156722933     A.U. after   15 cycles
 Normal termination of Gaussian 16 at Sun Apr  6 08:02:19 2025.
 Gaussian 16:  ES64L-G16RevC.01  3-Jul-2019

 ----------------------------------------------------------------------
 #t hf aug-cc-pvdz iop(5/13=1,5/36=2,99/5=2) pseudo=read geom=check gue
 ss=(read,tcheck) scf=(maxcycle=1)
 ----------------------------------------------------------------------
 -----
 title
 -----
 Structure from the checkpoint file:  "2-6-dimethyl-4H-pyran-4-thione.chk"
 Charge =  0 Multiplicity = 1

                         Standard orientation:
 ---------------------------------------------------------------------
 Center     Atomic      Atomic             Coordinates (Angstroms)
 Number     Number       Type             X           Y           Z
 ---------------------------------------------------------------------
      1         16           0        0.000000   -0.000000    2.851009
      2          6           0        0.000000   -0.000000    1.185615
      3          6           0        0.000000    1.206883    0.400792
      4          6           0        0.000000    2.352278   -1.861101
      5          6           0        0.000000    1.178354   -0.946461
      6          8           0        0.000000    0.000000   -1.631977
      7          6           0       -0.000000   -1.206883    0.400792
      8          6           0       -0.000000   -1.178354   -0.946461
      9          6           0       -0.000000   -2.352278   -1.861101
     10          1           0        0.000000    2.159035    0.909125
     11          1           0       -0.879753    2.334551   -2.507116
     12          1           0        0.879753    2.334551   -2.507116
     13          1           0        0.000000    3.277663   -1.291277
     14          1           0       -0.000000   -2.159035    0.909125
     15          1           0       -0.879753   -2.334551   -2.507116
     16          1           0       -0.000000   -3.277663   -1.291277
     17          1           0        0.879753   -2.334551   -2.507116
 ---------------------------------------------------------------------

 SCF Done:  E(RHF) =  -743.984336589     A.U. after    2 cycles

 The electronic state is 1-A1.
 Alpha  occ. eigenvalues --  -75.63077 -21.14045 -13.14204 -13.01567 -12.94318
 Alpha  occ. eigenvalues --  -11.53286 -11.52563 -11.49159 -11.42937 -11.42842
 Alpha  occ. eigenvalues --  -11.42007 -11.39631  -7.97091  -1.87056  -1.29304
 Alpha  occ. eigenvalues --   -1.23293  -1.12096  -1.04081  -1.02924  -0.87657
 Alpha  occ. eigenvalues --   -0.83599  -0.70784  -0.67349  -0.64550  -0.63845
 Alpha  occ. eigenvalues --   -0.60441  -0.58576  -0.58105  -0.54749  -0.53574
 Alpha  occ. eigenvalues --   -0.47539  -0.47260  -0.42410  -0.39534  -0.38200
 Alpha  occ. eigenvalues --   -0.22025  -0.19726
 Alpha virt. eigenvalues --    0.02204   0.03898   0.05095   0.05210   0.05546
 Alpha virt. eigenvalues --    0.05771   0.06331   0.07734   0.08062   0.08739
 Alpha virt. eigenvalues --    0.10780   0.11232   0.11651   0.11797   0.12197

 Mulliken charges:
               1
     1  S    1.015241
     2  C    0.444995
     3  C   -2.465670
     4  C   -4.889244
     5  C    4.106858
     6  O   -5.123150
     7  C   -2.465670
     8  C    4.106858
     9  C   -4.889244
    10  H    1.706502
    11  H    1.111064
    12  H    1.111064
    13  H    1.150883
    14  H    1.706502
    15  H    1.111064
    16  H    1.150883
    17  H    1.111064
 Sum of Mulliken charges =  -0.00000

 Dipole moment (field-independent basis, Debye):
    X=              0.0000    Y=              0.0000    Z=             -4.1350  Tot=              4.1350

 Test job not archived.
 1\1\GINC-SE269\SP\RHF\Aug-CC-pVDZ\C7H8O1S1\OHZDE\06-Apr-2025\0\\#t hf
 aug-cc-pvdz iop(5/13=1,5/36=2,99/5=2) pseudo=read geom=check guess=(re
 ad,tcheck) scf=(maxcycle=1)\\title\\0,1\S,0,0.,0.,2.851009\C,0,0.,0.,1
 .185615\C,0,0.,1.206883,0.400792\C,0,0.,2.352278,-1.861101\C,0,0.,1.17
 8354,-0.946461\O,0,0.,0.,-1.631977\C,0,0.,-1.206883,0.400792\C,0,0.,-1
 .178354,-0.946461\C,0,0.,-2.352278,-1.861101\H,0,0.,2.159035,0.909125\
 H,0,-0.879753,2.334551,-2.507116\H,0,0.879753,2.334551,-2.507116\H,0,0
 .,3.277663,-1.291277\H,0,0.,-2.159035,0.909125\H,0,-0.879753,-2.334551

 Normal termination of Gaussian 16 at Sun Apr  6 08:02:52 2025.
