 Gaussian 16, Revision C.01,

 ----------------------------------------------------------------------
 #t hf aug-cc-pvdz symm=none int=(grid=ultrafine) guess=(read,tcheck) s
 table=(opt,rrhf)
 ----------------------------------------------------------------------
 -----
 title
 -----
 Symbolic Z-matrix:
 Charge =  0 Multiplicity = 1

 SCF Done:  E(RHF) =  -419.506589191     A.U. after   15 cycles
 Normal termination of Gaussian 16 at Sun Apr  6 08:02:45 2025.
 Gaussian 16:  ES64L-G16RevC.01  3-Jul-2019

 ----------------------------------------------------------------------
 #t hf aug-cc-pvdz iop(5/13=1,5/36=2,99/5=2) pseudo=read geom=check gue
 ss=(read,tcheck) scf=(maxcycle=1)
 ----------------------------------------------------------------------
 -----
 title
 -----
 Structure from the checkpoint file:  "2-6-dimethyl-4H-pyran-4-one.chk"
 Charge =  0 Multiplicity = 1

                         Standard orientation:
 ---------------------------------------------------------------------
 Center     Atomic      Atomic             Coordinates (Angstroms)
 Number     Number       Type             X           Y           Z
 ---------------------------------------------------------------------
      1          6           0        0.000000    2.348442   -1.472492
      2          6           0        0.000000    1.181572   -0.546325
      3          6           0        0.000000    1.220509    0.796168
      4          6           0        0.000000   -0.000000    1.597720
      5          8           0        0.000000   -0.000000    2.824812
      6          8           0       -0.000000    0.000000   -1.229567
      7          6           0       -0.000000   -1.220509    0.796168
      8          6           0       -0.000000   -1.181572   -0.546325
      9          6           0       -0.000000   -2.348442   -1.472492
     10          1           0        0.879762    2.324369   -2.118001
     11          1           0        0.000000    3.279116   -0.911282
     12          1           0       -0.879762    2.324369   -2.118001
     13          1           0        0.000000    2.170852    1.309034
     14          1           0       -0.000000   -2.170852    1.309034
     15          1           0       -0.000000   -3.279116   -0.911282
     16          1           0        0.879762   -2.324369   -2.118001
     17          1           0       -0.879762   -2.324369   -2.118001
 ---------------------------------------------------------------------

 SCF Done:  E(RHF) =  -421.407287073     A.U. after    2 cycles

 The electronic state is 1-A1.
 Alpha  occ. eigenvalues --  -21.12839 -21.01779 -11.52499 -11.51910 -11.48802
 Alpha  occ. eigenvalues --  -11.42071 -11.41955 -11.39508 -11.38753  -1.86099
 Alpha  occ. eigenvalues --   -1.67270  -1.22650  -1.20865  -1.08794  -1.02398
 Alpha  occ. eigenvalues --   -0.86969  -0.84227  -0.70064  -0.67382  -0.63942
 Alpha  occ. eigenvalues --   -0.63248  -0.59874  -0.58051  -0.57539  -0.54850
 Alpha  occ. eigenvalues --   -0.53391  -0.48564  -0.47987  -0.45817  -0.42115
 Alpha  occ. eigenvalues --   -0.37913  -0.26707  -0.26477
 Alpha virt. eigenvalues --    0.02645   0.03924   0.05183   0.05408   0.05901
 Alpha virt. eigenvalues --    0.06161   0.06555   0.08003   0.09238   0.11256
 Alpha virt. eigenvalues --    0.11449   0.11839   0.12356   0.12406   0.12894

 Mulliken charges:
               1
     1  C   -4.890583
     2  C    4.834084
     3  C   -2.434930
     4  C    3.970309
     5  O   -4.022724
     6  O   -5.104329
     7  C   -2.434930
     8  C    4.834084
     9  C   -4.890583
    10  H    1.125645
    11  H    1.181693
    12  H    1.125645
    13  H    1.636819
    14  H    1.636819
    15  H    1.181693
    16  H    1.125645
    17  H    1.125645
 Sum of Mulliken charges =   0.00000

 Dipole moment (field-independent basis, Debye):
    X=             -0.0000    Y=              0.0000    Z=             -4.4370  Tot=              4.4370

 Test job not archived.
 1\1\GINC-SE253\SP\RHF\Aug-CC-pVDZ\C7H8O2\OHZDE\06-Apr-2025\0\\#t hf au
 g-cc-pvdz iop(5/13=1,5/36=2,99/5=2) pseudo=read geom=check guess=(read
 ,tcheck) scf=(maxcycle=1)\\title\\0,1\C,0,0.,2.348442,-1.472492\C,0,0.
 ,1.181572,-0.546325\C,0,0.,1.220509,0.796168\C,0,0.,0.,1.59772\O,0,0.,
 0.,2.824812\O,0,0.,0.,-1.229567\C,0,0.,-1.220509,0.796168\C,0,0.,-1.18
 1572,-0.546325\C,0,0.,-2.348442,-1.472492\H,0,0.879762,2.324369,-2.118
 001\H,0,0.,3.279116,-0.911282\H,0,-0.879762,2.324369,-2.118001\H,0,0.,
 2.170852,1.309034\H,0,0.,-2.170852,1.309034\H,0,0.,-3.279116,-0.911282

 Normal termination of Gaussian 16 at Sun Apr  6 08:02:53 2025.
