 Gaussian 16, Revision C.01,

 ----------------------------------------------------------------------
 #t hf aug-cc-pvdz symm=none int=(grid=ultrafine) guess=(read,tcheck) s
 table=(opt,rrhf)
 ----------------------------------------------------------------------
 -----
 title
 -----
 Symbolic Z-matrix:
 Charge =  0 Multiplicity = 1

 SCF Done:  E(RHF) =  -1024.59808129     A.U. after   14 cycles
 Normal termination of Gaussian 16 at Sun Apr  6 08:01:31 2025.
 Gaussian 16:  ES64L-G16RevC.01  3-Jul-2019

 ----------------------------------------------------------------------
 #t hf aug-cc-pvdz iop(5/13=1,5/36=2,99/5=2) pseudo=read geom=check gue
 ss=(read,tcheck) scf=(maxcycle=1)
 ----------------------------------------------------------------------
 -----
 title
 -----
 Structure from the checkpoint file:  "2-6-dithiabicyclo-3-3-0-octa-3-7-9-triene.chk"
 Charge =  0 Multiplicity = 1

                         Standard orientation:
 ---------------------------------------------------------------------
 Center     Atomic      Atomic             Coordinates (Angstroms)
 Number     Number       Type             X           Y           Z
 ---------------------------------------------------------------------
      1          6           0        1.447868    1.099623    0.000000
      2          6           0       -1.447868   -1.099623    0.000000
      3          6           0        2.286737    0.027705    0.000000
      4          6           0       -2.286737   -0.027705    0.000000
      5          6           0        0.088213    0.687881    0.000000
      6          6           0       -0.088213   -0.687881    0.000000
      7         16           0        1.447868   -1.498577    0.000000
      8         16           0       -1.447868    1.498577    0.000000
      9          1           0        1.786562    2.124058    0.000000
     10          1           0       -1.786562   -2.124058    0.000000
     11          1           0        3.363551    0.035733    0.000000
     12          1           0       -3.363551   -0.035733    0.000000
 ---------------------------------------------------------------------

 SCF Done:  E(RHF) =  -1026.13978129     A.U. after    2 cycles

 The electronic state is 1-AG.
 Alpha  occ. eigenvalues --  -75.71754 -75.71656 -13.22965 -13.19254 -13.15074
 Alpha  occ. eigenvalues --  -13.14519 -13.03707 -13.03256 -11.48532 -11.45971
 Alpha  occ. eigenvalues --  -11.44272 -11.43082 -11.40990 -11.38428  -8.06110
 Alpha  occ. eigenvalues --   -8.06067  -1.43347  -1.25875  -1.12036  -1.04166
 Alpha  occ. eigenvalues --   -1.02296  -0.84314  -0.79808  -0.72634  -0.67164
 Alpha  occ. eigenvalues --   -0.64259  -0.55250  -0.51165  -0.47678  -0.45998
 Alpha  occ. eigenvalues --   -0.43921  -0.42096  -0.36258  -0.32489  -0.29918
 Alpha  occ. eigenvalues --   -0.21681
 Alpha virt. eigenvalues --    0.03025   0.03958   0.04651   0.05782   0.07476
 Alpha virt. eigenvalues --    0.08986   0.09952   0.10803   0.10840   0.11079
 Alpha virt. eigenvalues --    0.12177   0.12177   0.12188   0.14262   0.14665

 Mulliken charges:
               1
     1  C   -2.443029
     2  C   -2.443029
     3  C   -3.504380
     4  C   -3.504380
     5  C    0.798369
     6  C    0.798369
     7  S    2.361109
     8  S    2.361109
     9  H    1.494470
    10  H    1.494470
    11  H    1.293461
    12  H    1.293461
 Sum of Mulliken charges =   0.00000

 Dipole moment (field-independent basis, Debye):
    X=             -0.0000    Y=             -0.0000    Z=              0.0000  Tot=              0.0000

 Test job not archived.
 1\1\GINC-SE412\SP\RHF\Aug-CC-pVDZ\C6H4S2\OHZDE\06-Apr-2025\0\\#t hf au
 g-cc-pvdz iop(5/13=1,5/36=2,99/5=2) pseudo=read geom=check guess=(read
 ,tcheck) scf=(maxcycle=1)\\title\\0,1\C,0,1.447868,1.099623,0.\C,0,-1.
 447868,-1.099623,0.\C,0,2.286737,0.027705,0.\C,0,-2.286737,-0.027705,0
 .\C,0,0.088213,0.687881,0.\C,0,-0.088213,-0.687881,0.\S,0,1.447868,-1.
 498577,0.\S,0,-1.447868,1.498577,0.\H,0,1.786562,2.124058,0.\H,0,-1.78
 6562,-2.124058,0.\H,0,3.363551,0.035733,0.\H,0,-3.363551,-0.035733,0.\
 \Version=ES64L-G16RevC.01\State=1-AG\HF=-1026.1397813\RMSD=2.273e+00\D

 Normal termination of Gaussian 16 at Sun Apr  6 08:01:36 2025.
