 Gaussian 16, Revision C.01,

 ----------------------------------------------------------------------
 #t hf aug-cc-pvdz symm=none int=(grid=ultrafine) guess=(read,tcheck) s
 table=(opt,rrhf)
 ----------------------------------------------------------------------
 -----
 title
 -----
 Symbolic Z-matrix:
 Charge =  0 Multiplicity = 1

 SCF Done:  E(RHF) =  -363.849842377     A.U. after   15 cycles

 1\1\GINC-SE276\Stability\RHF\Aug-CC-pVDZ\C8H11N1\OHZDE\06-Apr-2025\0\\
 #t hf aug-cc-pvdz symm=none int=(grid=ultrafine) guess=(read,tcheck) s
 table=(opt,rrhf)\\title\\0,1\C,0,0.031636,2.12996,0.\C,0,0.02216,1.426
 629,1.197036\C,0,0.02216,1.426629,-1.197036\C,0,0.000741,0.035768,1.22
 0838\C,0,0.000741,0.035768,-1.220838\C,0,-0.014016,-0.663674,0.\C,0,0.
 000741,-0.713836,2.525634\C,0,0.000741,-0.713836,-2.525634\N,0,0.01917
 ,-2.06083,0.\H,0,0.048473,3.210934,0.\H,0,0.033219,1.964237,2.137086\H
 ,0,0.033219,1.964237,-2.137086\H,0,-0.899053,-1.326444,2.647724\H,0,0.

 Normal termination of Gaussian 16 at Sun Apr  6 08:02:29 2025.
 Gaussian 16:  ES64L-G16RevC.01  3-Jul-2019

 ----------------------------------------------------------------------
 #t hf aug-cc-pvdz iop(5/13=1,5/36=2,99/5=2) pseudo=read geom=check gue
 ss=(read,tcheck) scf=(maxcycle=1)
 ----------------------------------------------------------------------
 -----
 title
 -----
 Structure from the checkpoint file:  "2-6-dimethylaniline.chk"
 Charge =  0 Multiplicity = 1

                         Standard orientation:
 ---------------------------------------------------------------------
 Center     Atomic      Atomic             Coordinates (Angstroms)
 Number     Number       Type             X           Y           Z
 ---------------------------------------------------------------------
      1          6           0        0.031636    2.129960    0.000000
      2          6           0        0.022160    1.426629    1.197036
      3          6           0        0.022160    1.426629   -1.197036
      4          6           0        0.000741    0.035768    1.220838
      5          6           0        0.000741    0.035768   -1.220838
      6          6           0       -0.014016   -0.663674   -0.000000
      7          6           0        0.000741   -0.713836    2.525634
      8          6           0        0.000741   -0.713836   -2.525634
      9          7           0        0.019170   -2.060830   -0.000000
     10          1           0        0.048473    3.210934    0.000000
     11          1           0        0.033219    1.964237    2.137086
     12          1           0        0.033219    1.964237   -2.137086
     13          1           0       -0.899053   -1.326444    2.647724
     14          1           0        0.860065   -1.385263    2.606507
     15          1           0        0.037075   -0.025129    3.367762
     16          1           0        0.860065   -1.385263   -2.606507
     17          1           0       -0.899053   -1.326444   -2.647724
     18          1           0        0.037075   -0.025129   -3.367762
     19          1           0       -0.317355   -2.510195   -0.834773
     20          1           0       -0.317355   -2.510195    0.834773
 ---------------------------------------------------------------------

 SCF Done:  E(RHF) =  -365.641444251     A.U. after    2 cycles

 The electronic state is 1-A'.
 Alpha  occ. eigenvalues --  -15.75204 -11.50061 -11.44805 -11.43655 -11.40912
 Alpha  occ. eigenvalues --  -11.39898 -11.38736 -11.38494 -11.34829  -1.41929
 Alpha  occ. eigenvalues --   -1.26459  -1.16596  -1.08641  -0.99259  -0.98056
 Alpha  occ. eigenvalues --   -0.82776  -0.81987  -0.68677  -0.68526  -0.62232
 Alpha  occ. eigenvalues --   -0.59126  -0.57863  -0.56639  -0.56124  -0.55021
 Alpha  occ. eigenvalues --   -0.53175  -0.49002  -0.48986  -0.43474  -0.41756
 Alpha  occ. eigenvalues --   -0.41374  -0.30819  -0.26151
 Alpha virt. eigenvalues --    0.03530   0.04621   0.04829   0.06011   0.06065
 Alpha virt. eigenvalues --    0.06528   0.06741   0.06817   0.07261   0.07807
 Alpha virt. eigenvalues --    0.10336   0.11428   0.12269   0.12701   0.13009

 Mulliken charges:
               1
     1  C   -2.814543
     2  C   -2.191658
     3  C   -2.191658
     4  C    3.820208
     5  C    3.820208
     6  C    0.897877
     7  C   -5.144679
     8  C   -5.144679
     9  N   -4.167195
    10  H    1.502187
    11  H    1.797011
    12  H    1.797011
    13  H    1.001713
    14  H    1.045252
    15  H    1.272353
    16  H    1.045252
    17  H    1.001713
    18  H    1.272353
    19  H    0.690638
    20  H    0.690638
 Sum of Mulliken charges =   0.00000

 Dipole moment (field-independent basis, Debye):
    X=             -0.6749    Y=             -1.2684    Z=              0.0000  Tot=              1.4368

 Test job not archived.
 1\1\GINC-SE276\SP\RHF\Aug-CC-pVDZ\C8H11N1\OHZDE\06-Apr-2025\0\\#t hf a
 ug-cc-pvdz iop(5/13=1,5/36=2,99/5=2) pseudo=read geom=check guess=(rea
 d,tcheck) scf=(maxcycle=1)\\title\\0,1\C,0,0.031636,2.12996,0.\C,0,0.0
 2216,1.426629,1.197036\C,0,0.02216,1.426629,-1.197036\C,0,0.000741,0.0
 35768,1.220838\C,0,0.000741,0.035768,-1.220838\C,0,-0.014016,-0.663674
 ,0.\C,0,0.000741,-0.713836,2.525634\C,0,0.000741,-0.713836,-2.525634\N
 ,0,0.01917,-2.06083,0.\H,0,0.048473,3.210934,0.\H,0,0.033219,1.964237,
 2.137086\H,0,0.033219,1.964237,-2.137086\H,0,-0.899053,-1.326444,2.647

 Normal termination of Gaussian 16 at Sun Apr  6 08:02:51 2025.
