 Gaussian 16, Revision C.01,

 ----------------------------------------------------------------------
 #t hf aug-cc-pvdz symm=none int=(grid=ultrafine) guess=(read,tcheck) s
 table=(opt,rrhf)
 ----------------------------------------------------------------------
 -----
 title
 -----
 Symbolic Z-matrix:
 Charge =  0 Multiplicity = 1

 SCF Done:  E(RHF) =  -324.813538925     A.U. after   14 cycles
 Normal termination of Gaussian 16 at Sun Apr  6 08:01:56 2025.
 Gaussian 16:  ES64L-G16RevC.01  3-Jul-2019

 ----------------------------------------------------------------------
 #t hf aug-cc-pvdz iop(5/13=1,5/36=2,99/5=2) pseudo=read geom=check gue
 ss=(read,tcheck) scf=(maxcycle=1)
 ----------------------------------------------------------------------
 -----
 title
 -----
 Structure from the checkpoint file:  "2-6-dimethylpyridine.chk"
 Charge =  0 Multiplicity = 1

                         Standard orientation:
 ---------------------------------------------------------------------
 Center     Atomic      Atomic             Coordinates (Angstroms)
 Number     Number       Type             X           Y           Z
 ---------------------------------------------------------------------
      1          6           0        0.000000    0.000000   -1.831849
      2          6           0        0.000000    1.195324   -1.129066
      3          6           0       -0.000000   -1.195324   -1.129066
      4          6           0        0.000000    1.155404    0.265392
      5          6           0       -0.000000   -1.155404    0.265392
      6          6           0        0.000000    2.411589    1.091716
      7          6           0       -0.000000   -2.411589    1.091716
      8          7           0       -0.000000   -0.000000    0.937784
      9          1           0        0.000000    0.000000   -2.914051
     10          1           0        0.000000    2.144159   -1.647425
     11          1           0       -0.000000   -2.144159   -1.647425
     12          1           0       -0.876787    2.436350    1.740225
     13          1           0        0.876787    2.436350    1.740225
     14          1           0        0.000000    3.304826    0.469053
     15          1           0       -0.000000   -3.304826    0.469053
     16          1           0        0.876787   -2.436350    1.740225
     17          1           0       -0.876787   -2.436350    1.740225
 ---------------------------------------------------------------------

 SCF Done:  E(RHF) =  -326.391722822     A.U. after    2 cycles

 The electronic state is 1-A1.
 Alpha  occ. eigenvalues --  -15.71772 -11.49042 -11.46173 -11.44009 -11.40107
 Alpha  occ. eigenvalues --  -11.38747 -11.38048 -11.36293  -1.45380  -1.18598
 Alpha  occ. eigenvalues --   -1.18216  -1.04942  -0.99156  -0.86245  -0.83614
 Alpha  occ. eigenvalues --   -0.69308  -0.63049  -0.61558  -0.59722  -0.56429
 Alpha  occ. eigenvalues --   -0.56250  -0.54647  -0.51034  -0.50823  -0.49184
 Alpha  occ. eigenvalues --   -0.44438  -0.35813  -0.34507  -0.31987
 Alpha virt. eigenvalues --    0.03483   0.04916   0.05051   0.05687   0.06209
 Alpha virt. eigenvalues --    0.06874   0.07321   0.07581   0.07616   0.10499
 Alpha virt. eigenvalues --    0.11012   0.11917   0.12405   0.12731   0.13184

 Mulliken charges:
               1
     1  C    0.565504
     2  C   -2.115417
     3  C   -2.115417
     4  C    2.696254
     5  C    2.696254
     6  C   -4.848799
     7  C   -4.848799
     8  N   -4.146898
     9  H    1.588958
    10  H    1.648700
    11  H    1.648700
    12  H    1.169387
    13  H    1.169387
    14  H    1.276706
    15  H    1.276706
    16  H    1.169387
    17  H    1.169387
 Sum of Mulliken charges =   0.00000

 Dipole moment (field-independent basis, Debye):
    X=              0.0000    Y=              0.0000    Z=             -1.2600  Tot=              1.2600

 Test job not archived.
 1\1\GINC-SE364\SP\RHF\Aug-CC-pVDZ\C7H9N1\OHZDE\06-Apr-2025\0\\#t hf au
 g-cc-pvdz iop(5/13=1,5/36=2,99/5=2) pseudo=read geom=check guess=(read
 ,tcheck) scf=(maxcycle=1)\\title\\0,1\C,0,0.,0.,-1.831849\C,0,0.,1.195
 324,-1.129066\C,0,0.,-1.195324,-1.129066\C,0,0.,1.155404,0.265392\C,0,
 0.,-1.155404,0.265392\C,0,0.,2.411589,1.091716\C,0,0.,-2.411589,1.0917
 16\N,0,0.,0.,0.937784\H,0,0.,0.,-2.914051\H,0,0.,2.144159,-1.647425\H,
 0,0.,-2.144159,-1.647425\H,0,-0.876787,2.43635,1.740225\H,0,0.876787,2
 .43635,1.740225\H,0,0.,3.304826,0.469053\H,0,0.,-3.304826,0.469053\H,0

 Normal termination of Gaussian 16 at Sun Apr  6 08:02:03 2025.
