 Gaussian 16, Revision C.01,

 ----------------------------------------------------------------------
 #t hf aug-cc-pvdz symm=none int=(grid=ultrafine) guess=(read,tcheck) s
 table=(opt,rrhf)
 ----------------------------------------------------------------------
 -----
 title
 -----
 Symbolic Z-matrix:
 Charge =  0 Multiplicity = 1

 SCF Done:  E(RHF) =  -444.468265143     A.U. after   14 cycles
 Normal termination of Gaussian 16 at Sun Apr  6 08:01:28 2025.
 Gaussian 16:  ES64L-G16RevC.01  3-Jul-2019

 ----------------------------------------------------------------------
 #t hf aug-cc-pvdz iop(5/13=1,5/36=2,99/5=2) pseudo=read geom=check gue
 ss=(read,tcheck) scf=(maxcycle=1)
 ----------------------------------------------------------------------
 -----
 title
 -----
 Structure from the checkpoint file:  "2-6-difluoropyridine.chk"
 Charge =  0 Multiplicity = 1

                         Standard orientation:
 ---------------------------------------------------------------------
 Center     Atomic      Atomic             Coordinates (Angstroms)
 Number     Number       Type             X           Y           Z
 ---------------------------------------------------------------------
      1          7           0        0.000000   -0.000000    1.004348
      2          6           0       -0.000000    0.000000   -1.763705
      3          6           0        0.000000    1.116033    0.313567
      4          6           0       -0.000000   -1.116033    0.313567
      5          6           0        0.000000    1.202637   -1.069047
      6          6           0       -0.000000   -1.202637   -1.069047
      7          1           0       -0.000000    0.000000   -2.844744
      8          9           0        0.000000    2.245286    1.032550
      9          9           0       -0.000000   -2.245286    1.032550
     10          1           0        0.000000    2.162100   -1.561803
     11          1           0       -0.000000   -2.162100   -1.561803
 ---------------------------------------------------------------------

 SCF Done:  E(RHF) =  -446.276046218     A.U. after    2 cycles

 The electronic state is 1-A1.
 Alpha  occ. eigenvalues --  -29.30355 -29.30353 -15.76474 -11.54550 -11.53735
 Alpha  occ. eigenvalues --  -11.48741 -11.43631 -11.41059  -1.52957  -1.23596
 Alpha  occ. eigenvalues --   -1.23556  -1.00071  -0.97741  -0.84584  -0.71557
 Alpha  occ. eigenvalues --   -0.70988  -0.66776  -0.63261  -0.60167  -0.53315
 Alpha  occ. eigenvalues --   -0.48978  -0.42716  -0.42084  -0.39675  -0.39576
 Alpha  occ. eigenvalues --   -0.30515  -0.29886  -0.28157  -0.24525
 Alpha virt. eigenvalues --    0.03115   0.05131   0.05245   0.09618   0.10109
 Alpha virt. eigenvalues --    0.10608   0.10817   0.11116   0.11117   0.13359
 Alpha virt. eigenvalues --    0.13593   0.13765   0.14123   0.14558   0.15212

 Mulliken charges:
               1
     1  N   -3.562807
     2  C    0.885890
     3  C    1.394239
     4  C    1.394239
     5  C   -3.206233
     6  C   -3.206233
     7  H    1.488737
     8  F    0.944403
     9  F    0.944403
    10  H    1.461681
    11  H    1.461681
 Sum of Mulliken charges =  -0.00000

 Dipole moment (field-independent basis, Debye):
    X=             -0.0000    Y=             -0.0000    Z=              0.3524  Tot=              0.3524

 Test job not archived.
 1\1\GINC-SE168\SP\RHF\Aug-CC-pVDZ\C5H3F2N1\OHZDE\06-Apr-2025\0\\#t hf
 aug-cc-pvdz iop(5/13=1,5/36=2,99/5=2) pseudo=read geom=check guess=(re
 ad,tcheck) scf=(maxcycle=1)\\title\\0,1\N,0,0.,0.,1.004348\C,0,0.,0.,-
 1.763705\C,0,0.,1.116033,0.313567\C,0,0.,-1.116033,0.313567\C,0,0.,1.2
 02637,-1.069047\C,0,0.,-1.202637,-1.069047\H,0,0.,0.,-2.844744\F,0,0.,
 2.245286,1.03255\F,0,0.,-2.245286,1.03255\H,0,0.,2.1621,-1.561803\H,0,
 0.,-2.1621,-1.561803\\Version=ES64L-G16RevC.01\State=1-A1\HF=-446.2760
 462\RMSD=1.566e+00\Dipole=0.,0.,0.1386629\Quadrupole=-5.0463869,6.4152

 Normal termination of Gaussian 16 at Sun Apr  6 08:01:32 2025.
