 Gaussian 16, Revision C.01,

 ----------------------------------------------------------------------
 #t hf aug-cc-pvdz symm=none int=(grid=ultrafine) guess=(read,tcheck) s
 table=(opt,rrhf)
 ----------------------------------------------------------------------
 -----
 title
 -----
 Symbolic Z-matrix:
 Charge =  0 Multiplicity = 1

 SCF Done:  E(RHF) =  -677.423827996     A.U. after   16 cycles
 Normal termination of Gaussian 16 at Sun Apr  6 08:01:25 2025.
 Gaussian 16:  ES64L-G16RevC.01  3-Jul-2019

 ----------------------------------------------------------------------
 #t hf aug-cc-pvdz iop(5/13=1,5/36=2,99/5=2) pseudo=read geom=check gue
 ss=(read,tcheck) scf=(maxcycle=1)
 ----------------------------------------------------------------------
 -----
 title
 -----
 Structure from the checkpoint file:  "2-amino-2-cyanoethanethioamide.chk"
 Charge =  0 Multiplicity = 1

                         Standard orientation:
 ---------------------------------------------------------------------
 Center     Atomic      Atomic             Coordinates (Angstroms)
 Number     Number       Type             X           Y           Z
 ---------------------------------------------------------------------
      1         16           0       -1.950591   -0.686147   -0.303940
      2          7           0        1.432922    1.428952   -0.545421
      3          7           0       -0.711841    1.245188    1.046284
      4          7           0        2.117170   -1.659656    0.627854
      5          6           0        0.684478    0.164121   -0.583266
      6          6           0       -0.693718    0.297052    0.111210
      7          6           0        1.467167   -0.871492    0.100755
      8          1           0        0.479303   -0.201586   -1.591769
      9          1           0        1.137544    2.029439   -1.305751
     10          1           0        2.426777    1.267897   -0.644579
     11          1           0       -1.552470    1.410472    1.572884
     12          1           0        0.102983    1.832653    1.159037
 ---------------------------------------------------------------------

 SCF Done:  E(RHF) =  -678.929521442     A.U. after    2 cycles

 The electronic state is 1-A.
 Alpha  occ. eigenvalues --  -75.65016 -15.81666 -15.78925 -15.77840 -13.15366
 Alpha  occ. eigenvalues --  -13.00052 -12.96918 -11.53697 -11.49723 -11.44570
 Alpha  occ. eigenvalues --   -7.99211  -1.48578  -1.37086  -1.30348  -1.15086
 Alpha  occ. eigenvalues --   -1.05111  -0.85730  -0.76932  -0.74952  -0.66401
 Alpha  occ. eigenvalues --   -0.64837  -0.62246  -0.54553  -0.50513  -0.47480
 Alpha  occ. eigenvalues --   -0.46329  -0.43773  -0.41388  -0.26742  -0.22772
 Alpha virt. eigenvalues --    0.02313   0.04170   0.05236   0.05505   0.06476
 Alpha virt. eigenvalues --    0.07898   0.08557   0.09726   0.10720   0.12444
 Alpha virt. eigenvalues --    0.13044   0.13568   0.14034   0.15366   0.16134

 Mulliken charges:
               1
     1  S    1.169313
     2  N   -2.636671
     3  N   -3.381009
     4  N   -2.558812
     5  C   -0.424837
     6  C    0.756040
     7  C    2.502522
     8  H    1.645029
     9  H    0.601031
    10  H    0.700748
    11  H    0.770194
    12  H    0.856452
 Sum of Mulliken charges =  -0.00000

 Dipole moment (field-independent basis, Debye):
    X=             -0.6682    Y=              3.5737    Z=             -1.3509  Tot=              3.8785

 Test job not archived.
 1\1\GINC-SE249\SP\RHF\Aug-CC-pVDZ\C3H5N3S1\OHZDE\06-Apr-2025\0\\#t hf
 aug-cc-pvdz iop(5/13=1,5/36=2,99/5=2) pseudo=read geom=check guess=(re
 ad,tcheck) scf=(maxcycle=1)\\title\\0,1\S,0,-1.950591,-0.686147,-0.303
 94\N,0,1.432922,1.428952,-0.545421\N,0,-0.711841,1.245188,1.046284\N,0
 ,2.11717,-1.659656,0.627854\C,0,0.684478,0.164121,-0.583266\C,0,-0.693
 718,0.297052,0.11121\C,0,1.467167,-0.871492,0.100755\H,0,0.479303,-0.2
 01586,-1.591769\H,0,1.137544,2.029439,-1.305751\H,0,2.426777,1.267897,
 -0.644579\H,0,-1.55247,1.410472,1.572884\H,0,0.102983,1.832653,1.15903

 Normal termination of Gaussian 16 at Sun Apr  6 08:01:31 2025.
