 Gaussian 16, Revision C.01,

 ----------------------------------------------------------------------
 #t hf aug-cc-pvdz symm=none int=(grid=ultrafine) guess=(read,tcheck) s
 table=(opt,rrhf)
 ----------------------------------------------------------------------
 -----
 title
 -----
 Symbolic Z-matrix:
 Charge =  0 Multiplicity = 1

 SCF Done:  E(RHF) =  -848.109559877     A.U. after   17 cycles
 Normal termination of Gaussian 16 at Sun Apr  6 08:02:09 2025.
 Gaussian 16:  ES64L-G16RevC.01  3-Jul-2019

 ----------------------------------------------------------------------
 #t hf aug-cc-pvdz iop(5/13=1,5/36=2,99/5=2) pseudo=read geom=check gue
 ss=(read,tcheck) scf=(maxcycle=1)
 ----------------------------------------------------------------------
 -----
 title
 -----
 Structure from the checkpoint file:  "2-amino-2-nitroso-3-sulfanylpropanoic_acid.chk"
 Charge =  0 Multiplicity = 1

                         Standard orientation:
 ---------------------------------------------------------------------
 Center     Atomic      Atomic             Coordinates (Angstroms)
 Number     Number       Type             X           Y           Z
 ---------------------------------------------------------------------
      1         16           0        2.590627   -0.398383    0.022037
      2          8           0       -1.809480   -1.599735   -0.671452
      3          8           0       -2.549580    0.115934    0.577774
      4          8           0       -0.025063    2.199939   -0.680860
      5          7           0       -0.181727    1.093324   -1.068444
      6          7           0       -0.043483    0.595039    1.433653
      7          6           0       -0.211472    0.021895    0.148750
      8          6           0       -1.585305   -0.610668   -0.028144
      9          6           0        0.874555   -0.989357   -0.229063
     10          1           0        2.628680   -0.584070    1.353771
     11          1           0       -3.394862   -0.321472    0.396688
     12          1           0       -0.824033    1.185978    1.685952
     13          1           0        0.803667    1.150378    1.462821
     14          1           0        0.792491   -1.224457   -1.287032
     15          1           0        0.726816   -1.911112    0.325783
 ---------------------------------------------------------------------

 SCF Done:  E(RHF) =  -850.276923040     A.U. after    2 cycles

 The electronic state is 1-A.
 Alpha  occ. eigenvalues --  -75.70199 -21.15252 -21.14814 -21.08292 -15.87758
 Alpha  occ. eigenvalues --  -15.76473 -13.16126 -13.12021 -13.05616 -11.56837
 Alpha  occ. eigenvalues --  -11.50966 -11.43240  -8.04061  -1.89344  -1.85346
 Alpha  occ. eigenvalues --   -1.68522  -1.40596  -1.21166  -1.11796  -0.97180
 Alpha  occ. eigenvalues --   -0.93081  -0.78950  -0.70803  -0.69690  -0.66462
 Alpha  occ. eigenvalues --   -0.62443  -0.61560  -0.57584  -0.56510  -0.53759
 Alpha  occ. eigenvalues --   -0.51143  -0.50431  -0.47598  -0.41011  -0.40276
 Alpha  occ. eigenvalues --   -0.36444  -0.32978  -0.27760  -0.25369
 Alpha virt. eigenvalues --    0.03457   0.04544   0.05308   0.05424   0.06248
 Alpha virt. eigenvalues --    0.07859   0.09216   0.10374   0.11146   0.11326
 Alpha virt. eigenvalues --    0.11960   0.12653   0.13724   0.14022   0.15135

 Mulliken charges:
               1
     1  S   -0.532743
     2  O   -3.233793
     3  O   -3.101767
     4  O   -2.233148
     5  N    0.853154
     6  N   -3.763255
     7  C    2.700435
     8  C    7.266213
     9  C   -3.700629
    10  H    0.974737
    11  H    0.906045
    12  H    0.612795
    13  H    0.606980
    14  H    1.496089
    15  H    1.148887
 Sum of Mulliken charges =  -0.00000

 Dipole moment (field-independent basis, Debye):
    X=              0.2030    Y=              1.2527    Z=              0.5022  Tot=              1.3648

 Test job not archived.
 1\1\GINC-SE258\SP\RHF\Aug-CC-pVDZ\C3H6N2O3S1\OHZDE\06-Apr-2025\0\\#t h
 f aug-cc-pvdz iop(5/13=1,5/36=2,99/5=2) pseudo=read geom=check guess=(
 read,tcheck) scf=(maxcycle=1)\\title\\0,1\S,0,2.590627,-0.398383,0.022
 037\O,0,-1.80948,-1.599735,-0.671452\O,0,-2.54958,0.115934,0.577774\O,
 0,-0.025063,2.199939,-0.68086\N,0,-0.181727,1.093324,-1.068444\N,0,-0.
 043483,0.595039,1.433653\C,0,-0.211472,0.021895,0.14875\C,0,-1.585305,
 -0.610668,-0.028144\C,0,0.874555,-0.989357,-0.229063\H,0,2.62868,-0.58
 407,1.353771\H,0,-3.394862,-0.321472,0.396688\H,0,-0.824033,1.185978,1

 Normal termination of Gaussian 16 at Sun Apr  6 08:02:15 2025.
