 Gaussian 16, Revision C.01,

 ----------------------------------------------------------------------
 #t hf aug-cc-pvdz symm=none int=(grid=ultrafine) guess=(read,tcheck) s
 table=(opt,rrhf)
 ----------------------------------------------------------------------
 -----
 title
 -----
 Symbolic Z-matrix:
 Charge =  0 Multiplicity = 1

 SCF Done:  E(RHF) =  -639.571467602     A.U. after   15 cycles
 Normal termination of Gaussian 16 at Sun Apr  6 08:01:20 2025.
 Gaussian 16:  ES64L-G16RevC.01  3-Jul-2019

 ----------------------------------------------------------------------
 #t hf aug-cc-pvdz iop(5/13=1,5/36=2,99/5=2) pseudo=read geom=check gue
 ss=(read,tcheck) scf=(maxcycle=1)
 ----------------------------------------------------------------------
 -----
 title
 -----
 Structure from the checkpoint file:  "2-amino-2-iminoethanethioamide.chk"
 Charge =  0 Multiplicity = 1

                         Standard orientation:
 ---------------------------------------------------------------------
 Center     Atomic      Atomic             Coordinates (Angstroms)
 Number     Number       Type             X           Y           Z
 ---------------------------------------------------------------------
      1         16           0       -1.746638   -0.491801   -0.024174
      2          7           0        1.069100   -1.539005    0.070067
      3          7           0       -0.321863    1.747667    0.040754
      4          7           0        2.022193    0.634247   -0.054121
      5          6           0        1.041264   -0.187875   -0.000463
      6          6           0       -0.357714    0.420697    0.009753
      7          1           0        0.188021   -2.026997    0.000787
      8          1           0        1.927591   -2.037227   -0.074943
      9          1           0        0.590765    2.186653    0.033004
     10          1           0       -1.174968    2.277579    0.029518
     11          1           0        2.927486    0.171511   -0.054209
 ---------------------------------------------------------------------

 SCF Done:  E(RHF) =  -640.910823209     A.U. after    2 cycles

 The electronic state is 1-A.
 Alpha  occ. eigenvalues --  -75.64615 -15.80358 -15.78223 -15.73346 -13.15020
 Alpha  occ. eigenvalues --  -13.01736 -12.95652 -11.52805 -11.46768  -7.98804
 Alpha  occ. eigenvalues --   -1.49591  -1.38170  -1.25535  -1.11918  -0.94411
 Alpha  occ. eigenvalues --   -0.78671  -0.75161  -0.71403  -0.65306  -0.58501
 Alpha  occ. eigenvalues --   -0.57380  -0.48331  -0.44761  -0.41932  -0.34217
 Alpha  occ. eigenvalues --   -0.26010  -0.23051
 Alpha virt. eigenvalues --    0.03093   0.04446   0.05548   0.06500   0.07395
 Alpha virt. eigenvalues --    0.07671   0.09539   0.10885   0.12512   0.13379
 Alpha virt. eigenvalues --    0.14805   0.15684   0.15900   0.16761   0.16892

 Mulliken charges:
               1
     1  S    1.185175
     2  N   -3.000328
     3  N   -3.481039
     4  N   -3.260610
     5  C    3.396694
     6  C    1.346311
     7  H    0.686788
     8  H    0.786824
     9  H    0.843842
    10  H    0.726037
    11  H    0.770305
 Sum of Mulliken charges =   0.00000

 Dipole moment (field-independent basis, Debye):
    X=              0.1011    Y=             -1.1436    Z=             -0.1668  Tot=              1.1602

 Test job not archived.
 1\1\GINC-SE249\SP\RHF\Aug-CC-pVDZ\C2H5N3S1\OHZDE\06-Apr-2025\0\\#t hf
 aug-cc-pvdz iop(5/13=1,5/36=2,99/5=2) pseudo=read geom=check guess=(re
 ad,tcheck) scf=(maxcycle=1)\\title\\0,1\S,0,-1.746638,-0.491801,-0.024
 174\N,0,1.0691,-1.539005,0.070067\N,0,-0.321863,1.747667,0.040754\N,0,
 2.022193,0.634247,-0.054121\C,0,1.041264,-0.187875,-0.000463\C,0,-0.35
 7714,0.420697,0.009753\H,0,0.188021,-2.026997,0.000787\H,0,1.927591,-2
 .037227,-0.074943\H,0,0.590765,2.186653,0.033004\H,0,-1.174968,2.27757
 9,0.029518\H,0,2.927486,0.171511,-0.054209\\Version=ES64L-G16RevC.01\S

 Normal termination of Gaussian 16 at Sun Apr  6 08:01:25 2025.
