 Gaussian 16, Revision C.01,

 ----------------------------------------------------------------------
 #t hf aug-cc-pvdz symm=none int=(grid=ultrafine) guess=(read,tcheck) s
 table=(opt,rrhf)
 ----------------------------------------------------------------------
 -----
 title
 -----
 Symbolic Z-matrix:
 Charge =  0 Multiplicity = 1

 SCF Done:  E(RHF) =  -491.533262251     A.U. after   14 cycles
 Normal termination of Gaussian 16 at Sun Apr  6 08:01:50 2025.
 Gaussian 16:  ES64L-G16RevC.01  3-Jul-2019

 ----------------------------------------------------------------------
 #t hf aug-cc-pvdz iop(5/13=1,5/36=2,99/5=2) pseudo=read geom=check gue
 ss=(read,tcheck) scf=(maxcycle=1)
 ----------------------------------------------------------------------
 -----
 title
 -----
 Structure from the checkpoint file:  "2-amino-4-hydroxy-5-fluoropyrimidine.chk"
 Charge =  0 Multiplicity = 1

                         Standard orientation:
 ---------------------------------------------------------------------
 Center     Atomic      Atomic             Coordinates (Angstroms)
 Number     Number       Type             X           Y           Z
 ---------------------------------------------------------------------
      1          9           0       -2.432062   -0.840581   -0.001430
      2          8           0       -1.549974    1.772119    0.004185
      3          7           0        0.623463    1.045644   -0.000115
      4          7           0        1.145451   -1.283249    0.004540
      5          7           0        2.809376    0.312221   -0.053279
      6          6           0       -0.665617    0.765530   -0.000417
      7          6           0       -1.116639   -0.556241   -0.001881
      8          6           0        1.480636    0.009952   -0.004752
      9          6           0       -0.163020   -1.546056    0.003960
     10          1           0       -1.037104    2.592592    0.000511
     11          1           0        3.451036   -0.430928    0.156545
     12          1           0        3.081893    1.251498    0.171878
     13          1           0       -0.467661   -2.586310    0.010977
 ---------------------------------------------------------------------

 SCF Done:  E(RHF) =  -493.607062994     A.U. after    2 cycles

 The electronic state is 1-A.
 Alpha  occ. eigenvalues --  -29.28769 -21.13218 -15.77706 -15.74291 -15.73432
 Alpha  occ. eigenvalues --  -11.54454 -11.49492 -11.48088 -11.43146  -1.80525
 Alpha  occ. eigenvalues --   -1.54358  -1.34706  -1.31053  -1.19545  -0.95845
 Alpha  occ. eigenvalues --   -0.93508  -0.77334  -0.74873  -0.72558  -0.64870
 Alpha  occ. eigenvalues --   -0.64332  -0.60703  -0.57666  -0.52902  -0.48511
 Alpha  occ. eigenvalues --   -0.47885  -0.47515  -0.38585  -0.38181  -0.37915
 Alpha  occ. eigenvalues --   -0.35511  -0.26781  -0.21176
 Alpha virt. eigenvalues --    0.03715   0.04867   0.05810   0.06184   0.09738
 Alpha virt. eigenvalues --    0.10365   0.11076   0.11168   0.12282   0.12719
 Alpha virt. eigenvalues --    0.13386   0.13506   0.13682   0.14449   0.16566

 Mulliken charges:
               1
     1  F    1.082873
     2  O   -3.725215
     3  N   -3.016829
     4  N   -3.362374
     5  N   -2.829377
     6  C    3.898887
     7  C    0.696041
     8  C    3.943788
     9  C   -0.641449
    10  H    0.950995
    11  H    0.631307
    12  H    0.657657
    13  H    1.713696
 Sum of Mulliken charges =   0.00000

 Dipole moment (field-independent basis, Debye):
    X=             -1.4838    Y=              0.8109    Z=              0.5342  Tot=              1.7733

 Test job not archived.
 1\1\GINC-SE262\SP\RHF\Aug-CC-pVDZ\C4H4F1N3O1\OHZDE\06-Apr-2025\0\\#t h
 f aug-cc-pvdz iop(5/13=1,5/36=2,99/5=2) pseudo=read geom=check guess=(
 read,tcheck) scf=(maxcycle=1)\\title\\0,1\F,0,-2.432062,-0.840581,-0.0
 0143\O,0,-1.549974,1.772119,0.004185\N,0,0.623463,1.045644,-0.000115\N
 ,0,1.145451,-1.283249,0.00454\N,0,2.809376,0.312221,-0.053279\C,0,-0.6
 65617,0.76553,-0.000417\C,0,-1.116639,-0.556241,-0.001881\C,0,1.480636
 ,0.009952,-0.004752\C,0,-0.16302,-1.546056,0.00396\H,0,-1.037104,2.592
 592,0.000511\H,0,3.451036,-0.430928,0.156545\H,0,3.081893,1.251498,0.1

 Normal termination of Gaussian 16 at Sun Apr  6 08:01:59 2025.
