 Gaussian 16, Revision C.01,

 ----------------------------------------------------------------------
 #t hf aug-cc-pvdz symm=none int=(grid=ultrafine) guess=(read,tcheck) s
 table=(opt,rrhf)
 ----------------------------------------------------------------------
 -----
 title
 -----
 Symbolic Z-matrix:
 Charge =  0 Multiplicity = 1

 SCF Done:  E(RHF) =  -519.656105747     A.U. after   14 cycles
 Normal termination of Gaussian 16 at Sun Apr  6 08:01:40 2025.
 Gaussian 16:  ES64L-G16RevC.01  3-Jul-2019

 ----------------------------------------------------------------------
 #t hf aug-cc-pvdz iop(5/13=1,5/36=2,99/5=2) pseudo=read geom=check gue
 ss=(read,tcheck) scf=(maxcycle=1)
 ----------------------------------------------------------------------
 -----
 title
 -----
 Structure from the checkpoint file:  "2-amino-3-3-difluoropropanoic_acid.chk"
 Charge =  0 Multiplicity = 1

                         Standard orientation:
 ---------------------------------------------------------------------
 Center     Atomic      Atomic             Coordinates (Angstroms)
 Number     Number       Type             X           Y           Z
 ---------------------------------------------------------------------
      1          9           0       -1.745208   -0.927739   -0.493927
      2          9           0       -1.346524    0.380082    1.235265
      3          8           0        2.196225   -0.085244    0.474269
      4          8           0        0.848450   -1.764507   -0.054074
      5          7           0        0.475358    1.931411   -0.401493
      6          6           0        0.139589    0.538365   -0.608811
      7          6           0       -1.288396    0.325650   -0.123236
      8          6           0        1.157136   -0.455672    0.009476
      9          1           0       -0.057623   -1.892498   -0.368997
     10          1           0        1.337386    2.150616   -0.884107
     11          1           0        0.664237    2.091296    0.582030
     12          1           0        0.119355    0.341464   -1.684857
     13          1           0       -1.972645    1.066109   -0.531789
 ---------------------------------------------------------------------

 SCF Done:  E(RHF) =  -521.719383931     A.U. after    2 cycles

 The electronic state is 1-A.
 Alpha  occ. eigenvalues --  -29.31383 -29.30791 -21.13101 -21.06427 -15.76453
 Alpha  occ. eigenvalues --  -11.56775 -11.54360 -11.46119  -1.83699  -1.67035
 Alpha  occ. eigenvalues --   -1.42321  -1.27584  -1.03558  -0.84905  -0.82419
 Alpha  occ. eigenvalues --   -0.78785  -0.72219  -0.69061  -0.61909  -0.59866
 Alpha  occ. eigenvalues --   -0.53785  -0.52462  -0.52051  -0.46010  -0.40931
 Alpha  occ. eigenvalues --   -0.39271  -0.35329  -0.33439  -0.32093  -0.31466
 Alpha  occ. eigenvalues --   -0.28263  -0.24697
 Alpha virt. eigenvalues --    0.04072   0.04786   0.05411   0.06339   0.07258
 Alpha virt. eigenvalues --    0.10009   0.11107   0.11322   0.11425   0.13208
 Alpha virt. eigenvalues --    0.13723   0.14017   0.14459   0.16164   0.18397

 Mulliken charges:
               1
     1  F    0.350585
     2  F    0.314195
     3  O   -3.071388
     4  O   -3.222607
     5  N   -2.731567
     6  C   -1.405141
     7  C   -1.300683
     8  C    5.619359
     9  H    1.053989
    10  H    0.548394
    11  H    0.596768
    12  H    1.667481
    13  H    1.580616
 Sum of Mulliken charges =  -0.00000

 Dipole moment (field-independent basis, Debye):
    X=             -2.2435    Y=             -0.9354    Z=              0.3845  Tot=              2.4609

 Test job not archived.
 1\1\GINC-SE258\SP\RHF\Aug-CC-pVDZ\C3H5F2N1O2\OHZDE\06-Apr-2025\0\\#t h
 f aug-cc-pvdz iop(5/13=1,5/36=2,99/5=2) pseudo=read geom=check guess=(
 read,tcheck) scf=(maxcycle=1)\\title\\0,1\F,0,-1.745208,-0.927739,-0.4
 93927\F,0,-1.346524,0.380082,1.235265\O,0,2.196225,-0.085244,0.474269\
 O,0,0.84845,-1.764507,-0.054074\N,0,0.475358,1.931411,-0.401493\C,0,0.
 139589,0.538365,-0.608811\C,0,-1.288396,0.32565,-0.123236\C,0,1.157136
 ,-0.455672,0.009476\H,0,-0.057623,-1.892498,-0.368997\H,0,1.337386,2.1
 50616,-0.884107\H,0,0.664237,2.091296,0.58203\H,0,0.119355,0.341464,-1

 Normal termination of Gaussian 16 at Sun Apr  6 08:01:45 2025.
