 Gaussian 16, Revision C.01,

 ----------------------------------------------------------------------
 #t hf aug-cc-pvdz symm=none int=(grid=ultrafine) guess=(read,tcheck) s
 table=(opt,rrhf)
 ----------------------------------------------------------------------
 -----
 title
 -----
 Symbolic Z-matrix:
 Charge =  0 Multiplicity = 1

 SCF Done:  E(RHF) =  -714.027947301     A.U. after   18 cycles
 Normal termination of Gaussian 16 at Sun Apr  6 08:01:29 2025.
 Gaussian 16:  ES64L-G16RevC.01  3-Jul-2019

 ----------------------------------------------------------------------
 #t hf aug-cc-pvdz iop(5/13=1,5/36=2,99/5=2) pseudo=read geom=check gue
 ss=(read,tcheck) scf=(maxcycle=1)
 ----------------------------------------------------------------------
 -----
 title
 -----
 Structure from the checkpoint file:  "2-azidothiophene.chk"
 Charge =  0 Multiplicity = 1

                         Standard orientation:
 ---------------------------------------------------------------------
 Center     Atomic      Atomic             Coordinates (Angstroms)
 Number     Number       Type             X           Y           Z
 ---------------------------------------------------------------------
      1         16           0       -1.312415   -1.115521   -0.000006
      2          7           0        1.348922   -0.797364    0.000029
      3          7           0        2.371560   -0.112910   -0.000008
      4          7           0        3.375724    0.402319   -0.000020
      5          6           0        0.117911   -0.130110    0.000011
      6          6           0       -0.182896    1.205002    0.000013
      7          6           0       -2.320123    0.290783   -0.000010
      8          6           0       -1.585097    1.436766    0.000000
      9          1           0        0.562508    1.986411    0.000024
     10          1           0       -3.390599    0.180287   -0.000019
     11          1           0       -2.025487    2.422671    0.000000
 ---------------------------------------------------------------------

 SCF Done:  E(RHF) =  -715.708245933     A.U. after    2 cycles

 The electronic state is 1-A.
 Alpha  occ. eigenvalues --  -75.71939 -15.98456 -15.87671 -15.80171 -13.17999
 Alpha  occ. eigenvalues --  -13.15515 -13.03626 -11.49441 -11.45518 -11.42309
 Alpha  occ. eigenvalues --  -11.38101  -8.06470  -1.70391  -1.43738  -1.33177
 Alpha  occ. eigenvalues --   -1.09691  -1.06232  -0.88935  -0.80849  -0.73576
 Alpha  occ. eigenvalues --   -0.70061  -0.69700  -0.66111  -0.60950  -0.53361
 Alpha  occ. eigenvalues --   -0.53257  -0.48286  -0.42382  -0.42206  -0.39487
 Alpha  occ. eigenvalues --   -0.29336  -0.26878
 Alpha virt. eigenvalues --    0.03252   0.05008   0.05689   0.07830   0.08136
 Alpha virt. eigenvalues --    0.10346   0.10662   0.12332   0.12795   0.13172
 Alpha virt. eigenvalues --    0.13333   0.13897   0.14036   0.14513   0.14923

 Mulliken charges:
               1
     1  S    1.945577
     2  N   -2.710076
     3  N    2.498571
     4  N   -1.612261
     5  C    1.381164
     6  C   -2.013392
     7  C   -3.505164
     8  C   -0.358702
     9  H    1.629003
    10  H    1.259447
    11  H    1.485833
 Sum of Mulliken charges =  -0.00000

 Dipole moment (field-independent basis, Debye):
    X=             -1.6724    Y=             -1.3877    Z=             -0.0000  Tot=              2.1732

 Test job not archived.
 1\1\GINC-SE422\SP\RHF\Aug-CC-pVDZ\C4H3N3S1\OHZDE\06-Apr-2025\0\\#t hf
 aug-cc-pvdz iop(5/13=1,5/36=2,99/5=2) pseudo=read geom=check guess=(re
 ad,tcheck) scf=(maxcycle=1)\\title\\0,1\S,0,-1.312415,-1.115521,-0.000
 006\N,0,1.348922,-0.797364,0.000029\N,0,2.37156,-0.11291,-0.000008\N,0
 ,3.375724,0.402319,-0.00002\C,0,0.117911,-0.13011,0.000011\C,0,-0.1828
 96,1.205002,0.000013\C,0,-2.320123,0.290783,-0.00001\C,0,-1.585097,1.4
 36766,0.\H,0,0.562508,1.986411,0.000024\H,0,-3.390599,0.180287,-0.0000
 19\H,0,-2.025487,2.422671,0.\\Version=ES64L-G16RevC.01\State=1-A\HF=-7

 Normal termination of Gaussian 16 at Sun Apr  6 08:01:35 2025.
