 Gaussian 16, Revision C.01,

 ----------------------------------------------------------------------
 #t hf aug-cc-pvdz symm=none int=(grid=ultrafine) guess=(read,tcheck) s
 table=(opt,rrhf)
 ----------------------------------------------------------------------
 -----
 title
 -----
 Symbolic Z-matrix:
 Charge =  0 Multiplicity = 1

 SCF Done:  E(RHF) =  -469.455911468     A.U. after   17 cycles
 Normal termination of Gaussian 16 at Sun Apr  6 08:02:29 2025.
 Gaussian 16:  ES64L-G16RevC.01  3-Jul-2019

 ----------------------------------------------------------------------
 #t hf aug-cc-pvdz iop(5/13=1,5/36=2,99/5=2) pseudo=read geom=check gue
 ss=(read,tcheck) scf=(maxcycle=1)
 ----------------------------------------------------------------------
 -----
 title
 -----
 Structure from the checkpoint file:  "2-azidocyclopentene-1-carbaldehyde.chk"
 Charge =  0 Multiplicity = 1

                         Standard orientation:
 ---------------------------------------------------------------------
 Center     Atomic      Atomic             Coordinates (Angstroms)
 Number     Number       Type             X           Y           Z
 ---------------------------------------------------------------------
      1          8           0       -2.841359   -1.632448   -0.003270
      2          7           0        1.285402   -0.975322   -0.019771
      3          7           0        2.484031   -0.680505   -0.010863
      4          7           0        3.605627   -0.567935   -0.006143
      5          6           0        0.339502    0.047766    0.013908
      6          6           0       -0.993794   -0.172117    0.008810
      7          6           0        0.682021    1.512322    0.110918
      8          6           0       -1.750128    1.127746    0.107057
      9          6           0       -0.671031    2.199116   -0.176680
     10          6           0       -1.636105   -1.476759   -0.036351
     11          1           0        1.467801    1.806010   -0.588127
     12          1           0        1.055913    1.737532    1.115662
     13          1           0       -2.583844    1.169965   -0.593065
     14          1           0       -2.183781    1.237766    1.105376
     15          1           0       -0.710080    2.486415   -1.227487
     16          1           0       -0.808422    3.103763    0.412368
     17          1           0       -0.954916   -2.343981   -0.107093
 ---------------------------------------------------------------------

 SCF Done:  E(RHF) =  -471.604744367     A.U. after    2 cycles

 The electronic state is 1-A.
 Alpha  occ. eigenvalues --  -21.04767 -15.99571 -15.88733 -15.80729 -11.51809
 Alpha  occ. eigenvalues --  -11.48086 -11.46568 -11.42676 -11.40568 -11.37220
 Alpha  occ. eigenvalues --   -1.71526  -1.69295  -1.44090  -1.31598  -1.09973
 Alpha  occ. eigenvalues --   -1.06229  -0.91492  -0.88577  -0.80996  -0.72263
 Alpha  occ. eigenvalues --   -0.71129  -0.70545  -0.66957  -0.66133  -0.58497
 Alpha  occ. eigenvalues --   -0.57713  -0.56715  -0.52600  -0.49326  -0.47342
 Alpha  occ. eigenvalues --   -0.46495  -0.45583  -0.43352  -0.41589  -0.29293
 Alpha  occ. eigenvalues --   -0.28344
 Alpha virt. eigenvalues --    0.03325   0.05144   0.05367   0.05537   0.06093
 Alpha virt. eigenvalues --    0.06694   0.07147   0.08495   0.09742   0.10550
 Alpha virt. eigenvalues --    0.10873   0.11070   0.11874   0.12576   0.13330

 Mulliken charges:
               1
     1  O   -3.022254
     2  N   -2.536808
     3  N    1.795631
     4  N   -1.512466
     5  C    3.174373
     6  C    3.463636
     7  C   -4.351179
     8  C   -4.386891
     9  C   -3.036420
    10  C    1.573373
    11  H    1.238138
    12  H    1.244699
    13  H    1.050290
    14  H    1.037115
    15  H    1.362778
    16  H    1.281732
    17  H    1.624254
 Sum of Mulliken charges =  -0.00000

 Dipole moment (field-independent basis, Debye):
    X=              1.4033    Y=              2.2354    Z=              0.0990  Tot=              2.6412

 Test job not archived.
 1\1\GINC-SE422\SP\RHF\Aug-CC-pVDZ\C6H7N3O1\OHZDE\06-Apr-2025\0\\#t hf
 aug-cc-pvdz iop(5/13=1,5/36=2,99/5=2) pseudo=read geom=check guess=(re
 ad,tcheck) scf=(maxcycle=1)\\title\\0,1\O,0,-2.841359,-1.632448,-0.003
 27\N,0,1.285402,-0.975322,-0.019771\N,0,2.484031,-0.680505,-0.010863\N
 ,0,3.605627,-0.567935,-0.006143\C,0,0.339502,0.047766,0.013908\C,0,-0.
 993794,-0.172117,0.00881\C,0,0.682021,1.512322,0.110918\C,0,-1.750128,
 1.127746,0.107057\C,0,-0.671031,2.199116,-0.17668\C,0,-1.636105,-1.476
 759,-0.036351\H,0,1.467801,1.80601,-0.588127\H,0,1.055913,1.737532,1.1

 Normal termination of Gaussian 16 at Sun Apr  6 08:02:52 2025.
