 Gaussian 16, Revision C.01,

 ----------------------------------------------------------------------
 #t hf aug-cc-pvdz symm=none int=(grid=ultrafine) guess=(read,tcheck) s
 table=(opt,rrhf)
 ----------------------------------------------------------------------
 -----
 title
 -----
 Symbolic Z-matrix:
 Charge =  0 Multiplicity = 1

 SCF Done:  E(RHF) =  -398.096540600     A.U. after   15 cycles

 1\1\GINC-SE262\Stability\RHF\Aug-CC-pVDZ\C6H13N3\OHZDE\06-Apr-2025\0\\
 #t hf aug-cc-pvdz symm=none int=(grid=ultrafine) guess=(read,tcheck) s
 table=(opt,rrhf)\\title\\0,1\N,0,0.859731,-0.762092,-0.40339\N,0,2.049
 387,-0.946307,-0.188347\N,0,3.137721,-1.220267,-0.036056\C,0,0.291648,
 0.571345,0.01207\C,0,-1.196524,0.509338,-0.367515\C,0,0.982348,1.68295
 ,-0.785949\C,0,0.502842,0.782356,1.515246\C,0,-2.032716,-0.571619,0.31
 84\C,0,-3.460252,-0.628326,-0.225082\H,0,-1.25303,0.365417,-1.449882\H
 ,0,-1.630745,1.492153,-0.162114\H,0,0.564501,2.654726,-0.520022\H,0,2.

 Normal termination of Gaussian 16 at Sun Apr  6 08:02:43 2025.
 Gaussian 16:  ES64L-G16RevC.01  3-Jul-2019

 ----------------------------------------------------------------------
 #t hf aug-cc-pvdz iop(5/13=1,5/36=2,99/5=2) pseudo=read geom=check gue
 ss=(read,tcheck) scf=(maxcycle=1)
 ----------------------------------------------------------------------
 -----
 title
 -----
 Structure from the checkpoint file:  "2-azido-2-methylpentane.chk"
 Charge =  0 Multiplicity = 1

                         Standard orientation:
 ---------------------------------------------------------------------
 Center     Atomic      Atomic             Coordinates (Angstroms)
 Number     Number       Type             X           Y           Z
 ---------------------------------------------------------------------
      1          7           0        0.859731   -0.762092   -0.403390
      2          7           0        2.049387   -0.946307   -0.188347
      3          7           0        3.137721   -1.220267   -0.036056
      4          6           0        0.291648    0.571345    0.012070
      5          6           0       -1.196524    0.509338   -0.367515
      6          6           0        0.982348    1.682950   -0.785949
      7          6           0        0.502842    0.782356    1.515246
      8          6           0       -2.032716   -0.571619    0.318400
      9          6           0       -3.460252   -0.628326   -0.225082
     10          1           0       -1.253030    0.365417   -1.449882
     11          1           0       -1.630745    1.492153   -0.162114
     12          1           0        0.564501    2.654726   -0.520022
     13          1           0        2.052937    1.712880   -0.577082
     14          1           0        0.845343    1.530789   -1.856315
     15          1           0        0.024062    1.708878    1.835252
     16          1           0        1.564949    0.858780    1.752680
     17          1           0        0.084771   -0.038464    2.094828
     18          1           0       -1.547898   -1.539559    0.179221
     19          1           0       -2.067572   -0.392248    1.395396
     20          1           0       -3.978282    0.323071   -0.084883
     21          1           0       -3.466515   -0.852334   -1.293656
     22          1           0       -4.044468   -1.399694    0.278104
 ---------------------------------------------------------------------

 SCF Done:  E(RHF) =  -400.072893143     A.U. after    2 cycles

 The electronic state is 1-A.
 Alpha  occ. eigenvalues --  -15.95557 -15.83609 -15.75612 -11.47128 -11.42852
 Alpha  occ. eigenvalues --  -11.40077 -11.39444 -11.37241 -11.34820  -1.67088
 Alpha  occ. eigenvalues --   -1.39614  -1.24367  -1.14937  -1.02682  -1.00227
 Alpha  occ. eigenvalues --   -0.88490  -0.83931  -0.70452  -0.68724  -0.67168
 Alpha  occ. eigenvalues --   -0.64441  -0.62461  -0.59817  -0.58904  -0.55991
 Alpha  occ. eigenvalues --   -0.55370  -0.54881  -0.52298  -0.51006  -0.48467
 Alpha  occ. eigenvalues --   -0.46180  -0.44143  -0.41470  -0.37183  -0.33079
 Alpha virt. eigenvalues --    0.04063   0.05004   0.05089   0.05388   0.05893
 Alpha virt. eigenvalues --    0.05978   0.06163   0.06445   0.07692   0.07816
 Alpha virt. eigenvalues --    0.08524   0.09054   0.10341   0.10868   0.12373

 Mulliken charges:
               1
     1  N   -2.399048
     2  N    1.772905
     3  N   -1.670634
     4  C    4.806278
     5  C   -2.605099
     6  C   -5.296389
     7  C   -4.650262
     8  C   -3.032747
     9  C   -4.357248
    10  H    1.601849
    11  H    1.459337
    12  H    1.196618
    13  H    1.274816
    14  H    1.220428
    15  H    1.200191
    16  H    1.218763
    17  H    1.409710
    18  H    1.585806
    19  H    1.596792
    20  H    1.311002
    21  H    1.310673
    22  H    1.046260
 Sum of Mulliken charges =   0.00000

 Dipole moment (field-independent basis, Debye):
    X=             -1.5007    Y=              1.5028    Z=              0.4196  Tot=              2.1649

 Test job not archived.
 1\1\GINC-SE262\SP\RHF\Aug-CC-pVDZ\C6H13N3\OHZDE\06-Apr-2025\0\\#t hf a
 ug-cc-pvdz iop(5/13=1,5/36=2,99/5=2) pseudo=read geom=check guess=(rea
 d,tcheck) scf=(maxcycle=1)\\title\\0,1\N,0,0.859731,-0.762092,-0.40339
 \N,0,2.049387,-0.946307,-0.188347\N,0,3.137721,-1.220267,-0.036056\C,0
 ,0.291648,0.571345,0.01207\C,0,-1.196524,0.509338,-0.367515\C,0,0.9823
 48,1.68295,-0.785949\C,0,0.502842,0.782356,1.515246\C,0,-2.032716,-0.5
 71619,0.3184\C,0,-3.460252,-0.628326,-0.225082\H,0,-1.25303,0.365417,-
 1.449882\H,0,-1.630745,1.492153,-0.162114\H,0,0.564501,2.654726,-0.520

 Normal termination of Gaussian 16 at Sun Apr  6 08:02:54 2025.
