 Gaussian 16, Revision C.01,

 ----------------------------------------------------------------------
 #t hf aug-cc-pvdz symm=none int=(grid=ultrafine) guess=(read,tcheck) s
 table=(opt,rrhf)
 ----------------------------------------------------------------------
 -----
 title
 -----
 Symbolic Z-matrix:
 Charge =  0 Multiplicity = 1

 SCF Done:  E(RHF) =  -154.925695307     A.U. after   10 cycles
 Normal termination of Gaussian 16 at Sun Apr  6 08:01:15 2025.
 Gaussian 16:  ES64L-G16RevC.01  3-Jul-2019

 ----------------------------------------------------------------------
 #t hf aug-cc-pvdz iop(5/13=1,5/36=2,99/5=2) pseudo=read geom=check gue
 ss=(read,tcheck) scf=(maxcycle=1)
 ----------------------------------------------------------------------
 -----
 title
 -----
 Structure from the checkpoint file:  "2-butyne.chk"
 Charge =  0 Multiplicity = 1

                         Standard orientation:
 ---------------------------------------------------------------------
 Center     Atomic      Atomic             Coordinates (Angstroms)
 Number     Number       Type             X           Y           Z
 ---------------------------------------------------------------------
      1          6           0        0.000000    0.600514    0.000000
      2          6           0       -0.000000   -0.600514    0.000000
      3          6           0        0.000000    2.057156    0.000000
      4          6           0       -0.000000   -2.057156    0.000000
      5          1           0       -0.037656    2.451360    1.017156
      6          1           0        0.899710    2.451360   -0.475967
      7          1           0       -0.862055    2.451360   -0.541189
      8          1           0       -0.899710   -2.451360   -0.475967
      9          1           0        0.037656   -2.451360    1.017156
     10          1           0        0.862055   -2.451360   -0.541189
 ---------------------------------------------------------------------

 SCF Done:  E(RHF) =  -155.700389572     A.U. after    2 cycles

 The electronic state is 1-A.
 Alpha  occ. eigenvalues --  -11.44102 -11.42475 -11.37431 -11.37258  -1.19100
 Alpha  occ. eigenvalues --   -1.09092  -0.93976  -0.65389  -0.58779  -0.58779
 Alpha  occ. eigenvalues --   -0.56547  -0.56547  -0.55320  -0.33907  -0.33907
 Alpha virt. eigenvalues --    0.02906   0.04713   0.06686   0.06686   0.06822
 Alpha virt. eigenvalues --    0.06822   0.08823   0.11640   0.13165   0.13718
 Alpha virt. eigenvalues --    0.15800   0.15800   0.16582   0.16582   0.18036

 Mulliken charges:
               1
     1  C    2.359982
     2  C    2.359982
     3  C   -4.953206
     4  C   -4.953206
     5  H    0.864408
     6  H    0.864408
     7  H    0.864408
     8  H    0.864408
     9  H    0.864408
    10  H    0.864408
 Sum of Mulliken charges =  -0.00000

 Dipole moment (field-independent basis, Debye):
    X=              0.0000    Y=              0.0000    Z=             -0.0000  Tot=              0.0000

 Test job not archived.
 1\1\GINC-SE299\SP\RHF\Aug-CC-pVDZ\C4H6\OHZDE\06-Apr-2025\0\\#t hf aug-
 cc-pvdz iop(5/13=1,5/36=2,99/5=2) pseudo=read geom=check guess=(read,t
 check) scf=(maxcycle=1)\\title\\0,1\C,0,0.,0.,0.600514\C,0,0.,0.,-0.60
 0514\C,0,0.,0.,2.057156\C,0,0.,0.,-2.057156\H,0,0.037656,1.017156,2.45
 136\H,0,-0.89971,-0.475967,2.45136\H,0,0.862055,-0.541189,2.45136\H,0,
 0.89971,-0.475967,-2.45136\H,0,-0.037656,1.017156,-2.45136\H,0,-0.8620
 55,-0.541189,-2.45136\\Version=ES64L-G16RevC.01\State=1-A\HF=-155.7003
 896\RMSD=2.050e+00\Dipole=0.,-0.0000003,0.\Quadrupole=-1.4679974,-1.46

 Normal termination of Gaussian 16 at Sun Apr  6 08:01:17 2025.
