 Gaussian 16, Revision C.01,

 ----------------------------------------------------------------------
 #t hf aug-cc-pvdz symm=none int=(grid=ultrafine) guess=(read,tcheck) s
 table=(opt,rrhf)
 ----------------------------------------------------------------------
 -----
 title
 -----
 Symbolic Z-matrix:
 Charge =  0 Multiplicity = 1

 SCF Done:  E(RHF) =  -260.296243528     A.U. after   11 cycles
 Normal termination of Gaussian 16 at Sun Apr  6 08:01:14 2025.
 Gaussian 16:  ES64L-G16RevC.01  3-Jul-2019

 ----------------------------------------------------------------------
 #t hf aug-cc-pvdz iop(5/13=1,5/36=2,99/5=2) pseudo=read geom=check gue
 ss=(read,tcheck) scf=(maxcycle=1)
 ----------------------------------------------------------------------
 -----
 title
 -----
 Structure from the checkpoint file:  "2-butynedinitrile.chk"
 Charge =  0 Multiplicity = 1

                         Standard orientation:
 ---------------------------------------------------------------------
 Center     Atomic      Atomic             Coordinates (Angstroms)
 Number     Number       Type             X           Y           Z
 ---------------------------------------------------------------------
      1          6           0        0.000000    0.000000    0.603507
      2          6           0        0.000000    0.000000   -0.603507
      3          6           0        0.000000    0.000000    1.966164
      4          6           0        0.000000    0.000000   -1.966164
      5          7           0        0.000000    0.000000    3.122257
      6          7           0        0.000000    0.000000   -3.122257
 ---------------------------------------------------------------------

 SCF Done:  E(RHF) =  -261.425020094     A.U. after    2 cycles

 The electronic state is 1-SGG.
 Alpha  occ. eigenvalues --  -15.82781 -15.82727 -11.55069 -11.53457 -11.51596
 Alpha  occ. eigenvalues --  -11.49838  -1.38547  -1.35863  -1.20910  -1.00996
 Alpha  occ. eigenvalues --   -0.85045  -0.59071  -0.59071  -0.58816  -0.57883
 Alpha  occ. eigenvalues --   -0.52238  -0.52238  -0.40446  -0.40446
 Alpha virt. eigenvalues --    0.02907   0.04699   0.04699   0.07303   0.09654
 Alpha virt. eigenvalues --    0.09654   0.09906   0.11281   0.11281   0.12004
 Alpha virt. eigenvalues --    0.16411   0.16411   0.17709   0.18429   0.21261

 Mulliken charges:
               1
     1  C    1.040405
     2  C    1.040405
     3  C    2.321405
     4  C    2.321405
     5  N   -3.361810
     6  N   -3.361810
 Sum of Mulliken charges =  -0.00000

 Dipole moment (field-independent basis, Debye):
    X=             -0.0000    Y=             -0.0000    Z=              0.0000  Tot=              0.0000

 Test job not archived.
 1\1\GINC-SE300\SP\RHF\Aug-CC-pVDZ\C4N2\OHZDE\06-Apr-2025\0\\#t hf aug-
 cc-pvdz iop(5/13=1,5/36=2,99/5=2) pseudo=read geom=check guess=(read,t
 check) scf=(maxcycle=1)\\title\\0,1\C,0,0.,0.,0.603507\C,0,0.,0.,-0.60
 3507\C,0,0.,0.,1.966164\C,0,0.,0.,-1.966164\N,0,0.,0.,3.122257\N,0,0.,
 0.,-3.122257\\Version=ES64L-G16RevC.01\State=1-SGG\HF=-261.4250201\RMS
 D=3.949e+00\Dipole=0.,0.,0.\Quadrupole=3.5290511,3.5290511,-7.0581022,
 0.,0.,0.\PG=D*H [C*(N1C1C1.C1C1N1)]\\@

 Normal termination of Gaussian 16 at Sun Apr  6 08:01:17 2025.
