 Gaussian 16, Revision C.01,

 ----------------------------------------------------------------------
 #t hf aug-cc-pvdz symm=none int=(grid=ultrafine) guess=(read,tcheck) s
 table=(opt,rrhf)
 ----------------------------------------------------------------------
 -----
 title
 -----
 Symbolic Z-matrix:
 Charge =  0 Multiplicity = 1

 SCF Done:  E(RHF) =  -554.847909018     A.U. after   13 cycles

 1\1\GINC-SE290\Stability\RHF\Aug-CC-pVDZ\C4H10S1\OHZDE\06-Apr-2025\0\\
 #t hf aug-cc-pvdz symm=none int=(grid=ultrafine) guess=(read,tcheck) s
 table=(opt,rrhf)\\title\\0,1\S,0,1.003766,-1.20112,-0.007299\H,0,1.244
 543,-0.995639,1.301926\C,0,1.183258,1.587414,-0.017139\H,0,1.384325,1.
 633112,1.054995\H,0,0.747685,2.54429,-0.314961\C,0,0.224532,0.446006,-
 0.34219\H,0,0.071406,0.407063,-1.423635\C,0,-1.135558,0.616531,0.34221
 5\H,0,-1.467515,1.642836,0.153798\H,0,-0.998475,0.536154,1.424474\C,0,
 -2.218912,-0.353099,-0.12037\H,0,-2.402233,-0.253586,-1.192432\H,0,-1.

 Normal termination of Gaussian 16 at Sun Apr  6 08:01:34 2025.
 Gaussian 16:  ES64L-G16RevC.01  3-Jul-2019

 ----------------------------------------------------------------------
 #t hf aug-cc-pvdz iop(5/13=1,5/36=2,99/5=2) pseudo=read geom=check gue
 ss=(read,tcheck) scf=(maxcycle=1)
 ----------------------------------------------------------------------
 -----
 title
 -----
 Structure from the checkpoint file:  "2-butanethiol.chk"
 Charge =  0 Multiplicity = 1

                         Standard orientation:
 ---------------------------------------------------------------------
 Center     Atomic      Atomic             Coordinates (Angstroms)
 Number     Number       Type             X           Y           Z
 ---------------------------------------------------------------------
      1         16           0        1.003765   -1.201121   -0.007299
      2          1           0        1.244542   -0.995640    1.301926
      3          6           0        1.183259    1.587413   -0.017139
      4          1           0        1.384326    1.633111    1.054995
      5          1           0        0.747686    2.544289   -0.314961
      6          6           0        0.224532    0.446006   -0.342190
      7          1           0        0.071406    0.407063   -1.423635
      8          6           0       -1.135558    0.616532    0.342215
      9          1           0       -1.467514    1.642837    0.153798
     10          1           0       -0.998475    0.536154    1.424474
     11          6           0       -2.218912   -0.353098   -0.120370
     12          1           0       -2.402233   -0.253585   -1.192432
     13          1           0       -1.934409   -1.386198    0.075183
     14          1           0       -3.159570   -0.156546    0.395174
     15          1           0        2.134069    1.465331   -0.532831
 ---------------------------------------------------------------------

 SCF Done:  E(RHF) =  -555.910085319     A.U. after    2 cycles

 The electronic state is 1-A.
 Alpha  occ. eigenvalues --  -75.67604 -13.12401 -13.09183 -13.04614 -11.43861
 Alpha  occ. eigenvalues --  -11.40175 -11.37553 -11.35239  -8.01482  -1.28235
 Alpha  occ. eigenvalues --   -1.10506  -1.04127  -0.91763  -0.81597  -0.63993
 Alpha  occ. eigenvalues --   -0.60201  -0.59182  -0.56900  -0.52382  -0.49080
 Alpha  occ. eigenvalues --   -0.48400  -0.45624  -0.44277  -0.35743  -0.23524
 Alpha virt. eigenvalues --    0.03680   0.04859   0.05067   0.05774   0.05946
 Alpha virt. eigenvalues --    0.06297   0.06687   0.06823   0.08397   0.08912
 Alpha virt. eigenvalues --    0.09924   0.12679   0.13691   0.14054   0.14407

 Mulliken charges:
               1
     1  S   -0.649572
     2  H    0.986997
     3  C   -3.990424
     4  H    1.270532
     5  H    1.272182
     6  C   -2.033019
     7  H    1.850379
     8  C   -2.753071
     9  H    1.418499
    10  H    1.432301
    11  C   -3.943356
    12  H    1.238634
    13  H    1.539863
    14  H    1.090970
    15  H    1.269084
 Sum of Mulliken charges =  -0.00000

 Dipole moment (field-independent basis, Debye):
    X=             -0.2986    Y=              0.0273    Z=             -1.0123  Tot=              1.0558

 Test job not archived.
 1\1\GINC-SE290\SP\RHF\Aug-CC-pVDZ\C4H10S1\OHZDE\06-Apr-2025\0\\#t hf a
 ug-cc-pvdz iop(5/13=1,5/36=2,99/5=2) pseudo=read geom=check guess=(rea
 d,tcheck) scf=(maxcycle=1)\\title\\0,1\S,0,1.003766,-1.20112,-0.007299
 \H,0,1.244543,-0.995639,1.301926\C,0,1.183258,1.587414,-0.017139\H,0,1
 .384325,1.633112,1.054995\H,0,0.747685,2.54429,-0.314961\C,0,0.224532,
 0.446006,-0.34219\H,0,0.071406,0.407063,-1.423635\C,0,-1.135558,0.6165
 31,0.342215\H,0,-1.467515,1.642836,0.153798\H,0,-0.998475,0.536154,1.4
 24474\C,0,-2.218912,-0.353099,-0.12037\H,0,-2.402233,-0.253586,-1.1924

 Normal termination of Gaussian 16 at Sun Apr  6 08:01:39 2025.
