 Gaussian 16, Revision C.01,

 ----------------------------------------------------------------------
 #t hf aug-cc-pvdz symm=none int=(grid=ultrafine) guess=(read,tcheck) s
 table=(opt,rrhf)
 ----------------------------------------------------------------------
 -----
 title
 -----
 Symbolic Z-matrix:
 Charge =  0 Multiplicity = 1

 SCF Done:  E(RHF) =  -232.187606553     A.U. after   12 cycles

 1\1\GINC-SE290\Stability\RHF\Aug-CC-pVDZ\C4H10O1\OHZDE\06-Apr-2025\0\\
 #t hf aug-cc-pvdz symm=none int=(grid=ultrafine) guess=(read,tcheck) s
 table=(opt,rrhf)\\title\\0,1\C,0,2.068952,-0.02959,0.114749\C,0,-1.781
 327,-0.695111,0.003653\C,0,0.738327,-0.671951,-0.270753\C,0,-0.478716,
 0.030019,0.319827\O,0,-0.490635,1.363576,-0.211065\H,0,2.209786,-0.036
 654,1.197896\H,0,2.114065,1.005156,-0.221346\H,0,2.905645,-0.56879,-0.
 331134\H,0,-1.921866,-0.773729,-1.0754\H,0,-1.779793,-1.700291,0.42868
 1\H,0,-2.637934,-0.160756,0.420748\H,0,0.719889,-1.714419,0.057213\H,0

 Normal termination of Gaussian 16 at Sun Apr  6 08:01:32 2025.
 Gaussian 16:  ES64L-G16RevC.01  3-Jul-2019

 ----------------------------------------------------------------------
 #t hf aug-cc-pvdz iop(5/13=1,5/36=2,99/5=2) pseudo=read geom=check gue
 ss=(read,tcheck) scf=(maxcycle=1)
 ----------------------------------------------------------------------
 -----
 title
 -----
 Structure from the checkpoint file:  "2-butanol.chk"
 Charge =  0 Multiplicity = 1

                         Standard orientation:
 ---------------------------------------------------------------------
 Center     Atomic      Atomic             Coordinates (Angstroms)
 Number     Number       Type             X           Y           Z
 ---------------------------------------------------------------------
      1          6           0        2.068952   -0.029590    0.114749
      2          6           0       -1.781327   -0.695111    0.003653
      3          6           0        0.738327   -0.671951   -0.270753
      4          6           0       -0.478716    0.030019    0.319827
      5          8           0       -0.490635    1.363576   -0.211065
      6          1           0        2.209786   -0.036654    1.197896
      7          1           0        2.114065    1.005156   -0.221346
      8          1           0        2.905645   -0.568790   -0.331134
      9          1           0       -1.921866   -0.773729   -1.075400
     10          1           0       -1.779793   -1.700291    0.428681
     11          1           0       -2.637934   -0.160756    0.420748
     12          1           0        0.719889   -1.714419    0.057213
     13          1           0        0.628666   -0.681241   -1.358792
     14          1           0       -0.354839    0.083409    1.410162
     15          1           0       -1.241958    1.838511    0.155634
 ---------------------------------------------------------------------

 SCF Done:  E(RHF) =  -233.321678014     A.U. after    2 cycles

 The electronic state is 1-A.
 Alpha  occ. eigenvalues --  -21.05763 -11.44086 -11.39826 -11.37139 -11.34303
 Alpha  occ. eigenvalues --   -1.70344  -1.19786  -1.06966  -0.91761  -0.81155
 Alpha  occ. eigenvalues --   -0.67052  -0.60238  -0.58953  -0.56817  -0.53672
 Alpha  occ. eigenvalues --   -0.51403  -0.47331  -0.46175  -0.43173  -0.38817
 Alpha  occ. eigenvalues --   -0.31209
 Alpha virt. eigenvalues --    0.04072   0.05270   0.05557   0.05684   0.06018
 Alpha virt. eigenvalues --    0.06168   0.06485   0.07057   0.08941   0.09654
 Alpha virt. eigenvalues --    0.11243   0.13004   0.13880   0.15641   0.15773

 Mulliken charges:
               1
     1  C   -3.855637
     2  C   -3.756720
     3  C   -3.016240
     4  C    0.836795
     5  O   -2.955303
     6  H    1.279648
     7  H    1.370602
     8  H    1.088447
     9  H    1.221527
    10  H    1.256070
    11  H    1.121130
    12  H    1.426056
    13  H    1.478706
    14  H    1.729565
    15  H    0.775354
 Sum of Mulliken charges =  -0.00000

 Dipole moment (field-independent basis, Debye):
    X=             -0.3841    Y=             -0.2247    Z=              0.4217  Tot=              0.6131

 Test job not archived.
 1\1\GINC-SE290\SP\RHF\Aug-CC-pVDZ\C4H10O1\OHZDE\06-Apr-2025\0\\#t hf a
 ug-cc-pvdz iop(5/13=1,5/36=2,99/5=2) pseudo=read geom=check guess=(rea
 d,tcheck) scf=(maxcycle=1)\\title\\0,1\C,0,2.068952,-0.02959,0.114749\
 C,0,-1.781327,-0.695111,0.003653\C,0,0.738327,-0.671951,-0.270753\C,0,
 -0.478716,0.030019,0.319827\O,0,-0.490635,1.363576,-0.211065\H,0,2.209
 786,-0.036654,1.197896\H,0,2.114065,1.005156,-0.221346\H,0,2.905645,-0
 .56879,-0.331134\H,0,-1.921866,-0.773729,-1.0754\H,0,-1.779793,-1.7002
 91,0.428681\H,0,-2.637934,-0.160756,0.420748\H,0,0.719889,-1.714419,0.

 Normal termination of Gaussian 16 at Sun Apr  6 08:01:37 2025.
