 Gaussian 16, Revision C.01,

 ----------------------------------------------------------------------
 #t hf aug-cc-pvdz symm=none int=(grid=ultrafine) guess=(read,tcheck) s
 table=(opt,rrhf)
 ----------------------------------------------------------------------
 -----
 title
 -----
 Symbolic Z-matrix:
 Charge =  0 Multiplicity = 1

 SCF Done:  E(RHF) =  -212.352041316     A.U. after   12 cycles

 1\1\GINC-SE289\Stability\RHF\Aug-CC-pVDZ\C4H11N1\OHZDE\06-Apr-2025\0\\
 #t hf aug-cc-pvdz symm=none int=(grid=ultrafine) guess=(read,tcheck) s
 table=(opt,rrhf)\\title\\0,1\N,0,0.585676,1.381629,-0.230174\H,0,-0.20
 1181,1.952915,0.050435\H,0,1.420699,1.84486,0.107244\C,0,1.770975,-0.7
 32575,-0.00248\H,0,1.91481,-0.792002,-1.082494\H,0,2.64162,-0.231533,0
 .426249\H,0,1.738854,-1.745293,0.401057\C,0,0.486227,0.022813,0.322074
 \H,0,0.37019,0.037096,1.417614\C,0,-0.738648,-0.689705,-0.258545\H,0,-
 0.627441,-0.732,-1.345347\H,0,-0.732698,-1.721265,0.103456\C,0,-2.0758

 Normal termination of Gaussian 16 at Sun Apr  6 08:01:30 2025.
 Gaussian 16:  ES64L-G16RevC.01  3-Jul-2019

 ----------------------------------------------------------------------
 #t hf aug-cc-pvdz iop(5/13=1,5/36=2,99/5=2) pseudo=read geom=check gue
 ss=(read,tcheck) scf=(maxcycle=1)
 ----------------------------------------------------------------------
 -----
 title
 -----
 Structure from the checkpoint file:  "2-butanamine.chk"
 Charge =  0 Multiplicity = 1

                         Standard orientation:
 ---------------------------------------------------------------------
 Center     Atomic      Atomic             Coordinates (Angstroms)
 Number     Number       Type             X           Y           Z
 ---------------------------------------------------------------------
      1          7           0        0.585676    1.381629   -0.230174
      2          1           0       -0.201181    1.952915    0.050435
      3          1           0        1.420699    1.844860    0.107244
      4          6           0        1.770975   -0.732575   -0.002480
      5          1           0        1.914810   -0.792002   -1.082494
      6          1           0        2.641620   -0.231533    0.426249
      7          1           0        1.738854   -1.745293    0.401057
      8          6           0        0.486227    0.022813    0.322074
      9          1           0        0.370190    0.037096    1.417614
     10          6           0       -0.738648   -0.689705   -0.258545
     11          1           0       -0.627441   -0.732000   -1.345347
     12          1           0       -0.732698   -1.721265    0.103456
     13          6           0       -2.075899   -0.042076    0.099323
     14          1           0       -2.909692   -0.633466   -0.280918
     15          1           0       -2.171947    0.956485   -0.330085
     16          1           0       -2.198874    0.042059    1.181772
 ---------------------------------------------------------------------

 SCF Done:  E(RHF) =  -213.449766621     A.U. after    2 cycles

 The electronic state is 1-A.
 Alpha  occ. eigenvalues --  -15.71943 -11.42559 -11.39761 -11.36951 -11.34108
 Alpha  occ. eigenvalues --   -1.35531  -1.15030  -1.05908  -0.91401  -0.80271
 Alpha  occ. eigenvalues --   -0.66088  -0.65196  -0.58312  -0.56917  -0.55355
 Alpha  occ. eigenvalues --   -0.50347  -0.49833  -0.46548  -0.44230  -0.41607
 Alpha  occ. eigenvalues --   -0.34497
 Alpha virt. eigenvalues --    0.04237   0.05165   0.05653   0.05853   0.05985
 Alpha virt. eigenvalues --    0.06391   0.06558   0.06873   0.08763   0.09110
 Alpha virt. eigenvalues --    0.09452   0.11890   0.13640   0.14040   0.15058

 Mulliken charges:
               1
     1  N   -2.680872
     2  H    0.593068
     3  H    0.570227
     4  C   -3.563581
     5  H    1.244650
     6  H    1.135160
     7  H    1.249166
     8  C   -0.415253
     9  H    1.742792
    10  C   -2.741167
    11  H    1.483079
    12  H    1.434150
    13  C   -3.750887
    14  H    1.088768
    15  H    1.362711
    16  H    1.247991
 Sum of Mulliken charges =   0.00000

 Dipole moment (field-independent basis, Debye):
    X=             -0.0586    Y=              0.1510    Z=              0.9602  Tot=              0.9737

 Test job not archived.
 1\1\GINC-SE289\SP\RHF\Aug-CC-pVDZ\C4H11N1\OHZDE\06-Apr-2025\0\\#t hf a
 ug-cc-pvdz iop(5/13=1,5/36=2,99/5=2) pseudo=read geom=check guess=(rea
 d,tcheck) scf=(maxcycle=1)\\title\\0,1\N,0,0.585676,1.381629,-0.230174
 \H,0,-0.201181,1.952915,0.050435\H,0,1.420699,1.84486,0.107244\C,0,1.7
 70975,-0.732575,-0.00248\H,0,1.91481,-0.792002,-1.082494\H,0,2.64162,-
 0.231533,0.426249\H,0,1.738854,-1.745293,0.401057\C,0,0.486227,0.02281
 3,0.322074\H,0,0.37019,0.037096,1.417614\C,0,-0.738648,-0.689705,-0.25
 8545\H,0,-0.627441,-0.732,-1.345347\H,0,-0.732698,-1.721265,0.103456\C

 Normal termination of Gaussian 16 at Sun Apr  6 08:01:36 2025.
