 Gaussian 16, Revision C.01,

 ----------------------------------------------------------------------
 #t hf aug-cc-pvdz symm=none int=(grid=ultrafine) guess=(read,tcheck) s
 table=(opt,rrhf)
 ----------------------------------------------------------------------
 -----
 title
 -----
 Symbolic Z-matrix:
 Charge =  0 Multiplicity = 1

 SCF Done:  E(RHF) =  -385.122281437     A.U. after   12 cycles

 1\1\GINC-SE298\Stability\RHF\Aug-CC-pVDZ\C6H14O2\OHZDE\06-Apr-2025\0\\
 #t hf aug-cc-pvdz symm=none int=(grid=ultrafine) guess=(read,tcheck) s
 table=(opt,rrhf)\\title\\0,1\C,0,4.089165,0.588477,0.122469\C,0,2.9239
 03,-0.328181,-0.246075\C,0,1.567017,0.231891,0.182347\C,0,0.411798,-0.
 680523,-0.186833\C,0,-3.172463,-0.05612,0.344075\C,0,-1.956993,-0.8596
 46,-0.067429\O,0,-3.273599,1.167332,-0.370804\O,0,-0.806302,-0.090619,
 0.241637\H,0,3.988063,1.565495,-0.353995\H,0,4.136511,0.751152,1.20092
 4\H,0,5.043295,0.163461,-0.191317\H,0,2.923021,-0.497172,-1.326931\H,0

 Normal termination of Gaussian 16 at Sun Apr  6 08:02:24 2025.
 Gaussian 16:  ES64L-G16RevC.01  3-Jul-2019

 ----------------------------------------------------------------------
 #t hf aug-cc-pvdz iop(5/13=1,5/36=2,99/5=2) pseudo=read geom=check gue
 ss=(read,tcheck) scf=(maxcycle=1)
 ----------------------------------------------------------------------
 -----
 title
 -----
 Structure from the checkpoint file:  "2-butoxyethanol.chk"
 Charge =  0 Multiplicity = 1

                         Standard orientation:
 ---------------------------------------------------------------------
 Center     Atomic      Atomic             Coordinates (Angstroms)
 Number     Number       Type             X           Y           Z
 ---------------------------------------------------------------------
      1          6           0        4.089165    0.588477    0.122469
      2          6           0        2.923903   -0.328181   -0.246075
      3          6           0        1.567017    0.231891    0.182347
      4          6           0        0.411798   -0.680523   -0.186833
      5          6           0       -3.172463   -0.056120    0.344075
      6          6           0       -1.956993   -0.859646   -0.067429
      7          8           0       -3.273599    1.167332   -0.370804
      8          8           0       -0.806302   -0.090619    0.241637
      9          1           0        3.988063    1.565495   -0.353995
     10          1           0        4.136511    0.751152    1.200924
     11          1           0        5.043295    0.163461   -0.191317
     12          1           0        2.923021   -0.497172   -1.326931
     13          1           0        3.074567   -1.308953    0.214777
     14          1           0        1.555650    0.393751    1.263323
     15          1           0        1.405218    1.208369   -0.282062
     16          1           0        0.381813   -0.843154   -1.272776
     17          1           0        0.532797   -1.663858    0.288024
     18          1           0       -3.138051    0.127329    1.424009
     19          1           0       -4.077395   -0.622897    0.124143
     20          1           0       -1.992298   -1.069512   -1.143946
     21          1           0       -1.937954   -1.816743    0.471425
     22          1           0       -2.430595    1.623640   -0.273584
 ---------------------------------------------------------------------

 SCF Done:  E(RHF) =  -386.950573539     A.U. after    2 cycles

 The electronic state is 1-A.
 Alpha  occ. eigenvalues --  -21.05741 -21.04411 -11.45809 -11.43606 -11.41345
 Alpha  occ. eigenvalues --  -11.38995 -11.37857 -11.34970  -1.76629  -1.68693
 Alpha  occ. eigenvalues --   -1.23132  -1.10065  -1.03213  -0.90790  -0.85540
 Alpha  occ. eigenvalues --   -0.83500  -0.68214  -0.65903  -0.63691  -0.60915
 Alpha  occ. eigenvalues --   -0.59524  -0.56201  -0.55886  -0.52480  -0.51887
 Alpha  occ. eigenvalues --   -0.50458  -0.46172  -0.46036  -0.42823  -0.39287
 Alpha  occ. eigenvalues --   -0.38825  -0.30942  -0.30444
 Alpha virt. eigenvalues --    0.04048   0.04648   0.04979   0.05246   0.05695
 Alpha virt. eigenvalues --    0.05999   0.06281   0.06527   0.07096   0.07640
 Alpha virt. eigenvalues --    0.07842   0.08738   0.09423   0.10173   0.11492

 Mulliken charges:
               1
     1  C   -3.921067
     2  C   -2.629610
     3  C   -3.603212
     4  C   -0.084582
     5  C   -1.789571
     6  C   -1.948521
     7  O   -2.565754
     8  O   -3.417056
     9  H    1.319582
    10  H    1.321025
    11  H    1.074457
    12  H    1.408847
    13  H    1.409867
    14  H    1.578558
    15  H    1.588319
    16  H    1.701907
    17  H    1.691424
    18  H    1.447151
    19  H    1.193027
    20  H    1.739824
    21  H    1.606061
    22  H    0.879323
 Sum of Mulliken charges =   0.00000

 Dipole moment (field-independent basis, Debye):
    X=              1.0299    Y=             -0.6437    Z=              0.1754  Tot=              1.2271

 Test job not archived.
 1\1\GINC-SE298\SP\RHF\Aug-CC-pVDZ\C6H14O2\OHZDE\06-Apr-2025\0\\#t hf a
 ug-cc-pvdz iop(5/13=1,5/36=2,99/5=2) pseudo=read geom=check guess=(rea
 d,tcheck) scf=(maxcycle=1)\\title\\0,1\C,0,4.089165,0.588477,0.122469\
 C,0,2.923903,-0.328181,-0.246075\C,0,1.567017,0.231891,0.182347\C,0,0.
 411798,-0.680523,-0.186833\C,0,-3.172463,-0.05612,0.344075\C,0,-1.9569
 93,-0.859646,-0.067429\O,0,-3.273599,1.167332,-0.370804\O,0,-0.806302,
 -0.090619,0.241637\H,0,3.988063,1.565495,-0.353995\H,0,4.136511,0.7511
 52,1.200924\H,0,5.043295,0.163461,-0.191317\H,0,2.923021,-0.497172,-1.

 Normal termination of Gaussian 16 at Sun Apr  6 08:02:53 2025.
