 Gaussian 16, Revision C.01,

 ----------------------------------------------------------------------
 #t hf aug-cc-pvdz symm=none int=(grid=ultrafine) guess=(read,tcheck) s
 table=(opt,rrhf)
 ----------------------------------------------------------------------
 -----
 title
 -----
 Symbolic Z-matrix:
 Charge =  0 Multiplicity = 1

 SCF Done:  E(RHF) =  -452.099600394     A.U. after   15 cycles
 Normal termination of Gaussian 16 at Sun Apr  6 08:01:23 2025.
 Gaussian 16:  ES64L-G16RevC.01  3-Jul-2019

 ----------------------------------------------------------------------
 #t hf aug-cc-pvdz iop(5/13=1,5/36=2,99/5=2) pseudo=read geom=check gue
 ss=(read,tcheck) scf=(maxcycle=1)
 ----------------------------------------------------------------------
 -----
 title
 -----
 Structure from the checkpoint file:  "2-butynedioic_acid.chk"
 Charge =  0 Multiplicity = 1

                         Standard orientation:
 ---------------------------------------------------------------------
 Center     Atomic      Atomic             Coordinates (Angstroms)
 Number     Number       Type             X           Y           Z
 ---------------------------------------------------------------------
      1          8           0        0.456164    2.811298    0.519791
      2          8           0       -0.456164   -2.811298    0.519791
      3          8           0       -1.460125    2.429632   -0.552434
      4          8           0        1.460125   -2.429632   -0.552434
      5          6           0       -0.456164    2.004868   -0.060552
      6          6           0        0.456164   -2.004868   -0.060552
      7          6           0       -0.123481    0.588917   -0.035196
      8          6           0        0.123481   -0.588917   -0.035196
      9          1           0        1.213127    2.300420    0.835627
     10          1           0       -1.213127   -2.300420    0.835627
 ---------------------------------------------------------------------

 SCF Done:  E(RHF) =  -453.960320508     A.U. after    2 cycles

 The electronic state is 1-A.
 Alpha  occ. eigenvalues --  -21.16286 -21.16277 -21.09553 -21.09511 -11.60959
 Alpha  occ. eigenvalues --  -11.59281 -11.49642 -11.47786  -1.86960  -1.85847
 Alpha  occ. eigenvalues --   -1.69634  -1.69595  -1.20180  -1.01131  -0.88659
 Alpha  occ. eigenvalues --   -0.78353  -0.75907  -0.62065  -0.61262  -0.58645
 Alpha  occ. eigenvalues --   -0.58043  -0.52941  -0.51161  -0.43343  -0.43275
 Alpha  occ. eigenvalues --   -0.37250  -0.36693  -0.35149  -0.34104
 Alpha virt. eigenvalues --    0.01999   0.04693   0.07555   0.08001   0.08445
 Alpha virt. eigenvalues --    0.10517   0.10682   0.10775   0.11348   0.11447
 Alpha virt. eigenvalues --    0.12777   0.13143   0.15193   0.15199   0.16519

 Mulliken charges:
               1
     1  O   -2.854005
     2  O   -2.854005
     3  O   -2.963271
     4  O   -2.963271
     5  C    4.845859
     6  C    4.845859
     7  C   -0.090466
     8  C   -0.090466
     9  H    1.061884
    10  H    1.061884
 Sum of Mulliken charges =   0.00000

 Dipole moment (field-independent basis, Debye):
    X=              0.0000    Y=             -0.0000    Z=              1.5116  Tot=              1.5116

 Test job not archived.
 1\1\GINC-SE301\SP\RHF\Aug-CC-pVDZ\C4H2O4\OHZDE\06-Apr-2025\0\\#t hf au
 g-cc-pvdz iop(5/13=1,5/36=2,99/5=2) pseudo=read geom=check guess=(read
 ,tcheck) scf=(maxcycle=1)\\title\\0,1\O,0,0.456164,2.811298,0.519791\O
 ,0,-0.456164,-2.811298,0.519791\O,0,-1.460125,2.429632,-0.552434\O,0,1
 .460125,-2.429632,-0.552434\C,0,-0.456164,2.004868,-0.060552\C,0,0.456
 164,-2.004868,-0.060552\C,0,-0.123481,0.588917,-0.035196\C,0,0.123481,
 -0.588917,-0.035196\H,0,1.213127,2.30042,0.835627\H,0,-1.213127,-2.300
 42,0.835627\\Version=ES64L-G16RevC.01\State=1-A\HF=-453.9603205\RMSD=9

 Normal termination of Gaussian 16 at Sun Apr  6 08:01:26 2025.
