 Gaussian 16, Revision C.01,

 ----------------------------------------------------------------------
 #t hf aug-cc-pvdz symm=none int=(grid=ultrafine) guess=(read,tcheck) s
 table=(opt,rrhf)
 ----------------------------------------------------------------------
 -----
 title
 -----
 Symbolic Z-matrix:
 Charge =  0 Multiplicity = 1

 SCF Done:  E(RHF) =  -453.345984396     A.U. after   13 cycles
 Normal termination of Gaussian 16 at Sun Apr  6 08:01:30 2025.
 Gaussian 16:  ES64L-G16RevC.01  3-Jul-2019

 ----------------------------------------------------------------------
 #t hf aug-cc-pvdz iop(5/13=1,5/36=2,99/5=2) pseudo=read geom=check gue
 ss=(read,tcheck) scf=(maxcycle=1)
 ----------------------------------------------------------------------
 -----
 title
 -----
 Structure from the checkpoint file:  "2-butenedioic_acid.chk"
 Charge =  0 Multiplicity = 1

                         Standard orientation:
 ---------------------------------------------------------------------
 Center     Atomic      Atomic             Coordinates (Angstroms)
 Number     Number       Type             X           Y           Z
 ---------------------------------------------------------------------
      1          6           0        0.031152    1.911320    0.000000
      2          6           0        0.450591    0.488912    0.000000
      3          6           0       -0.450591   -0.488912    0.000000
      4          6           0       -0.031152   -1.911320    0.000000
      5          8           0        1.105518   -2.312587    0.000000
      6          8           0       -1.105518    2.312587    0.000000
      7          8           0        1.105518    2.733674    0.000000
      8          8           0       -1.105518   -2.733674    0.000000
      9          1           0        1.509349    0.269845    0.000000
     10          1           0       -1.509349   -0.269845    0.000000
     11          1           0        0.771942    3.643174    0.000000
     12          1           0       -0.771942   -3.643174    0.000000
 ---------------------------------------------------------------------

 SCF Done:  E(RHF) =  -455.231740926     A.U. after    2 cycles

 The electronic state is 1-AG.
 Alpha  occ. eigenvalues --  -21.13912 -21.13911 -21.06985 -21.06977 -11.55488
 Alpha  occ. eigenvalues --  -11.55471 -11.48292 -11.42582  -1.85290  -1.83454
 Alpha  occ. eigenvalues --   -1.66981  -1.66901  -1.22421  -1.00578  -0.84134
 Alpha  occ. eigenvalues --   -0.76847  -0.69787  -0.64611  -0.61555  -0.59784
 Alpha  occ. eigenvalues --   -0.59346  -0.56713  -0.55382  -0.48255  -0.46916
 Alpha  occ. eigenvalues --   -0.40112  -0.35473  -0.34194  -0.32388  -0.31229
 Alpha virt. eigenvalues --    0.03321   0.05220   0.05628   0.05916   0.07222
 Alpha virt. eigenvalues --    0.10167   0.10909   0.11133   0.11854   0.12100
 Alpha virt. eigenvalues --    0.13159   0.14488   0.14537   0.15494   0.16094

 Mulliken charges:
               1
     1  C    5.641180
     2  C   -1.693018
     3  C   -1.693018
     4  C    5.641180
     5  O   -3.336067
     6  O   -3.336067
     7  O   -3.355738
     8  O   -3.355738
     9  H    1.633377
    10  H    1.633377
    11  H    1.110267
    12  H    1.110267
 Sum of Mulliken charges =   0.00000

 Dipole moment (field-independent basis, Debye):
    X=              0.0000    Y=             -0.0000    Z=              0.0000  Tot=              0.0000

 Test job not archived.
 1\1\GINC-SE291\SP\RHF\Aug-CC-pVDZ\C4H4O4\OHZDE\06-Apr-2025\0\\#t hf au
 g-cc-pvdz iop(5/13=1,5/36=2,99/5=2) pseudo=read geom=check guess=(read
 ,tcheck) scf=(maxcycle=1)\\title\\0,1\C,0,0.031152,1.91132,0.\C,0,0.45
 0591,0.488912,0.\C,0,-0.450591,-0.488912,0.\C,0,-0.031152,-1.91132,0.\
 O,0,1.105518,-2.312587,0.\O,0,-1.105518,2.312587,0.\O,0,1.105518,2.733
 674,0.\O,0,-1.105518,-2.733674,0.\H,0,1.509349,0.269845,0.\H,0,-1.5093
 49,-0.269845,0.\H,0,0.771942,3.643174,0.\H,0,-0.771942,-3.643174,0.\\V
 ersion=ES64L-G16RevC.01\State=1-AG\HF=-455.2317409\RMSD=1.372e+00\Dipo

 Normal termination of Gaussian 16 at Sun Apr  6 08:01:33 2025.
