 Gaussian 16, Revision C.01,

 ----------------------------------------------------------------------
 #t hf aug-cc-pvdz symm=none int=(grid=ultrafine) guess=(read,tcheck) s
 table=(opt,rrhf)
 ----------------------------------------------------------------------
 -----
 title
 -----
 Symbolic Z-matrix:
 Charge =  0 Multiplicity = 1

 SCF Done:  E(RHF) =  -231.028150930     A.U. after   14 cycles
 Normal termination of Gaussian 16 at Sun Apr  6 08:01:26 2025.
 Gaussian 16:  ES64L-G16RevC.01  3-Jul-2019

 ----------------------------------------------------------------------
 #t hf aug-cc-pvdz iop(5/13=1,5/36=2,99/5=2) pseudo=read geom=check gue
 ss=(read,tcheck) scf=(maxcycle=1)
 ----------------------------------------------------------------------
 -----
 title
 -----
 Structure from the checkpoint file:  "2-butanone.chk"
 Charge =  0 Multiplicity = 1

                         Standard orientation:
 ---------------------------------------------------------------------
 Center     Atomic      Atomic             Coordinates (Angstroms)
 Number     Number       Type             X           Y           Z
 ---------------------------------------------------------------------
      1          6           0       -1.883170   -0.506701    0.017217
      2          1           0       -2.671790    0.234445   -0.081330
      3          1           0       -2.008340   -1.043418    0.960588
      4          1           0       -1.965083   -1.246251   -0.781367
      5          6           0        2.019993   -0.020927    0.024676
      6          1           0        2.107093    0.570058    0.935544
      7          1           0        2.127700    0.662992   -0.815819
      8          6           0        0.683365   -0.747236   -0.030294
      9          1           0        0.608044   -1.363355   -0.932946
     10          1           0        0.580955   -1.453175    0.800501
     11          6           0       -0.528385    0.169660   -0.010123
     12          8           0       -0.421739    1.375414   -0.011414
     13          1           0        2.844518   -0.733384   -0.002718
 ---------------------------------------------------------------------

 SCF Done:  E(RHF) =  -232.125061331     A.U. after    2 cycles

 The electronic state is 1-A.
 Alpha  occ. eigenvalues --  -21.04561 -11.48728 -11.41197 -11.38564 -11.36200
 Alpha  occ. eigenvalues --   -1.70330  -1.19790  -1.08557  -0.92828  -0.73537
 Alpha  occ. eigenvalues --   -0.63939  -0.63594  -0.58655  -0.57778  -0.52623
 Alpha  occ. eigenvalues --   -0.49385  -0.47826  -0.45950  -0.40687  -0.28024
 Alpha virt. eigenvalues --    0.03288   0.04955   0.05442   0.05909   0.06346
 Alpha virt. eigenvalues --    0.06470   0.07374   0.08168   0.10346   0.12086
 Alpha virt. eigenvalues --    0.13387   0.14276   0.14403   0.14613   0.16196

 Mulliken charges:
               1
     1  C   -4.649610
     2  H    1.277500
     3  H    1.275254
     4  H    1.303636
     5  C   -3.619524
     6  H    1.290570
     7  H    1.298696
     8  C   -3.513360
     9  H    1.479966
    10  H    1.514354
    11  C    4.612693
    12  O   -3.340301
    13  H    1.070125
 Sum of Mulliken charges =  -0.00000

 Dipole moment (field-independent basis, Debye):
    X=             -0.0170    Y=             -1.3896    Z=              0.0023  Tot=              1.3898

 Test job not archived.
 1\1\GINC-SE291\SP\RHF\Aug-CC-pVDZ\C4H8O1\OHZDE\06-Apr-2025\0\\#t hf au
 g-cc-pvdz iop(5/13=1,5/36=2,99/5=2) pseudo=read geom=check guess=(read
 ,tcheck) scf=(maxcycle=1)\\title\\0,1\C,0,-1.88317,-0.506701,0.017217\
 H,0,-2.67179,0.234445,-0.08133\H,0,-2.00834,-1.043418,0.960588\H,0,-1.
 965083,-1.246251,-0.781367\C,0,2.019993,-0.020927,0.024676\H,0,2.10709
 3,0.570058,0.935544\H,0,2.1277,0.662992,-0.815819\C,0,0.683365,-0.7472
 36,-0.030294\H,0,0.608044,-1.363355,-0.932946\H,0,0.580955,-1.453175,0
 .800501\C,0,-0.528385,0.16966,-0.010123\O,0,-0.421739,1.375414,-0.0114

 Normal termination of Gaussian 16 at Sun Apr  6 08:01:29 2025.
