 Gaussian 16, Revision C.01,

 ----------------------------------------------------------------------
 #t hf aug-cc-pvdz symm=none int=(grid=ultrafine) guess=(read,tcheck) s
 table=(opt,rrhf)
 ----------------------------------------------------------------------
 -----
 title
 -----
 Symbolic Z-matrix:
 Charge =  0 Multiplicity = 1

 SCF Done:  E(RHF) =  -616.248448456     A.U. after   12 cycles

 1\1\GINC-SE042\Stability\RHF\Aug-CC-pVDZ\C4H9Cl1\OHZDE\06-Apr-2025\0\\
 #t hf aug-cc-pvdz symm=none int=(grid=ultrafine) guess=(read,tcheck) s
 table=(opt,rrhf)\\title\\0,1\C,0,0.,1.45652,-0.815071\C,0,1.261383,-0.
 72826,-0.815071\C,0,-1.261383,-0.72826,-0.815071\C,0,0.,0.,-0.370596\C
 l,0,0.,0.,1.489306\H,0,-0.8836,1.977898,-0.450456\H,0,0.8836,1.977898,
 -0.450456\H,0,0.,1.501962,-1.906872\H,0,2.15471,-0.223729,-0.450456\H,
 0,1.27111,-1.754169,-0.450456\H,0,1.300737,-0.750981,-1.906872\H,0,-2.
 15471,-0.223729,-0.450456\H,0,-1.27111,-1.754169,-0.450456\H,0,-1.3007

 Normal termination of Gaussian 16 at Sun Apr  6 08:01:34 2025.
 Gaussian 16:  ES64L-G16RevC.01  3-Jul-2019

 ----------------------------------------------------------------------
 #t hf aug-cc-pvdz iop(5/13=1,5/36=2,99/5=2) pseudo=read geom=check gue
 ss=(read,tcheck) scf=(maxcycle=1)
 ----------------------------------------------------------------------
 -----
 title
 -----
 Structure from the checkpoint file:  "2-chloro-2-methylpropane.chk"
 Charge =  0 Multiplicity = 1

                         Standard orientation:
 ---------------------------------------------------------------------
 Center     Atomic      Atomic             Coordinates (Angstroms)
 Number     Number       Type             X           Y           Z
 ---------------------------------------------------------------------
      1          6           0        0.815071    1.456520    0.000000
      2          6           0        0.815071   -0.728260    1.261383
      3          6           0        0.815071   -0.728260   -1.261383
      4          6           0        0.370596    0.000000    0.000000
      5         17           0       -1.489306    0.000000   -0.000000
      6          1           0        0.450456    1.977898   -0.883600
      7          1           0        0.450456    1.977898    0.883600
      8          1           0        1.906872    1.501962    0.000000
      9          1           0        0.450456   -0.223729    2.154710
     10          1           0        0.450456   -1.754169    1.271110
     11          1           0        1.906872   -0.750981    1.300737
     12          1           0        0.450456   -0.223729   -2.154710
     13          1           0        0.450456   -1.754169   -1.271110
     14          1           0        1.906872   -0.750981   -1.300737
 ---------------------------------------------------------------------

 SCF Done:  E(RHF) =  -617.325229835     A.U. after    2 cycles

 The electronic state is 1-A'.
 Alpha  occ. eigenvalues --  -99.85929 -11.45726 -11.39864 -11.39864 -11.36502
 Alpha  occ. eigenvalues --  -10.43189  -9.63163  -9.62451  -9.62451  -1.35524
 Alpha  occ. eigenvalues --   -1.18000  -1.02508  -1.02508  -0.80678  -0.65918
 Alpha  occ. eigenvalues --   -0.62977  -0.62977  -0.56536  -0.56536  -0.52632
 Alpha  occ. eigenvalues --   -0.49314  -0.49314  -0.48348  -0.43976  -0.43976
 Alpha virt. eigenvalues --    0.03433   0.05712   0.05953   0.05953   0.06236
 Alpha virt. eigenvalues --    0.06236   0.07070   0.07070   0.08593   0.09102
 Alpha virt. eigenvalues --    0.10656   0.13963   0.13963   0.14521   0.15384

 Mulliken charges:
               1
     1  C   -3.616020
     2  C   -3.616018
     3  C   -3.616018
     4  C   -0.143346
     5  Cl  -0.221484
     6  H    1.247922
     7  H    1.247922
     8  H    1.241784
     9  H    1.247922
    10  H    1.247922
    11  H    1.241785
    12  H    1.247922
    13  H    1.247922
    14  H    1.241785
 Sum of Mulliken charges =  -0.00000

 Dipole moment (field-independent basis, Debye):
    X=              2.8676    Y=             -0.0000    Z=              0.0000  Tot=              2.8676

 Test job not archived.
 1\1\GINC-SE042\SP\RHF\Aug-CC-pVDZ\C4H9Cl1\OHZDE\06-Apr-2025\0\\#t hf a
 ug-cc-pvdz iop(5/13=1,5/36=2,99/5=2) pseudo=read geom=check guess=(rea
 d,tcheck) scf=(maxcycle=1)\\title\\0,1\C,0,0.,1.45652,-0.815071\C,0,1.
 261383,-0.72826,-0.815071\C,0,-1.261383,-0.72826,-0.815071\C,0,0.,0.,-
 0.370596\Cl,0,0.,0.,1.489306\H,0,-0.8836,1.977898,-0.450456\H,0,0.8836
 ,1.977898,-0.450456\H,0,0.,1.501962,-1.906872\H,0,2.15471,-0.223729,-0
 .450456\H,0,1.27111,-1.754169,-0.450456\H,0,1.300737,-0.750981,-1.9068
 72\H,0,-2.15471,-0.223729,-0.450456\H,0,-1.27111,-1.754169,-0.450456\H

 Normal termination of Gaussian 16 at Sun Apr  6 08:01:38 2025.
