 Gaussian 16, Revision C.01,

 ----------------------------------------------------------------------
 #t hf aug-cc-pvdz symm=none int=(grid=ultrafine) guess=(read,tcheck) s
 table=(opt,rrhf)
 ----------------------------------------------------------------------
 -----
 title
 -----
 Symbolic Z-matrix:
 Charge =  0 Multiplicity = 1

 SCF Done:  E(RHF) =  -616.245582640     A.U. after   12 cycles

 1\1\GINC-SE038\Stability\RHF\Aug-CC-pVDZ\C4H9Cl1\OHZDE\06-Apr-2025\0\\
 #t hf aug-cc-pvdz symm=none int=(grid=ultrafine) guess=(read,tcheck) s
 table=(opt,rrhf)\\title\\0,1\C,0,-2.206969,-0.247941,0.120536\C,0,1.30
 8098,1.482588,-0.007133\C,0,-1.084035,0.682292,-0.327997\C,0,0.25625,0
 .451574,0.355516\Cl,0,0.901845,-1.220351,-0.068863\H,0,-3.140782,0.008
 425,-0.380359\H,0,-2.375597,-0.171892,1.196607\H,0,-1.974733,-1.286618
 ,-0.109767\H,0,0.96773,2.473657,0.301639\H,0,2.253331,1.27419,0.490384
 \H,0,1.481667,1.499431,-1.08311\H,0,-1.364879,1.71938,-0.116341\H,0,-0

 Normal termination of Gaussian 16 at Sun Apr  6 08:02:03 2025.
 Gaussian 16:  ES64L-G16RevC.01  3-Jul-2019

 ----------------------------------------------------------------------
 #t hf aug-cc-pvdz iop(5/13=1,5/36=2,99/5=2) pseudo=read geom=check gue
 ss=(read,tcheck) scf=(maxcycle=1)
 ----------------------------------------------------------------------
 -----
 title
 -----
 Structure from the checkpoint file:  "2-chlorobutane.chk"
 Charge =  0 Multiplicity = 1

                         Standard orientation:
 ---------------------------------------------------------------------
 Center     Atomic      Atomic             Coordinates (Angstroms)
 Number     Number       Type             X           Y           Z
 ---------------------------------------------------------------------
      1          6           0       -2.206969   -0.247941    0.120536
      2          6           0        1.308098    1.482588   -0.007133
      3          6           0       -1.084035    0.682292   -0.327997
      4          6           0        0.256250    0.451574    0.355516
      5         17           0        0.901845   -1.220351   -0.068863
      6          1           0       -3.140782    0.008426   -0.380359
      7          1           0       -2.375597   -0.171892    1.196607
      8          1           0       -1.974733   -1.286618   -0.109767
      9          1           0        0.967731    2.473657    0.301639
     10          1           0        2.253331    1.274190    0.490384
     11          1           0        1.481667    1.499431   -1.083110
     12          1           0       -1.364879    1.719380   -0.116341
     13          1           0       -0.943092    0.614242   -1.409190
     14          1           0        0.124917    0.404075    1.435284
 ---------------------------------------------------------------------

 SCF Done:  E(RHF) =  -617.319258781     A.U. after    2 cycles

 The electronic state is 1-A.
 Alpha  occ. eigenvalues --  -99.86361 -11.46212 -11.41136 -11.38379 -11.36045
 Alpha  occ. eigenvalues --  -10.43625  -9.63568  -9.62961  -9.62796  -1.34534
 Alpha  occ. eigenvalues --   -1.18690  -1.08383  -0.93447  -0.83733  -0.67406
 Alpha  occ. eigenvalues --   -0.62217  -0.61010  -0.58594  -0.53933  -0.52069
 Alpha  occ. eigenvalues --   -0.49770  -0.48774  -0.47872  -0.45121  -0.43269
 Alpha virt. eigenvalues --    0.03823   0.05014   0.05530   0.06065   0.06322
 Alpha virt. eigenvalues --    0.06642   0.06820   0.07346   0.08724   0.09598
 Alpha virt. eigenvalues --    0.10995   0.12484   0.13728   0.14265   0.15726

 Mulliken charges:
               1
     1  C   -3.640211
     2  C   -3.564573
     3  C   -2.691947
     4  C   -2.326633
     5  Cl  -0.018702
     6  H    1.114103
     7  H    1.226579
     8  H    1.351173
     9  H    1.290463
    10  H    1.188521
    11  H    1.293270
    12  H    1.485087
    13  H    1.464826
    14  H    1.828044
 Sum of Mulliken charges =  -0.00000

 Dipole moment (field-independent basis, Debye):
    X=             -1.0634    Y=              2.4535    Z=              0.4447  Tot=              2.7108

 Test job not archived.
 1\1\GINC-SE038\SP\RHF\Aug-CC-pVDZ\C4H9Cl1\OHZDE\06-Apr-2025\0\\#t hf a
 ug-cc-pvdz iop(5/13=1,5/36=2,99/5=2) pseudo=read geom=check guess=(rea
 d,tcheck) scf=(maxcycle=1)\\title\\0,1\C,0,-2.206969,-0.247941,0.12053
 6\C,0,1.308098,1.482588,-0.007133\C,0,-1.084035,0.682292,-0.327997\C,0
 ,0.25625,0.451574,0.355516\Cl,0,0.901845,-1.220351,-0.068863\H,0,-3.14
 0782,0.008425,-0.380359\H,0,-2.375597,-0.171892,1.196607\H,0,-1.974733
 ,-1.286618,-0.109767\H,0,0.96773,2.473657,0.301639\H,0,2.253331,1.2741
 9,0.490384\H,0,1.481667,1.499431,-1.08311\H,0,-1.364879,1.71938,-0.116

 Normal termination of Gaussian 16 at Sun Apr  6 08:02:07 2025.
