 Gaussian 16, Revision C.01,

 ----------------------------------------------------------------------
 #t hf aug-cc-pvdz symm=none int=(grid=ultrafine) guess=(read,tcheck) s
 table=(opt,rrhf)
 ----------------------------------------------------------------------
 -----
 title
 -----
 Symbolic Z-matrix:
 Charge =  0 Multiplicity = 1

 SCF Done:  E(RHF) =  -879.860407365     A.U. after   12 cycles
 Normal termination of Gaussian 16 at Sun Apr  6 08:02:35 2025.
 Gaussian 16:  ES64L-G16RevC.01  3-Jul-2019

 ----------------------------------------------------------------------
 #t hf aug-cc-pvdz iop(5/13=1,5/36=2,99/5=2) pseudo=read geom=check gue
 ss=(read,tcheck) scf=(maxcycle=1)
 ----------------------------------------------------------------------
 -----
 title
 -----
 Structure from the checkpoint file:  "2-chloro-1-1-1-trimethoxyethane.chk"
 Charge =  0 Multiplicity = 1

                         Standard orientation:
 ---------------------------------------------------------------------
 Center     Atomic      Atomic             Coordinates (Angstroms)
 Number     Number       Type             X           Y           Z
 ---------------------------------------------------------------------
      1          6           0        0.266244   -2.381801   -0.314834
      2          6           0        2.705992    0.000051    0.290476
      3          6           0        0.265909    2.381868   -0.314817
      4          6           0       -0.892239   -0.000056    0.940151
      5          6           0        0.318956    0.000034   -0.011152
      6          8           0        0.356269   -1.082293   -0.886845
      7          8           0        1.407928    0.000118    0.889584
      8          8           0        0.356106    1.082375   -0.886837
      9         17           0       -2.460390   -0.000139    0.062875
     10          1           0        0.547177   -3.074651   -1.104011
     11          1           0       -0.754233   -2.608050    0.002453
     12          1           0        0.948512   -2.502078    0.529039
     13          1           0        2.859400   -0.886861   -0.324693
     14          1           0        3.413060    0.000865    1.115990
     15          1           0        2.858879    0.886126   -0.326020
     16          1           0        0.948186    2.502235    0.529035
     17          1           0       -0.754593    2.607970    0.002494
     18          1           0        0.546723    3.074761   -1.104000
     19          1           0       -0.869091    0.879866    1.572354
     20          1           0       -0.868985   -0.879996    1.572325
 ---------------------------------------------------------------------

 SCF Done:  E(RHF) =  -882.006707569     A.U. after    2 cycles

 The electronic state is 1-A.
 Alpha  occ. eigenvalues --  -99.87874 -21.05758 -21.05411 -21.05376 -11.53912
 Alpha  occ. eigenvalues --  -11.43920 -11.41984 -11.41023 -11.40947 -10.45134
 Alpha  occ. eigenvalues --   -9.65151  -9.64380  -9.64371  -1.88566  -1.71323
 Alpha  occ. eigenvalues --   -1.70303  -1.32599  -1.10151  -1.03716  -0.97763
 Alpha  occ. eigenvalues --   -0.96697  -0.80112  -0.70686  -0.69358  -0.65346
 Alpha  occ. eigenvalues --   -0.65047  -0.60370  -0.60032  -0.59882  -0.59690
 Alpha  occ. eigenvalues --   -0.58022  -0.53586  -0.49737  -0.48048  -0.47843
 Alpha  occ. eigenvalues --   -0.46273  -0.42790  -0.35275  -0.33200  -0.30435
 Alpha  occ. eigenvalues --   -0.30307
 Alpha virt. eigenvalues --    0.03485   0.04347   0.04802   0.04856   0.05229
 Alpha virt. eigenvalues --    0.05753   0.06035   0.07114   0.08085   0.09183
 Alpha virt. eigenvalues --    0.09454   0.09570   0.11075   0.12198   0.13602

 Mulliken charges:
               1
     1  C   -3.507336
     2  C   -3.537107
     3  C   -3.507327
     4  C   -4.097310
     5  C   10.425037
     6  O   -3.827884
     7  O   -3.807130
     8  O   -3.828109
     9  Cl  -0.029463
    10  H    1.334307
    11  H    1.467987
    12  H    1.390838
    13  H    1.414023
    14  H    1.233203
    15  H    1.413948
    16  H    1.390987
    17  H    1.467885
    18  H    1.334315
    19  H    1.634556
    20  H    1.634582
 Sum of Mulliken charges =  -0.00000

 Dipole moment (field-independent basis, Debye):
    X=              2.3656    Y=              0.0002    Z=              0.7962  Tot=              2.4960

 Test job not archived.
 1\1\GINC-SE402\SP\RHF\Aug-CC-pVDZ\C5H11Cl1O3\OHZDE\06-Apr-2025\0\\#t h
 f aug-cc-pvdz iop(5/13=1,5/36=2,99/5=2) pseudo=read geom=check guess=(
 read,tcheck) scf=(maxcycle=1)\\title\\0,1\C,0,0.266243,-2.381801,-0.31
 4834\C,0,2.705992,0.00005,0.290476\C,0,0.26591,2.381868,-0.314817\C,0,
 -0.892239,-0.000056,0.940151\C,0,0.318956,0.000034,-0.011152\O,0,0.356
 269,-1.082293,-0.886845\O,0,1.407928,0.000118,0.889584\O,0,0.356106,1.
 082375,-0.886837\Cl,0,-2.46039,-0.000138,0.062875\H,0,0.547176,-3.0746
 51,-1.104011\H,0,-0.754234,-2.60805,0.002453\H,0,0.948511,-2.502078,0.

 Normal termination of Gaussian 16 at Sun Apr  6 08:02:55 2025.
