 Gaussian 16, Revision C.01,

 ----------------------------------------------------------------------
 #t hf aug-cc-pvdz symm=none int=(grid=ultrafine) guess=(read,tcheck) s
 table=(opt,rrhf)
 ----------------------------------------------------------------------
 -----
 title
 -----
 Symbolic Z-matrix:
 Charge =  0 Multiplicity = 1

 SCF Done:  E(RHF) =  -764.524693315     A.U. after   16 cycles
 Normal termination of Gaussian 16 at Sun Apr  6 08:02:24 2025.
 Gaussian 16:  ES64L-G16RevC.01  3-Jul-2019

 ----------------------------------------------------------------------
 #t hf aug-cc-pvdz iop(5/13=1,5/36=2,99/5=2) pseudo=read geom=check gue
 ss=(read,tcheck) scf=(maxcycle=1)
 ----------------------------------------------------------------------
 -----
 title
 -----
 Structure from the checkpoint file:  "2-chlorophenol.chk"
 Charge =  0 Multiplicity = 1

                         Standard orientation:
 ---------------------------------------------------------------------
 Center     Atomic      Atomic             Coordinates (Angstroms)
 Number     Number       Type             X           Y           Z
 ---------------------------------------------------------------------
      1          6           0        1.592286   -1.728677   -0.000000
      2          6           0        2.181509   -0.467693   -0.000000
      3          6           0        0.212578   -1.863151   -0.000000
      4          6           0        1.379088    0.665360   -0.000000
      5          6           0       -0.604239   -0.733979   -0.000000
      6          6           0        0.000000    0.525088    0.000000
      7          8           0       -1.948598   -0.906903    0.000000
      8         17           0       -1.036509    1.945558    0.000000
      9          1           0        2.211530   -2.615032   -0.000000
     10          1           0        3.256995   -0.363392   -0.000000
     11          1           0       -0.258879   -2.835831   -0.000000
     12          1           0        1.812238    1.655014    0.000000
     13          1           0       -2.379775   -0.041703    0.000000
 ---------------------------------------------------------------------

 SCF Done:  E(RHF) =  -766.170046113     A.U. after    2 cycles

 The electronic state is 1-A'.
 Alpha  occ. eigenvalues --  -99.90859 -21.11076 -11.53504 -11.47619 -11.45691
 Alpha  occ. eigenvalues --  -11.43291 -11.41784 -11.38003 -10.48217  -9.68225
 Alpha  occ. eigenvalues --   -9.67501  -9.67165  -1.77220  -1.39101  -1.28714
 Alpha  occ. eigenvalues --   -1.10230  -1.07778  -0.89232  -0.86593  -0.72716
 Alpha  occ. eigenvalues --   -0.69040  -0.65789  -0.60377  -0.59852  -0.59394
 Alpha  occ. eigenvalues --   -0.52845  -0.51962  -0.49804  -0.47566  -0.44236
 Alpha  occ. eigenvalues --   -0.43678  -0.34674  -0.28319
 Alpha virt. eigenvalues --    0.03299   0.05030   0.05199   0.06100   0.06526
 Alpha virt. eigenvalues --    0.08396   0.09640   0.10819   0.12029   0.12259
 Alpha virt. eigenvalues --    0.12903   0.12936   0.13384   0.13950   0.14498

 Mulliken charges:
               1
     1  C   -1.128054
     2  C   -0.872707
     3  C   -1.871105
     4  C   -0.475960
     5  C    6.010606
     6  C   -4.099523
     7  O   -4.315326
     8  Cl  -0.839810
     9  H    1.517141
    10  H    1.510520
    11  H    1.741565
    12  H    1.744635
    13  H    1.078018
 Sum of Mulliken charges =   0.00000

 Dipole moment (field-independent basis, Debye):
    X=              0.9467    Y=             -1.3657    Z=             -0.0000  Tot=              1.6617

 Test job not archived.
 1\1\GINC-SE101\SP\RHF\Aug-CC-pVDZ\C6H5Cl1O1\OHZDE\06-Apr-2025\0\\#t hf
  aug-cc-pvdz iop(5/13=1,5/36=2,99/5=2) pseudo=read geom=check guess=(r
 ead,tcheck) scf=(maxcycle=1)\\title\\0,1\C,0,1.592286,-1.728677,0.\C,0
 ,2.181509,-0.467693,0.\C,0,0.212578,-1.863151,0.\C,0,1.379088,0.66536,
 0.\C,0,-0.604239,-0.733979,0.\C,0,0.,0.525088,0.\O,0,-1.948598,-0.9069
 03,0.\Cl,0,-1.036509,1.945558,0.\H,0,2.21153,-2.615032,0.\H,0,3.256995
 ,-0.363392,0.\H,0,-0.258879,-2.835831,0.\H,0,1.812238,1.655014,0.\H,0,
 -2.379775,-0.041703,0.\\Version=ES64L-G16RevC.01\State=1-A'\HF=-766.17

 Normal termination of Gaussian 16 at Sun Apr  6 08:02:50 2025.
