 Gaussian 16, Revision C.01,

 ----------------------------------------------------------------------
 #t hf aug-cc-pvdz symm=none int=(grid=ultrafine) guess=(read,tcheck) s
 table=(opt,rrhf)
 ----------------------------------------------------------------------
 -----
 title
 -----
 Symbolic Z-matrix:
 Charge =  0 Multiplicity = 1

 SCF Done:  E(RHF) =  -615.051403028     A.U. after   13 cycles

 1\1\GINC-SE402\Stability\RHF\Aug-CC-pVDZ\C4H7Cl1\OHZDE\06-Apr-2025\0\\
 #t hf aug-cc-pvdz symm=none int=(grid=ultrafine) guess=(read,tcheck) s
 table=(opt,rrhf)\\title\\0,1\C,0,2.147973,-1.066945,0.\H,0,2.507268,-2
 .095782,0.\H,0,2.554206,-0.572788,0.882885\H,0,2.554206,-0.572788,-0.8
 82885\C,0,0.621595,-1.051458,0.\H,0,0.241625,-1.595107,-0.869387\H,0,0
 .241625,-1.595107,0.869387\C,0,0.604486,1.49013,0.\H,0,1.683307,1.5465
 61,0.\C,0,0.,0.312724,0.\Cl,0,-1.769241,0.256602,0.\H,0,0.050536,2.416
 069,0.\\Version=ES64L-G16RevC.01\HF=-615.051403\RMSD=4.529e-09\Dipole=

 Normal termination of Gaussian 16 at Sun Apr  6 08:01:21 2025.
 Gaussian 16:  ES64L-G16RevC.01  3-Jul-2019

 ----------------------------------------------------------------------
 #t hf aug-cc-pvdz iop(5/13=1,5/36=2,99/5=2) pseudo=read geom=check gue
 ss=(read,tcheck) scf=(maxcycle=1)
 ----------------------------------------------------------------------
 -----
 title
 -----
 Structure from the checkpoint file:  "2-chloro-1-butene.chk"
 Charge =  0 Multiplicity = 1

                         Standard orientation:
 ---------------------------------------------------------------------
 Center     Atomic      Atomic             Coordinates (Angstroms)
 Number     Number       Type             X           Y           Z
 ---------------------------------------------------------------------
      1          6           0        2.147973   -1.066945    0.000000
      2          1           0        2.507268   -2.095782    0.000000
      3          1           0        2.554206   -0.572788    0.882885
      4          1           0        2.554206   -0.572788   -0.882885
      5          6           0        0.621595   -1.051458    0.000000
      6          1           0        0.241625   -1.595107   -0.869387
      7          1           0        0.241625   -1.595107    0.869387
      8          6           0        0.604486    1.490130    0.000000
      9          1           0        1.683307    1.546561    0.000000
     10          6           0        0.000000    0.312724    0.000000
     11         17           0       -1.769241    0.256602    0.000000
     12          1           0        0.050536    2.416069    0.000000
 ---------------------------------------------------------------------

 SCF Done:  E(RHF) =  -616.092010705     A.U. after    2 cycles

 The electronic state is 1-A'.
 Alpha  occ. eigenvalues --  -99.88486 -11.46461 -11.41862 -11.39838 -11.37266
 Alpha  occ. eigenvalues --  -10.45846  -9.65800  -9.65008  -9.64835  -1.36419
 Alpha  occ. eigenvalues --   -1.19594  -1.07368  -0.94095  -0.77788  -0.67162
 Alpha  occ. eigenvalues --   -0.63787  -0.60782  -0.56223  -0.54852  -0.51010
 Alpha  occ. eigenvalues --   -0.49359  -0.49078  -0.45877  -0.35923
 Alpha virt. eigenvalues --    0.03267   0.05299   0.05980   0.06279   0.06526
 Alpha virt. eigenvalues --    0.06743   0.06997   0.08189   0.10649   0.11676
 Alpha virt. eigenvalues --    0.12447   0.13635   0.14680   0.14956   0.15128

 Mulliken charges:
               1
     1  C   -3.484015
     2  H    1.074020
     3  H    1.285350
     4  H    1.285350
     5  C   -3.005379
     6  H    1.501048
     7  H    1.501048
     8  C   -3.379377
     9  H    1.623309
    10  C    0.543503
    11  Cl  -0.515341
    12  H    1.570483
 Sum of Mulliken charges =  -0.00000

 Dipole moment (field-independent basis, Debye):
    X=              2.3374    Y=             -0.2193    Z=             -0.0000  Tot=              2.3477

 Test job not archived.
 1\1\GINC-SE402\SP\RHF\Aug-CC-pVDZ\C4H7Cl1\OHZDE\06-Apr-2025\0\\#t hf a
 ug-cc-pvdz iop(5/13=1,5/36=2,99/5=2) pseudo=read geom=check guess=(rea
 d,tcheck) scf=(maxcycle=1)\\title\\0,1\C,0,2.147973,-1.066945,0.\H,0,2
 .507268,-2.095782,0.\H,0,2.554206,-0.572788,0.882885\H,0,2.554206,-0.5
 72788,-0.882885\C,0,0.621595,-1.051458,0.\H,0,0.241625,-1.595107,-0.86
 9387\H,0,0.241625,-1.595107,0.869387\C,0,0.604486,1.49013,0.\H,0,1.683
 307,1.546561,0.\C,0,0.,0.312724,0.\Cl,0,-1.769241,0.256602,0.\H,0,0.05
 0536,2.416069,0.\\Version=ES64L-G16RevC.01\State=1-A'\HF=-616.0920107\

 Normal termination of Gaussian 16 at Sun Apr  6 08:01:26 2025.
