 Gaussian 16, Revision C.01,

 ----------------------------------------------------------------------
 #t hf aug-cc-pvdz symm=none int=(grid=ultrafine) guess=(read,tcheck) s
 table=(opt,rrhf)
 ----------------------------------------------------------------------
 -----
 title
 -----
 Symbolic Z-matrix:
 Charge =  0 Multiplicity = 1

 SCF Done:  E(RHF) =  -1109.09501655     A.U. after   16 cycles
 Normal termination of Gaussian 16 at Sun Apr  6 08:01:31 2025.
 Gaussian 16:  ES64L-G16RevC.01  3-Jul-2019

 ----------------------------------------------------------------------
 #t hf aug-cc-pvdz iop(5/13=1,5/36=2,99/5=2) pseudo=read geom=check gue
 ss=(read,tcheck) scf=(maxcycle=1)
 ----------------------------------------------------------------------
 -----
 title
 -----
 Structure from the checkpoint file:  "2-chloro-5-fluorothiophene.chk"
 Charge =  0 Multiplicity = 1

                         Standard orientation:
 ---------------------------------------------------------------------
 Center     Atomic      Atomic             Coordinates (Angstroms)
 Number     Number       Type             X           Y           Z
 ---------------------------------------------------------------------
      1         17           0       -2.515817   -0.128816    0.000007
      2         16           0        0.326747   -1.096199   -0.000007
      3          9           0        2.880120   -0.361130   -0.000011
      4          6           0       -0.231182    1.433389    0.000009
      5          6           0        1.195500    1.353571    0.000004
      6          6           0       -0.825108    0.213609    0.000004
      7          6           0        1.617947    0.069156   -0.000005
      8          1           0       -0.784651    2.359095    0.000016
      9          1           0        1.861563    2.201781    0.000006
 ---------------------------------------------------------------------

 SCF Done:  E(RHF) =  -1110.61762084     A.U. after    2 cycles

 The electronic state is 1-A.
 Alpha  occ. eigenvalues --  -99.91871 -75.74066 -29.31833 -13.18220 -13.17673
 Alpha  occ. eigenvalues --  -13.05713 -11.51225 -11.48518 -11.45335 -11.39999
 Alpha  occ. eigenvalues --  -10.49224  -9.69244  -9.68252  -9.68142  -8.08569
 Alpha  occ. eigenvalues --   -1.44236  -1.32394  -1.12420  -1.11354  -0.90681
 Alpha  occ. eigenvalues --   -0.81759  -0.74960  -0.62551  -0.60110  -0.59461
 Alpha  occ. eigenvalues --   -0.57000  -0.54774  -0.50249  -0.42877  -0.41993
 Alpha  occ. eigenvalues --   -0.41185  -0.29624  -0.28394  -0.24006
 Alpha virt. eigenvalues --    0.03177   0.05573   0.06648   0.07881   0.08174
 Alpha virt. eigenvalues --    0.09238   0.10137   0.11863   0.12496   0.13546
 Alpha virt. eigenvalues --    0.13784   0.14079   0.15119   0.15217   0.15477

 Mulliken charges:
               1
     1  Cl  -0.505145
     2  S    1.406732
     3  F    0.866278
     4  C    0.231880
     5  C   -2.357622
     6  C   -1.805286
     7  C   -0.982457
     8  H    1.674362
     9  H    1.471257
 Sum of Mulliken charges =  -0.00000

 Dipole moment (field-independent basis, Debye):
    X=              4.2793    Y=             -2.0437    Z=             -0.0000  Tot=              4.7423

 Test job not archived.
 1\1\GINC-SE038\SP\RHF\Aug-CC-pVDZ\C4H2Cl1F1S1\OHZDE\06-Apr-2025\0\\#t
 hf aug-cc-pvdz iop(5/13=1,5/36=2,99/5=2) pseudo=read geom=check guess=
 (read,tcheck) scf=(maxcycle=1)\\title\\0,1\Cl,0,-2.515817,-0.128816,0.
 000007\S,0,0.326747,-1.096199,-0.000007\F,0,2.88012,-0.36113,-0.000011
 \C,0,-0.231182,1.433389,0.000009\C,0,1.1955,1.353571,0.000004\C,0,-0.8
 25108,0.213609,0.000004\C,0,1.617947,0.069156,-0.000005\H,0,-0.784651,
 2.359095,0.000016\H,0,1.861563,2.201781,0.000006\\Version=ES64L-G16Rev
 C.01\State=1-A\HF=-1110.6176208\RMSD=1.220e+00\Dipole=1.6835979,-0.804

 Normal termination of Gaussian 16 at Sun Apr  6 08:01:36 2025.
