 Gaussian 16, Revision C.01,

 ----------------------------------------------------------------------
 #t hf aug-cc-pvdz symm=none int=(grid=ultrafine) guess=(read,tcheck) s
 table=(opt,rrhf)
 ----------------------------------------------------------------------
 -----
 title
 -----
 Symbolic Z-matrix:
 Charge =  0 Multiplicity = 1

 SCF Done:  E(RHF) =  -816.230834464     A.U. after   15 cycles
 Normal termination of Gaussian 16 at Sun Apr  6 08:01:30 2025.
 Gaussian 16:  ES64L-G16RevC.01  3-Jul-2019

 ----------------------------------------------------------------------
 #t hf aug-cc-pvdz iop(5/13=1,5/36=2,99/5=2) pseudo=read geom=check gue
 ss=(read,tcheck) scf=(maxcycle=1)
 ----------------------------------------------------------------------
 -----
 title
 -----
 Structure from the checkpoint file:  "2-chloro-3-nitrosofuran.chk"
 Charge =  0 Multiplicity = 1

                         Standard orientation:
 ---------------------------------------------------------------------
 Center     Atomic      Atomic             Coordinates (Angstroms)
 Number     Number       Type             X           Y           Z
 ---------------------------------------------------------------------
      1         17           0        1.926269   -1.029667    0.000000
      2          8           0        1.000529    1.396322    0.000001
      3          8           0       -2.545474   -1.255419   -0.000001
      4          7           0       -1.326289   -1.296988   -0.000001
      5          6           0       -0.699105   -0.046948    0.000000
      6          6           0        0.667284    0.101086    0.000000
      7          6           0       -1.242421    1.285636    0.000000
      8          6           0       -0.184456    2.114819    0.000001
      9          1           0       -2.285347    1.546278    0.000000
     10          1           0       -0.065451    3.182198    0.000001
 ---------------------------------------------------------------------

 SCF Done:  E(RHF) =  -818.014162565     A.U. after    2 cycles

 The electronic state is 1-A.
 Alpha  occ. eigenvalues --  -99.94146 -21.16116 -21.11795 -15.87105 -11.53924
 Alpha  occ. eigenvalues --  -11.49658 -11.46581 -11.40878 -10.51622  -9.71712
 Alpha  occ. eigenvalues --   -9.70566  -9.70444  -1.90469  -1.84828  -1.38627
 Alpha  occ. eigenvalues --   -1.27363  -1.12443  -1.01318  -0.85562  -0.81407
 Alpha  occ. eigenvalues --   -0.72907  -0.66497  -0.63459  -0.62311  -0.57796
 Alpha  occ. eigenvalues --   -0.56408  -0.54833  -0.52963  -0.51216  -0.45933
 Alpha  occ. eigenvalues --   -0.36876  -0.33924  -0.28553
 Alpha virt. eigenvalues --    0.03291   0.05164   0.06238   0.07756   0.08343
 Alpha virt. eigenvalues --    0.09797   0.10197   0.10520   0.11657   0.12611
 Alpha virt. eigenvalues --    0.13557   0.13724   0.14259   0.14785   0.15504

 Mulliken charges:
               1
     1  Cl  -0.150519
     2  O   -3.614046
     3  O   -2.141811
     4  N   -0.237866
     5  C    4.897825
     6  C   -0.323070
     7  C   -1.984864
     8  C    0.479449
     9  H    1.634899
    10  H    1.440003
 Sum of Mulliken charges =   0.00000

 Dipole moment (field-independent basis, Debye):
    X=             -0.2875    Y=              3.1439    Z=              0.0000  Tot=              3.1570

 Test job not archived.
 1\1\GINC-SE106\SP\RHF\Aug-CC-pVDZ\C4H2Cl1N1O2\OHZDE\06-Apr-2025\0\\#t
 hf aug-cc-pvdz iop(5/13=1,5/36=2,99/5=2) pseudo=read geom=check guess=
 (read,tcheck) scf=(maxcycle=1)\\title\\0,1\Cl,0,1.926269,-1.029667,0.\
 O,0,1.000529,1.396322,0.000001\O,0,-2.545474,-1.255419,-0.000001\N,0,-
 1.326289,-1.296988,-0.000001\C,0,-0.699105,-0.046948,0.\C,0,0.667284,0
 .101086,0.\C,0,-1.242421,1.285636,0.\C,0,-0.184456,2.114819,0.000001\H
 ,0,-2.285347,1.546278,0.\H,0,-0.065452,3.182198,0.000001\\Version=ES64
 L-G16RevC.01\State=1-A\HF=-818.0141626\RMSD=1.166e+00\Dipole=-0.113118

 Normal termination of Gaussian 16 at Sun Apr  6 08:01:35 2025.
