 Gaussian 16, Revision C.01,

 ----------------------------------------------------------------------
 #t hf aug-cc-pvdz symm=none int=(grid=ultrafine) guess=(read,tcheck) s
 table=(opt,rrhf)
 ----------------------------------------------------------------------
 -----
 title
 -----
 Symbolic Z-matrix:
 Charge =  0 Multiplicity = 1

 SCF Done:  E(RHF) =  -820.503329927     A.U. after   14 cycles
 Normal termination of Gaussian 16 at Sun Apr  6 08:01:34 2025.
 Gaussian 16:  ES64L-G16RevC.01  3-Jul-2019

 ----------------------------------------------------------------------
 #t hf aug-cc-pvdz iop(5/13=1,5/36=2,99/5=2) pseudo=read geom=check gue
 ss=(read,tcheck) scf=(maxcycle=1)
 ----------------------------------------------------------------------
 -----
 title
 -----
 Structure from the checkpoint file:  "2-chloro-5-fluoropyrimidine.chk"
 Charge =  0 Multiplicity = 1

                         Standard orientation:
 ---------------------------------------------------------------------
 Center     Atomic      Atomic             Coordinates (Angstroms)
 Number     Number       Type             X           Y           Z
 ---------------------------------------------------------------------
      1         17           0        0.000000   -0.000000    2.618722
      2          9           0        0.000000    0.000000   -3.087327
      3          7           0        0.000000    1.187499    0.290904
      4          7           0       -0.000000   -1.187499    0.290904
      5          6           0        0.000000   -0.000000    0.875246
      6          6           0        0.000000    0.000000   -1.745780
      7          6           0        0.000000    1.189332   -1.040282
      8          6           0       -0.000000   -1.189332   -1.040282
      9          1           0        0.000000    2.145496   -1.549203
     10          1           0       -0.000000   -2.145496   -1.549203
 ---------------------------------------------------------------------

 SCF Done:  E(RHF) =  -822.261145227     A.U. after    2 cycles

 The electronic state is 1-A1.
 Alpha  occ. eigenvalues --  -99.90545 -29.31880 -15.78043 -15.78023 -11.53085
 Alpha  occ. eigenvalues --  -11.50562 -11.48892 -11.45278 -10.47990  -9.67973
 Alpha  occ. eigenvalues --   -9.67060  -9.66907  -1.57197  -1.34867  -1.34677
 Alpha  occ. eigenvalues --   -1.23181  -0.98539  -0.98020  -0.80820  -0.73773
 Alpha  occ. eigenvalues --   -0.71621  -0.65258  -0.62096  -0.60848  -0.55795
 Alpha  occ. eigenvalues --   -0.51797  -0.49520  -0.46642  -0.43900  -0.41053
 Alpha  occ. eigenvalues --   -0.40484  -0.29596  -0.26687
 Alpha virt. eigenvalues --    0.03450   0.05296   0.07149   0.07460   0.08788
 Alpha virt. eigenvalues --    0.09719   0.10074   0.11000   0.11075   0.11415
 Alpha virt. eigenvalues --    0.12313   0.12893   0.13638   0.13687   0.14637

 Mulliken charges:
               1
     1  Cl   0.249128
     2  F    0.925361
     3  N   -3.012151
     4  N   -3.012151
     5  C    1.238462
     6  C    1.355039
     7  C   -0.574277
     8  C   -0.574277
     9  H    1.702433
    10  H    1.702433
 Sum of Mulliken charges =  -0.00000

 Dipole moment (field-independent basis, Debye):
    X=              0.0000    Y=             -0.0000    Z=             -5.8439  Tot=              5.8439

 Test job not archived.
 1\1\GINC-SE012\SP\RHF\Aug-CC-pVDZ\C4H2Cl1F1N2\OHZDE\06-Apr-2025\0\\#t
 hf aug-cc-pvdz iop(5/13=1,5/36=2,99/5=2) pseudo=read geom=check guess=
 (read,tcheck) scf=(maxcycle=1)\\title\\0,1\Cl,0,0.,0.,2.618722\F,0,0.,
 0.,-3.087327\N,0,0.,1.187499,0.290904\N,0,0.,-1.187499,0.290904\C,0,0.
 ,0.,0.875246\C,0,0.,0.,-1.74578\C,0,0.,1.189332,-1.040282\C,0,0.,-1.18
 9332,-1.040282\H,0,0.,2.145496,-1.549203\H,0,0.,-2.145496,-1.549203\\V
 ersion=ES64L-G16RevC.01\State=1-A1\HF=-822.2611452\RMSD=5.239e-01\Dipo
 le=0.,0.,-2.2991772\Quadrupole=-2.6584947,-2.2817796,4.9402743,0.,0.,0

 Normal termination of Gaussian 16 at Sun Apr  6 08:01:38 2025.
