 Gaussian 16, Revision C.01,

 ----------------------------------------------------------------------
 #t hf aug-cc-pvdz symm=none int=(grid=ultrafine) guess=(read,tcheck) s
 table=(opt,rrhf)
 ----------------------------------------------------------------------
 -----
 title
 -----
 Symbolic Z-matrix:
 Charge =  0 Multiplicity = 1

 SCF Done:  E(RHF) =  -705.648625508     A.U. after   15 cycles
 Normal termination of Gaussian 16 at Sun Apr  6 08:02:02 2025.
 Gaussian 16:  ES64L-G16RevC.01  3-Jul-2019

 ----------------------------------------------------------------------
 #t hf aug-cc-pvdz iop(5/13=1,5/36=2,99/5=2) pseudo=read geom=check gue
 ss=(read,tcheck) scf=(maxcycle=1)
 ----------------------------------------------------------------------
 -----
 title
 -----
 Structure from the checkpoint file:  "2-chloropyridine.chk"
 Charge =  0 Multiplicity = 1

                         Standard orientation:
 ---------------------------------------------------------------------
 Center     Atomic      Atomic             Coordinates (Angstroms)
 Number     Number       Type             X           Y           Z
 ---------------------------------------------------------------------
      1          6           0        1.117725   -1.621803   -0.000000
      2          6           0       -0.134069   -2.228093   -0.000000
      3          6           0        1.198783   -0.239009   -0.000000
      4          6           0       -1.256434   -1.414618   -0.000000
      5          6           0       -0.000000    0.468958    0.000000
      6          7           0       -1.193392   -0.079210    0.000000
      7         17           0        0.066000    2.226123    0.000000
      8          1           0        2.020759   -2.217276   -0.000000
      9          1           0       -0.237805   -3.303639   -0.000000
     10          1           0        2.145204    0.279331   -0.000000
     11          1           0       -2.252451   -1.840653    0.000000
 ---------------------------------------------------------------------

 SCF Done:  E(RHF) =  -707.048646005     A.U. after    2 cycles

 The electronic state is 1-A'.
 Alpha  occ. eigenvalues --  -99.89418 -15.75504 -11.50603 -11.48446 -11.45521
 Alpha  occ. eigenvalues --  -11.42866 -11.39560 -10.46804  -9.66797  -9.65907
 Alpha  occ. eigenvalues --   -9.65744  -1.49205  -1.31411  -1.21099  -1.11002
 Alpha  occ. eigenvalues --   -0.91614  -0.89378  -0.74704  -0.67363  -0.64443
 Alpha  occ. eigenvalues --   -0.61037  -0.59948  -0.57587  -0.51198  -0.50081
 Alpha  occ. eigenvalues --   -0.49934  -0.38638  -0.38269  -0.35264
 Alpha virt. eigenvalues --    0.02844   0.04874   0.05152   0.06074   0.08183
 Alpha virt. eigenvalues --    0.09195   0.09510   0.09969   0.11328   0.12487
 Alpha virt. eigenvalues --    0.12671   0.13415   0.13885   0.14010   0.14092

 Mulliken charges:
               1
     1  C    0.970924
     2  C   -0.834820
     3  C   -0.024304
     4  C   -1.024735
     5  C   -1.605854
     6  N   -3.172440
     7  Cl  -0.407943
     8  H    1.544651
     9  H    1.428856
    10  H    1.576547
    11  H    1.549118
 Sum of Mulliken charges =   0.00000

 Dipole moment (field-independent basis, Debye):
    X=              1.3860    Y=             -3.4005    Z=             -0.0000  Tot=              3.6721

 Test job not archived.
 1\1\GINC-SE136\SP\RHF\Aug-CC-pVDZ\C5H4Cl1N1\OHZDE\06-Apr-2025\0\\#t hf
  aug-cc-pvdz iop(5/13=1,5/36=2,99/5=2) pseudo=read geom=check guess=(r
 ead,tcheck) scf=(maxcycle=1)\\title\\0,1\C,0,1.117724,-1.621803,0.\C,0
 ,-0.13407,-2.228093,0.\C,0,1.198783,-0.239009,0.\C,0,-1.256435,-1.4146
 17,0.\C,0,0.,0.468958,0.\N,0,-1.193392,-0.079209,0.\Cl,0,0.066001,2.22
 6123,0.\H,0,2.020758,-2.217277,0.\H,0,-0.237807,-3.303639,0.\H,0,2.145
 204,0.27933,0.\H,0,-2.252452,-1.840652,0.\\Version=ES64L-G16RevC.01\St
 ate=1-A'\HF=-707.048646\RMSD=1.559e+00\Dipole=0.5452839,-1.3378592,0.\

 Normal termination of Gaussian 16 at Sun Apr  6 08:02:08 2025.
