 Gaussian 16, Revision C.01,

 ----------------------------------------------------------------------
 #t hf aug-cc-pvdz symm=none int=(grid=ultrafine) guess=(read,tcheck) s
 table=(opt,rrhf)
 ----------------------------------------------------------------------
 -----
 title
 -----
 Symbolic Z-matrix:
 Charge =  0 Multiplicity = 1

 SCF Done:  E(RHF) =  -1176.86343745     A.U. after   16 cycles
 Normal termination of Gaussian 16 at Sun Apr  6 08:01:46 2025.
 Gaussian 16:  ES64L-G16RevC.01  3-Jul-2019

 ----------------------------------------------------------------------
 #t hf aug-cc-pvdz iop(5/13=1,5/36=2,99/5=2) pseudo=read geom=check gue
 ss=(read,tcheck) scf=(maxcycle=1)
 ----------------------------------------------------------------------
 -----
 title
 -----
 Structure from the checkpoint file:  "2-chloro-5-isocyanatothiophene.chk"
 Charge =  0 Multiplicity = 1

                         Standard orientation:
 ---------------------------------------------------------------------
 Center     Atomic      Atomic             Coordinates (Angstroms)
 Number     Number       Type             X           Y           Z
 ---------------------------------------------------------------------
      1         17           0        3.117903   -0.625315   -0.000000
      2         16           0        0.125551   -0.848541   -0.000000
      3          8           0       -4.150489   -0.844343   -0.000002
      4          7           0       -2.237269    0.548089    0.000001
      5          6           0       -0.101979    1.727519    0.000002
      6          6           0       -0.867078    0.598532    0.000001
      7          6           0        1.293679    1.456131    0.000001
      8          6           0        1.565665    0.124962   -0.000000
      9          6           0       -3.170305   -0.208471   -0.000000
     10          1           0       -0.528661    2.718444    0.000002
     11          1           0        2.060415    2.214641    0.000002
 ---------------------------------------------------------------------

 SCF Done:  E(RHF) =  -1178.74053656     A.U. after    2 cycles

 The electronic state is 1-A.
 Alpha  occ. eigenvalues --  -99.92087 -75.74101 -21.13915 -15.80368 -13.18912
 Alpha  occ. eigenvalues --  -13.18449 -13.05888 -11.60959 -11.51967 -11.48706
 Alpha  occ. eigenvalues --  -11.45805 -11.40218 -10.49442  -9.69489  -9.68473
 Alpha  occ. eigenvalues --   -9.68359  -8.08558  -1.78519  -1.48526  -1.39764
 Alpha  occ. eigenvalues --   -1.29217  -1.11720  -1.06848  -0.89072  -0.81403
 Alpha  occ. eigenvalues --   -0.74754  -0.65979  -0.63901  -0.62670  -0.61682
 Alpha  occ. eigenvalues --   -0.59499  -0.59417  -0.53506  -0.51549  -0.49256
 Alpha  occ. eigenvalues --   -0.42711  -0.41331  -0.35848  -0.30180  -0.28593
 Alpha virt. eigenvalues --    0.02697   0.05428   0.06072   0.06409   0.07835
 Alpha virt. eigenvalues --    0.08090   0.08530   0.09679   0.10413   0.11592
 Alpha virt. eigenvalues --    0.12432   0.12689   0.13391   0.14243   0.14474

 Mulliken charges:
               1
     1  Cl  -0.502193
     2  S    1.813103
     3  O   -2.961531
     4  N   -3.334844
     5  C   -2.318905
     6  C    1.630584
     7  C    0.053301
     8  C   -2.034031
     9  C    4.192010
    10  H    1.721469
    11  H    1.741037
 Sum of Mulliken charges =  -0.00000

 Dipole moment (field-independent basis, Debye):
    X=             -1.6642    Y=             -1.3619    Z=             -0.0000  Tot=              2.1504

 Test job not archived.
 1\1\GINC-SE086\SP\RHF\Aug-CC-pVDZ\C5H2Cl1N1O1S1\OHZDE\06-Apr-2025\0\\#
 t hf aug-cc-pvdz iop(5/13=1,5/36=2,99/5=2) pseudo=read geom=check gues
 s=(read,tcheck) scf=(maxcycle=1)\\title\\0,1\Cl,0,3.117903,-0.625315,0
 .\S,0,0.125551,-0.848541,0.\O,0,-4.150489,-0.844343,-0.000002\N,0,-2.2
 37269,0.548089,0.000001\C,0,-0.101979,1.727519,0.000002\C,0,-0.867078,
 0.598532,0.000001\C,0,1.293679,1.456131,0.000001\C,0,1.565665,0.124962
 ,0.\C,0,-3.170305,-0.208471,0.\H,0,-0.528661,2.718444,0.000002\H,0,2.0
 60415,2.214641,0.000002\\Version=ES64L-G16RevC.01\State=1-A\HF=-1178.7

 Normal termination of Gaussian 16 at Sun Apr  6 08:02:00 2025.
