 Gaussian 16, Revision C.01,

 ----------------------------------------------------------------------
 #t hf aug-cc-pvdz symm=none int=(grid=ultrafine) guess=(read,tcheck) s
 table=(opt,rrhf)
 ----------------------------------------------------------------------
 -----
 title
 -----
 Symbolic Z-matrix:
 Charge =  0 Multiplicity = 1

 SCF Done:  E(RHF) =  -1371.07640986     A.U. after   14 cycles
 Normal termination of Gaussian 16 at Sun Apr  6 08:01:27 2025.
 Gaussian 16:  ES64L-G16RevC.01  3-Jul-2019

 ----------------------------------------------------------------------
 #t hf aug-cc-pvdz iop(5/13=1,5/36=2,99/5=2) pseudo=read geom=check gue
 ss=(read,tcheck) scf=(maxcycle=1)
 ----------------------------------------------------------------------
 -----
 title
 -----
 Structure from the checkpoint file:  "2-chloro-3-propenedisulfide.chk"
 Charge =  0 Multiplicity = 1

                         Standard orientation:
 ---------------------------------------------------------------------
 Center     Atomic      Atomic             Coordinates (Angstroms)
 Number     Number       Type             X           Y           Z
 ---------------------------------------------------------------------
      1         17           0       -2.213770   -1.116422    0.019613
      2         16           0        1.043133    0.085348   -0.719629
      3         16           0        2.876136   -0.099112    0.233234
      4          6           0       -1.513151    0.487919    0.204363
      5          6           0       -0.101760    0.501799    0.686458
      6          6           0       -2.230617    1.563308   -0.088361
      7          1           0        2.830146   -1.417869    0.524098
      8          1           0        0.054997   -0.235049    1.469729
      9          1           0        0.155816    1.491757    1.054508
     10          1           0       -3.249590    1.496805   -0.437101
     11          1           0       -1.792416    2.545606    0.022903
 ---------------------------------------------------------------------

 SCF Done:  E(RHF) =  -1372.34741792     A.U. after    2 cycles

 The electronic state is 1-A.
 Alpha  occ. eigenvalues --  -99.89765 -75.72042 -75.71429 -13.15279 -13.13570
 Alpha  occ. eigenvalues --  -13.10308 -13.08354 -13.04519 -13.04456 -11.47764
 Alpha  occ. eigenvalues --  -11.43144 -11.40773 -10.47137  -9.67070  -9.66261
 Alpha  occ. eigenvalues --   -9.66112  -8.05790  -8.05279  -1.38246  -1.24839
 Alpha  occ. eigenvalues --   -1.15392  -1.05571  -0.93608  -0.80985  -0.68375
 Alpha  occ. eigenvalues --   -0.64954  -0.59114  -0.56100  -0.54056  -0.52336
 Alpha  occ. eigenvalues --   -0.49829  -0.47378  -0.36588  -0.35743  -0.26446
 Alpha  occ. eigenvalues --   -0.25237
 Alpha virt. eigenvalues --    0.02810   0.03190   0.05566   0.05651   0.06206
 Alpha virt. eigenvalues --    0.06811   0.07973   0.08781   0.09844   0.11139
 Alpha virt. eigenvalues --    0.11944   0.13487   0.14076   0.14766   0.15041

 Mulliken charges:
               1
     1  Cl  -0.451842
     2  S    0.278121
     3  S   -1.344251
     4  C    1.381325
     5  C   -3.622332
     6  C   -3.661006
     7  H    1.241192
     8  H    1.566528
     9  H    1.522488
    10  H    1.577025
    11  H    1.512753
 Sum of Mulliken charges =   0.00000

 Dipole moment (field-independent basis, Debye):
    X=              0.9526    Y=              2.5221    Z=             -0.4558  Tot=              2.7342

 Test job not archived.
 1\1\GINC-SE261\SP\RHF\Aug-CC-pVDZ\C3H5Cl1S2\OHZDE\06-Apr-2025\0\\#t hf
  aug-cc-pvdz iop(5/13=1,5/36=2,99/5=2) pseudo=read geom=check guess=(r
 ead,tcheck) scf=(maxcycle=1)\\title\\0,1\Cl,0,-2.21377,-1.116422,0.019
 613\S,0,1.043133,0.085348,-0.719629\S,0,2.876136,-0.099112,0.233234\C,
 0,-1.513151,0.487919,0.204363\C,0,-0.10176,0.501799,0.686458\C,0,-2.23
 0617,1.563308,-0.088361\H,0,2.830146,-1.417869,0.524098\H,0,0.054997,-
 0.235049,1.469729\H,0,0.155816,1.491757,1.054508\H,0,-3.24959,1.496805
 ,-0.437101\H,0,-1.792416,2.545606,0.022903\\Version=ES64L-G16RevC.01\S

 Normal termination of Gaussian 16 at Sun Apr  6 08:01:30 2025.
