 Gaussian 16, Revision C.01,

 ----------------------------------------------------------------------
 #t hf aug-cc-pvdz symm=none int=(grid=ultrafine) guess=(read,tcheck) s
 table=(opt,rrhf)
 ----------------------------------------------------------------------
 -----
 title
 -----
 Symbolic Z-matrix:
 Charge =  0 Multiplicity = 1

 SCF Done:  E(RHF) =  -896.241175660     A.U. after   16 cycles
 Normal termination of Gaussian 16 at Sun Apr  6 08:01:59 2025.
 Gaussian 16:  ES64L-G16RevC.01  3-Jul-2019

 ----------------------------------------------------------------------
 #t hf aug-cc-pvdz iop(5/13=1,5/36=2,99/5=2) pseudo=read geom=check gue
 ss=(read,tcheck) scf=(maxcycle=1)
 ----------------------------------------------------------------------
 -----
 title
 -----
 Structure from the checkpoint file:  "2-chloro-3-cyano-5-fluoropyridine.chk"
 Charge =  0 Multiplicity = 1

                         Standard orientation:
 ---------------------------------------------------------------------
 Center     Atomic      Atomic             Coordinates (Angstroms)
 Number     Number       Type             X           Y           Z
 ---------------------------------------------------------------------
      1         17           0       -2.197577   -1.227671   -0.000015
      2          9           0        3.325479    0.455112    0.000010
      3          7           0        0.390768   -1.596694   -0.000015
      4          7           0       -2.115599    2.508502    0.000021
      5          6           0       -0.276396    0.703136    0.000006
      6          6           0       -0.547172   -0.677505   -0.000008
      7          6           0        2.027709    0.116243    0.000004
      8          6           0        1.061483    1.100236    0.000013
      9          6           0        1.668300   -1.221079   -0.000009
     10          6           0       -1.309558    1.686129    0.000014
     11          1           0        1.333645    2.145419    0.000023
     12          1           0        2.423474   -1.996630   -0.000016
 ---------------------------------------------------------------------

 SCF Done:  E(RHF) =  -898.343616563     A.U. after    2 cycles

 The electronic state is 1-A.
 Alpha  occ. eigenvalues --  -99.92195 -29.32614 -15.79429 -15.78482 -11.56575
 Alpha  occ. eigenvalues --  -11.54212 -11.51873 -11.48941 -11.46872 -11.45215
 Alpha  occ. eigenvalues --  -10.49626  -9.69620  -9.68743  -9.68519  -1.54270
 Alpha  occ. eigenvalues --   -1.35714  -1.33993  -1.27579  -1.19308  -1.00182
 Alpha  occ. eigenvalues --   -0.97964  -0.85422  -0.76014  -0.72156  -0.70818
 Alpha  occ. eigenvalues --   -0.65223  -0.62715  -0.58930  -0.57093  -0.54036
 Alpha  occ. eigenvalues --   -0.53154  -0.51742  -0.47696  -0.46972  -0.44455
 Alpha  occ. eigenvalues --   -0.40621  -0.39097  -0.31041  -0.27573
 Alpha virt. eigenvalues --    0.02875   0.05060   0.05067   0.06763   0.07407
 Alpha virt. eigenvalues --    0.08765   0.09065   0.09610   0.10238   0.10846
 Alpha virt. eigenvalues --    0.11387   0.11947   0.12291   0.12602   0.12745

 Mulliken charges:
               1
     1  Cl  -0.376319
     2  F    0.885227
     3  N   -3.616784
     4  N   -2.293033
     5  C    5.757886
     6  C   -2.025275
     7  C    1.929156
     8  C   -3.091639
     9  C   -1.676630
    10  C    0.959975
    11  H    1.819719
    12  H    1.727717
 Sum of Mulliken charges =   0.00000

 Dipole moment (field-independent basis, Debye):
    X=              6.7545    Y=              0.2088    Z=              0.0000  Tot=              6.7577

 Test job not archived.
 1\1\GINC-SE085\SP\RHF\Aug-CC-pVDZ\C6H2Cl1F1N2\OHZDE\06-Apr-2025\0\\#t
 hf aug-cc-pvdz iop(5/13=1,5/36=2,99/5=2) pseudo=read geom=check guess=
 (read,tcheck) scf=(maxcycle=1)\\title\\0,1\Cl,0,-2.197577,-1.227671,-0
 .000015\F,0,3.325479,0.455112,0.00001\N,0,0.390768,-1.596694,-0.000015
 \N,0,-2.115599,2.508502,0.000021\C,0,-0.276396,0.703136,0.000006\C,0,-
 0.547172,-0.677505,-0.000008\C,0,2.027709,0.116243,0.000004\C,0,1.0614
 83,1.100236,0.000013\C,0,1.6683,-1.221079,-0.000009\C,0,-1.309558,1.68
 6129,0.000014\H,0,1.333645,2.145419,0.000023\H,0,2.423474,-1.99663,-0.

 Normal termination of Gaussian 16 at Sun Apr  6 08:02:07 2025.
