 Gaussian 16, Revision C.01,

 ----------------------------------------------------------------------
 #t hf aug-cc-pvdz symm=none int=(grid=ultrafine) guess=(read,tcheck) s
 table=(opt,rrhf)
 ----------------------------------------------------------------------
 -----
 title
 -----
 Symbolic Z-matrix:
 Charge =  0 Multiplicity = 1

 SCF Done:  E(RHF) =  -1027.42909566     A.U. after   15 cycles
 Normal termination of Gaussian 16 at Sun Apr  6 08:01:57 2025.
 Gaussian 16:  ES64L-G16RevC.01  3-Jul-2019

 ----------------------------------------------------------------------
 #t hf aug-cc-pvdz iop(5/13=1,5/36=2,99/5=2) pseudo=read geom=check gue
 ss=(read,tcheck) scf=(maxcycle=1)
 ----------------------------------------------------------------------
 -----
 title
 -----
 Structure from the checkpoint file:  "2-chloroethylisothiocyanate.chk"
 Charge =  0 Multiplicity = 1

                         Standard orientation:
 ---------------------------------------------------------------------
 Center     Atomic      Atomic             Coordinates (Angstroms)
 Number     Number       Type             X           Y           Z
 ---------------------------------------------------------------------
      1         17           0       -2.404059   -0.918678    0.064286
      2         16           0        3.086866   -0.390320    0.010773
      3          7           0        0.477949    0.509740   -0.210547
      4          6           0       -0.645305    1.190578    0.353524
      5          6           0       -1.953863    0.791832   -0.301178
      6          6           0        1.598040    0.139991   -0.071736
      7          1           0       -0.688979    1.001710    1.427947
      8          1           0       -0.514156    2.267281    0.204283
      9          1           0       -1.896342    0.876305   -1.382173
     10          1           0       -2.760260    1.414766    0.074888
 ---------------------------------------------------------------------

 SCF Done:  E(RHF) =  -1028.69570538     A.U. after    2 cycles

 The electronic state is 1-A.
 Alpha  occ. eigenvalues --  -99.89054 -75.68801 -15.79067 -13.21758 -13.00174
 Alpha  occ. eigenvalues --  -13.00055 -11.54315 -11.49499 -11.44485 -10.46327
 Alpha  occ. eigenvalues --   -9.66188  -9.65512  -9.65424  -8.03070  -1.45652
 Alpha  occ. eigenvalues --   -1.33663  -1.18780  -1.10397  -0.94863  -0.75720
 Alpha  occ. eigenvalues --   -0.69955  -0.64338  -0.62215  -0.58039  -0.55285
 Alpha  occ. eigenvalues --   -0.52487  -0.50533  -0.48937  -0.47656  -0.27126
 Alpha  occ. eigenvalues --   -0.25473
 Alpha virt. eigenvalues --    0.02132   0.04651   0.05503   0.05625   0.06438
 Alpha virt. eigenvalues --    0.07013   0.09137   0.09659   0.10737   0.11415
 Alpha virt. eigenvalues --    0.11951   0.12514   0.13314   0.14683   0.15834

 Mulliken charges:
               1
     1  Cl   0.102204
     2  S    1.533349
     3  N   -3.001803
     4  C   -2.180502
     5  C   -3.746841
     6  C    1.142438
     7  H    1.594233
     8  H    1.436798
     9  H    1.624426
    10  H    1.495698
 Sum of Mulliken charges =  -0.00000

 Dipole moment (field-independent basis, Debye):
    X=              1.3511    Y=              2.0115    Z=              0.3925  Tot=              2.4548

 Test job not archived.
 1\1\GINC-SE085\SP\RHF\Aug-CC-pVDZ\C3H4Cl1N1S1\OHZDE\06-Apr-2025\0\\#t
 hf aug-cc-pvdz iop(5/13=1,5/36=2,99/5=2) pseudo=read geom=check guess=
 (read,tcheck) scf=(maxcycle=1)\\title\\0,1\Cl,0,-2.404059,-0.918678,0.
 064286\S,0,3.086866,-0.39032,0.010773\N,0,0.477949,0.50974,-0.210547\C
 ,0,-0.645305,1.190578,0.353524\C,0,-1.953863,0.791832,-0.301178\C,0,1.
 59804,0.139991,-0.071736\H,0,-0.688979,1.00171,1.427947\H,0,-0.514156,
 2.267281,0.204283\H,0,-1.896342,0.876305,-1.382173\H,0,-2.76026,1.4147
 66,0.074888\\Version=ES64L-G16RevC.01\State=1-A\HF=-1028.6957054\RMSD=

 Normal termination of Gaussian 16 at Sun Apr  6 08:02:00 2025.
