 Gaussian 16, Revision C.01,

 ----------------------------------------------------------------------
 #t hf aug-cc-pvdz symm=none int=(grid=ultrafine) guess=(read,tcheck) s
 table=(opt,rrhf)
 ----------------------------------------------------------------------
 -----
 title
 -----
 Symbolic Z-matrix:
 Charge =  0 Multiplicity = 1

 SCF Done:  E(RHF) =  -1221.37262675     A.U. after   16 cycles
 Normal termination of Gaussian 16 at Sun Apr  6 08:01:30 2025.
 Gaussian 16:  ES64L-G16RevC.01  3-Jul-2019

 ----------------------------------------------------------------------
 #t hf aug-cc-pvdz iop(5/13=1,5/36=2,99/5=2) pseudo=read geom=check gue
 ss=(read,tcheck) scf=(maxcycle=1)
 ----------------------------------------------------------------------
 -----
 title
 -----
 Structure from the checkpoint file:  "2-chloro-4-oxo-3-butenoyl_chloride.chk"
 Charge =  0 Multiplicity = 1

                         Standard orientation:
 ---------------------------------------------------------------------
 Center     Atomic      Atomic             Coordinates (Angstroms)
 Number     Number       Type             X           Y           Z
 ---------------------------------------------------------------------
      1         17           0        1.196823   -1.594183   -0.748571
      2         17           0       -0.018486    1.607823   -0.809981
      3          8           0        1.639323    1.360354    1.198885
      4          8           0       -2.947869   -0.058569   -0.171301
      5          6           0        0.488767   -0.684550    0.702596
      6          6           0        0.860125    0.779604    0.528686
      7          6           0       -0.940974   -0.958589    0.955829
      8          6           0       -1.982431   -0.450326    0.322211
      9          1           0        1.078223   -1.040999    1.539221
     10          1           0       -1.194498   -1.722002    1.679561
 ---------------------------------------------------------------------

 SCF Done:  E(RHF) =  -1223.15480364     A.U. after    2 cycles

 The electronic state is 1-A.
 Alpha  occ. eigenvalues --  -99.92063 -99.90636 -21.17342 -21.12483 -11.58670
 Alpha  occ. eigenvalues --  -11.57868 -11.52604 -11.44427 -10.49428 -10.47814
 Alpha  occ. eigenvalues --   -9.69287  -9.68709  -9.68472  -9.67747  -9.67018
 Alpha  occ. eigenvalues --   -9.66982  -1.80894  -1.78431  -1.38427  -1.32755
 Alpha  occ. eigenvalues --   -1.20874  -1.05451  -0.86915  -0.75520  -0.71236
 Alpha  occ. eigenvalues --   -0.68525  -0.66230  -0.61309  -0.60018  -0.58079
 Alpha  occ. eigenvalues --   -0.57221  -0.54909  -0.53315  -0.50697  -0.48789
 Alpha  occ. eigenvalues --   -0.46291  -0.37132  -0.32329
 Alpha virt. eigenvalues --    0.02293   0.04986   0.05506   0.07059   0.07797
 Alpha virt. eigenvalues --    0.08958   0.09592   0.10176   0.10715   0.11327
 Alpha virt. eigenvalues --    0.11768   0.12092   0.12815   0.13574   0.14482

 Mulliken charges:
               1
     1  Cl   0.151317
     2  Cl  -0.016746
     3  O   -2.796129
     4  O   -2.351957
     5  C   -2.336941
     6  C    2.917521
     7  C    0.063262
     8  C    1.764919
     9  H    1.403234
    10  H    1.201520
 Sum of Mulliken charges =  -0.00000

 Dipole moment (field-independent basis, Debye):
    X=             -1.6605    Y=             -0.2506    Z=              2.4469  Tot=              2.9677

 Test job not archived.
 1\1\GINC-SE388\SP\RHF\Aug-CC-pVDZ\C4H2Cl2O2\OHZDE\06-Apr-2025\0\\#t hf
  aug-cc-pvdz iop(5/13=1,5/36=2,99/5=2) pseudo=read geom=check guess=(r
 ead,tcheck) scf=(maxcycle=1)\\title\\0,1\Cl,0,1.196824,-1.594182,-0.74
 8571\Cl,0,-0.018487,1.607823,-0.809981\O,0,1.639322,1.360355,1.198885\
 O,0,-2.947869,-0.05857,-0.171301\C,0,0.488767,-0.68455,0.702596\C,0,0.
 860125,0.779605,0.528686\C,0,-0.940974,-0.958589,0.955829\C,0,-1.98243
 1,-0.450327,0.322211\H,0,1.078224,-1.040998,1.539221\H,0,-1.194497,-1.
 722002,1.679561\\Version=ES64L-G16RevC.01\State=1-A\HF=-1223.1548036\R

 Normal termination of Gaussian 16 at Sun Apr  6 08:01:34 2025.
