 Gaussian 16, Revision C.01,

 ----------------------------------------------------------------------
 #t hf aug-cc-pvdz symm=none int=(grid=ultrafine) guess=(read,tcheck) s
 table=(opt,rrhf)
 ----------------------------------------------------------------------
 -----
 title
 -----
 Symbolic Z-matrix:
 Charge =  0 Multiplicity = 1

 SCF Done:  E(RHF) =  -834.780766241     A.U. after   12 cycles
 Normal termination of Gaussian 16 at Sun Apr  6 08:01:16 2025.
 Gaussian 16:  ES64L-G16RevC.01  3-Jul-2019

 ----------------------------------------------------------------------
 #t hf aug-cc-pvdz iop(5/13=1,5/36=2,99/5=2) pseudo=read geom=check gue
 ss=(read,tcheck) scf=(maxcycle=1)
 ----------------------------------------------------------------------
 -----
 title
 -----
 Structure from the checkpoint file:  "2-chloro-1-1-1-trifluoroethane.chk"
 Charge =  0 Multiplicity = 1

                         Standard orientation:
 ---------------------------------------------------------------------
 Center     Atomic      Atomic             Coordinates (Angstroms)
 Number     Number       Type             X           Y           Z
 ---------------------------------------------------------------------
      1          6           0       -0.858750    0.493126    0.000000
      2          6           0        0.656851    0.425801    0.000000
      3          9           0        1.143435   -0.195496    1.084579
      4          9           0        1.143435    1.687623    0.000000
      5          9           0        1.143435   -0.195496   -1.084579
      6         17           0       -1.605455   -1.130914    0.000000
      7          1           0       -1.184311    1.021148    0.890634
      8          1           0       -1.184311    1.021148   -0.890634
 ---------------------------------------------------------------------

 SCF Done:  E(RHF) =  -836.393599989     A.U. after    2 cycles

 The electronic state is 1-A'.
 Alpha  occ. eigenvalues --  -99.90936 -29.32016 -29.31909 -29.31854 -11.61581
 Alpha  occ. eigenvalues --  -11.47191 -10.48227  -9.68084  -9.67328  -9.67267
 Alpha  occ. eigenvalues --   -1.46528  -1.32675  -1.05444  -0.90521  -0.89756
 Alpha  occ. eigenvalues --   -0.74840  -0.66665  -0.62633  -0.53002  -0.51180
 Alpha  occ. eigenvalues --   -0.48436  -0.44710  -0.43921  -0.37286  -0.37132
 Alpha  occ. eigenvalues --   -0.32435  -0.26548  -0.26448  -0.22370
 Alpha virt. eigenvalues --    0.04030   0.05754   0.06668   0.10007   0.11044
 Alpha virt. eigenvalues --    0.11876   0.12912   0.13261   0.15143   0.15828
 Alpha virt. eigenvalues --    0.16843   0.19082   0.19191   0.21521   0.23268

 Mulliken charges:
               1
     1  C   -4.612289
     2  C    0.121639
     3  F    0.478625
     4  F    0.422149
     5  F    0.478625
     6  Cl   0.113770
     7  H    1.498740
     8  H    1.498740
 Sum of Mulliken charges =  -0.00000

 Dipole moment (field-independent basis, Debye):
    X=              2.4170    Y=              1.6408    Z=             -0.0000  Tot=              2.9213

 Test job not archived.
 1\1\GINC-SE301\SP\RHF\Aug-CC-pVDZ\C2H2Cl1F3\OHZDE\06-Apr-2025\0\\#t hf
  aug-cc-pvdz iop(5/13=1,5/36=2,99/5=2) pseudo=read geom=check guess=(r
 ead,tcheck) scf=(maxcycle=1)\\title\\0,1\C,0,-0.85875,0.493126,0.\C,0,
 0.656851,0.425801,0.\F,0,1.143435,-0.195496,1.084579\F,0,1.143435,1.68
 7623,0.\F,0,1.143435,-0.195496,-1.084579\Cl,0,-1.605455,-1.130914,0.\H
 ,0,-1.184311,1.021148,0.890634\H,0,-1.184311,1.021148,-0.890634\\Versi
 on=ES64L-G16RevC.01\State=1-A'\HF=-836.3936\RMSD=1.699e-01\Dipole=0.95
 09248,0.6455369,0.\Quadrupole=-0.5449647,0.458632,0.0863327,-0.7346083

 Normal termination of Gaussian 16 at Sun Apr  6 08:01:19 2025.
