 Gaussian 16, Revision C.01,

 ----------------------------------------------------------------------
 #t hf aug-cc-pvdz symm=none int=(grid=ultrafine) guess=(read,tcheck) s
 table=(opt,rrhf)
 ----------------------------------------------------------------------
 -----
 title
 -----
 Symbolic Z-matrix:
 Charge =  0 Multiplicity = 1

 SCF Done:  E(RHF) =  -1065.27415674     A.U. after   15 cycles
 Normal termination of Gaussian 16 at Sun Apr  6 08:01:33 2025.
 Gaussian 16:  ES64L-G16RevC.01  3-Jul-2019

 ----------------------------------------------------------------------
 #t hf aug-cc-pvdz iop(5/13=1,5/36=2,99/5=2) pseudo=read geom=check gue
 ss=(read,tcheck) scf=(maxcycle=1)
 ----------------------------------------------------------------------
 -----
 title
 -----
 Structure from the checkpoint file:  "2-chloroallylisothiocyanate.chk"
 Charge =  0 Multiplicity = 1

                         Standard orientation:
 ---------------------------------------------------------------------
 Center     Atomic      Atomic             Coordinates (Angstroms)
 Number     Number       Type             X           Y           Z
 ---------------------------------------------------------------------
      1         17           0       -1.347415    1.412561    0.204092
      2         16           0        2.973465    0.301056   -0.225140
      3          7           0        0.624438   -1.122322    0.123077
      4          6           0       -1.679642   -0.291748   -0.037658
      5          6           0       -0.706921   -1.216488    0.644751
      6          6           0        1.609055   -0.467672   -0.001390
      7          6           0       -2.720952   -0.690146   -0.750013
      8          1           0       -0.681309   -1.001003    1.716381
      9          1           0       -1.057855   -2.239216    0.515322
     10          1           0       -2.900921   -1.746442   -0.895230
     11          1           0       -3.409606    0.008805   -1.199480
 ---------------------------------------------------------------------

 SCF Done:  E(RHF) =  -1066.71512523     A.U. after    2 cycles

 The electronic state is 1-A.
 Alpha  occ. eigenvalues --  -99.90606 -75.68507 -15.78859 -13.21282 -13.00062
 Alpha  occ. eigenvalues --  -12.99765 -11.54203 -11.50210 -11.46241 -11.41752
 Alpha  occ. eigenvalues --  -10.48000  -9.67930  -9.67151  -9.66975  -8.02782
 Alpha  occ. eigenvalues --   -1.46031  -1.36086  -1.19537  -1.13793  -1.04062
 Alpha  occ. eigenvalues --   -0.84212  -0.73664  -0.70141  -0.67396  -0.60299
 Alpha  occ. eigenvalues --   -0.57874  -0.55995  -0.54592  -0.52144  -0.50283
 Alpha  occ. eigenvalues --   -0.48888  -0.38904  -0.26625  -0.25217
 Alpha virt. eigenvalues --    0.02268   0.04999   0.05422   0.05988   0.06480
 Alpha virt. eigenvalues --    0.07654   0.08442   0.08985   0.09370   0.10873
 Alpha virt. eigenvalues --    0.11721   0.12296   0.13089   0.13511   0.13980

 Mulliken charges:
               1
     1  Cl  -0.430171
     2  S    1.431042
     3  N   -2.887501
     4  C    1.164841
     5  C   -3.124044
     6  C    1.127061
     7  C   -3.481307
     8  H    1.541673
     9  H    1.473944
    10  H    1.563208
    11  H    1.621253
 Sum of Mulliken charges =   0.00000

 Dipole moment (field-independent basis, Debye):
    X=             -0.4817    Y=             -0.7147    Z=             -0.1453  Tot=              0.8740

 Test job not archived.
 1\1\GINC-SE046\SP\RHF\Aug-CC-pVDZ\C4H4Cl1N1S1\OHZDE\06-Apr-2025\0\\#t
 hf aug-cc-pvdz iop(5/13=1,5/36=2,99/5=2) pseudo=read geom=check guess=
 (read,tcheck) scf=(maxcycle=1)\\title\\0,1\Cl,0,-1.347415,1.412561,0.2
 04092\S,0,2.973465,0.301056,-0.22514\N,0,0.624438,-1.122322,0.123077\C
 ,0,-1.679642,-0.291748,-0.037658\C,0,-0.706921,-1.216488,0.644751\C,0,
 1.609055,-0.467672,-0.00139\C,0,-2.720952,-0.690146,-0.750013\H,0,-0.6
 81309,-1.001003,1.716381\H,0,-1.057855,-2.239216,0.515322\H,0,-2.90092
 1,-1.746442,-0.89523\H,0,-3.409606,0.008805,-1.19948\\Version=ES64L-G1

 Normal termination of Gaussian 16 at Sun Apr  6 08:01:38 2025.
