 Gaussian 16, Revision C.01,

 ----------------------------------------------------------------------
 #t hf aug-cc-pvdz symm=none int=(grid=ultrafine) guess=(read,tcheck) s
 table=(opt,rrhf)
 ----------------------------------------------------------------------
 -----
 title
 -----
 Symbolic Z-matrix:
 Charge =  0 Multiplicity = 1

 SCF Done:  E(RHF) =  -590.806525014     A.U. after   14 cycles
 Normal termination of Gaussian 16 at Sun Apr  6 08:01:48 2025.
 Gaussian 16:  ES64L-G16RevC.01  3-Jul-2019

 ----------------------------------------------------------------------
 #t hf aug-cc-pvdz iop(5/13=1,5/36=2,99/5=2) pseudo=read geom=check gue
 ss=(read,tcheck) scf=(maxcycle=1)
 ----------------------------------------------------------------------
 -----
 title
 -----
 Structure from the checkpoint file:  "2-chloroethenimine.chk"
 Charge =  0 Multiplicity = 1

                         Standard orientation:
 ---------------------------------------------------------------------
 Center     Atomic      Atomic             Coordinates (Angstroms)
 Number     Number       Type             X           Y           Z
 ---------------------------------------------------------------------
      1         17           0        1.481060   -0.246052    0.000891
      2          7           0       -2.257610   -0.337290   -0.128337
      3          6           0        0.026216    0.722480    0.011202
      4          6           0       -1.156808    0.167770    0.008826
      5          1           0       -2.756780   -0.587380    0.724562
      6          1           0        0.165580    1.789797    0.038481
 ---------------------------------------------------------------------

 SCF Done:  E(RHF) =  -591.649536848     A.U. after    2 cycles

 The electronic state is 1-A.
 Alpha  occ. eigenvalues --  -99.90573 -15.79901 -11.49497 -11.44574 -10.47852
 Alpha  occ. eigenvalues --   -9.67666  -9.66901  -9.66788  -1.40183  -1.32947
 Alpha  occ. eigenvalues --   -1.06953  -0.79132  -0.69399  -0.65231  -0.58229
 Alpha  occ. eigenvalues --   -0.52925  -0.50729  -0.46677  -0.34030
 Alpha virt. eigenvalues --    0.02685   0.05239   0.06207   0.09927   0.10344
 Alpha virt. eigenvalues --    0.12249   0.12433   0.13039   0.13447   0.14265
 Alpha virt. eigenvalues --    0.16332   0.17238   0.17510   0.18038   0.20161

 Mulliken charges:
               1
     1  Cl  -0.173267
     2  N   -2.744165
     3  C   -1.833309
     4  C    2.630766
     5  H    0.801743
     6  H    1.318232
 Sum of Mulliken charges =  -0.00000

 Dipole moment (field-independent basis, Debye):
    X=             -1.7278    Y=              0.7212    Z=              1.2373  Tot=              2.2442

 Test job not archived.
 1\1\GINC-SE042\SP\RHF\Aug-CC-pVDZ\C2H2Cl1N1\OHZDE\06-Apr-2025\0\\#t hf
  aug-cc-pvdz iop(5/13=1,5/36=2,99/5=2) pseudo=read geom=check guess=(r
 ead,tcheck) scf=(maxcycle=1)\\title\\0,1\Cl,0,1.48106,-0.246052,0.0008
 91\N,0,-2.25761,-0.33729,-0.128337\C,0,0.026216,0.72248,0.011202\C,0,-
 1.156808,0.16777,0.008826\H,0,-2.75678,-0.58738,0.724562\H,0,0.16558,1
 .789797,0.038481\\Version=ES64L-G16RevC.01\State=1-A\HF=-591.6495368\R
 MSD=3.872e-01\Dipole=-0.6797591,0.2837564,0.4868047\Quadrupole=0.81403
 7,0.9797172,-1.7937541,0.2315418,-2.9479165,-0.6566235\PG=C01 [X(C2H2C

 Normal termination of Gaussian 16 at Sun Apr  6 08:01:56 2025.
