 Gaussian 16, Revision C.01,

 ----------------------------------------------------------------------
 #t hf aug-cc-pvdz symm=none int=(grid=ultrafine) guess=(read,tcheck) s
 table=(opt,rrhf)
 ----------------------------------------------------------------------
 -----
 title
 -----
 Symbolic Z-matrix:
 Charge =  0 Multiplicity = 1

 SCF Done:  E(RHF) =  -1101.98231688     A.U. after   16 cycles
 Normal termination of Gaussian 16 at Sun Apr  6 08:01:33 2025.
 Gaussian 16:  ES64L-G16RevC.01  3-Jul-2019

 ----------------------------------------------------------------------
 #t hf aug-cc-pvdz iop(5/13=1,5/36=2,99/5=2) pseudo=read geom=check gue
 ss=(read,tcheck) scf=(maxcycle=1)
 ----------------------------------------------------------------------
 -----
 title
 -----
 Structure from the checkpoint file:  "2-chloro-5-cyanothiophene.chk"
 Charge =  0 Multiplicity = 1

                         Standard orientation:
 ---------------------------------------------------------------------
 Center     Atomic      Atomic             Coordinates (Angstroms)
 Number     Number       Type             X           Y           Z
 ---------------------------------------------------------------------
      1         17           0        2.782522   -0.268531    0.000000
      2         16           0       -0.110760   -1.024111   -0.000001
      3          7           0       -3.828995   -0.415531   -0.000002
      4          6           0       -0.790124    1.468188    0.000000
      5          6           0        0.622911    1.455790    0.000000
      6          6           0       -1.342826    0.212106    0.000000
      7          6           0        1.123743    0.185775    0.000000
      8          6           0       -2.711030   -0.129258   -0.000001
      9          1           0       -1.387679    2.366653    0.000000
     10          1           0        1.243873    2.337262    0.000002
 ---------------------------------------------------------------------

 SCF Done:  E(RHF) =  -1103.56946893     A.U. after    2 cycles

 The electronic state is 1-A.
 Alpha  occ. eigenvalues --  -99.93604 -75.75897 -15.77587 -13.21088 -13.20462
 Alpha  occ. eigenvalues --  -13.07608 -11.53336 -11.50262 -11.47784 -11.45275
 Alpha  occ. eigenvalues --  -11.42462 -10.50978  -9.71011  -9.69993  -9.69886
 Alpha  occ. eigenvalues --   -8.10336  -1.46150  -1.35330  -1.29457  -1.13442
 Alpha  occ. eigenvalues --   -1.09930  -0.90544  -0.82724  -0.76232  -0.64563
 Alpha  occ. eigenvalues --   -0.61471  -0.61139  -0.57767  -0.55199  -0.54107
 Alpha  occ. eigenvalues --   -0.50260  -0.46991  -0.44943  -0.41592  -0.34259
 Alpha  occ. eigenvalues --   -0.30759
 Alpha virt. eigenvalues --    0.02295   0.05168   0.05399   0.06593   0.06776
 Alpha virt. eigenvalues --    0.07617   0.07973   0.10062   0.10477   0.12167
 Alpha virt. eigenvalues --    0.12363   0.12770   0.13523   0.13529   0.13905

 Mulliken charges:
               1
     1  Cl  -0.500904
     2  S    1.660925
     3  N   -2.295109
     4  C   -2.558321
     5  C   -0.917926
     6  C    2.290992
     7  C   -2.099483
     8  C    1.025992
     9  H    1.642078
    10  H    1.751755
 Sum of Mulliken charges =  -0.00000

 Dipole moment (field-independent basis, Debye):
    X=              2.0271    Y=             -0.6449    Z=             -0.0000  Tot=              2.1272

 Test job not archived.
 1\1\GINC-SE453\SP\RHF\Aug-CC-pVDZ\C5H2Cl1N1S1\OHZDE\06-Apr-2025\0\\#t
 hf aug-cc-pvdz iop(5/13=1,5/36=2,99/5=2) pseudo=read geom=check guess=
 (read,tcheck) scf=(maxcycle=1)\\title\\0,1\Cl,0,2.782522,-0.268531,0.\
 S,0,-0.11076,-1.024111,-0.000001\N,0,-3.828995,-0.415531,-0.000002\C,0
 ,-0.790124,1.468188,0.\C,0,0.622911,1.45579,0.\C,0,-1.342826,0.212106,
 0.\C,0,1.123743,0.185775,0.\C,0,-2.71103,-0.129258,-0.000001\H,0,-1.38
 7679,2.366653,0.\H,0,1.243873,2.337262,0.000002\\Version=ES64L-G16RevC
 .01\State=1-A\HF=-1103.5694689\RMSD=2.073e+00\Dipole=0.7975364,-0.2537

 Normal termination of Gaussian 16 at Sun Apr  6 08:01:39 2025.
