 Gaussian 16, Revision C.01,

 ----------------------------------------------------------------------
 #t hf aug-cc-pvdz symm=none int=(grid=ultrafine) guess=(read,tcheck) s
 table=(opt,rrhf)
 ----------------------------------------------------------------------
 -----
 title
 -----
 Symbolic Z-matrix:
 Charge =  0 Multiplicity = 1

 SCF Done:  E(RHF) =  -744.693456776     A.U. after   17 cycles
 Normal termination of Gaussian 16 at Sun Apr  6 08:02:31 2025.
 Gaussian 16:  ES64L-G16RevC.01  3-Jul-2019

 ----------------------------------------------------------------------
 #t hf aug-cc-pvdz iop(5/13=1,5/36=2,99/5=2) pseudo=read geom=check gue
 ss=(read,tcheck) scf=(maxcycle=1)
 ----------------------------------------------------------------------
 -----
 title
 -----
 Structure from the checkpoint file:  "2-chloroaniline.chk"
 Charge =  0 Multiplicity = 1

                         Standard orientation:
 ---------------------------------------------------------------------
 Center     Atomic      Atomic             Coordinates (Angstroms)
 Number     Number       Type             X           Y           Z
 ---------------------------------------------------------------------
      1          6           0        2.353096    0.002149    0.005068
      2          6           0        1.834314   -1.289002    0.004046
      3          6           0        1.509217    1.100037   -0.001011
      4          6           0        0.457168   -1.465035    0.000236
      5          6           0        0.115237    0.948254   -0.007408
      6          6           0       -0.381938   -0.362325   -0.004647
      7          7           0       -0.722435    2.046777   -0.068656
      8         17           0       -2.123824   -0.611728    0.002158
      9          1           0        3.423493    0.156594    0.009813
     10          1           0        2.488998   -2.148476    0.007665
     11          1           0        1.921614    2.101235   -0.007590
     12          1           0        0.024889   -2.455106    0.003520
     13          1           0       -0.338872    2.918571    0.253707
     14          1           0       -1.680635    1.894647    0.199077
 ---------------------------------------------------------------------

 SCF Done:  E(RHF) =  -746.302208250     A.U. after    2 cycles

 The electronic state is 1-A.
 Alpha  occ. eigenvalues --  -99.89310 -15.76492 -11.52755 -11.46658 -11.45110
 Alpha  occ. eigenvalues --  -11.42450 -11.40991 -11.37079 -10.46678  -9.66696
 Alpha  occ. eigenvalues --   -9.65935  -9.65631  -1.44577  -1.31944  -1.26278
 Alpha  occ. eigenvalues --   -1.09004  -1.05931  -0.88415  -0.85784  -0.71981
 Alpha  occ. eigenvalues --   -0.69654  -0.67597  -0.59933  -0.59302  -0.58176
 Alpha  occ. eigenvalues --   -0.57625  -0.51385  -0.50727  -0.46745  -0.45911
 Alpha  occ. eigenvalues --   -0.43849  -0.33862  -0.28171
 Alpha virt. eigenvalues --    0.03309   0.04860   0.05085   0.05781   0.06370
 Alpha virt. eigenvalues --    0.08008   0.09351   0.10188   0.11242   0.12196
 Alpha virt. eigenvalues --    0.12639   0.13167   0.13467   0.13948   0.14398

 Mulliken charges:
               1
     1  C   -1.355004
     2  C   -1.060683
     3  C   -0.936483
     4  C   -0.954872
     5  C    2.530316
     6  C   -1.362430
     7  N   -3.810008
     8  Cl  -0.835342
     9  H    1.520736
    10  H    1.541135
    11  H    1.664685
    12  H    1.731877
    13  H    0.683916
    14  H    0.642158
 Sum of Mulliken charges =  -0.00000

 Dipole moment (field-independent basis, Debye):
    X=              1.6572    Y=              1.4294    Z=              0.6486  Tot=              2.2826

 Test job not archived.
 1\1\GINC-SE023\SP\RHF\Aug-CC-pVDZ\C6H6Cl1N1\OHZDE\06-Apr-2025\0\\#t hf
  aug-cc-pvdz iop(5/13=1,5/36=2,99/5=2) pseudo=read geom=check guess=(r
 ead,tcheck) scf=(maxcycle=1)\\title\\0,1\C,0,2.353096,0.002148,0.00506
 8\C,0,1.834314,-1.289002,0.004046\C,0,1.509217,1.100037,-0.001011\C,0,
 0.457168,-1.465035,0.000236\C,0,0.115237,0.948254,-0.007408\C,0,-0.381
 938,-0.362325,-0.004647\N,0,-0.722435,2.046777,-0.068656\Cl,0,-2.12382
 4,-0.611727,0.002158\H,0,3.423493,0.156593,0.009813\H,0,2.488997,-2.14
 8477,0.007665\H,0,1.921615,2.101235,-0.00759\H,0,0.024888,-2.455106,0.

 Normal termination of Gaussian 16 at Sun Apr  6 08:02:51 2025.
