 Gaussian 16, Revision C.01,

 ----------------------------------------------------------------------
 #t hf aug-cc-pvdz symm=none int=(grid=ultrafine) guess=(read,tcheck) s
 table=(opt,rrhf)
 ----------------------------------------------------------------------
 -----
 title
 -----
 Symbolic Z-matrix:
 Charge =  0 Multiplicity = 1

 SCF Done:  E(RHF) =  -391.444875885     A.U. after   15 cycles
 Normal termination of Gaussian 16 at Sun Apr  6 08:02:03 2025.
 Gaussian 16:  ES64L-G16RevC.01  3-Jul-2019

 ----------------------------------------------------------------------
 #t hf aug-cc-pvdz iop(5/13=1,5/36=2,99/5=2) pseudo=read geom=check gue
 ss=(read,tcheck) scf=(maxcycle=1)
 ----------------------------------------------------------------------
 -----
 title
 -----
 Structure from the checkpoint file:  "2-cyano-3-iminoacrylamide.chk"
 Charge =  0 Multiplicity = 1

                         Standard orientation:
 ---------------------------------------------------------------------
 Center     Atomic      Atomic             Coordinates (Angstroms)
 Number     Number       Type             X           Y           Z
 ---------------------------------------------------------------------
      1          8           0        1.200691   -1.750569    0.240229
      2          7           0        2.095133    0.298364   -0.157996
      3          7           0       -2.390615   -1.479393   -0.111412
      4          7           0       -0.628942    2.555407   -0.003648
      5          6           0       -0.321090    0.047447   -0.017924
      6          6           0        1.054679   -0.568999    0.024318
      7          6           0       -1.457345   -0.805303   -0.066056
      8          6           0       -0.506479    1.358874    0.056891
      9          1           0        1.962632    1.187331   -0.607887
     10          1           0        3.009679   -0.117167   -0.220990
     11          1           0       -0.725456    3.121624    0.835062
 ---------------------------------------------------------------------

 SCF Done:  E(RHF) =  -393.153979781     A.U. after    2 cycles

 The electronic state is 1-A.
 Alpha  occ. eigenvalues --  -21.05116 -15.84675 -15.80196 -15.76547 -11.56198
 Alpha  occ. eigenvalues --  -11.55100 -11.48372 -11.44239  -1.73439  -1.44448
 Alpha  occ. eigenvalues --   -1.37205  -1.31706  -1.18335  -0.89715  -0.86012
 Alpha  occ. eigenvalues --   -0.75642  -0.75135  -0.66139  -0.62041  -0.56576
 Alpha  occ. eigenvalues --   -0.54817  -0.52291  -0.50172  -0.49028  -0.44486
 Alpha  occ. eigenvalues --   -0.36574  -0.33818  -0.31668
 Alpha virt. eigenvalues --    0.02016   0.03807   0.05910   0.07134   0.09201
 Alpha virt. eigenvalues --    0.09634   0.10573   0.10701   0.11144   0.11648
 Alpha virt. eigenvalues --    0.12179   0.13161   0.13302   0.14125   0.14934

 Mulliken charges:
               1
     1  O   -3.297715
     2  N   -3.052662
     3  N   -2.337561
     4  N   -3.015670
     5  C    1.405188
     6  C    4.257977
     7  C    1.143793
     8  C    2.640524
     9  H    0.669044
    10  H    0.788609
    11  H    0.798473
 Sum of Mulliken charges =   0.00000

 Dipole moment (field-independent basis, Debye):
    X=              3.0809    Y=              5.0113    Z=              0.5612  Tot=              5.9094

 Test job not archived.
 1\1\GINC-SE150\SP\RHF\Aug-CC-pVDZ\C4H3N3O1\OHZDE\06-Apr-2025\0\\#t hf
 aug-cc-pvdz iop(5/13=1,5/36=2,99/5=2) pseudo=read geom=check guess=(re
 ad,tcheck) scf=(maxcycle=1)\\title\\0,1\O,0,1.200695,-1.750566,0.24022
 9\N,0,2.095132,0.298369,-0.157996\N,0,-2.390612,-1.479398,-0.111412\N,
 0,-0.628948,2.555406,-0.003648\C,0,-0.32109,0.047446,-0.017924\C,0,1.0
 5468,-0.568996,0.024318\C,0,-1.457343,-0.805306,-0.066056\C,0,-0.50648
 2,1.358873,0.056891\H,0,1.962629,1.187336,-0.607887\H,0,3.009679,-0.11
 716,-0.22099\H,0,-0.725463,3.121623,0.835062\\Version=ES64L-G16RevC.01

 Normal termination of Gaussian 16 at Sun Apr  6 08:02:08 2025.
