 Gaussian 16, Revision C.01,

 ----------------------------------------------------------------------
 #t hf aug-cc-pvdz symm=none int=(grid=ultrafine) guess=(read,tcheck) s
 table=(opt,rrhf)
 ----------------------------------------------------------------------
 -----
 title
 -----
 Symbolic Z-matrix:
 Charge =  0 Multiplicity = 1

 SCF Done:  E(RHF) =  -494.666043686     A.U. after   13 cycles

 1\1\GINC-SE200\Stability\RHF\Aug-CC-pVDZ\C5H10O4\OHZDE\06-Apr-2025\0\\
 #t hf aug-cc-pvdz symm=none int=(grid=ultrafine) guess=(read,tcheck) s
 table=(opt,rrhf)\\title\\0,1\C,0,-1.668271,0.461239,-0.765783\C,0,-0.3
 6744,1.210024,-0.479394\C,0,0.689515,0.089265,-0.593294\C,0,-1.400343,
 -0.953458,-0.265482\C,0,1.856173,0.212999,0.364984\O,0,-0.004904,-1.15
 5032,-0.396645\O,0,-0.459865,1.805275,0.814836\O,0,-1.823763,-1.057773
 ,1.077424\O,0,2.87964,-0.684977,-0.054645\H,0,-2.518456,0.921796,-0.27
 0321\H,0,-1.851125,0.435667,-1.839895\H,0,-0.178406,1.985616,-1.225571

 Normal termination of Gaussian 16 at Sun Apr  6 08:03:13 2025.
 Gaussian 16:  ES64L-G16RevC.01  3-Jul-2019

 ----------------------------------------------------------------------
 #t hf aug-cc-pvdz iop(5/13=1,5/36=2,99/5=2) pseudo=read geom=check gue
 ss=(read,tcheck) scf=(maxcycle=1)
 ----------------------------------------------------------------------
 -----
 title
 -----
 Structure from the checkpoint file:  "2-deoxypentofuranose.chk"
 Charge =  0 Multiplicity = 1

                         Standard orientation:
 ---------------------------------------------------------------------
 Center     Atomic      Atomic             Coordinates (Angstroms)
 Number     Number       Type             X           Y           Z
 ---------------------------------------------------------------------
      1          6           0       -1.668271    0.461239   -0.765783
      2          6           0       -0.367440    1.210024   -0.479394
      3          6           0        0.689515    0.089265   -0.593294
      4          6           0       -1.400343   -0.953458   -0.265482
      5          6           0        1.856173    0.212999    0.364984
      6          8           0       -0.004904   -1.155032   -0.396645
      7          8           0       -0.459865    1.805275    0.814836
      8          8           0       -1.823763   -1.057773    1.077424
      9          8           0        2.879640   -0.684977   -0.054645
     10          1           0       -2.518456    0.921796   -0.270321
     11          1           0       -1.851125    0.435667   -1.839895
     12          1           0       -0.178406    1.985616   -1.225571
     13          1           0        1.093392    0.077484   -1.611423
     14          1           0       -1.886026   -1.728437   -0.864473
     15          1           0        1.515337   -0.010936    1.377193
     16          1           0        2.231369    1.245733    0.342390
     17          1           0        0.267278    2.422971    0.931773
     18          1           0       -1.567425   -1.926770    1.403733
     19          1           0        3.507392   -0.803481    0.662654
 ---------------------------------------------------------------------

 SCF Done:  E(RHF) =  -496.836410564     A.U. after    2 cycles

 The electronic state is 1-A.
 Alpha  occ. eigenvalues --  -21.07179 -21.06857 -21.06373 -21.03697 -11.50634
 Alpha  occ. eigenvalues --  -11.47877 -11.46112 -11.41497 -11.37608  -1.81129
 Alpha  occ. eigenvalues --   -1.71784  -1.70042  -1.65746  -1.16790  -1.10437
 Alpha  occ. eigenvalues --   -0.95213  -0.83450  -0.81475  -0.73285  -0.67705
 Alpha  occ. eigenvalues --   -0.64885  -0.63077  -0.60996  -0.58180  -0.53851
 Alpha  occ. eigenvalues --   -0.51053  -0.48868  -0.46534  -0.43924  -0.41648
 Alpha  occ. eigenvalues --   -0.40869  -0.37774  -0.33348  -0.32000  -0.30779
 Alpha  occ. eigenvalues --   -0.27641
 Alpha virt. eigenvalues --    0.03741   0.04268   0.04474   0.05123   0.06117
 Alpha virt. eigenvalues --    0.06320   0.06535   0.06836   0.07366   0.08852
 Alpha virt. eigenvalues --    0.12011   0.12469   0.13312   0.13897   0.14175

 Mulliken charges:
               1
     1  C   -3.605585
     2  C    0.837085
     3  C   -0.172342
     4  C    2.871866
     5  C   -0.154760
     6  O   -3.611240
     7  O   -3.174718
     8  O   -3.072649
     9  O   -2.879462
    10  H    1.454680
    11  H    1.318469
    12  H    1.707621
    13  H    1.671065
    14  H    1.807132
    15  H    1.482405
    16  H    1.329084
    17  H    0.726431
    18  H    0.678310
    19  H    0.786608
 Sum of Mulliken charges =  -0.00000

 Dipole moment (field-independent basis, Debye):
    X=              0.3024    Y=              0.6431    Z=              0.0090  Tot=              0.7107

 Test job not archived.
 1\1\GINC-SE200\SP\RHF\Aug-CC-pVDZ\C5H10O4\OHZDE\06-Apr-2025\0\\#t hf a
 ug-cc-pvdz iop(5/13=1,5/36=2,99/5=2) pseudo=read geom=check guess=(rea
 d,tcheck) scf=(maxcycle=1)\\title\\0,1\C,0,-1.668271,0.461239,-0.76578
 3\C,0,-0.36744,1.210024,-0.479394\C,0,0.689515,0.089265,-0.593294\C,0,
 -1.400343,-0.953458,-0.265482\C,0,1.856173,0.212999,0.364984\O,0,-0.00
 4904,-1.155032,-0.396645\O,0,-0.459865,1.805275,0.814836\O,0,-1.823763
 ,-1.057773,1.077424\O,0,2.87964,-0.684977,-0.054645\H,0,-2.518456,0.92
 1796,-0.270321\H,0,-1.851125,0.435667,-1.839895\H,0,-0.178406,1.985616

 Normal termination of Gaussian 16 at Sun Apr  6 08:03:23 2025.
