 Gaussian 16, Revision C.01,

 ----------------------------------------------------------------------
 #t hf aug-cc-pvdz symm=none int=(grid=ultrafine) guess=(read,tcheck) s
 table=(opt,rrhf)
 ----------------------------------------------------------------------
 -----
 title
 -----
 Symbolic Z-matrix:
 Charge =  0 Multiplicity = 1

 SCF Done:  E(RHF) =  -461.453284354     A.U. after   15 cycles
 Normal termination of Gaussian 16 at Sun Apr  6 08:02:06 2025.
 Gaussian 16:  ES64L-G16RevC.01  3-Jul-2019

 ----------------------------------------------------------------------
 #t hf aug-cc-pvdz iop(5/13=1,5/36=2,99/5=2) pseudo=read geom=check gue
 ss=(read,tcheck) scf=(maxcycle=1)
 ----------------------------------------------------------------------
 -----
 title
 -----
 Structure from the checkpoint file:  "2-difluoroaminomethylacrylonitrile.chk"
 Charge =  0 Multiplicity = 1

                         Standard orientation:
 ---------------------------------------------------------------------
 Center     Atomic      Atomic             Coordinates (Angstroms)
 Number     Number       Type             X           Y           Z
 ---------------------------------------------------------------------
      1          9           0       -1.560515    0.669193    1.027935
      2          9           0       -2.395956   -0.758181   -0.402751
      3          7           0       -1.190368   -0.448376    0.254141
      4          7           0        2.540504   -1.531236    0.370739
      5          6           0       -0.339313    0.108786   -0.819505
      6          6           0        1.022612    0.458263   -0.274893
      7          6           0        1.448448    1.716095   -0.160431
      8          6           0        1.869720   -0.636358    0.095191
      9          1           0       -0.826459    0.978775   -1.258076
     10          1           0       -0.271637   -0.689646   -1.557439
     11          1           0        0.810176    2.542787   -0.438338
     12          1           0        2.436402    1.945546    0.210865
 ---------------------------------------------------------------------

 SCF Done:  E(RHF) =  -463.328967672     A.U. after    2 cycles

 The electronic state is 1-A.
 Alpha  occ. eigenvalues --  -29.30620 -29.30435 -15.90629 -15.77754 -11.51054
 Alpha  occ. eigenvalues --  -11.47183 -11.45827 -11.43671  -1.55735  -1.34489
 Alpha  occ. eigenvalues --   -1.23416  -1.05282  -0.92478  -0.85443  -0.75473
 Alpha  occ. eigenvalues --   -0.71519  -0.68145  -0.63395  -0.56959  -0.56388
 Alpha  occ. eigenvalues --   -0.51679  -0.51544  -0.45511  -0.45070  -0.40756
 Alpha  occ. eigenvalues --   -0.38334  -0.32700  -0.30058  -0.23962  -0.21823
 Alpha virt. eigenvalues --    0.02961   0.05003   0.05222   0.06263   0.06749
 Alpha virt. eigenvalues --    0.09212   0.10319   0.11176   0.12086   0.13054
 Alpha virt. eigenvalues --    0.13406   0.14333   0.15223   0.15575   0.16643

 Mulliken charges:
               1
     1  F   -0.120500
     2  F   -0.145145
     3  N   -0.135863
     4  N   -2.411804
     5  C   -3.346405
     6  C    2.485937
     7  C   -4.065373
     8  C    1.472373
     9  H    1.428450
    10  H    1.595124
    11  H    1.537186
    12  H    1.706019
 Sum of Mulliken charges =  -0.00000

 Dipole moment (field-independent basis, Debye):
    X=             -2.7766    Y=              3.8708    Z=             -0.8855  Tot=              4.8453

 Test job not archived.
 1\1\GINC-SE209\SP\RHF\Aug-CC-pVDZ\C4H4F2N2\OHZDE\06-Apr-2025\0\\#t hf
 aug-cc-pvdz iop(5/13=1,5/36=2,99/5=2) pseudo=read geom=check guess=(re
 ad,tcheck) scf=(maxcycle=1)\\title\\0,1\F,0,-1.560515,0.669193,1.02793
 5\F,0,-2.395956,-0.758181,-0.402751\N,0,-1.190368,-0.448376,0.254141\N
 ,0,2.540504,-1.531236,0.370739\C,0,-0.339313,0.108786,-0.819505\C,0,1.
 022612,0.458263,-0.274893\C,0,1.448448,1.716095,-0.160431\C,0,1.86972,
 -0.636358,0.095191\H,0,-0.826459,0.978775,-1.258076\H,0,-0.271637,-0.6
 89646,-1.557439\H,0,0.810176,2.542787,-0.438338\H,0,2.436402,1.945546,

 Normal termination of Gaussian 16 at Sun Apr  6 08:02:11 2025.
