 Gaussian 16, Revision C.01,

 ----------------------------------------------------------------------
 #t hf aug-cc-pvdz symm=none int=(grid=ultrafine) guess=(read,tcheck) s
 table=(opt,rrhf)
 ----------------------------------------------------------------------
 -----
 title
 -----
 Symbolic Z-matrix:
 Charge =  0 Multiplicity = 1

 SCF Done:  E(RHF) =  -1126.89398119     A.U. after   14 cycles
 Normal termination of Gaussian 16 at Sun Apr  6 08:01:59 2025.
 Gaussian 16:  ES64L-G16RevC.01  3-Jul-2019

 ----------------------------------------------------------------------
 #t hf aug-cc-pvdz iop(5/13=1,5/36=2,99/5=2) pseudo=read geom=check gue
 ss=(read,tcheck) scf=(maxcycle=1)
 ----------------------------------------------------------------------
 -----
 title
 -----
 Structure from the checkpoint file:  "2-dichloroaminoethanol.chk"
 Charge =  0 Multiplicity = 1

                         Standard orientation:
 ---------------------------------------------------------------------
 Center     Atomic      Atomic             Coordinates (Angstroms)
 Number     Number       Type             X           Y           Z
 ---------------------------------------------------------------------
      1         17           0       -1.849785   -1.123139   -0.022675
      2         17           0       -0.868753    1.577128   -0.107884
      3          8           0        3.067182   -0.524320   -0.216469
      4          7           0       -0.501598   -0.072327    0.461280
      5          6           0        0.718626   -0.556060   -0.215103
      6          6           0        1.945213    0.179416    0.310336
      7          1           0        0.651673   -0.480227   -1.301963
      8          1           0        0.800148   -1.607945    0.057284
      9          1           0        1.941056    0.161427    1.404237
     10          1           0        1.942057    1.219714   -0.021165
     11          1           0        3.870903   -0.050056    0.012492
 ---------------------------------------------------------------------

 SCF Done:  E(RHF) =  -1128.33345060     A.U. after    2 cycles

 The electronic state is 1-A.
 Alpha  occ. eigenvalues --  -99.92279 -99.92216 -21.08419 -15.84250 -11.46778
 Alpha  occ. eigenvalues --  -11.40634 -10.49425 -10.49328  -9.69392  -9.69067
 Alpha  occ. eigenvalues --   -9.68517  -9.68397  -9.68294  -9.68247  -1.72612
 Alpha  occ. eigenvalues --   -1.51397  -1.30311  -1.20768  -1.02989  -0.88968
 Alpha  occ. eigenvalues --   -0.71680  -0.69677  -0.67394  -0.62708  -0.60122
 Alpha  occ. eigenvalues --   -0.55705  -0.54541  -0.51974  -0.50649  -0.48831
 Alpha  occ. eigenvalues --   -0.42890  -0.40649  -0.33677
 Alpha virt. eigenvalues --    0.00880   0.03795   0.05437   0.05842   0.06376
 Alpha virt. eigenvalues --    0.06890   0.07397   0.08837   0.10863   0.12603
 Alpha virt. eigenvalues --    0.13138   0.14097   0.15412   0.16280   0.17082

 Mulliken charges:
               1
     1  Cl   0.338481
     2  Cl   0.301755
     3  O   -2.667919
     4  N   -1.411373
     5  C   -2.238361
     6  C   -0.673187
     7  H    1.450869
     8  H    1.315218
     9  H    1.381301
    10  H    1.376059
    11  H    0.827157
 Sum of Mulliken charges =  -0.00000

 Dipole moment (field-independent basis, Debye):
    X=              2.4457    Y=             -0.1573    Z=              0.1510  Tot=              2.4554

 Test job not archived.
 1\1\GINC-SE208\SP\RHF\Aug-CC-pVDZ\C2H5Cl2N1O1\OHZDE\06-Apr-2025\0\\#t
 hf aug-cc-pvdz iop(5/13=1,5/36=2,99/5=2) pseudo=read geom=check guess=
 (read,tcheck) scf=(maxcycle=1)\\title\\0,1\Cl,0,-1.849785,-1.123139,-0
 .022675\Cl,0,-0.868753,1.577128,-0.107884\O,0,3.067182,-0.52432,-0.216
 469\N,0,-0.501598,-0.072327,0.46128\C,0,0.718626,-0.55606,-0.215103\C,
 0,1.945213,0.179416,0.310336\H,0,0.651673,-0.480227,-1.301963\H,0,0.80
 0148,-1.607945,0.057284\H,0,1.941056,0.161427,1.404237\H,0,1.942057,1.
 219714,-0.021165\H,0,3.870903,-0.050056,0.012492\\Version=ES64L-G16Rev

 Normal termination of Gaussian 16 at Sun Apr  6 08:02:04 2025.
