 Gaussian 16, Revision C.01,

 ----------------------------------------------------------------------
 #t hf aug-cc-pvdz symm=none int=(grid=ultrafine) guess=(read,tcheck) s
 table=(opt,rrhf)
 ----------------------------------------------------------------------
 -----
 title
 -----
 Symbolic Z-matrix:
 Charge =  0 Multiplicity = 1

 SCF Done:  E(RHF) =  -449.112718190     A.U. after   16 cycles
 Normal termination of Gaussian 16 at Sun Apr  6 08:02:07 2025.
 Gaussian 16:  ES64L-G16RevC.01  3-Jul-2019

 ----------------------------------------------------------------------
 #t hf aug-cc-pvdz iop(5/13=1,5/36=2,99/5=2) pseudo=read geom=check gue
 ss=(read,tcheck) scf=(maxcycle=1)
 ----------------------------------------------------------------------
 -----
 title
 -----
 Structure from the checkpoint file:  "2-diazo-4-cyclopentene-1-3-dione.chk"
 Charge =  0 Multiplicity = 1

                         Standard orientation:
 ---------------------------------------------------------------------
 Center     Atomic      Atomic             Coordinates (Angstroms)
 Number     Number       Type             X           Y           Z
 ---------------------------------------------------------------------
      1          8           0       -2.366456   -0.102241    0.000000
      2          8           0        2.366456   -0.102242    0.000000
      3          7           0        0.000000    1.711499    0.000000
      4          7           0        0.000000    2.831814    0.000000
      5          6           0        0.000000    0.410913    0.000000
      6          6           0       -1.204476   -0.433611    0.000000
      7          6           0        1.204475   -0.433612    0.000000
      8          6           0       -0.666466   -1.837920    0.000000
      9          6           0        0.666466   -1.837921    0.000000
     10          1           0       -1.332425   -2.687206    0.000000
     11          1           0        1.332424   -2.687207    0.000000
 ---------------------------------------------------------------------

 SCF Done:  E(RHF) =  -451.039437783     A.U. after    2 cycles

 The electronic state is 1-A'.
 Alpha  occ. eigenvalues --  -21.07623 -21.07603 -15.98176 -15.91737 -11.54581
 Alpha  occ. eigenvalues --  -11.54176 -11.48045 -11.45447 -11.42654  -1.75087
 Alpha  occ. eigenvalues --   -1.71735  -1.65684  -1.33868  -1.18961  -0.96740
 Alpha  occ. eigenvalues --   -0.94678  -0.81723  -0.71307  -0.69517  -0.66980
 Alpha  occ. eigenvalues --   -0.65791  -0.64352  -0.57101  -0.56283  -0.54488
 Alpha  occ. eigenvalues --   -0.50584  -0.48079  -0.38525  -0.33534  -0.31696
 Alpha  occ. eigenvalues --   -0.29249
 Alpha virt. eigenvalues --    0.03159   0.05368   0.06956   0.07757   0.08658
 Alpha virt. eigenvalues --    0.09249   0.09277   0.10243   0.10966   0.12762
 Alpha virt. eigenvalues --    0.13315   0.13414   0.13630   0.14014   0.14188

 Mulliken charges:
               1
     1  O   -3.789904
     2  O   -3.789905
     3  N    0.617253
     4  N   -1.880438
     5  C    1.582737
     6  C    2.863155
     7  C    2.863162
     8  C   -0.621144
     9  C   -0.621168
    10  H    1.388126
    11  H    1.388126
 Sum of Mulliken charges =   0.00000

 Dipole moment (field-independent basis, Debye):
    X=             -0.0000    Y=             -0.9363    Z=              0.0000  Tot=              0.9363

 Test job not archived.
 1\1\GINC-SE223\SP\RHF\Aug-CC-pVDZ\C5H2N2O2\OHZDE\06-Apr-2025\0\\#t hf
 aug-cc-pvdz iop(5/13=1,5/36=2,99/5=2) pseudo=read geom=check guess=(re
 ad,tcheck) scf=(maxcycle=1)\\title\\0,1\O,0,-2.366456,-0.102241,0.\O,0
 ,2.366456,-0.102242,0.\N,0,0.,1.711499,0.\N,0,0.,2.831814,0.\C,0,0.,0.
 410913,0.\C,0,-1.204476,-0.433611,0.\C,0,1.204475,-0.433612,0.\C,0,-0.
 666466,-1.83792,0.\C,0,0.666466,-1.837921,0.\H,0,-1.332425,-2.687206,0
 .\H,0,1.332424,-2.687207,0.\\Version=ES64L-G16RevC.01\State=1-A'\HF=-4
 51.0394378\RMSD=1.044e+00\Dipole=-0.0000009,-0.3683588,0.\Quadrupole=-

 Normal termination of Gaussian 16 at Sun Apr  6 08:02:13 2025.
