 Gaussian 16, Revision C.01,

 ----------------------------------------------------------------------
 #t hf aug-cc-pvdz symm=none int=(grid=ultrafine) guess=(read,tcheck) s
 table=(opt,rrhf)
 ----------------------------------------------------------------------
 -----
 title
 -----
 Symbolic Z-matrix:
 Charge =  0 Multiplicity = 1

 SCF Done:  E(RHF) =  -782.594792500     A.U. after   13 cycles
 Normal termination of Gaussian 16 at Sun Apr  6 08:03:51 2025.
 Gaussian 16:  ES64L-G16RevC.01  3-Jul-2019

 ----------------------------------------------------------------------
 #t hf aug-cc-pvdz iop(5/13=1,5/36=2,99/5=2) pseudo=read geom=check gue
 ss=(read,tcheck) scf=(maxcycle=1)
 ----------------------------------------------------------------------
 -----
 title
 -----
 Structure from the checkpoint file:  "2-ethylsulphonyl-2-methylpropane.chk"
 Charge =  0 Multiplicity = 1

                         Standard orientation:
 ---------------------------------------------------------------------
 Center     Atomic      Atomic             Coordinates (Angstroms)
 Number     Number       Type             X           Y           Z
 ---------------------------------------------------------------------
      1          6           0        2.997773    0.483515    0.000057
      2          6           0        1.557720    0.984322    0.000121
      3         16           0        0.416742   -0.436191   -0.000065
      4          8           0        0.613609   -1.153289    1.261894
      5          8           0        0.613589   -1.152943   -1.262224
      6          6           0       -1.319656    0.252037    0.000043
      7          6           0       -1.530669    1.078796   -1.268848
      8          6           0       -2.218473   -0.990363   -0.000134
      9          6           0       -1.530653    1.078424    1.269179
     10          1           0        3.200853   -0.118000    0.883955
     11          1           0        3.200858   -0.117760   -0.884004
     12          1           0        3.675634    1.337082    0.000174
     13          1           0        1.333115    1.569196   -0.889556
     14          1           0        1.333115    1.568964    0.889950
     15          1           0       -1.294421    0.500665   -2.160245
     16          1           0       -2.578720    1.378917   -1.323741
     17          1           0       -0.931778    1.989640   -1.272598
     18          1           0       -2.047743   -1.601398    0.884308
     19          1           0       -3.260021   -0.665474   -0.000085
     20          1           0       -2.047745   -1.601141   -0.884754
     21          1           0       -0.931790    1.989286    1.273173
     22          1           0       -2.578712    1.378497    1.324194
     23          1           0       -1.294359    0.500043    2.160402
 ---------------------------------------------------------------------

 SCF Done:  E(RHF) =  -784.722741010     A.U. after    2 cycles

 The electronic state is 1-A.
 Alpha  occ. eigenvalues --  -75.85883 -21.02459 -21.02419 -13.47239 -13.39078
 Alpha  occ. eigenvalues --  -13.34685 -11.45630 -11.44037 -11.41244 -11.40723
 Alpha  occ. eigenvalues --  -11.38653 -11.37637  -8.20868  -1.80250  -1.62895
 Alpha  occ. eigenvalues --   -1.30273  -1.20218  -1.03496  -1.02864  -1.00322
 Alpha  occ. eigenvalues --   -0.89425  -0.78073  -0.68241  -0.66030  -0.63259
 Alpha  occ. eigenvalues --   -0.62844  -0.60584  -0.56877  -0.56868  -0.53666
 Alpha  occ. eigenvalues --   -0.53521  -0.51812  -0.51170  -0.48684  -0.47384
 Alpha  occ. eigenvalues --   -0.46222  -0.41230  -0.37364  -0.35454  -0.33037
 Alpha  occ. eigenvalues --   -0.31833
 Alpha virt. eigenvalues --    0.03299   0.04001   0.04899   0.05093   0.05621
 Alpha virt. eigenvalues --    0.05771   0.06022   0.06656   0.07025   0.07617
 Alpha virt. eigenvalues --    0.08302   0.08877   0.09131   0.09811   0.11354

 Mulliken charges:
               1
     1  C   -4.045638
     2  C   -4.307290
     3  S    7.258207
     4  O   -2.779750
     5  O   -2.779751
     6  C    3.761745
     7  C   -4.975935
     8  C   -5.234067
     9  C   -4.975899
    10  H    1.375325
    11  H    1.375318
    12  H    1.076395
    13  H    1.608353
    14  H    1.608337
    15  H    1.221715
    16  H    1.059989
    17  H    1.406005
    18  H    1.263077
    19  H    1.133055
    20  H    1.263093
    21  H    1.406006
    22  H    1.059989
    23  H    1.221722
 Sum of Mulliken charges =  -0.00000

 Dipole moment (field-independent basis, Debye):
    X=             -0.7602    Y=              2.0821    Z=              0.0003  Tot=              2.2165

 Test job not archived.
 1\1\GINC-SE167\SP\RHF\Aug-CC-pVDZ\C6H14O2S1\OHZDE\06-Apr-2025\0\\#t hf
  aug-cc-pvdz iop(5/13=1,5/36=2,99/5=2) pseudo=read geom=check guess=(r
 ead,tcheck) scf=(maxcycle=1)\\title\\0,1\C,0,2.997773,0.483515,0.00005
 7\C,0,1.55772,0.984322,0.000121\S,0,0.416742,-0.436191,-0.000065\O,0,0
 .613609,-1.153289,1.261894\O,0,0.613589,-1.152943,-1.262224\C,0,-1.319
 656,0.252037,0.000043\C,0,-1.530669,1.078796,-1.268848\C,0,-2.218473,-
 0.990363,-0.000134\C,0,-1.530653,1.078424,1.269179\H,0,3.200853,-0.118
 ,0.883955\H,0,3.200858,-0.11776,-0.884004\H,0,3.675634,1.337082,0.0001

 Normal termination of Gaussian 16 at Sun Apr  6 08:04:05 2025.
