 Gaussian 16, Revision C.01,

 ----------------------------------------------------------------------
 #t hf aug-cc-pvdz symm=none int=(grid=ultrafine) guess=(read,tcheck) s
 table=(opt,rrhf)
 ----------------------------------------------------------------------
 -----
 title
 -----
 Symbolic Z-matrix:
 Charge =  0 Multiplicity = 1

 SCF Done:  E(RHF) =  -324.807542536     A.U. after   14 cycles
 Normal termination of Gaussian 16 at Sun Apr  6 08:02:36 2025.
 Gaussian 16:  ES64L-G16RevC.01  3-Jul-2019

 ----------------------------------------------------------------------
 #t hf aug-cc-pvdz iop(5/13=1,5/36=2,99/5=2) pseudo=read geom=check gue
 ss=(read,tcheck) scf=(maxcycle=1)
 ----------------------------------------------------------------------
 -----
 title
 -----
 Structure from the checkpoint file:  "2-ethylpyridine.chk"
 Charge =  0 Multiplicity = 1

                         Standard orientation:
 ---------------------------------------------------------------------
 Center     Atomic      Atomic             Coordinates (Angstroms)
 Number     Number       Type             X           Y           Z
 ---------------------------------------------------------------------
      1          6           0        1.751556    1.082901    0.182606
      2          6           0        2.271460   -0.203318    0.214278
      3          6           0        0.398740    1.250753   -0.075620
      4          6           0        1.403367   -1.263547   -0.016890
      5          6           0       -0.401322    0.128061   -0.295305
      6          6           0       -2.726106   -0.194903    0.645780
      7          6           0       -1.881035    0.248415   -0.555272
      8          7           0        0.103790   -1.111829   -0.264838
      9          1           0        2.388226    1.940873    0.354047
     10          1           0        3.319053   -0.385161    0.408951
     11          1           0       -0.037426    2.240056   -0.109962
     12          1           0        1.770415   -2.283998   -0.005475
     13          1           0       -2.495860   -1.225772    0.912489
     14          1           0       -3.789953   -0.129702    0.414763
     15          1           0       -2.530642    0.432256    1.517119
     16          1           0       -2.122699    1.279481   -0.819168
     17          1           0       -2.127609   -0.375408   -1.416356
 ---------------------------------------------------------------------

 SCF Done:  E(RHF) =  -326.384796779     A.U. after    2 cycles

 The electronic state is 1-A.
 Alpha  occ. eigenvalues --  -15.72702 -11.49835 -11.45318 -11.43574 -11.40850
 Alpha  occ. eigenvalues --  -11.40384 -11.37583 -11.35736  -1.45229  -1.19486
 Alpha  occ. eigenvalues --   -1.18334  -1.07260  -0.92316  -0.88728  -0.83470
 Alpha  occ. eigenvalues --   -0.71069  -0.64532  -0.63573  -0.59313  -0.57143
 Alpha  occ. eigenvalues --   -0.55968  -0.54332  -0.51093  -0.48319  -0.47628
 Alpha  occ. eigenvalues --   -0.43971  -0.36398  -0.34944  -0.32748
 Alpha virt. eigenvalues --    0.03434   0.04951   0.05182   0.05526   0.06261
 Alpha virt. eigenvalues --    0.06493   0.06657   0.07614   0.08066   0.10138
 Alpha virt. eigenvalues --    0.10749   0.11431   0.11789   0.12991   0.13522

 Mulliken charges:
               1
     1  C    0.048234
     2  C   -1.051728
     3  C   -1.984706
     4  C   -1.138383
     5  C    3.124592
     6  C   -3.764291
     7  C   -3.999006
     8  N   -3.936648
     9  H    1.577046
    10  H    1.436092
    11  H    1.576731
    12  H    1.641876
    13  H    1.345128
    14  H    1.169650
    15  H    1.361253
    16  H    1.348376
    17  H    1.245784
 Sum of Mulliken charges =   0.00000

 Dipole moment (field-independent basis, Debye):
    X=              0.7692    Y=              1.2876    Z=              0.2154  Tot=              1.5152

 Test job not archived.
 1\1\GINC-SE107\SP\RHF\Aug-CC-pVDZ\C7H9N1\OHZDE\06-Apr-2025\0\\#t hf au
 g-cc-pvdz iop(5/13=1,5/36=2,99/5=2) pseudo=read geom=check guess=(read
 ,tcheck) scf=(maxcycle=1)\\title\\0,1\C,0,1.751556,1.082901,0.182606\C
 ,0,2.27146,-0.203318,0.214278\C,0,0.39874,1.250753,-0.07562\C,0,1.4033
 67,-1.263547,-0.01689\C,0,-0.401322,0.128061,-0.295305\C,0,-2.726106,-
 0.194903,0.64578\C,0,-1.881035,0.248415,-0.555272\N,0,0.10379,-1.11182
 9,-0.264838\H,0,2.388226,1.940873,0.354047\H,0,3.319053,-0.385161,0.40
 8951\H,0,-0.037426,2.240056,-0.109962\H,0,1.770415,-2.283998,-0.005475

 Normal termination of Gaussian 16 at Sun Apr  6 08:02:51 2025.
