 Gaussian 16, Revision C.01,

 ----------------------------------------------------------------------
 #t hf aug-cc-pvdz symm=none int=(grid=ultrafine) guess=(read,tcheck) s
 table=(opt,rrhf)
 ----------------------------------------------------------------------
 -----
 title
 -----
 Symbolic Z-matrix:
 Charge =  0 Multiplicity = 1

 SCF Done:  E(RHF) =  -593.881109352     A.U. after   12 cycles

 1\1\GINC-SE107\Stability\RHF\Aug-CC-pVDZ\C5H12S1\OHZDE\06-Apr-2025\0\\
 #t hf aug-cc-pvdz symm=none int=(grid=ultrafine) guess=(read,tcheck) s
 table=(opt,rrhf)\\title\\0,1\C,0,2.666741,0.979974,0.\C,0,1.486493,0.0
 14956,0.\C,0,-1.390067,-1.170055,1.269098\C,0,-1.390067,-1.170055,-1.2
 69098\S,0,-0.07432,0.976753,0.\C,0,-1.390067,-0.320258,0.\H,0,3.605889
 ,0.424701,0.\H,0,-2.287687,0.301951,0.\H,0,-1.434533,-0.547568,2.16140
 9\H,0,-1.434533,-0.547568,-2.161409\H,0,2.652471,1.620505,0.882058\H,0
 ,2.652471,1.620505,-0.882058\H,0,1.518737,-0.621415,-0.883489\H,0,1.51

 Normal termination of Gaussian 16 at Sun Apr  6 08:02:22 2025.
 Gaussian 16:  ES64L-G16RevC.01  3-Jul-2019

 ----------------------------------------------------------------------
 #t hf aug-cc-pvdz iop(5/13=1,5/36=2,99/5=2) pseudo=read geom=check gue
 ss=(read,tcheck) scf=(maxcycle=1)
 ----------------------------------------------------------------------
 -----
 title
 -----
 Structure from the checkpoint file:  "2-ethylsulfanylpropane.chk"
 Charge =  0 Multiplicity = 1

                         Standard orientation:
 ---------------------------------------------------------------------
 Center     Atomic      Atomic             Coordinates (Angstroms)
 Number     Number       Type             X           Y           Z
 ---------------------------------------------------------------------
      1          6           0        2.666741    0.979974   -0.000000
      2          6           0        1.486493    0.014956   -0.000000
      3          6           0       -1.390067   -1.170055    1.269098
      4          6           0       -1.390067   -1.170055   -1.269098
      5         16           0       -0.074320    0.976753   -0.000000
      6          6           0       -1.390067   -0.320258    0.000000
      7          1           0        3.605889    0.424701   -0.000000
      8          1           0       -2.287687    0.301951    0.000000
      9          1           0       -1.434533   -0.547568    2.161409
     10          1           0       -1.434533   -0.547568   -2.161409
     11          1           0        2.652471    1.620505    0.882058
     12          1           0        2.652471    1.620505   -0.882058
     13          1           0        1.518737   -0.621415   -0.883489
     14          1           0        1.518737   -0.621415    0.883489
     15          1           0       -2.253602   -1.839615    1.272426
     16          1           0       -2.253602   -1.839615   -1.272426
     17          1           0       -0.496721   -1.792940    1.332175
     18          1           0       -0.496721   -1.792940   -1.332175
 ---------------------------------------------------------------------

 SCF Done:  E(RHF) =  -595.151024315     A.U. after    2 cycles

 The electronic state is 1-A'.
 Alpha  occ. eigenvalues --  -75.65885 -13.11077 -13.07546 -13.02033 -11.42945
 Alpha  occ. eigenvalues --  -11.41160 -11.38393 -11.36539 -11.35886  -7.99947
 Alpha  occ. eigenvalues --   -1.27889  -1.16941  -1.01981  -1.00721  -0.87571
 Alpha  occ. eigenvalues --   -0.79984  -0.63416  -0.62797  -0.61052  -0.56627
 Alpha  occ. eigenvalues --   -0.56553  -0.54016  -0.50871  -0.49457  -0.48378
 Alpha  occ. eigenvalues --   -0.46427  -0.38871  -0.33658  -0.21554
 Alpha virt. eigenvalues --    0.03614   0.04000   0.05313   0.05708   0.06022
 Alpha virt. eigenvalues --    0.06141   0.06494   0.06918   0.07193   0.07952
 Alpha virt. eigenvalues --    0.08519   0.10333   0.10535   0.11847   0.13164

 Mulliken charges:
               1
     1  C   -3.734986
     2  C   -3.913532
     3  C   -4.019396
     4  C   -4.019396
     5  S    1.112537
     6  C   -2.158185
     7  H    1.093468
     8  H    1.647332
     9  H    1.345737
    10  H    1.345737
    11  H    1.343876
    12  H    1.343876
    13  H    1.631908
    14  H    1.631908
    15  H    1.196812
    16  H    1.196812
    17  H    1.477746
    18  H    1.477746
 Sum of Mulliken charges =   0.00000

 Dipole moment (field-independent basis, Debye):
    X=             -0.1233    Y=              0.0159    Z=             -0.0000  Tot=              0.1243

 Test job not archived.
 1\1\GINC-SE107\SP\RHF\Aug-CC-pVDZ\C5H12S1\OHZDE\06-Apr-2025\0\\#t hf a
 ug-cc-pvdz iop(5/13=1,5/36=2,99/5=2) pseudo=read geom=check guess=(rea
 d,tcheck) scf=(maxcycle=1)\\title\\0,1\C,0,2.666741,0.979974,0.\C,0,1.
 486493,0.014956,0.\C,0,-1.390067,-1.170055,1.269098\C,0,-1.390067,-1.1
 70055,-1.269098\S,0,-0.07432,0.976753,0.\C,0,-1.390067,-0.320258,0.\H,
 0,3.605889,0.424701,0.\H,0,-2.287687,0.301951,0.\H,0,-1.434533,-0.5475
 68,2.161409\H,0,-1.434533,-0.547568,-2.161409\H,0,2.652471,1.620505,0.
 882058\H,0,2.652471,1.620505,-0.882058\H,0,1.518737,-0.621415,-0.88348

 Normal termination of Gaussian 16 at Sun Apr  6 08:02:49 2025.
