 Gaussian 16, Revision C.01,

 ----------------------------------------------------------------------
 #t hf aug-cc-pvdz symm=none int=(grid=ultrafine) guess=(read,tcheck) s
 table=(opt,rrhf)
 ----------------------------------------------------------------------
 -----
 title
 -----
 Symbolic Z-matrix:
 Charge =  0 Multiplicity = 1

 SCF Done:  E(RHF) =  -830.504046385     A.U. after   18 cycles
 Normal termination of Gaussian 16 at Sun Apr  6 08:02:48 2025.
 Gaussian 16:  ES64L-G16RevC.01  3-Jul-2019

 ----------------------------------------------------------------------
 #t hf aug-cc-pvdz iop(5/13=1,5/36=2,99/5=2) pseudo=read geom=check gue
 ss=(read,tcheck) scf=(maxcycle=1)
 ----------------------------------------------------------------------
 -----
 title
 -----
 Structure from the checkpoint file:  "2-ethynyl-5-nitrothiophene.chk"
 Charge =  0 Multiplicity = 1

                         Standard orientation:
 ---------------------------------------------------------------------
 Center     Atomic      Atomic             Coordinates (Angstroms)
 Number     Number       Type             X           Y           Z
 ---------------------------------------------------------------------
      1         16           0       -0.341510   -0.991986   -0.000006
      2          8           0        2.519011   -1.365713   -0.000008
      3          8           0        3.108200    0.731357    0.000007
      4          7           0        2.272192   -0.162941    0.000001
      5          6           0        0.889034    0.218887    0.000002
      6          6           0        0.400378    1.497039    0.000009
      7          6           0       -1.005032    1.513710    0.000008
      8          6           0       -1.562355    0.249687    0.000001
      9          6           0       -2.927020   -0.091395   -0.000003
     10          6           0       -4.090699   -0.393484   -0.000005
     11          1           0        1.038617    2.365715    0.000015
     12          1           0       -1.603763    2.410935    0.000014
     13          1           0       -5.119557   -0.656096   -0.000007
 ---------------------------------------------------------------------

 SCF Done:  E(RHF) =  -832.641246278     A.U. after    2 cycles

 The electronic state is 1-A.
 Alpha  occ. eigenvalues --  -75.75939 -21.10182 -21.10074 -16.01535 -13.22773
 Alpha  occ. eigenvalues --  -13.21521 -13.07573 -11.54440 -11.50430 -11.48136
 Alpha  occ. eigenvalues --  -11.46203 -11.44085 -11.42818  -8.10327  -2.00740
 Alpha  occ. eigenvalues --   -1.69842  -1.42780  -1.20899  -1.14021  -1.11600
 Alpha  occ. eigenvalues --   -0.99622  -0.87437  -0.78410  -0.76392  -0.73219
 Alpha  occ. eigenvalues --   -0.69187  -0.64187  -0.63116  -0.58179  -0.55533
 Alpha  occ. eigenvalues --   -0.53027  -0.45098  -0.44921  -0.38839  -0.36578
 Alpha  occ. eigenvalues --   -0.33135  -0.32580  -0.31630  -0.29873
 Alpha virt. eigenvalues --    0.02080   0.04180   0.05537   0.05670   0.07482
 Alpha virt. eigenvalues --    0.07716   0.08670   0.09478   0.10139   0.11444
 Alpha virt. eigenvalues --    0.11549   0.12730   0.13834   0.13928   0.14174

 Mulliken charges:
               1
     1  S    1.667916
     2  O   -2.816103
     3  O   -2.831044
     4  N    2.733866
     5  C    1.259968
     6  C   -3.256216
     7  C   -3.227775
     8  C    3.097587
     9  C    2.696152
    10  C   -3.229886
    11  H    1.807427
    12  H    1.593818
    13  H    0.504292
 Sum of Mulliken charges =   0.00000

 Dipole moment (field-independent basis, Debye):
    X=             -2.7411    Y=             -1.4709    Z=             -0.0000  Tot=              3.1108

 Test job not archived.
 1\1\GINC-SE168\SP\RHF\Aug-CC-pVDZ\C6H3N1O2S1\OHZDE\06-Apr-2025\0\\#t h
 f aug-cc-pvdz iop(5/13=1,5/36=2,99/5=2) pseudo=read geom=check guess=(
 read,tcheck) scf=(maxcycle=1)\\title\\0,1\S,0,-0.34151,-0.991986,-0.00
 0006\O,0,2.519011,-1.365713,-0.000008\O,0,3.1082,0.731357,0.000007\N,0
 ,2.272192,-0.162941,0.000001\C,0,0.889034,0.218887,0.000002\C,0,0.4003
 78,1.497039,0.000009\C,0,-1.005032,1.51371,0.000008\C,0,-1.562355,0.24
 9687,0.000001\C,0,-2.92702,-0.091395,-0.000003\C,0,-4.090699,-0.393484
 ,-0.000005\H,0,1.038617,2.365715,0.000015\H,0,-1.603763,2.410935,0.000

 Normal termination of Gaussian 16 at Sun Apr  6 08:02:55 2025.
