 Gaussian 16, Revision C.01,

 ----------------------------------------------------------------------
 #t hf aug-cc-pvdz symm=none int=(grid=ultrafine) guess=(read,tcheck) s
 table=(opt,rrhf)
 ----------------------------------------------------------------------
 -----
 title
 -----
 Symbolic Z-matrix:
 Charge =  0 Multiplicity = 1

 SCF Done:  E(RHF) =  -340.799122177     A.U. after   15 cycles
 Normal termination of Gaussian 16 at Sun Apr  6 08:02:30 2025.
 Gaussian 16:  ES64L-G16RevC.01  3-Jul-2019

 ----------------------------------------------------------------------
 #t hf aug-cc-pvdz iop(5/13=1,5/36=2,99/5=2) pseudo=read geom=check gue
 ss=(read,tcheck) scf=(maxcycle=1)
 ----------------------------------------------------------------------
 -----
 title
 -----
 Structure from the checkpoint file:  "2-ethylpyrazine.chk"
 Charge =  0 Multiplicity = 1

                         Standard orientation:
 ---------------------------------------------------------------------
 Center     Atomic      Atomic             Coordinates (Angstroms)
 Number     Number       Type             X           Y           Z
 ---------------------------------------------------------------------
      1          6           0        2.233334   -0.116230    0.218263
      2          6           0        1.430378   -1.225938   -0.017669
      3          6           0        0.433277    1.226506   -0.053715
      4          6           0       -0.386763    0.119094   -0.289925
      5          6           0       -2.716909   -0.220171    0.627717
      6          6           0       -1.861257    0.258329   -0.552378
      7          7           0        1.734306    1.117813    0.199732
      8          7           0        0.129285   -1.113947   -0.269666
      9          1           0        3.291804   -0.223926    0.422137
     10          1           0        1.847245   -2.226480   -0.005825
     11          1           0        0.020691    2.228991   -0.073988
     12          1           0       -2.497551   -1.261629    0.860291
     13          1           0       -3.777994   -0.138114    0.391141
     14          1           0       -2.522970    0.375105    1.521205
     15          1           0       -2.091480    1.300250   -0.781301
     16          1           0       -2.107242   -0.330802   -1.437880
 ---------------------------------------------------------------------

 SCF Done:  E(RHF) =  -342.416440291     A.U. after    2 cycles

 The electronic state is 1-A.
 Alpha  occ. eigenvalues --  -15.76059 -15.75411 -11.48785 -11.46369 -11.42438
 Alpha  occ. eigenvalues --  -11.40384 -11.39939 -11.36444  -1.51147  -1.33257
 Alpha  occ. eigenvalues --   -1.20590  -1.09483  -0.94753  -0.92471  -0.85425
 Alpha  occ. eigenvalues --   -0.72073  -0.66479  -0.65115  -0.60662  -0.59384
 Alpha  occ. eigenvalues --   -0.57498  -0.53744  -0.50061  -0.48934  -0.46787
 Alpha  occ. eigenvalues --   -0.45338  -0.40890  -0.34053  -0.33224
 Alpha virt. eigenvalues --    0.03481   0.04993   0.05515   0.05994   0.06112
 Alpha virt. eigenvalues --    0.06286   0.06717   0.07588   0.09632   0.10448
 Alpha virt. eigenvalues --    0.11207   0.11504   0.11638   0.12229   0.13360

 Mulliken charges:
               1
     1  C    0.028729
     2  C    0.636525
     3  C   -1.010652
     4  C    4.778901
     5  C   -3.724186
     6  C   -3.510227
     7  N   -3.772175
     8  N   -4.791537
     9  H    1.517443
    10  H    1.612813
    11  H    1.602439
    12  H    1.315041
    13  H    1.182911
    14  H    1.367376
    15  H    1.425011
    16  H    1.341588
 Sum of Mulliken charges =   0.00000

 Dipole moment (field-independent basis, Debye):
    X=             -0.4661    Y=             -0.2046    Z=             -0.0744  Tot=              0.5144

 Test job not archived.
 1\1\GINC-SE106\SP\RHF\Aug-CC-pVDZ\C6H8N2\OHZDE\06-Apr-2025\0\\#t hf au
 g-cc-pvdz iop(5/13=1,5/36=2,99/5=2) pseudo=read geom=check guess=(read
 ,tcheck) scf=(maxcycle=1)\\title\\0,1\C,0,2.233334,-0.11623,0.218263\C
 ,0,1.430378,-1.225938,-0.017669\C,0,0.433277,1.226506,-0.053715\C,0,-0
 .386763,0.119094,-0.289925\C,0,-2.716909,-0.220171,0.627717\C,0,-1.861
 257,0.258329,-0.552378\N,0,1.734306,1.117813,0.199732\N,0,0.129285,-1.
 113947,-0.269666\H,0,3.291804,-0.223926,0.422137\H,0,1.847245,-2.22648
 ,-0.005825\H,0,0.020691,2.228991,-0.073988\H,0,-2.497551,-1.261629,0.8

 Normal termination of Gaussian 16 at Sun Apr  6 08:02:50 2025.
