 Gaussian 16, Revision C.01,

 ----------------------------------------------------------------------
 #t hf aug-cc-pvdz symm=none int=(grid=ultrafine) guess=(read,tcheck) s
 table=(opt,rrhf)
 ----------------------------------------------------------------------
 -----
 title
 -----
 Symbolic Z-matrix:
 Charge =  0 Multiplicity = 1

 SCF Done:  E(RHF) =  -307.039810707     A.U. after   12 cycles

 1\1\GINC-SE047\Stability\RHF\Aug-CC-pVDZ\C4H10O2\OHZDE\06-Apr-2025\0\\
 #t hf aug-cc-pvdz symm=none int=(grid=ultrafine) guess=(read,tcheck) s
 table=(opt,rrhf)\\title\\0,1\C,0,-2.749765,-0.583904,-0.153459\C,0,-1.
 683862,0.394741,0.292969\C,0,1.943584,0.269479,-0.404816\C,0,0.63875,0
 .818274,0.137976\O,0,2.3662,-0.943905,0.203717\O,0,-0.429726,-0.030575
 ,-0.21494\H,0,-3.725084,-0.279288,0.228236\H,0,-2.80247,-0.625322,-1.2
 41261\H,0,-2.530599,-1.585069,0.21698\H,0,-1.640996,0.446136,1.389514\
 H,0,-1.909147,1.406285,-0.072242\H,0,2.712674,1.045372,-0.307406\H,0,1

 Normal termination of Gaussian 16 at Sun Apr  6 08:02:12 2025.
 Gaussian 16:  ES64L-G16RevC.01  3-Jul-2019

 ----------------------------------------------------------------------
 #t hf aug-cc-pvdz iop(5/13=1,5/36=2,99/5=2) pseudo=read geom=check gue
 ss=(read,tcheck) scf=(maxcycle=1)
 ----------------------------------------------------------------------
 -----
 title
 -----
 Structure from the checkpoint file:  "2-ethoxyethanol.chk"
 Charge =  0 Multiplicity = 1

                         Standard orientation:
 ---------------------------------------------------------------------
 Center     Atomic      Atomic             Coordinates (Angstroms)
 Number     Number       Type             X           Y           Z
 ---------------------------------------------------------------------
      1          6           0       -2.749765   -0.583904   -0.153459
      2          6           0       -1.683862    0.394741    0.292969
      3          6           0        1.943584    0.269479   -0.404816
      4          6           0        0.638750    0.818274    0.137976
      5          8           0        2.366200   -0.943905    0.203717
      6          8           0       -0.429726   -0.030575   -0.214940
      7          1           0       -3.725084   -0.279288    0.228236
      8          1           0       -2.802470   -0.625322   -1.241261
      9          1           0       -2.530599   -1.585069    0.216980
     10          1           0       -1.640996    0.446136    1.389514
     11          1           0       -1.909147    1.406285   -0.072242
     12          1           0        2.712674    1.045372   -0.307406
     13          1           0        1.826768    0.042599   -1.464123
     14          1           0        0.481049    1.826798   -0.273000
     15          1           0        0.701134    0.920416    1.233025
     16          1           0        2.502636   -0.793628    1.144037
 ---------------------------------------------------------------------

 SCF Done:  E(RHF) =  -308.458448091     A.U. after    2 cycles

 The electronic state is 1-A.
 Alpha  occ. eigenvalues --  -21.06314 -21.03772 -11.45709 -11.42547 -11.39049
 Alpha  occ. eigenvalues --  -11.35973  -1.75955  -1.69150  -1.13920  -1.05530
 Alpha  occ. eigenvalues --   -0.88268  -0.85681  -0.66708  -0.65356  -0.61413
 Alpha  occ. eigenvalues --   -0.60063  -0.58785  -0.52370  -0.51233  -0.49084
 Alpha  occ. eigenvalues --   -0.46536  -0.40882  -0.37710  -0.31395  -0.29437
 Alpha virt. eigenvalues --    0.04060   0.04914   0.05196   0.05549   0.05821
 Alpha virt. eigenvalues --    0.06353   0.06384   0.06721   0.08166   0.08846
 Alpha virt. eigenvalues --    0.11631   0.12933   0.13747   0.14943   0.15720

 Mulliken charges:
               1
     1  C   -4.034567
     2  C   -1.277861
     3  C   -1.533534
     4  C   -0.774930
     5  O   -2.417356
     6  O   -3.078668
     7  H    1.108855
     8  H    1.288871
     9  H    1.308319
    10  H    1.494607
    11  H    1.536425
    12  H    1.129043
    13  H    1.444318
    14  H    1.515056
    15  H    1.589180
    16  H    0.702241
 Sum of Mulliken charges =   0.00000

 Dipole moment (field-independent basis, Debye):
    X=             -0.3071    Y=              0.7865    Z=              0.4786  Tot=              0.9706

 Test job not archived.
 1\1\GINC-SE047\SP\RHF\Aug-CC-pVDZ\C4H10O2\OHZDE\06-Apr-2025\0\\#t hf a
 ug-cc-pvdz iop(5/13=1,5/36=2,99/5=2) pseudo=read geom=check guess=(rea
 d,tcheck) scf=(maxcycle=1)\\title\\0,1\C,0,-2.749765,-0.583904,-0.1534
 59\C,0,-1.683862,0.394741,0.292969\C,0,1.943584,0.269479,-0.404816\C,0
 ,0.63875,0.818274,0.137976\O,0,2.3662,-0.943905,0.203717\O,0,-0.429726
 ,-0.030575,-0.21494\H,0,-3.725084,-0.279288,0.228236\H,0,-2.80247,-0.6
 25322,-1.241261\H,0,-2.530599,-1.585069,0.21698\H,0,-1.640996,0.446136
 ,1.389514\H,0,-1.909147,1.406285,-0.072242\H,0,2.712674,1.045372,-0.30

 Normal termination of Gaussian 16 at Sun Apr  6 08:02:45 2025.
