 Gaussian 16, Revision C.01,

 ----------------------------------------------------------------------
 #t hf aug-cc-pvdz symm=none int=(grid=ultrafine) guess=(read,tcheck) s
 table=(opt,rrhf)
 ----------------------------------------------------------------------
 -----
 title
 -----
 Symbolic Z-matrix:
 Charge =  0 Multiplicity = 1

 SCF Done:  E(RHF) =  -233.018677596     A.U. after   13 cycles
 Normal termination of Gaussian 16 at Sun Apr  6 08:02:15 2025.
 Gaussian 16:  ES64L-G16RevC.01  3-Jul-2019

 ----------------------------------------------------------------------
 #t hf aug-cc-pvdz iop(5/13=1,5/36=2,99/5=2) pseudo=read geom=check gue
 ss=(read,tcheck) scf=(maxcycle=1)
 ----------------------------------------------------------------------
 -----
 title
 -----
 Structure from the checkpoint file:  "2-ethyl-1-3-butadiene.chk"
 Charge =  0 Multiplicity = 1

                         Standard orientation:
 ---------------------------------------------------------------------
 Center     Atomic      Atomic             Coordinates (Angstroms)
 Number     Number       Type             X           Y           Z
 ---------------------------------------------------------------------
      1          6           0       -0.431809    1.690207   -0.000125
      2          6           0        0.097948    0.460822   -0.000034
      3          6           0        1.557665    0.319248   -0.000030
      4          6           0        2.248973   -0.821807    0.000057
      5          6           0       -0.736939   -0.798581    0.000064
      6          1           0        0.202753    2.566781   -0.000196
      7          1           0       -1.497262    1.864489   -0.000133
      8          1           0        2.107527    1.255021   -0.000107
      9          1           0        1.772778   -1.792680    0.000137
     10          1           0        3.330020   -0.814825    0.000051
     11          6           0       -2.250834   -0.611254    0.000050
     12          1           0       -0.448920   -1.398382   -0.868916
     13          1           0       -0.448919   -1.398250    0.869134
     14          1           0       -2.589661   -0.066300    0.881969
     15          1           0       -2.748682   -1.581216    0.000132
     16          1           0       -2.589661   -0.066449   -0.881960
 ---------------------------------------------------------------------

 SCF Done:  E(RHF) =  -234.199752052     A.U. after    2 cycles

 The electronic state is 1-A.
 Alpha  occ. eigenvalues --  -11.44549 -11.41493 -11.40561 -11.38632 -11.37970
 Alpha  occ. eigenvalues --  -11.35893  -1.28614  -1.12182  -1.05189  -0.92061
 Alpha  occ. eigenvalues --   -0.84526  -0.73126  -0.64537  -0.62857  -0.61829
 Alpha  occ. eigenvalues --   -0.54670  -0.52503  -0.51668  -0.49870  -0.45962
 Alpha  occ. eigenvalues --   -0.42724  -0.40979  -0.30310
 Alpha virt. eigenvalues --    0.03716   0.04959   0.05386   0.05922   0.06100
 Alpha virt. eigenvalues --    0.06723   0.06888   0.06930   0.08246   0.08659
 Alpha virt. eigenvalues --    0.10402   0.11106   0.12281   0.13382   0.14065

 Mulliken charges:
               1
     1  C   -4.710524
     2  C    2.520255
     3  C   -0.388502
     4  C   -3.969553
     5  C   -3.223510
     6  H    1.651318
     7  H    1.697653
     8  H    1.404134
     9  H    1.444854
    10  H    1.311006
    11  C   -3.887459
    12  H    1.368009
    13  H    1.368006
    14  H    1.243189
    15  H    0.927941
    16  H    1.243184
 Sum of Mulliken charges =   0.00000

 Dipole moment (field-independent basis, Debye):
    X=             -0.2229    Y=             -0.2424    Z=              0.0000  Tot=              0.3293

 Test job not archived.
 1\1\GINC-SE046\SP\RHF\Aug-CC-pVDZ\C6H10\OHZDE\06-Apr-2025\0\\#t hf aug
 -cc-pvdz iop(5/13=1,5/36=2,99/5=2) pseudo=read geom=check guess=(read,
 tcheck) scf=(maxcycle=1)\\title\\0,1\C,0,-0.431809,1.690207,-0.000125\
 C,0,0.097948,0.460822,-0.000034\C,0,1.557665,0.319248,-0.00003\C,0,2.2
 48973,-0.821807,0.000057\C,0,-0.736939,-0.798581,0.000064\H,0,0.202753
 ,2.566781,-0.000196\H,0,-1.497262,1.864489,-0.000133\H,0,2.107527,1.25
 5021,-0.000107\H,0,1.772778,-1.79268,0.000137\H,0,3.33002,-0.814825,0.
 000051\C,0,-2.250834,-0.611254,0.00005\H,0,-0.44892,-1.398382,-0.86891

 Normal termination of Gaussian 16 at Sun Apr  6 08:02:49 2025.
