 Gaussian 16, Revision C.01,

 ----------------------------------------------------------------------
 #t hf aug-cc-pvdz symm=none int=(grid=ultrafine) guess=(read,tcheck) s
 table=(opt,rrhf)
 ----------------------------------------------------------------------
 -----
 title
 -----
 Symbolic Z-matrix:
 Charge =  0 Multiplicity = 1

 SCF Done:  E(RHF) =  -430.140907278     A.U. after   16 cycles
 Normal termination of Gaussian 16 at Sun Apr  6 08:02:39 2025.
 Gaussian 16:  ES64L-G16RevC.01  3-Jul-2019

 ----------------------------------------------------------------------
 #t hf aug-cc-pvdz iop(5/13=1,5/36=2,99/5=2) pseudo=read geom=check gue
 ss=(read,tcheck) scf=(maxcycle=1)
 ----------------------------------------------------------------------
 -----
 title
 -----
 Structure from the checkpoint file:  "2-ethynylpyrimidine-5-carbonitrile.chk"
 Charge =  0 Multiplicity = 1

                         Standard orientation:
 ---------------------------------------------------------------------
 Center     Atomic      Atomic             Coordinates (Angstroms)
 Number     Number       Type             X           Y           Z
 ---------------------------------------------------------------------
      1          6           0        0.000000   -0.000000   -3.930784
      2          6           0        0.000000   -0.000000   -2.731540
      3          6           0        0.000000    0.000000    2.793427
      4          6           0        0.000000    1.188249    0.632112
      5          6           0       -0.000000   -1.188249    0.632112
      6          6           0        0.000000   -0.000000   -1.302335
      7          6           0        0.000000    0.000000    1.369921
      8          7           0        0.000000    0.000000    3.945700
      9          7           0        0.000000    1.194481   -0.690626
     10          7           0       -0.000000   -1.194481   -0.690626
     11          1           0        0.000000   -0.000000   -4.992828
     12          1           0        0.000000    2.149383    1.132106
     13          1           0       -0.000000   -2.149383    1.132106
 ---------------------------------------------------------------------

 SCF Done:  E(RHF) =  -432.073449342     A.U. after    2 cycles

 The electronic state is 1-A1.
 Alpha  occ. eigenvalues --  -15.78196 -15.78165 -15.78100 -11.54511 -11.53261
 Alpha  occ. eigenvalues --  -11.51103 -11.47136 -11.45507 -11.44497 -11.42926
 Alpha  occ. eigenvalues --   -1.56522  -1.34752  -1.33927  -1.23500  -1.12587
 Alpha  occ. eigenvalues --   -0.99576  -0.96968  -0.82302  -0.79300  -0.71910
 Alpha  occ. eigenvalues --   -0.70025  -0.63274  -0.61415  -0.60944  -0.55199
 Alpha  occ. eigenvalues --   -0.52110  -0.47335  -0.47036  -0.44204  -0.43471
 Alpha  occ. eigenvalues --   -0.40695  -0.37370  -0.35108
 Alpha virt. eigenvalues --    0.02558   0.04206   0.05260   0.06083   0.07191
 Alpha virt. eigenvalues --    0.07841   0.08239   0.09766   0.10014   0.10196
 Alpha virt. eigenvalues --    0.10670   0.11864   0.12480   0.12566   0.12866

 Mulliken charges:
               1
     1  C   -4.254452
     2  C    3.070502
     3  C    0.910822
     4  C   -0.532332
     5  C   -0.532332
     6  C    3.484923
     7  C    3.663610
     8  N   -2.207638
     9  N   -3.759230
    10  N   -3.759230
    11  H    0.699781
    12  H    1.607788
    13  H    1.607788
 Sum of Mulliken charges =  -0.00000

 Dipole moment (field-independent basis, Debye):
    X=              0.0000    Y=              0.0000    Z=             -2.5318  Tot=              2.5318

 Test job not archived.
 1\1\GINC-SE169\SP\RHF\Aug-CC-pVDZ\C7H3N3\OHZDE\06-Apr-2025\0\\#t hf au
 g-cc-pvdz iop(5/13=1,5/36=2,99/5=2) pseudo=read geom=check guess=(read
 ,tcheck) scf=(maxcycle=1)\\title\\0,1\C,0,0.,0.,-3.930784\C,0,0.,0.,-2
 .73154\C,0,0.,0.,2.793427\C,0,0.,1.188249,0.632112\C,0,0.,-1.188249,0.
 632112\C,0,0.,0.,-1.302335\C,0,0.,0.,1.369921\N,0,0.,0.,3.9457\N,0,0.,
 1.194481,-0.690626\N,0,0.,-1.194481,-0.690626\H,0,0.,0.,-4.992828\H,0,
 0.,2.149383,1.132106\H,0,0.,-2.149383,1.132106\\Version=ES64L-G16RevC.
 01\State=1-A1\HF=-432.0734493\RMSD=1.345e+00\Dipole=0.,0.,-0.9960871\Q

 Normal termination of Gaussian 16 at Sun Apr  6 08:02:49 2025.
