 Gaussian 16, Revision C.01,

 ----------------------------------------------------------------------
 #t hf aug-cc-pvdz symm=none int=(grid=ultrafine) guess=(read,tcheck) s
 table=(opt,rrhf)
 ----------------------------------------------------------------------
 -----
 title
 -----
 Symbolic Z-matrix:
 Charge =  0 Multiplicity = 1

 SCF Done:  E(RHF) =  -268.871810812     A.U. after   14 cycles
 Normal termination of Gaussian 16 at Sun Apr  6 08:02:09 2025.
 Gaussian 16:  ES64L-G16RevC.01  3-Jul-2019

 ----------------------------------------------------------------------
 #t hf aug-cc-pvdz iop(5/13=1,5/36=2,99/5=2) pseudo=read geom=check gue
 ss=(read,tcheck) scf=(maxcycle=1)
 ----------------------------------------------------------------------
 -----
 title
 -----
 Structure from the checkpoint file:  "2-ethylacrolein.chk"
 Charge =  0 Multiplicity = 1

                         Standard orientation:
 ---------------------------------------------------------------------
 Center     Atomic      Atomic             Coordinates (Angstroms)
 Number     Number       Type             X           Y           Z
 ---------------------------------------------------------------------
      1          6           0        2.315360   -0.488362    0.000127
      2          6           0        1.228339    0.539082    0.000162
      3          6           0       -0.105961    0.377961    0.000037
      4          6           0       -1.055394    1.543354    0.000099
      5          6           0       -0.727198   -0.958438   -0.000171
      6          8           0       -1.927501   -1.139157   -0.000289
      7          1           0        2.957003   -0.350601    0.874410
      8          1           0        1.962408   -1.515125   -0.000023
      9          1           0        2.957142   -0.350394   -0.874021
     10          1           0        1.592453    1.563287    0.000311
     11          1           0       -1.709375    1.509936    0.872664
     12          1           0       -1.709240    1.510139   -0.872576
     13          1           0       -0.516480    2.489320    0.000251
     14          1           0       -0.044780   -1.824879   -0.000220
 ---------------------------------------------------------------------

 SCF Done:  E(RHF) =  -270.135146686     A.U. after    2 cycles

 The electronic state is 1-A.
 Alpha  occ. eigenvalues --  -21.05324 -11.48497 -11.45588 -11.41759 -11.39637
 Alpha  occ. eigenvalues --  -11.37367  -1.70058  -1.26302  -1.09616  -0.96811
 Alpha  occ. eigenvalues --   -0.89206  -0.74534  -0.65449  -0.61528  -0.59241
 Alpha  occ. eigenvalues --   -0.56522  -0.53634  -0.52848  -0.48455  -0.47200
 Alpha  occ. eigenvalues --   -0.46083  -0.32994  -0.28735
 Alpha virt. eigenvalues --    0.03080   0.04787   0.05343   0.05639   0.06313
 Alpha virt. eigenvalues --    0.06789   0.07074   0.08788   0.09734   0.10220
 Alpha virt. eigenvalues --    0.11852   0.13034   0.13358   0.13579   0.14700

 Mulliken charges:
               1
     1  C   -4.352852
     2  C    0.513024
     3  C    1.673994
     4  C   -5.239895
     5  C    0.674602
     6  O   -3.031234
     7  H    1.117585
     8  H    1.415594
     9  H    1.117585
    10  H    1.378951
    11  H    1.046878
    12  H    1.046878
    13  H    1.317996
    14  H    1.320895
 Sum of Mulliken charges =  -0.00000

 Dipole moment (field-independent basis, Debye):
    X=              1.9598    Y=              0.7207    Z=              0.0002  Tot=              2.0881

 Test job not archived.
 1\1\GINC-SE046\SP\RHF\Aug-CC-pVDZ\C5H8O1\OHZDE\06-Apr-2025\0\\#t hf au
 g-cc-pvdz iop(5/13=1,5/36=2,99/5=2) pseudo=read geom=check guess=(read
 ,tcheck) scf=(maxcycle=1)\\title\\0,1\C,0,2.31536,-0.488363,0.000127\C
 ,0,1.228339,0.539082,0.000162\C,0,-0.105961,0.377961,0.000037\C,0,-1.0
 55394,1.543354,0.000099\C,0,-0.727198,-0.958438,-0.000171\O,0,-1.92750
 1,-1.139157,-0.000289\H,0,2.957003,-0.350602,0.87441\H,0,1.962408,-1.5
 15125,-0.000023\H,0,2.957142,-0.350395,-0.874021\H,0,1.592453,1.563287
 ,0.000311\H,0,-1.709375,1.509936,0.872664\H,0,-1.70924,1.510139,-0.872

 Normal termination of Gaussian 16 at Sun Apr  6 08:02:14 2025.
