 Gaussian 16, Revision C.01,

 ----------------------------------------------------------------------
 #t hf aug-cc-pvdz symm=none int=(grid=ultrafine) guess=(read,tcheck) s
 table=(opt,rrhf)
 ----------------------------------------------------------------------
 -----
 title
 -----
 Symbolic Z-matrix:
 Charge =  0 Multiplicity = 1

 SCF Done:  E(RHF) =  -230.736857228     A.U. after   14 cycles
 Normal termination of Gaussian 16 at Sun Apr  6 08:01:47 2025.
 Gaussian 16:  ES64L-G16RevC.01  3-Jul-2019

 ----------------------------------------------------------------------
 #t hf aug-cc-pvdz iop(5/13=1,5/36=2,99/5=2) pseudo=read geom=check gue
 ss=(read,tcheck) scf=(maxcycle=1)
 ----------------------------------------------------------------------
 -----
 title
 -----
 Structure from the checkpoint file:  "2-fluoroethenimine.chk"
 Charge =  0 Multiplicity = 1

                         Standard orientation:
 ---------------------------------------------------------------------
 Center     Atomic      Atomic             Coordinates (Angstroms)
 Number     Number       Type             X           Y           Z
 ---------------------------------------------------------------------
      1          9           0        1.606461   -0.410727    0.002376
      2          7           0       -1.822683   -0.186473   -0.129924
      3          6           0        0.603795    0.505949    0.008579
      4          6           0       -0.650353    0.130122    0.010605
      5          1           0       -2.343052   -0.348985    0.733356
      6          1           0        0.923032    1.534412    0.039623
 ---------------------------------------------------------------------

 SCF Done:  E(RHF) =  -231.671657488     A.U. after    2 cycles

 The electronic state is 1-A.
 Alpha  occ. eigenvalues --  -29.28918 -15.80023 -11.49117 -11.46095  -1.38525
 Alpha  occ. eigenvalues --   -1.18002  -0.83836  -0.71641  -0.69669  -0.56725
 Alpha  occ. eigenvalues --   -0.47025  -0.44474  -0.39352  -0.28560  -0.22153
 Alpha virt. eigenvalues --    0.03429   0.05345   0.09671   0.11617   0.12188
 Alpha virt. eigenvalues --    0.12459   0.13463   0.13822   0.15332   0.16400
 Alpha virt. eigenvalues --    0.17942   0.20282   0.22106   0.25246   0.25759

 Mulliken charges:
               1
     1  F    0.551865
     2  N   -2.761852
     3  C   -0.488580
     4  C    0.699083
     5  H    0.781199
     6  H    1.218285
 Sum of Mulliken charges =  -0.00000

 Dipole moment (field-independent basis, Debye):
    X=              1.7121    Y=             -0.5342    Z=              1.1861  Tot=              2.1503

 Test job not archived.
 1\1\GINC-SE013\SP\RHF\Aug-CC-pVDZ\C2H2F1N1\OHZDE\06-Apr-2025\0\\#t hf
 aug-cc-pvdz iop(5/13=1,5/36=2,99/5=2) pseudo=read geom=check guess=(re
 ad,tcheck) scf=(maxcycle=1)\\title\\0,1\F,0,1.606461,-0.410727,0.00237
 6\N,0,-1.822683,-0.186473,-0.129924\C,0,0.603795,0.505949,0.008579\C,0
 ,-0.650353,0.130122,0.010605\H,0,-2.343052,-0.348985,0.733356\H,0,0.92
 3032,1.534412,0.039623\\Version=ES64L-G16RevC.01\State=1-A\HF=-231.671
 6575\RMSD=3.955e-01\Dipole=0.6736092,-0.2101513,0.4666658\Quadrupole=1
 .2627291,0.0826491,-1.3453782,0.0596449,-2.5732726,-0.4245522\PG=C01 [

 Normal termination of Gaussian 16 at Sun Apr  6 08:01:55 2025.
