 Gaussian 16, Revision C.01,

 ----------------------------------------------------------------------
 #t hf aug-cc-pvdz symm=none int=(grid=ultrafine) guess=(read,tcheck) s
 table=(opt,rrhf)
 ----------------------------------------------------------------------
 -----
 title
 -----
 Symbolic Z-matrix:
 Charge =  0 Multiplicity = 1

 SCF Done:  E(RHF) =  -404.464725817     A.U. after   16 cycles
 Normal termination of Gaussian 16 at Sun Apr  6 08:02:24 2025.
 Gaussian 16:  ES64L-G16RevC.01  3-Jul-2019

 ----------------------------------------------------------------------
 #t hf aug-cc-pvdz iop(5/13=1,5/36=2,99/5=2) pseudo=read geom=check gue
 ss=(read,tcheck) scf=(maxcycle=1)
 ----------------------------------------------------------------------
 -----
 title
 -----
 Structure from the checkpoint file:  "2-fluorophenol.chk"
 Charge =  0 Multiplicity = 1

                         Standard orientation:
 ---------------------------------------------------------------------
 Center     Atomic      Atomic             Coordinates (Angstroms)
 Number     Number       Type             X           Y           Z
 ---------------------------------------------------------------------
      1          6           0       -1.104968   -1.663429   -0.000000
      2          6           0       -1.932817   -0.545821   -0.000000
      3          6           0        0.277669   -1.523878    0.000000
      4          6           0       -1.373010    0.728438   -0.000000
      5          6           0        0.848168   -0.256096    0.000000
      6          6           0        0.000000    0.846928   -0.000000
      7          8           0        2.201785   -0.118858    0.000000
      8          9           0        0.585079    2.077027    0.000000
      9          1           0       -1.536548   -2.654610   -0.000000
     10          1           0       -3.007204   -0.659939   -0.000000
     11          1           0        0.930968   -2.385091    0.000000
     12          1           0       -1.982396    1.621014   -0.000000
     13          1           0        2.424943    0.819401    0.000000
 ---------------------------------------------------------------------

 SCF Done:  E(RHF) =  -406.194518416     A.U. after    2 cycles

 The electronic state is 1-A'.
 Alpha  occ. eigenvalues --  -29.29410 -21.11082 -11.54154 -11.46654 -11.46083
 Alpha  occ. eigenvalues --  -11.42773 -11.41591 -11.37903  -1.76902  -1.35399
 Alpha  occ. eigenvalues --   -1.15616  -1.09405  -0.93042  -0.88127  -0.76497
 Alpha  occ. eigenvalues --   -0.70002  -0.65942  -0.62162  -0.59047  -0.58323
 Alpha  occ. eigenvalues --   -0.50932  -0.49152  -0.44541  -0.44376  -0.42058
 Alpha  occ. eigenvalues --   -0.38720  -0.30093  -0.28976  -0.22760
 Alpha virt. eigenvalues --    0.03707   0.05120   0.05301   0.06338   0.06788
 Alpha virt. eigenvalues --    0.10805   0.11159   0.11620   0.12837   0.13385
 Alpha virt. eigenvalues --    0.13477   0.13568   0.13982   0.14512   0.15288

 Mulliken charges:
               1
     1  C   -1.192063
     2  C   -0.649098
     3  C   -1.332169
     4  C   -3.900841
     5  C    1.248899
     6  C    2.011688
     7  O   -4.207401
     8  F    0.789129
     9  H    1.464376
    10  H    1.474898
    11  H    1.682855
    12  H    1.695233
    13  H    0.914494
 Sum of Mulliken charges =   0.00000

 Dipole moment (field-independent basis, Debye):
    X=              0.7944    Y=              2.2294    Z=             -0.0000  Tot=              2.3667

 Test job not archived.
 1\1\GINC-SE014\SP\RHF\Aug-CC-pVDZ\C6H5F1O1\OHZDE\06-Apr-2025\0\\#t hf
 aug-cc-pvdz iop(5/13=1,5/36=2,99/5=2) pseudo=read geom=check guess=(re
 ad,tcheck) scf=(maxcycle=1)\\title\\0,1\C,0,-1.104968,-1.663429,0.\C,0
 ,-1.932817,-0.545821,0.\C,0,0.277669,-1.523878,0.\C,0,-1.37301,0.72843
 8,0.\C,0,0.848168,-0.256096,0.\C,0,0.,0.846928,0.\O,0,2.201785,-0.1188
 58,0.\F,0,0.585079,2.077027,0.\H,0,-1.536548,-2.65461,0.\H,0,-3.007204
 ,-0.659939,0.\H,0,0.930968,-2.385091,0.\H,0,-1.982396,1.621014,0.\H,0,
 2.424943,0.819401,0.\\Version=ES64L-G16RevC.01\State=1-A'\HF=-406.1945

 Normal termination of Gaussian 16 at Sun Apr  6 08:02:49 2025.
