 Gaussian 16, Revision C.01,

 ----------------------------------------------------------------------
 #t hf aug-cc-pvdz symm=none int=(grid=ultrafine) guess=(read,tcheck) s
 table=(opt,rrhf)
 ----------------------------------------------------------------------
 -----
 title
 -----
 Symbolic Z-matrix:
 Charge =  0 Multiplicity = 1

 SCF Done:  E(RHF) =  -378.584281918     A.U. after   16 cycles
 Normal termination of Gaussian 16 at Sun Apr  6 08:01:59 2025.
 Gaussian 16:  ES64L-G16RevC.01  3-Jul-2019

 ----------------------------------------------------------------------
 #t hf aug-cc-pvdz iop(5/13=1,5/36=2,99/5=2) pseudo=read geom=check gue
 ss=(read,tcheck) scf=(maxcycle=1)
 ----------------------------------------------------------------------
 -----
 title
 -----
 Structure from the checkpoint file:  "2-fluoro-1H-triazine.chk"
 Charge =  0 Multiplicity = 1

                         Standard orientation:
 ---------------------------------------------------------------------
 Center     Atomic      Atomic             Coordinates (Angstroms)
 Number     Number       Type             X           Y           Z
 ---------------------------------------------------------------------
      1          9           0       -2.150096   -0.001054    0.020213
      2          7           0       -0.814685    0.069525   -0.443341
      3          7           0       -0.277930    1.215684    0.168577
      4          7           0       -0.249750   -1.157396    0.094708
      5          6           0        1.005130    1.204416    0.110976
      6          6           0        1.127688   -1.139416    0.040064
      7          6           0        1.779078    0.018424   -0.196713
      8          1           0       -0.688110   -1.456788    0.966414
      9          1           0        1.504722    2.099325    0.462256
     10          1           0        1.610500   -2.086619    0.240445
     11          1           0        2.848926    0.058330   -0.316594
 ---------------------------------------------------------------------

 SCF Done:  E(RHF) =  -380.197909532     A.U. after    2 cycles

 The electronic state is 1-A.
 Alpha  occ. eigenvalues --  -29.27099 -15.85010 -15.79617 -15.76295 -11.48441
 Alpha  occ. eigenvalues --  -11.46498 -11.40204  -1.64803  -1.36603  -1.27556
 Alpha  occ. eigenvalues --   -1.05220  -0.94288  -0.81450  -0.77149  -0.67420
 Alpha  occ. eigenvalues --   -0.67245  -0.61800  -0.60984  -0.54522  -0.48552
 Alpha  occ. eigenvalues --   -0.44473  -0.38376  -0.37533  -0.30575  -0.26388
 Alpha  occ. eigenvalues --   -0.22511
 Alpha virt. eigenvalues --    0.03016   0.04714   0.05309   0.06153   0.08311
 Alpha virt. eigenvalues --    0.10390   0.11438   0.12330   0.12548   0.13543
 Alpha virt. eigenvalues --    0.13908   0.14096   0.14743   0.16384   0.16575

 Mulliken charges:
               1
     1  F   -0.107471
     2  N    0.438335
     3  N   -2.317918
     4  N   -2.431032
     5  C    0.274065
     6  C    0.103935
     7  C   -0.880587
     8  H    0.635500
     9  H    1.505303
    10  H    1.410085
    11  H    1.369784
 Sum of Mulliken charges =   0.00000

 Dipole moment (field-independent basis, Debye):
    X=              0.8939    Y=             -1.6274    Z=              1.4209  Tot=              2.3381

 Test job not archived.
 1\1\GINC-SE169\SP\RHF\Aug-CC-pVDZ\C3H4F1N3\OHZDE\06-Apr-2025\0\\#t hf
 aug-cc-pvdz iop(5/13=1,5/36=2,99/5=2) pseudo=read geom=check guess=(re
 ad,tcheck) scf=(maxcycle=1)\\title\\0,1\F,0,-2.150096,-0.001053,0.0202
 13\N,0,-0.814685,0.069525,-0.443341\N,0,-0.27793,1.215684,0.168577\N,0
 ,-0.24975,-1.157396,0.094708\C,0,1.00513,1.204416,0.110976\C,0,1.12768
 8,-1.139416,0.040064\C,0,1.779078,0.018424,-0.196713\H,0,-0.68811,-1.4
 56788,0.966414\H,0,1.504722,2.099325,0.462256\H,0,1.610499,-2.086619,0
 .240445\H,0,2.848926,0.058329,-0.316594\\Version=ES64L-G16RevC.01\Stat

 Normal termination of Gaussian 16 at Sun Apr  6 08:02:03 2025.
