 Gaussian 16, Revision C.01,

 ----------------------------------------------------------------------
 #t hf aug-cc-pvdz symm=none int=(grid=ultrafine) guess=(read,tcheck) s
 table=(opt,rrhf)
 ----------------------------------------------------------------------
 -----
 title
 -----
 Symbolic Z-matrix:
 Charge =  0 Multiplicity = 1

 SCF Done:  E(RHF) =  -345.597348721     A.U. after   14 cycles
 Normal termination of Gaussian 16 at Sun Apr  6 08:02:02 2025.
 Gaussian 16:  ES64L-G16RevC.01  3-Jul-2019

 ----------------------------------------------------------------------
 #t hf aug-cc-pvdz iop(5/13=1,5/36=2,99/5=2) pseudo=read geom=check gue
 ss=(read,tcheck) scf=(maxcycle=1)
 ----------------------------------------------------------------------
 -----
 title
 -----
 Structure from the checkpoint file:  "2-fluoropyridine.chk"
 Charge =  0 Multiplicity = 1

                         Standard orientation:
 ---------------------------------------------------------------------
 Center     Atomic      Atomic             Coordinates (Angstroms)
 Number     Number       Type             X           Y           Z
 ---------------------------------------------------------------------
      1          6           0       -0.000000    0.890610   -0.000000
      2          6           0        1.213082    0.212929    0.000000
      3          6           0        1.150826   -1.170346    0.000000
      4          6           0       -0.094041   -1.795003    0.000000
      5          6           0       -1.228714   -0.999639   -0.000000
      6          7           0       -1.183800    0.338362   -0.000000
      7          9           0        0.025740    2.234588   -0.000000
      8          1           0        2.146052    0.755943    0.000000
      9          1           0        2.060970   -1.754404    0.000000
     10          1           0       -0.181364   -2.871685    0.000000
     11          1           0       -2.217635   -1.440986   -0.000000
 ---------------------------------------------------------------------

 SCF Done:  E(RHF) =  -347.083487876     A.U. after    2 cycles

 The electronic state is 1-A'.
 Alpha  occ. eigenvalues --  -29.28852 -15.75016 -11.52461 -11.48516 -11.45453
 Alpha  occ. eigenvalues --  -11.42439 -11.39439  -1.49055  -1.21385  -1.17576
 Alpha  occ. eigenvalues --   -0.95556  -0.92031  -0.79148  -0.69248  -0.64601
 Alpha  occ. eigenvalues --   -0.62935  -0.59338  -0.57577  -0.50489  -0.42795
 Alpha  occ. eigenvalues --   -0.39942  -0.38236  -0.37261  -0.28103  -0.25052
 Alpha virt. eigenvalues --    0.03090   0.04955   0.05212   0.06146   0.09280
 Alpha virt. eigenvalues --    0.10216   0.10788   0.11663   0.12209   0.12696
 Alpha virt. eigenvalues --    0.13284   0.14022   0.14071   0.14454   0.14748

 Mulliken charges:
               1
     1  C    0.998864
     2  C   -3.003626
     3  C    0.334760
     4  C   -0.748456
     5  C   -0.891739
     6  N   -3.431816
     7  F    0.859335
     8  H    1.466406
     9  H    1.500484
    10  H    1.367005
    11  H    1.548783
 Sum of Mulliken charges =   0.00000

 Dipole moment (field-independent basis, Debye):
    X=              1.5568    Y=              0.7323    Z=              0.0000  Tot=              1.7204

 Test job not archived.
 1\1\GINC-SE012\SP\RHF\Aug-CC-pVDZ\C5H4F1N1\OHZDE\06-Apr-2025\0\\#t hf
 aug-cc-pvdz iop(5/13=1,5/36=2,99/5=2) pseudo=read geom=check guess=(re
 ad,tcheck) scf=(maxcycle=1)\\title\\0,1\C,0,0.,0.89061,0.\C,0,1.213082
 ,0.212929,0.\C,0,1.150826,-1.170346,0.\C,0,-0.094041,-1.795003,0.\C,0,
 -1.228714,-0.999639,0.\N,0,-1.1838,0.338362,0.\F,0,0.02574,2.234588,0.
 \H,0,2.146052,0.755943,0.\H,0,2.06097,-1.754404,0.\H,0,-0.181364,-2.87
 1685,0.\H,0,-2.217635,-1.440986,0.\\Version=ES64L-G16RevC.01\State=1-A
 '\HF=-347.0834879\RMSD=1.509e+00\Dipole=0.6125016,0.2881032,0.\Quadrup

 Normal termination of Gaussian 16 at Sun Apr  6 08:02:08 2025.
