 Gaussian 16, Revision C.01,

 ----------------------------------------------------------------------
 #t hf aug-cc-pvdz symm=none int=(grid=ultrafine) guess=(read,tcheck) s
 table=(opt,rrhf)
 ----------------------------------------------------------------------
 -----
 title
 -----
 Symbolic Z-matrix:
 Charge =  0 Multiplicity = 1

 SCF Done:  E(RHF) =  -532.195667128     A.U. after   16 cycles
 Normal termination of Gaussian 16 at Sun Apr  6 08:02:29 2025.
 Gaussian 16:  ES64L-G16RevC.01  3-Jul-2019

 ----------------------------------------------------------------------
 #t hf aug-cc-pvdz iop(5/13=1,5/36=2,99/5=2) pseudo=read geom=check gue
 ss=(read,tcheck) scf=(maxcycle=1)
 ----------------------------------------------------------------------
 -----
 title
 -----
 Structure from the checkpoint file:  "2-fluoro-2-nitro-3H-furan.chk"
 Charge =  0 Multiplicity = 1

                         Standard orientation:
 ---------------------------------------------------------------------
 Center     Atomic      Atomic             Coordinates (Angstroms)
 Number     Number       Type             X           Y           Z
 ---------------------------------------------------------------------
      1          9           0       -0.375818    1.697446    0.222764
      2          8           0        0.626983    0.220870   -1.127340
      3          8           0       -2.388585    0.216606   -0.155235
      4          8           0       -1.228699   -1.610380    0.030610
      5          7           0       -1.359931   -0.402241   -0.018206
      6          6           0       -0.021614    0.404745    0.085285
      7          6           0        0.896960   -0.092476    1.209348
      8          6           0        1.920548   -0.209156   -0.846755
      9          6           0        2.155262   -0.394312    0.440990
     10          1           0        0.482254   -0.975565    1.692874
     11          1           0        1.010076    0.694126    1.955231
     12          1           0        2.540130   -0.330936   -1.718095
     13          1           0        3.084893   -0.718520    0.875072
 ---------------------------------------------------------------------

 SCF Done:  E(RHF) =  -534.407594949     A.U. after    2 cycles

 The electronic state is 1-A.
 Alpha  occ. eigenvalues --  -29.31406 -21.12325 -21.11512 -21.10629 -16.00441
 Alpha  occ. eigenvalues --  -11.61320 -11.49204 -11.46507 -11.41191  -2.01596
 Alpha  occ. eigenvalues --   -1.87004  -1.71182  -1.27849  -1.21763  -1.00794
 Alpha  occ. eigenvalues --   -0.93404  -0.85945  -0.78315  -0.75775  -0.68592
 Alpha  occ. eigenvalues --   -0.65996  -0.62033  -0.59729  -0.57793  -0.54613
 Alpha  occ. eigenvalues --   -0.52003  -0.46502  -0.43949  -0.38663  -0.34685
 Alpha  occ. eigenvalues --   -0.33067  -0.30501  -0.28661  -0.26946
 Alpha virt. eigenvalues --    0.03213   0.04425   0.05174   0.05966   0.09064
 Alpha virt. eigenvalues --    0.10034   0.10557   0.10886   0.11891   0.12387
 Alpha virt. eigenvalues --    0.13309   0.13697   0.14305   0.14609   0.15398

 Mulliken charges:
               1
     1  F    0.715893
     2  O   -3.664103
     3  O   -2.746506
     4  O   -3.034336
     5  N    3.842370
     6  C    3.832142
     7  C   -3.902628
     8  C    0.566577
     9  C   -0.936278
    10  H    1.393797
    11  H    1.230858
    12  H    1.435168
    13  H    1.267047
 Sum of Mulliken charges =   0.00000

 Dipole moment (field-independent basis, Debye):
    X=              1.9917    Y=              2.4854    Z=              0.6002  Tot=              3.2410

 Test job not archived.
 1\1\GINC-SE011\SP\RHF\Aug-CC-pVDZ\C4H4F1N1O3\OHZDE\06-Apr-2025\0\\#t h
 f aug-cc-pvdz iop(5/13=1,5/36=2,99/5=2) pseudo=read geom=check guess=(
 read,tcheck) scf=(maxcycle=1)\\title\\0,1\F,0,-0.375818,1.697446,0.222
 764\O,0,0.626983,0.22087,-1.12734\O,0,-2.388585,0.216606,-0.155235\O,0
 ,-1.228699,-1.61038,0.03061\N,0,-1.359931,-0.402241,-0.018206\C,0,-0.0
 21614,0.404745,0.085285\C,0,0.89696,-0.092476,1.209348\C,0,1.920548,-0
 .209156,-0.846755\C,0,2.155262,-0.394312,0.44099\H,0,0.482254,-0.97556
 5,1.692874\H,0,1.010076,0.694126,1.955231\H,0,2.54013,-0.330936,-1.718

 Normal termination of Gaussian 16 at Sun Apr  6 08:02:50 2025.
