 Gaussian 16, Revision C.01,

 ----------------------------------------------------------------------
 #t hf aug-cc-pvdz symm=none int=(grid=ultrafine) guess=(read,tcheck) s
 table=(opt,rrhf)
 ----------------------------------------------------------------------
 -----
 title
 -----
 Symbolic Z-matrix:
 Charge =  0 Multiplicity = 1

 SCF Done:  E(RHF) =  -356.230091578     A.U. after   16 cycles
 Normal termination of Gaussian 16 at Sun Apr  6 08:01:55 2025.
 Gaussian 16:  ES64L-G16RevC.01  3-Jul-2019

 ----------------------------------------------------------------------
 #t hf aug-cc-pvdz iop(5/13=1,5/36=2,99/5=2) pseudo=read geom=check gue
 ss=(read,tcheck) scf=(maxcycle=1)
 ----------------------------------------------------------------------
 -----
 title
 -----
 Structure from the checkpoint file:  "2-formyl-3-oxoacrylonitrile.chk"
 Charge =  0 Multiplicity = 1

                         Standard orientation:
 ---------------------------------------------------------------------
 Center     Atomic      Atomic             Coordinates (Angstroms)
 Number     Number       Type             X           Y           Z
 ---------------------------------------------------------------------
      1          8           0       -1.068208    2.068569   -0.000013
      2          8           0       -1.835661   -1.349616    0.000009
      3          7           0        2.746608   -0.160913    0.000000
      4          6           0        0.178758   -0.075978    0.000000
      5          6           0       -0.472690    1.094157   -0.000007
      6          6           0       -0.632050   -1.322264    0.000009
      7          6           0        1.595368   -0.094455    0.000000
      8          1           0       -0.011615   -2.233995    0.000017
 ---------------------------------------------------------------------

 SCF Done:  E(RHF) =  -357.723443975     A.U. after    2 cycles

 The electronic state is 1-A.
 Alpha  occ. eigenvalues --  -21.22732 -21.09635 -15.78993 -11.63915 -11.53998
 Alpha  occ. eigenvalues --  -11.49595 -11.46431  -1.85764  -1.74758  -1.35714
 Alpha  occ. eigenvalues --   -1.23077  -0.94654  -0.84933  -0.73599  -0.66508
 Alpha  occ. eigenvalues --   -0.65173  -0.57879  -0.57130  -0.53083  -0.52911
 Alpha  occ. eigenvalues --   -0.48655  -0.47465  -0.33953  -0.32933
 Alpha virt. eigenvalues --    0.02926   0.06693   0.08221   0.08532   0.09070
 Alpha virt. eigenvalues --    0.09578   0.10009   0.10175   0.11352   0.12092
 Alpha virt. eigenvalues --    0.12654   0.13898   0.14348   0.15649   0.16941

 Mulliken charges:
               1
     1  O   -2.260573
     2  O   -2.852968
     3  N   -2.327871
     4  C    1.955820
     5  C    1.117212
     6  C    0.989266
     7  C    1.821133
     8  H    1.557982
 Sum of Mulliken charges =   0.00000

 Dipole moment (field-independent basis, Debye):
    X=             -3.0487    Y=              2.0296    Z=             -0.0000  Tot=              3.6625

 Test job not archived.
 1\1\GINC-SE012\SP\RHF\Aug-CC-pVDZ\C4H1N1O2\OHZDE\06-Apr-2025\0\\#t hf
 aug-cc-pvdz iop(5/13=1,5/36=2,99/5=2) pseudo=read geom=check guess=(re
 ad,tcheck) scf=(maxcycle=1)\\title\\0,1\O,0,-1.068209,2.068569,-0.0000
 13\O,0,-1.835661,-1.349617,0.000009\N,0,2.746608,-0.160912,0.\C,0,0.17
 8758,-0.075978,0.\C,0,-0.472691,1.094157,-0.000007\C,0,-0.63205,-1.322
 264,0.000009\C,0,1.595368,-0.094455,0.\H,0,-0.011614,-2.233995,0.00001
 7\\Version=ES64L-G16RevC.01\State=1-A\HF=-357.723444\RMSD=4.407e-01\Di
 pole=-1.1994562,0.7984892,-0.000004\Quadrupole=-7.0720346,5.5855515,1.

 Normal termination of Gaussian 16 at Sun Apr  6 08:01:59 2025.
