 Gaussian 16, Revision C.01,

 ----------------------------------------------------------------------
 #t hf aug-cc-pvdz symm=none int=(grid=ultrafine) guess=(read,tcheck) s
 table=(opt,rrhf)
 ----------------------------------------------------------------------
 -----
 title
 -----
 Symbolic Z-matrix:
 Charge =  0 Multiplicity = 1

 SCF Done:  E(RHF) =  -342.563418541     A.U. after   14 cycles
 Normal termination of Gaussian 16 at Sun Apr  6 08:02:10 2025.
 Gaussian 16:  ES64L-G16RevC.01  3-Jul-2019

 ----------------------------------------------------------------------
 #t hf aug-cc-pvdz iop(5/13=1,5/36=2,99/5=2) pseudo=read geom=check gue
 ss=(read,tcheck) scf=(maxcycle=1)
 ----------------------------------------------------------------------
 -----
 title
 -----
 Structure from the checkpoint file:  "2-furylmethanol.chk"
 Charge =  0 Multiplicity = 1

                         Standard orientation:
 ---------------------------------------------------------------------
 Center     Atomic      Atomic             Coordinates (Angstroms)
 Number     Number       Type             X           Y           Z
 ---------------------------------------------------------------------
      1          8           0        2.347421   -0.187082   -0.656389
      2          6           0        1.620033    0.221901    0.509756
      3          6           0        0.166572    0.196034    0.229739
      4          6           0       -0.747500    1.169251   -0.020672
      5          6           0       -2.002371    0.514222   -0.220304
      6          6           0       -1.758701   -0.811172   -0.075955
      7          8           0       -0.446384   -1.026217    0.202246
      8          1           0        3.264764   -0.337168   -0.408291
      9          1           0        1.894901    1.240412    0.798884
     10          1           0        1.842877   -0.446236    1.347719
     11          1           0       -0.548601    2.226247   -0.064386
     12          1           0       -2.952138    0.969176   -0.441152
     13          1           0       -2.378300   -1.687460   -0.135014
 ---------------------------------------------------------------------

 SCF Done:  E(RHF) =  -344.098377607     A.U. after    2 cycles

 The electronic state is 1-A.
 Alpha  occ. eigenvalues --  -21.10738 -21.07186 -11.47782 -11.46188 -11.43317
 Alpha  occ. eigenvalues --  -11.41594 -11.36681  -1.84512  -1.70252  -1.19719
 Alpha  occ. eigenvalues --   -1.10736  -0.96315  -0.80666  -0.76704  -0.71969
 Alpha  occ. eigenvalues --   -0.64833  -0.62235  -0.56012  -0.53287  -0.51279
 Alpha  occ. eigenvalues --   -0.49404  -0.42421  -0.41982  -0.33465  -0.32059
 Alpha  occ. eigenvalues --   -0.30755
 Alpha virt. eigenvalues --    0.03507   0.04726   0.05253   0.05762   0.06259
 Alpha virt. eigenvalues --    0.06697   0.10004   0.11464   0.11948   0.12829
 Alpha virt. eigenvalues --    0.13299   0.14185   0.14239   0.14813   0.15482

 Mulliken charges:
               1
     1  O   -2.383877
     2  C   -2.066075
     3  C    5.278299
     4  C   -3.095396
     5  C   -1.268393
     6  C    0.324155
     7  O   -4.163885
     8  H    0.805416
     9  H    1.205616
    10  H    1.300586
    11  H    1.335119
    12  H    1.266035
    13  H    1.462402
 Sum of Mulliken charges =   0.00000

 Dipole moment (field-independent basis, Debye):
    X=              0.4416    Y=             -0.0388    Z=              0.5805  Tot=              0.7304

 Test job not archived.
 1\1\GINC-SE257\SP\RHF\Aug-CC-pVDZ\C5H6O2\OHZDE\06-Apr-2025\0\\#t hf au
 g-cc-pvdz iop(5/13=1,5/36=2,99/5=2) pseudo=read geom=check guess=(read
 ,tcheck) scf=(maxcycle=1)\\title\\0,1\O,0,2.347421,-0.187082,-0.656389
 \C,0,1.620033,0.221901,0.509756\C,0,0.166572,0.196034,0.229739\C,0,-0.
 7475,1.169251,-0.020672\C,0,-2.002371,0.514222,-0.220304\C,0,-1.758701
 ,-0.811172,-0.075955\O,0,-0.446384,-1.026217,0.202246\H,0,3.264764,-0.
 337168,-0.408291\H,0,1.894901,1.240412,0.798884\H,0,1.842877,-0.446236
 ,1.347719\H,0,-0.548601,2.226247,-0.064386\H,0,-2.952138,0.969176,-0.4

 Normal termination of Gaussian 16 at Sun Apr  6 08:02:15 2025.
