 Gaussian 16, Revision C.01,

 ----------------------------------------------------------------------
 #t hf aug-cc-pvdz symm=none int=(grid=ultrafine) guess=(read,tcheck) s
 table=(opt,rrhf)
 ----------------------------------------------------------------------
 -----
 title
 -----
 Symbolic Z-matrix:
 Charge =  0 Multiplicity = 1

 SCF Done:  E(RHF) =  -309.105550925     A.U. after   13 cycles

 1\1\GINC-SE398\Stability\RHF\Aug-CC-pVDZ\C6H12O1\OHZDE\06-Apr-2025\0\\
 #t hf aug-cc-pvdz symm=none int=(grid=ultrafine) guess=(read,tcheck) s
 table=(opt,rrhf)\\title\\0,1\C,0,1.713767,0.184314,-0.006094\C,0,2.992
 613,-0.627337,0.018624\C,0,-3.398174,0.257813,0.014447\C,0,0.415711,-0
 .605242,-0.018955\C,0,-2.129427,-0.592675,-0.013892\C,0,-0.849467,0.24
 3536,0.010725\O,0,1.732799,1.394734,-0.012565\H,0,3.048893,-1.205545,0
 .943733\H,0,3.010172,-1.344276,-0.804455\H,0,3.853628,0.032351,-0.0479
 22\H,0,-3.440169,0.930013,-0.844742\H,0,-4.294888,-0.362918,-0.005028\

 Normal termination of Gaussian 16 at Sun Apr  6 08:02:34 2025.
 Gaussian 16:  ES64L-G16RevC.01  3-Jul-2019

 ----------------------------------------------------------------------
 #t hf aug-cc-pvdz iop(5/13=1,5/36=2,99/5=2) pseudo=read geom=check gue
 ss=(read,tcheck) scf=(maxcycle=1)
 ----------------------------------------------------------------------
 -----
 title
 -----
 Structure from the checkpoint file:  "2-hexanone.chk"
 Charge =  0 Multiplicity = 1

                         Standard orientation:
 ---------------------------------------------------------------------
 Center     Atomic      Atomic             Coordinates (Angstroms)
 Number     Number       Type             X           Y           Z
 ---------------------------------------------------------------------
      1          6           0        1.713767    0.184314   -0.006094
      2          6           0        2.992613   -0.627337    0.018624
      3          6           0       -3.398174    0.257813    0.014447
      4          6           0        0.415711   -0.605242   -0.018955
      5          6           0       -2.129427   -0.592675   -0.013892
      6          6           0       -0.849467    0.243536    0.010725
      7          8           0        1.732799    1.394734   -0.012565
      8          1           0        3.048893   -1.205545    0.943733
      9          1           0        3.010172   -1.344276   -0.804455
     10          1           0        3.853628    0.032351   -0.047922
     11          1           0       -3.440169    0.930013   -0.844742
     12          1           0       -4.294888   -0.362918   -0.005028
     13          1           0       -3.439164    0.873178    0.915292
     14          1           0        0.440487   -1.300663    0.827754
     15          1           0        0.432242   -1.246871   -0.907744
     16          1           0       -2.134229   -1.223254   -0.908517
     17          1           0       -2.132488   -1.278680    0.838933
     18          1           0       -0.837342    0.875293    0.901856
     19          1           0       -0.839678    0.931040   -0.837776
 ---------------------------------------------------------------------

 SCF Done:  E(RHF) =  -310.611649254     A.U. after    2 cycles

 The electronic state is 1-A.
 Alpha  occ. eigenvalues --  -21.04497 -11.49494 -11.42601 -11.40768 -11.38709
 Alpha  occ. eigenvalues --  -11.37367 -11.34768  -1.70285  -1.25157  -1.13678
 Alpha  occ. eigenvalues --   -1.06068  -0.94063  -0.83569  -0.73882  -0.66144
 Alpha  occ. eigenvalues --   -0.62623  -0.60607  -0.59515  -0.56646  -0.55447
 Alpha  occ. eigenvalues --   -0.52843  -0.50133  -0.47335  -0.45644  -0.44816
 Alpha  occ. eigenvalues --   -0.42261  -0.40632  -0.27854
 Alpha virt. eigenvalues --    0.03581   0.04550   0.04909   0.05560   0.06039
 Alpha virt. eigenvalues --    0.06148   0.06781   0.07093   0.07756   0.08215
 Alpha virt. eigenvalues --    0.08343   0.10015   0.10591   0.12092   0.13214

 Mulliken charges:
               1
     1  C    5.035653
     2  C   -5.391077
     3  C   -4.325295
     4  C   -3.614724
     5  C   -3.032337
     6  C   -1.978580
     7  O   -3.438450
     8  H    1.286890
     9  H    1.303951
    10  H    1.300173
    11  H    1.308225
    12  H    1.061922
    13  H    1.303905
    14  H    1.617902
    15  H    1.590887
    16  H    1.420222
    17  H    1.427546
    18  H    1.558202
    19  H    1.564984
 Sum of Mulliken charges =  -0.00000

 Dipole moment (field-independent basis, Debye):
    X=             -0.2062    Y=             -1.3359    Z=              0.0079  Tot=              1.3518

 Test job not archived.
 1\1\GINC-SE398\SP\RHF\Aug-CC-pVDZ\C6H12O1\OHZDE\06-Apr-2025\0\\#t hf a
 ug-cc-pvdz iop(5/13=1,5/36=2,99/5=2) pseudo=read geom=check guess=(rea
 d,tcheck) scf=(maxcycle=1)\\title\\0,1\C,0,1.713767,0.184314,-0.006094
 \C,0,2.992613,-0.627337,0.018624\C,0,-3.398174,0.257813,0.014447\C,0,0
 .415711,-0.605242,-0.018955\C,0,-2.129427,-0.592675,-0.013892\C,0,-0.8
 49467,0.243536,0.010725\O,0,1.732799,1.394734,-0.012565\H,0,3.048893,-
 1.205545,0.943733\H,0,3.010172,-1.344276,-0.804455\H,0,3.853628,0.0323
 51,-0.047922\H,0,-3.440169,0.930013,-0.844742\H,0,-4.294888,-0.362918,

 Normal termination of Gaussian 16 at Sun Apr  6 08:02:51 2025.
