 Gaussian 16, Revision C.01,

 ----------------------------------------------------------------------
 #t hf aug-cc-pvdz symm=none int=(grid=ultrafine) guess=(read,tcheck) s
 table=(opt,rrhf)
 ----------------------------------------------------------------------
 -----
 title
 -----
 Symbolic Z-matrix:
 Charge =  0 Multiplicity = 1

 SCF Done:  E(RHF) =  -233.003604579     A.U. after   13 cycles
 Normal termination of Gaussian 16 at Sun Apr  6 08:02:14 2025.
 Gaussian 16:  ES64L-G16RevC.01  3-Jul-2019

 ----------------------------------------------------------------------
 #t hf aug-cc-pvdz iop(5/13=1,5/36=2,99/5=2) pseudo=read geom=check gue
 ss=(read,tcheck) scf=(maxcycle=1)
 ----------------------------------------------------------------------
 -----
 title
 -----
 Structure from the checkpoint file:  "2-hexyne.chk"
 Charge =  0 Multiplicity = 1

                         Standard orientation:
 ---------------------------------------------------------------------
 Center     Atomic      Atomic             Coordinates (Angstroms)
 Number     Number       Type             X           Y           Z
 ---------------------------------------------------------------------
      1          6           0        1.212934   -2.830317    0.000000
      2          6           0       -1.715980    2.860634    0.000000
      3          6           0        0.924480   -0.299270    0.000000
      4          6           0        0.000000    0.830193    0.000000
      5          6           0        0.223042   -1.668570    0.000000
      6          6           0       -0.778310    1.745812    0.000000
      7          1           0        0.694512   -3.789693    0.000000
      8          1           0       -2.748510    2.506561    0.000000
      9          1           0        1.857339   -2.802347    0.881179
     10          1           0        1.857339   -2.802347   -0.881179
     11          1           0       -0.428117   -1.730803   -0.874251
     12          1           0       -0.428117   -1.730803    0.874251
     13          1           0        1.579877   -0.230796   -0.873928
     14          1           0        1.579877   -0.230796    0.873928
     15          1           0       -1.580599    3.490066    0.881436
     16          1           0       -1.580599    3.490066   -0.881436
 ---------------------------------------------------------------------

 SCF Done:  E(RHF) =  -234.187411213     A.U. after    2 cycles

 The electronic state is 1-A'.
 Alpha  occ. eigenvalues --  -11.45548 -11.43033 -11.39888 -11.37911 -11.37476
 Alpha  occ. eigenvalues --  -11.35516  -1.24834  -1.14686  -1.04730  -0.94440
 Alpha  occ. eigenvalues --   -0.84979  -0.66362  -0.64342  -0.58396  -0.57943
 Alpha  occ. eigenvalues --   -0.57815  -0.55734  -0.54575  -0.47328  -0.47034
 Alpha  occ. eigenvalues --   -0.46825  -0.33765  -0.33254
 Alpha virt. eigenvalues --    0.03363   0.04726   0.05828   0.05897   0.06175
 Alpha virt. eigenvalues --    0.06216   0.06671   0.07155   0.07612   0.08661
 Alpha virt. eigenvalues --    0.09947   0.11062   0.12674   0.14106   0.14373

 Mulliken charges:
               1
     1  C   -3.823689
     2  C   -5.363935
     3  C   -4.077094
     4  C    2.812235
     5  C   -3.074281
     6  C    2.486962
     7  H    1.095089
     8  H    0.883121
     9  H    1.253962
    10  H    1.253962
    11  H    1.419172
    12  H    1.419172
    13  H    0.981876
    14  H    0.981876
    15  H    0.875786
    16  H    0.875786
 Sum of Mulliken charges =  -0.00000

 Dipole moment (field-independent basis, Debye):
    X=             -0.1489    Y=             -0.1054    Z=             -0.0000  Tot=              0.1824

 Test job not archived.
 1\1\GINC-SE412\SP\RHF\Aug-CC-pVDZ\C6H10\OHZDE\06-Apr-2025\0\\#t hf aug
 -cc-pvdz iop(5/13=1,5/36=2,99/5=2) pseudo=read geom=check guess=(read,
 tcheck) scf=(maxcycle=1)\\title\\0,1\C,0,1.212934,-2.830317,0.\C,0,-1.
 71598,2.860634,0.\C,0,0.92448,-0.29927,0.\C,0,0.,0.830193,0.\C,0,0.223
 042,-1.66857,0.\C,0,-0.77831,1.745812,0.\H,0,0.694512,-3.789693,0.\H,0
 ,-2.74851,2.506561,0.\H,0,1.857339,-2.802347,0.881179\H,0,1.857339,-2.
 802347,-0.881179\H,0,-0.428117,-1.730803,-0.874251\H,0,-0.428117,-1.73
 0803,0.874251\H,0,1.579877,-0.230796,-0.873928\H,0,1.579877,-0.230796,

 Normal termination of Gaussian 16 at Sun Apr  6 08:02:18 2025.
