 Gaussian 16, Revision C.01,

 ----------------------------------------------------------------------
 #t hf aug-cc-pvdz symm=none int=(grid=ultrafine) guess=(read,tcheck) s
 table=(opt,rrhf)
 ----------------------------------------------------------------------
 -----
 title
 -----
 Symbolic Z-matrix:
 Charge =  0 Multiplicity = 1

 SCF Done:  E(RHF) =  -549.242436740     A.U. after   14 cycles
 Normal termination of Gaussian 16 at Sun Apr  6 08:01:48 2025.
 Gaussian 16:  ES64L-G16RevC.01  3-Jul-2019

 ----------------------------------------------------------------------
 #t hf aug-cc-pvdz iop(5/13=1,5/36=2,99/5=2) pseudo=read geom=check gue
 ss=(read,tcheck) scf=(maxcycle=1)
 ----------------------------------------------------------------------
 -----
 title
 -----
 Structure from the checkpoint file:  "2-hydroxyethenethione.chk"
 Charge =  0 Multiplicity = 1

                         Standard orientation:
 ---------------------------------------------------------------------
 Center     Atomic      Atomic             Coordinates (Angstroms)
 Number     Number       Type             X           Y           Z
 ---------------------------------------------------------------------
      1         16           0       -1.667961   -0.117975   -0.000019
      2          8           0        2.177698   -0.373093    0.000025
      3          6           0       -0.141968    0.236010   -0.000001
      4          6           0        1.136462    0.528571    0.000012
      5          1           0        1.833657   -1.273070    0.000026
      6          1           0        1.465171    1.557929    0.000014
 ---------------------------------------------------------------------

 SCF Done:  E(RHF) =  -550.119946275     A.U. after    2 cycles

 The electronic state is 1-A.
 Alpha  occ. eigenvalues --  -75.71855 -21.12431 -13.22514 -13.02898 -13.02898
 Alpha  occ. eigenvalues --  -11.48819 -11.45933  -8.06004  -1.76141  -1.22542
 Alpha  occ. eigenvalues --   -1.03682  -0.77506  -0.62193  -0.55765  -0.53199
 Alpha  occ. eigenvalues --   -0.46243  -0.38452  -0.36194  -0.20626
 Alpha virt. eigenvalues --    0.02423   0.05530   0.06137   0.06961   0.09271
 Alpha virt. eigenvalues --    0.10698   0.12254   0.14355   0.14831   0.15998
 Alpha virt. eigenvalues --    0.16757   0.16809   0.19244   0.20929   0.21286

 Mulliken charges:
               1
     1  S    1.137275
     2  O   -2.888115
     3  C   -1.298426
     4  C    0.722183
     5  H    0.872630
     6  H    1.454453
 Sum of Mulliken charges =   0.00000

 Dipole moment (field-independent basis, Debye):
    X=             -1.8710    Y=             -0.7763    Z=             -0.0000  Tot=              2.0257

 Test job not archived.
 1\1\GINC-SE249\SP\RHF\Aug-CC-pVDZ\C2H2O1S1\OHZDE\06-Apr-2025\0\\#t hf
 aug-cc-pvdz iop(5/13=1,5/36=2,99/5=2) pseudo=read geom=check guess=(re
 ad,tcheck) scf=(maxcycle=1)\\title\\0,1\S,0,-1.667961,-0.117975,-0.000
 019\O,0,2.177698,-0.373093,0.000025\C,0,-0.141968,0.23601,-0.000001\C,
 0,1.136462,0.528571,0.000012\H,0,1.833657,-1.27307,0.000026\H,0,1.4651
 71,1.557929,0.000014\\Version=ES64L-G16RevC.01\State=1-A\HF=-550.11994
 63\RMSD=5.522e-01\Dipole=-0.7361262,-0.3054201,-0.0000084\Quadrupole=2
 .9443719,1.7696021,-4.713974,0.3629711,0.0000956,-0.0000134\PG=C01 [X(

 Normal termination of Gaussian 16 at Sun Apr  6 08:01:56 2025.
