 Gaussian 16, Revision C.01,

 ----------------------------------------------------------------------
 #t hf aug-cc-pvdz symm=none int=(grid=ultrafine) guess=(read,tcheck) s
 table=(opt,rrhf)
 ----------------------------------------------------------------------
 -----
 title
 -----
 Symbolic Z-matrix:
 Charge =  0 Multiplicity = 1

 SCF Done:  E(RHF) =  -245.847516526     A.U. after   14 cycles
 Normal termination of Gaussian 16 at Sun Apr  6 08:01:52 2025.
 Gaussian 16:  ES64L-G16RevC.01  3-Jul-2019

 ----------------------------------------------------------------------
 #t hf aug-cc-pvdz iop(5/13=1,5/36=2,99/5=2) pseudo=read geom=check gue
 ss=(read,tcheck) scf=(maxcycle=1)
 ----------------------------------------------------------------------
 -----
 title
 -----
 Structure from the checkpoint file:  "2-hydroxypropanenitrile.chk"
 Charge =  0 Multiplicity = 1

                         Standard orientation:
 ---------------------------------------------------------------------
 Center     Atomic      Atomic             Coordinates (Angstroms)
 Number     Number       Type             X           Y           Z
 ---------------------------------------------------------------------
      1          6           0        1.176464   -1.121040   -0.130625
      2          6           0        0.378337    0.070180    0.381926
      3          8           0        0.913379    1.242348   -0.219964
      4          1           0        0.423642    2.014994    0.081178
      5          1           0        0.813225   -2.045334    0.315541
      6          1           0        1.091458   -1.191726   -1.213368
      7          1           0        2.223270   -0.983889    0.134284
      8          6           0       -1.060337   -0.071096    0.078798
      9          1           0        0.468455    0.125994    1.472411
     10          7           0       -2.184838   -0.161013   -0.144418
 ---------------------------------------------------------------------

 SCF Done:  E(RHF) =  -246.954684125     A.U. after    2 cycles

 The electronic state is 1-A.
 Alpha  occ. eigenvalues --  -21.10281 -15.76929 -11.50453 -11.43664 -11.39975
 Alpha  occ. eigenvalues --   -1.75058  -1.31700  -1.16050  -0.95349  -0.73676
 Alpha  occ. eigenvalues --   -0.70058  -0.59193  -0.56279  -0.54012  -0.52681
 Alpha  occ. eigenvalues --   -0.47877  -0.44137  -0.42088  -0.35726
 Alpha virt. eigenvalues --    0.03078   0.05262   0.05520   0.06136   0.06501
 Alpha virt. eigenvalues --    0.09490   0.10446   0.11604   0.12105   0.12996
 Alpha virt. eigenvalues --    0.13612   0.15433   0.15616   0.17749   0.18448

 Mulliken charges:
               1
     1  C   -3.537946
     2  C   -0.111893
     3  O   -2.741208
     4  H    0.790087
     5  H    1.257428
     6  H    1.261425
     7  H    1.166279
     8  C    2.742644
     9  H    1.664231
    10  N   -2.491047
 Sum of Mulliken charges =   0.00000

 Dipole moment (field-independent basis, Debye):
    X=              2.9545    Y=              0.2784    Z=              0.9825  Tot=              3.1260

 Test job not archived.
 1\1\GINC-SE249\SP\RHF\Aug-CC-pVDZ\C3H5N1O1\OHZDE\06-Apr-2025\0\\#t hf
 aug-cc-pvdz iop(5/13=1,5/36=2,99/5=2) pseudo=read geom=check guess=(re
 ad,tcheck) scf=(maxcycle=1)\\title\\0,1\C,0,1.176464,-1.12104,-0.13062
 5\C,0,0.378337,0.07018,0.381926\O,0,0.913379,1.242348,-0.219964\H,0,0.
 423642,2.014994,0.081178\H,0,0.813225,-2.045334,0.315541\H,0,1.091458,
 -1.191726,-1.213368\H,0,2.22327,-0.983889,0.134284\C,0,-1.060337,-0.07
 1096,0.078798\H,0,0.468455,0.125994,1.472411\N,0,-2.184838,-0.161013,-
 0.144418\\Version=ES64L-G16RevC.01\State=1-A\HF=-246.9546841\RMSD=2.82

 Normal termination of Gaussian 16 at Sun Apr  6 08:01:56 2025.
