 Gaussian 16, Revision C.01,

 ----------------------------------------------------------------------
 #t hf aug-cc-pvdz symm=none int=(grid=ultrafine) guess=(read,tcheck) s
 table=(opt,rrhf)
 ----------------------------------------------------------------------
 -----
 title
 -----
 Symbolic Z-matrix:
 Charge =  0 Multiplicity = 1

 SCF Done:  E(RHF) =  -987.022556762     A.U. after   16 cycles
 Normal termination of Gaussian 16 at Sun Apr  6 08:02:00 2025.
 Gaussian 16:  ES64L-G16RevC.01  3-Jul-2019

 ----------------------------------------------------------------------
 #t hf aug-cc-pvdz iop(5/13=1,5/36=2,99/5=2) pseudo=read geom=check gue
 ss=(read,tcheck) scf=(maxcycle=1)
 ----------------------------------------------------------------------
 -----
 title
 -----
 Structure from the checkpoint file:  "2-hydroxy-3-sulfanylpropanethial.chk"
 Charge =  0 Multiplicity = 1

                         Standard orientation:
 ---------------------------------------------------------------------
 Center     Atomic      Atomic             Coordinates (Angstroms)
 Number     Number       Type             X           Y           Z
 ---------------------------------------------------------------------
      1          8           0       -0.433596    1.791440   -0.034122
      2          6           0        0.092369    0.494830   -0.264861
      3          6           0       -0.760877   -0.602898    0.406048
      4         16           0       -2.513763   -0.566762   -0.143480
      5         16           0        2.654148   -0.553579   -0.123783
      6          6           0        1.477017    0.465249    0.314637
      7          1           0       -1.327788    1.811360   -0.398006
      8          1           0        0.147240    0.280150   -1.336058
      9          1           0       -0.734102   -0.508767    1.489120
     10          1           0       -0.369979   -1.580613    0.134186
     11          1           0       -2.975713    0.256316    0.814023
     12          1           0        1.631903    1.192396    1.110975
 ---------------------------------------------------------------------

 SCF Done:  E(RHF) =  -988.342434804     A.U. after    2 cycles

 The electronic state is 1-A.
 Alpha  occ. eigenvalues --  -75.70720 -75.68638 -21.08961 -13.18317 -13.15792
 Alpha  occ. eigenvalues --  -13.11465 -13.05280 -13.02864 -13.00305 -11.49495
 Alpha  occ. eigenvalues --  -11.46615 -11.42125  -8.04571  -8.02787  -1.74316
 Alpha  occ. eigenvalues --   -1.26471  -1.18307  -1.04532  -0.91631  -0.82059
 Alpha  occ. eigenvalues --   -0.67775  -0.63609  -0.61841  -0.58248  -0.51336
 Alpha  occ. eigenvalues --   -0.45180  -0.43663  -0.41187  -0.35648  -0.33493
 Alpha  occ. eigenvalues --   -0.26486  -0.22776
 Alpha virt. eigenvalues --    0.03205   0.04065   0.05153   0.05321   0.05486
 Alpha virt. eigenvalues --    0.06614   0.07112   0.08090   0.09622   0.11481
 Alpha virt. eigenvalues --    0.12967   0.13247   0.13550   0.14981   0.15319

 Mulliken charges:
               1
     1  O   -3.166446
     2  C    1.600115
     3  C   -3.780983
     4  S   -0.671016
     5  S    1.174881
     6  C   -2.658629
     7  H    0.911742
     8  H    1.689503
     9  H    1.352755
    10  H    1.450943
    11  H    1.029136
    12  H    1.067998
 Sum of Mulliken charges =  -0.00000

 Dipole moment (field-independent basis, Debye):
    X=              0.1368    Y=             -1.7232    Z=             -1.0053  Tot=              1.9997

 Test job not archived.
 1\1\GINC-SE422\SP\RHF\Aug-CC-pVDZ\C3H6O1S2\OHZDE\06-Apr-2025\0\\#t hf
 aug-cc-pvdz iop(5/13=1,5/36=2,99/5=2) pseudo=read geom=check guess=(re
 ad,tcheck) scf=(maxcycle=1)\\title\\0,1\O,0,-0.433596,1.79144,-0.03412
 2\C,0,0.092369,0.49483,-0.264861\C,0,-0.760877,-0.602898,0.406048\S,0,
 -2.513763,-0.566762,-0.14348\S,0,2.654148,-0.553579,-0.123783\C,0,1.47
 7017,0.465249,0.314637\H,0,-1.327788,1.81136,-0.398006\H,0,0.14724,0.2
 8015,-1.336058\H,0,-0.734102,-0.508767,1.48912\H,0,-0.369979,-1.580613
 ,0.134186\H,0,-2.975713,0.256316,0.814023\H,0,1.631903,1.192396,1.1109

 Normal termination of Gaussian 16 at Sun Apr  6 08:02:06 2025.
