 Gaussian 16, Revision C.01,

 ----------------------------------------------------------------------
 #t hf aug-cc-pvdz symm=none int=(grid=ultrafine) guess=(read,tcheck) s
 table=(opt,rrhf)
 ----------------------------------------------------------------------
 -----
 title
 -----
 Symbolic Z-matrix:
 Charge =  0 Multiplicity = 1

 SCF Done:  E(RHF) =  -623.573715065     A.U. after   13 cycles
 Normal termination of Gaussian 16 at Sun Apr  6 08:01:56 2025.
 Gaussian 16:  ES64L-G16RevC.01  3-Jul-2019

 ----------------------------------------------------------------------
 #t hf aug-cc-pvdz iop(5/13=1,5/36=2,99/5=2) pseudo=read geom=check gue
 ss=(read,tcheck) scf=(maxcycle=1)
 ----------------------------------------------------------------------
 -----
 title
 -----
 Structure from the checkpoint file:  "2-imidazolidinethione.chk"
 Charge =  0 Multiplicity = 1

                         Standard orientation:
 ---------------------------------------------------------------------
 Center     Atomic      Atomic             Coordinates (Angstroms)
 Number     Number       Type             X           Y           Z
 ---------------------------------------------------------------------
      1         16           0       -0.000000   -0.000000    2.086086
      2          6           0       -0.000000   -0.000000    0.422971
      3          7           0        0.000000    1.095429   -0.390077
      4          6           0       -0.231274    0.733283   -1.785169
      5          6           0        0.231274   -0.733283   -1.785169
      6          7           0       -0.000000   -1.095429   -0.390077
      7          1           0       -0.275915    1.980156   -0.001574
      8          1           0        0.347846    1.354361   -2.465670
      9          1           0       -1.290782    0.811565   -2.048808
     10          1           0        1.290782   -0.811565   -2.048808
     11          1           0       -0.347846   -1.354361   -2.465670
     12          1           0        0.275915   -1.980156   -0.001574
 ---------------------------------------------------------------------

 SCF Done:  E(RHF) =  -624.860354732     A.U. after    2 cycles

 The electronic state is 1-A.
 Alpha  occ. eigenvalues --  -75.61932 -15.77451 -15.77448 -13.10836 -12.95724
 Alpha  occ. eigenvalues --  -12.93131 -11.48673 -11.48669 -11.41492  -7.96075
 Alpha  occ. eigenvalues --   -1.56840  -1.30875  -1.17649  -1.02784  -0.91437
 Alpha  occ. eigenvalues --   -0.85771  -0.71039  -0.69944  -0.61340  -0.57939
 Alpha  occ. eigenvalues --   -0.57295  -0.51932  -0.51925  -0.44514  -0.35575
 Alpha  occ. eigenvalues --   -0.22943  -0.20782
 Alpha virt. eigenvalues --    0.02628   0.04664   0.05202   0.05410   0.06043
 Alpha virt. eigenvalues --    0.06045   0.08534   0.09583   0.11643   0.11730
 Alpha virt. eigenvalues --    0.12458   0.13331   0.13832   0.15285   0.15600

 Mulliken charges:
               1
     1  S    1.409624
     2  C    0.621079
     3  N   -2.286294
     4  C   -2.303370
     5  C   -2.303370
     6  N   -2.286294
     7  H    0.724792
     8  H    1.420979
     9  H    1.428541
    10  H    1.428541
    11  H    1.420979
    12  H    0.724792
 Sum of Mulliken charges =  -0.00000

 Dipole moment (field-independent basis, Debye):
    X=             -0.0000    Y=              0.0000    Z=             -3.3939  Tot=              3.3939

 Test job not archived.
 1\1\GINC-SE343\SP\RHF\Aug-CC-pVDZ\C3H6N2S1\OHZDE\06-Apr-2025\0\\#t hf
 aug-cc-pvdz iop(5/13=1,5/36=2,99/5=2) pseudo=read geom=check guess=(re
 ad,tcheck) scf=(maxcycle=1)\\title\\0,1\S,0,0.,0.,2.086086\C,0,0.,0.,0
 .422971\N,0,0.,1.095429,-0.390077\C,0,-0.231274,0.733283,-1.785169\C,0
 ,0.231274,-0.733283,-1.785169\N,0,0.,-1.095429,-0.390077\H,0,-0.275915
 ,1.980156,-0.001574\H,0,0.347846,1.354361,-2.46567\H,0,-1.290782,0.811
 565,-2.048808\H,0,1.290782,-0.811565,-2.048808\H,0,-0.347846,-1.354361
 ,-2.46567\H,0,0.275915,-1.980156,-0.001574\\Version=ES64L-G16RevC.01\S

 Normal termination of Gaussian 16 at Sun Apr  6 08:02:01 2025.
