 Gaussian 16, Revision C.01,

 ----------------------------------------------------------------------
 #t hf aug-cc-pvdz symm=none int=(grid=ultrafine) guess=(read,tcheck) s
 table=(opt,rrhf)
 ----------------------------------------------------------------------
 -----
 title
 -----
 Symbolic Z-matrix:
 Charge =  0 Multiplicity = 1

 SCF Done:  E(RHF) =  -418.873983733     A.U. after   15 cycles

 1\1\GINC-SE344\Stability\RHF\Aug-CC-pVDZ\C8H12N2\OHZDE\06-Apr-2025\0\\
 #t hf aug-cc-pvdz symm=none int=(grid=ultrafine) guess=(read,tcheck) s
 table=(opt,rrhf)\\title\\0,1\C,0,2.780946,0.03409,-0.496412\C,0,2.0819
 79,1.196215,-0.197941\C,0,1.046417,-1.191362,0.282233\C,0,0.324882,-0.
 029326,0.5818\C,0,-2.293729,1.300701,-0.581142\C,0,-2.259009,-1.219791
 ,-0.767466\C,0,-1.051716,-0.083716,1.186804\C,0,-2.235332,-0.02209,0.1
 85648\N,0,2.262542,-1.168677,-0.252894\N,0,0.864183,1.170413,0.338964\
 H,0,3.772639,0.071644,-0.930765\H,0,2.515504,2.170975,-0.390188\H,0,0.

 Normal termination of Gaussian 16 at Sun Apr  6 08:03:44 2025.
 Gaussian 16:  ES64L-G16RevC.01  3-Jul-2019

 ----------------------------------------------------------------------
 #t hf aug-cc-pvdz iop(5/13=1,5/36=2,99/5=2) pseudo=read geom=check gue
 ss=(read,tcheck) scf=(maxcycle=1)
 ----------------------------------------------------------------------
 -----
 title
 -----
 Structure from the checkpoint file:  "2-isobutylpyrazine.chk"
 Charge =  0 Multiplicity = 1

                         Standard orientation:
 ---------------------------------------------------------------------
 Center     Atomic      Atomic             Coordinates (Angstroms)
 Number     Number       Type             X           Y           Z
 ---------------------------------------------------------------------
      1          6           0        2.780946    0.034090   -0.496412
      2          6           0        2.081979    1.196215   -0.197941
      3          6           0        1.046417   -1.191362    0.282233
      4          6           0        0.324882   -0.029326    0.581800
      5          6           0       -2.293729    1.300701   -0.581142
      6          6           0       -2.259009   -1.219791   -0.767466
      7          6           0       -1.051716   -0.083716    1.186804
      8          6           0       -2.235332   -0.022090    0.185648
      9          7           0        2.262542   -1.168677   -0.252894
     10          7           0        0.864183    1.170413    0.338964
     11          1           0        3.772639    0.071644   -0.930765
     12          1           0        2.515504    2.170975   -0.390188
     13          1           0        0.623598   -2.167465    0.490849
     14          1           0       -1.429831    1.424092   -1.234865
     15          1           0       -2.314015    2.154514    0.096934
     16          1           0       -3.190666    1.339309   -1.201754
     17          1           0       -3.158002   -1.199555   -1.385241
     18          1           0       -1.400440   -1.213979   -1.441787
     19          1           0       -2.251536   -2.166685   -0.224003
     20          1           0       -1.144990   -1.004046    1.767797
     21          1           0       -1.141864    0.752268    1.881855
     22          1           0       -3.134101   -0.081540    0.807527
 ---------------------------------------------------------------------

 SCF Done:  E(RHF) =  -420.904265497     A.U. after    2 cycles

 The electronic state is 1-A.
 Alpha  occ. eigenvalues --  -15.75979 -15.75335 -11.49016 -11.46437 -11.44238
 Alpha  occ. eigenvalues --  -11.41568 -11.40062 -11.39703 -11.38273 -11.34864
 Alpha  occ. eigenvalues --   -1.51062  -1.33288  -1.25898  -1.14180  -1.02119
 Alpha  occ. eigenvalues --   -1.00141  -0.92523  -0.89152  -0.80250  -0.71715
 Alpha  occ. eigenvalues --   -0.66381  -0.65450  -0.63594  -0.59907  -0.58431
 Alpha  occ. eigenvalues --   -0.56851  -0.56187  -0.53251  -0.51281  -0.49985
 Alpha  occ. eigenvalues --   -0.45500  -0.44920  -0.43998  -0.43382  -0.40493
 Alpha  occ. eigenvalues --   -0.33648  -0.32971
 Alpha virt. eigenvalues --    0.03551   0.04922   0.05178   0.05390   0.05614
 Alpha virt. eigenvalues --    0.05929   0.05986   0.06248   0.07375   0.07688
 Alpha virt. eigenvalues --    0.08874   0.09054   0.10149   0.10654   0.11182

 Mulliken charges:
               1
     1  C   -0.065389
     2  C    0.523448
     3  C   -1.114203
     4  C    5.309162
     5  C   -4.532489
     6  C   -4.434016
     7  C   -3.546494
     8  C   -0.320299
     9  N   -3.835082
    10  N   -4.950292
    11  H    1.532101
    12  H    1.683544
    13  H    1.802105
    14  H    1.396179
    15  H    1.296165
    16  H    1.142946
    17  H    1.134870
    18  H    1.546703
    19  H    1.250989
    20  H    1.365932
    21  H    1.257226
    22  H    1.556894
 Sum of Mulliken charges =   0.00000

 Dipole moment (field-independent basis, Debye):
    X=             -0.6089    Y=              0.2628    Z=              0.1257  Tot=              0.6750

 Test job not archived.
 1\1\GINC-SE344\SP\RHF\Aug-CC-pVDZ\C8H12N2\OHZDE\06-Apr-2025\0\\#t hf a
 ug-cc-pvdz iop(5/13=1,5/36=2,99/5=2) pseudo=read geom=check guess=(rea
 d,tcheck) scf=(maxcycle=1)\\title\\0,1\C,0,2.780946,0.03409,-0.496412\
 C,0,2.081979,1.196215,-0.197941\C,0,1.046417,-1.191362,0.282233\C,0,0.
 324882,-0.029326,0.5818\C,0,-2.293729,1.300701,-0.581142\C,0,-2.259009
 ,-1.219791,-0.767466\C,0,-1.051716,-0.083716,1.186804\C,0,-2.235332,-0
 .02209,0.185648\N,0,2.262542,-1.168677,-0.252894\N,0,0.864183,1.170413
 ,0.338964\H,0,3.772639,0.071644,-0.930765\H,0,2.515504,2.170975,-0.390

 Normal termination of Gaussian 16 at Sun Apr  6 08:03:56 2025.
