 Gaussian 16, Revision C.01,

 ----------------------------------------------------------------------
 #t hf aug-cc-pvdz symm=none int=(grid=ultrafine) guess=(read,tcheck) s
 table=(opt,rrhf)
 ----------------------------------------------------------------------
 -----
 title
 -----
 Symbolic Z-matrix:
 Charge =  0 Multiplicity = 1

 SCF Done:  E(RHF) =  -310.256460364     A.U. after   12 cycles

 1\1\GINC-SE255\Stability\RHF\Aug-CC-pVDZ\C6H14O1\OHZDE\06-Apr-2025\0\\
 #t hf aug-cc-pvdz symm=none int=(grid=ultrafine) guess=(read,tcheck) s
 table=(opt,rrhf)\\title\\0,1\C,0,0.,2.369897,0.648656\C,0,1.795861,1.1
 49187,-0.648464\C,0,0.,-2.369897,0.648656\C,0,-1.795861,-1.149187,-0.6
 48464\C,0,0.328511,1.169473,-0.22525\C,0,-0.328511,-1.169473,-0.22525\
 O,0,0.,0.,0.530194\H,0,0.237389,3.300652,0.131809\H,0,-1.057482,2.3765
 95,0.91075\H,0,0.579665,2.331751,1.572195\H,0,2.036399,2.028649,-1.248
 423\H,0,2.027144,0.266481,-1.245332\H,0,2.440231,1.144037,0.231844\H,0

 Normal termination of Gaussian 16 at Sun Apr  6 08:02:44 2025.
 Gaussian 16:  ES64L-G16RevC.01  3-Jul-2019

 ----------------------------------------------------------------------
 #t hf aug-cc-pvdz iop(5/13=1,5/36=2,99/5=2) pseudo=read geom=check gue
 ss=(read,tcheck) scf=(maxcycle=1)
 ----------------------------------------------------------------------
 -----
 title
 -----
 Structure from the checkpoint file:  "2-isopropoxypropane.chk"
 Charge =  0 Multiplicity = 1

                         Standard orientation:
 ---------------------------------------------------------------------
 Center     Atomic      Atomic             Coordinates (Angstroms)
 Number     Number       Type             X           Y           Z
 ---------------------------------------------------------------------
      1          6           0        0.000000    2.369897    0.648656
      2          6           0        1.795861    1.149187   -0.648464
      3          6           0       -0.000000   -2.369897    0.648656
      4          6           0       -1.795861   -1.149187   -0.648464
      5          6           0        0.328511    1.169473   -0.225250
      6          6           0       -0.328511   -1.169473   -0.225250
      7          8           0        0.000000    0.000000    0.530194
      8          1           0        0.237389    3.300652    0.131809
      9          1           0       -1.057482    2.376595    0.910750
     10          1           0        0.579665    2.331751    1.572195
     11          1           0        2.036399    2.028649   -1.248423
     12          1           0        2.027144    0.266481   -1.245332
     13          1           0        2.440231    1.144037    0.231844
     14          1           0       -0.237389   -3.300652    0.131809
     15          1           0        1.057482   -2.376595    0.910750
     16          1           0       -0.579665   -2.331751    1.572195
     17          1           0       -2.036399   -2.028649   -1.248423
     18          1           0       -2.027144   -0.266481   -1.245332
     19          1           0       -2.440231   -1.144037    0.231844
     20          1           0       -0.300157    1.205375   -1.123271
     21          1           0        0.300157   -1.205375   -1.123271
 ---------------------------------------------------------------------

 SCF Done:  E(RHF) =  -311.802373428     A.U. after    2 cycles

 The electronic state is 1-A.
 Alpha  occ. eigenvalues --  -21.02158 -11.44220 -11.43495 -11.38667 -11.38429
 Alpha  occ. eigenvalues --  -11.35233 -11.34705  -1.74113  -1.19884  -1.12810
 Alpha  occ. eigenvalues --   -1.00618  -1.00118  -0.84873  -0.80104  -0.65876
 Alpha  occ. eigenvalues --   -0.63749  -0.60298  -0.57420  -0.56770  -0.55280
 Alpha  occ. eigenvalues --   -0.53402  -0.53063  -0.48485  -0.48045  -0.47355
 Alpha  occ. eigenvalues --   -0.46223  -0.41844  -0.35796  -0.28090
 Alpha virt. eigenvalues --    0.04152   0.04889   0.05270   0.05400   0.05467
 Alpha virt. eigenvalues --    0.05816   0.06140   0.06516   0.06841   0.08163
 Alpha virt. eigenvalues --    0.08890   0.09040   0.09309   0.09462   0.13716

 Mulliken charges:
               1
     1  C   -4.197821
     2  C   -3.767945
     3  C   -4.197821
     4  C   -3.767945
     5  C    0.020309
     6  C    0.020309
     7  O   -3.851224
     8  H    1.165140
     9  H    1.344675
    10  H    1.305201
    11  H    1.206591
    12  H    1.410173
    13  H    1.374644
    14  H    1.165140
    15  H    1.344675
    16  H    1.305201
    17  H    1.206591
    18  H    1.410173
    19  H    1.374644
    20  H    2.064645
    21  H    2.064645
 Sum of Mulliken charges =  -0.00000

 Dipole moment (field-independent basis, Debye):
    X=             -0.0000    Y=             -0.0000    Z=             -0.4795  Tot=              0.4795

 Test job not archived.
 1\1\GINC-SE255\SP\RHF\Aug-CC-pVDZ\C6H14O1\OHZDE\06-Apr-2025\0\\#t hf a
 ug-cc-pvdz iop(5/13=1,5/36=2,99/5=2) pseudo=read geom=check guess=(rea
 d,tcheck) scf=(maxcycle=1)\\title\\0,1\C,0,0.,2.369897,0.648656\C,0,1.
 795861,1.149187,-0.648464\C,0,0.,-2.369897,0.648656\C,0,-1.795861,-1.1
 49187,-0.648464\C,0,0.328511,1.169473,-0.22525\C,0,-0.328511,-1.169473
 ,-0.22525\O,0,0.,0.,0.530194\H,0,0.237389,3.300652,0.131809\H,0,-1.057
 482,2.376595,0.91075\H,0,0.579665,2.331751,1.572195\H,0,2.036399,2.028
 649,-1.248423\H,0,2.027144,0.266481,-1.245332\H,0,2.440231,1.144037,0.

 Normal termination of Gaussian 16 at Sun Apr  6 08:02:51 2025.
