 Gaussian 16, Revision C.01,

 ----------------------------------------------------------------------
 #t hf aug-cc-pvdz symm=none int=(grid=ultrafine) guess=(read,tcheck) s
 table=(opt,rrhf)
 ----------------------------------------------------------------------
 -----
 title
 -----
 Symbolic Z-matrix:
 Charge =  0 Multiplicity = 1

 SCF Done:  E(RHF) =  -697.272877737     A.U. after   15 cycles
 Normal termination of Gaussian 16 at Sun Apr  6 08:01:58 2025.
 Gaussian 16:  ES64L-G16RevC.01  3-Jul-2019

 ----------------------------------------------------------------------
 #t hf aug-cc-pvdz iop(5/13=1,5/36=2,99/5=2) pseudo=read geom=check gue
 ss=(read,tcheck) scf=(maxcycle=1)
 ----------------------------------------------------------------------
 -----
 title
 -----
 Structure from the checkpoint file:  "2-isothiocyanatoacetamide.chk"
 Charge =  0 Multiplicity = 1

                         Standard orientation:
 ---------------------------------------------------------------------
 Center     Atomic      Atomic             Coordinates (Angstroms)
 Number     Number       Type             X           Y           Z
 ---------------------------------------------------------------------
      1         16           0        2.745348   -0.356309    0.000063
      2          8           0       -0.994220   -1.299184    0.000009
      3          7           0       -3.011806   -0.267700   -0.000097
      4          7           0        0.394126    1.102920   -0.000391
      5          6           0       -1.019553    1.122041    0.000287
      6          6           0       -1.651289   -0.284113    0.000026
      7          6           0        1.362947    0.407332   -0.000131
      8          1           0       -1.377130    1.669767   -0.876347
      9          1           0       -1.376320    1.668960    0.877770
     10          1           0       -3.544575    0.582927   -0.000097
     11          1           0       -3.502658   -1.145330   -0.000094
 ---------------------------------------------------------------------

 SCF Done:  E(RHF) =  -698.820683785     A.U. after    2 cycles

 The electronic state is 1-A.
 Alpha  occ. eigenvalues --  -75.67811 -21.04821 -15.80133 -15.78138 -13.20447
 Alpha  occ. eigenvalues --  -12.99421 -12.99094 -11.54074 -11.52594 -11.46433
 Alpha  occ. eigenvalues --   -8.02101  -1.73007  -1.44016  -1.36657  -1.17573
 Alpha  occ. eigenvalues --   -1.07169  -0.85735  -0.75296  -0.70048  -0.68301
 Alpha  occ. eigenvalues --   -0.66451  -0.54584  -0.54324  -0.53145  -0.49520
 Alpha  occ. eigenvalues --   -0.47939  -0.34885  -0.32225  -0.25589  -0.24561
 Alpha virt. eigenvalues --    0.02083   0.04292   0.05181   0.05434   0.06989
 Alpha virt. eigenvalues --    0.08871   0.10200   0.11185   0.11674   0.12135
 Alpha virt. eigenvalues --    0.13016   0.13243   0.14351   0.14795   0.15327

 Mulliken charges:
               1
     1  S    1.518421
     2  O   -3.005466
     3  N   -3.188428
     4  N   -3.109602
     5  C   -2.457604
     6  C    4.944279
     7  C    0.758943
     8  H    1.487713
     9  H    1.487801
    10  H    0.776820
    11  H    0.787123
 Sum of Mulliken charges =  -0.00000

 Dipole moment (field-independent basis, Debye):
    X=             -2.1476    Y=             -0.1977    Z=              0.0013  Tot=              2.1567

 Test job not archived.
 1\1\GINC-SE276\SP\RHF\Aug-CC-pVDZ\C3H4N2O1S1\OHZDE\06-Apr-2025\0\\#t h
 f aug-cc-pvdz iop(5/13=1,5/36=2,99/5=2) pseudo=read geom=check guess=(
 read,tcheck) scf=(maxcycle=1)\\title\\0,1\S,0,2.745348,-0.356309,0.000
 063\O,0,-0.99422,-1.299184,0.000009\N,0,-3.011806,-0.2677,-0.000097\N,
 0,0.394126,1.10292,-0.000391\C,0,-1.019553,1.122041,0.000287\C,0,-1.65
 1289,-0.284113,0.000026\C,0,1.362947,0.407332,-0.000131\H,0,-1.37713,1
 .669767,-0.876347\H,0,-1.37632,1.66896,0.87777\H,0,-3.544575,0.582927,
 -0.000097\H,0,-3.502658,-1.14533,-0.000094\\Version=ES64L-G16RevC.01\S

 Normal termination of Gaussian 16 at Sun Apr  6 08:02:03 2025.
