 Gaussian 16, Revision C.01,

 ----------------------------------------------------------------------
 #t hf aug-cc-pvdz symm=none int=(grid=ultrafine) guess=(read,tcheck) s
 table=(opt,rrhf)
 ----------------------------------------------------------------------
 -----
 title
 -----
 Symbolic Z-matrix:
 Charge =  0 Multiplicity = 1

 SCF Done:  E(RHF) =  -1056.59685262     A.U. after   16 cycles
 Normal termination of Gaussian 16 at Sun Apr  6 08:02:04 2025.
 Gaussian 16:  ES64L-G16RevC.01  3-Jul-2019

 ----------------------------------------------------------------------
 #t hf aug-cc-pvdz iop(5/13=1,5/36=2,99/5=2) pseudo=read geom=check gue
 ss=(read,tcheck) scf=(maxcycle=1)
 ----------------------------------------------------------------------
 -----
 title
 -----
 Structure from the checkpoint file:  "2-isothiocyanato-1-3-thiazole.chk"
 Charge =  0 Multiplicity = 1

                         Standard orientation:
 ---------------------------------------------------------------------
 Center     Atomic      Atomic             Coordinates (Angstroms)
 Number     Number       Type             X           Y           Z
 ---------------------------------------------------------------------
      1         16           0        1.667226    0.132752    0.000000
      2         16           0       -2.103556   -2.717686    0.000000
      3          7           0       -0.130356    1.993182    0.000000
      4          7           0       -1.046411   -0.162402    0.000000
      5          6           0       -0.000000    0.701076    0.000000
      6          6           0        2.177319    1.781734    0.000000
      7          6           0        1.092676    2.603047    0.000000
      8          6           0       -1.460327   -1.282961    0.000000
      9          1           0        3.220864    2.044973    0.000000
     10          1           0        1.139778    3.681128    0.000000
 ---------------------------------------------------------------------

 SCF Done:  E(RHF) =  -1058.22661897     A.U. after    2 cycles

 The electronic state is 1-A'.
 Alpha  occ. eigenvalues --  -75.74342 -75.71241 -15.81851 -15.76257 -13.25121
 Alpha  occ. eigenvalues --  -13.18859 -13.17910 -13.06074 -13.02776 -13.02379
 Alpha  occ. eigenvalues --  -11.57515 -11.50578 -11.46546 -11.41226  -8.08818
 Alpha  occ. eigenvalues --   -8.05510  -1.54294  -1.42101  -1.20773  -1.18933
 Alpha  occ. eigenvalues --   -1.08745  -0.91591  -0.83007  -0.73001  -0.64015
 Alpha  occ. eigenvalues --   -0.62953  -0.61454  -0.56720  -0.53420  -0.51111
 Alpha  occ. eigenvalues --   -0.44664  -0.38488  -0.37951  -0.31671  -0.28345
 Alpha  occ. eigenvalues --   -0.25288
 Alpha virt. eigenvalues --    0.02591   0.04079   0.05215   0.06904   0.07398
 Alpha virt. eigenvalues --    0.07576   0.09568   0.10620   0.10929   0.11160
 Alpha virt. eigenvalues --    0.12423   0.12456   0.13386   0.13517   0.13621

 Mulliken charges:
               1
     1  S    1.617493
     2  S    1.685145
     3  N   -3.095876
     4  N   -3.368790
     5  C    1.281334
     6  C   -2.527231
     7  C    0.714167
     8  C    0.965292
     9  H    1.185252
    10  H    1.543214
 Sum of Mulliken charges =  -0.00000

 Dipole moment (field-independent basis, Debye):
    X=              2.3189    Y=             -4.3605    Z=              0.0000  Tot=              4.9388

 Test job not archived.
 1\1\GINC-SE254\SP\RHF\Aug-CC-pVDZ\C4H2N2S2\OHZDE\06-Apr-2025\0\\#t hf
 aug-cc-pvdz iop(5/13=1,5/36=2,99/5=2) pseudo=read geom=check guess=(re
 ad,tcheck) scf=(maxcycle=1)\\title\\0,1\S,0,-1.176502,1.188742,0.\S,0,
 3.433639,0.144524,0.\N,0,-1.439432,-1.384848,0.\N,0,0.798861,-0.695105
 ,0.\C,0,-0.535866,-0.452056,0.\C,0,-2.765808,0.515362,0.\C,0,-2.694196
 ,-0.843269,0.\C,0,1.922253,-0.288941,0.\H,0,-3.639896,1.143256,0.\H,0,
 -3.548597,-1.502417,0.\\Version=ES64L-G16RevC.01\State=1-A'\HF=-1058.2
 26619\RMSD=4.946e-01\Dipole=0.7230228,1.8035432,0.\Quadrupole=11.98761

 Normal termination of Gaussian 16 at Sun Apr  6 08:02:10 2025.
