 Gaussian 16, Revision C.01,

 ----------------------------------------------------------------------
 #t hf aug-cc-pvdz symm=none int=(grid=ultrafine) guess=(read,tcheck) s
 table=(opt,rrhf)
 ----------------------------------------------------------------------
 -----
 title
 -----
 Symbolic Z-matrix:
 Charge =  0 Multiplicity = 1

 SCF Done:  E(RHF) =  -1039.73958833     A.U. after   15 cycles
 Normal termination of Gaussian 16 at Sun Apr  6 08:01:56 2025.
 Gaussian 16:  ES64L-G16RevC.01  3-Jul-2019

 ----------------------------------------------------------------------
 #t hf aug-cc-pvdz iop(5/13=1,5/36=2,99/5=2) pseudo=read geom=check gue
 ss=(read,tcheck) scf=(maxcycle=1)
 ----------------------------------------------------------------------
 -----
 title
 -----
 Structure from the checkpoint file:  "2-isocyanatoethanedithioicacid.chk"
 Charge =  0 Multiplicity = 1

                         Standard orientation:
 ---------------------------------------------------------------------
 Center     Atomic      Atomic             Coordinates (Angstroms)
 Number     Number       Type             X           Y           Z
 ---------------------------------------------------------------------
      1         16           0        2.378504   -0.996830   -0.060055
      2         16           0        1.032305    1.615124   -0.000766
      3          8           0       -3.857822   -0.222967   -0.090876
      4          7           0       -1.504533   -0.005601    0.047838
      5          6           0        0.996939   -0.123544    0.017628
      6          6           0       -0.336437   -0.850557    0.141815
      7          6           0       -2.693129   -0.177700   -0.020459
      8          1           0       -0.301843    1.818938    0.055450
      9          1           0       -0.325396   -1.359868    1.107578
     10          1           0       -0.355645   -1.618027   -0.631648
 ---------------------------------------------------------------------

 SCF Done:  E(RHF) =  -1041.24460544     A.U. after    2 cycles

 The electronic state is 1-A.
 Alpha  occ. eigenvalues --  -75.73435 -75.67682 -21.14194 -15.79071 -13.18481
 Alpha  occ. eigenvalues --  -13.16674 -13.15275 -13.05093 -13.02393 -12.99086
 Alpha  occ. eigenvalues --  -11.60825 -11.52416 -11.47036  -8.07576  -8.01855
 Alpha  occ. eigenvalues --   -1.78886  -1.45315  -1.28851  -1.11415  -1.06610
 Alpha  occ. eigenvalues --   -0.79753  -0.75055  -0.68938  -0.66008  -0.63111
 Alpha  occ. eigenvalues --   -0.58849  -0.56970  -0.46158  -0.43843  -0.41762
 Alpha  occ. eigenvalues --   -0.38266  -0.35396  -0.24254  -0.23330
 Alpha virt. eigenvalues --    0.01875   0.04546   0.04912   0.06234   0.07389
 Alpha virt. eigenvalues --    0.07852   0.08319   0.09800   0.10889   0.11171
 Alpha virt. eigenvalues --    0.11840   0.13030   0.13735   0.15001   0.15198

 Mulliken charges:
               1
     1  S    1.063689
     2  S   -0.215129
     3  O   -2.743705
     4  N   -2.118054
     5  C   -1.632085
     6  C   -2.746844
     7  C    4.286104
     8  H    1.037225
     9  H    1.490372
    10  H    1.578427
 Sum of Mulliken charges =  -0.00000

 Dipole moment (field-independent basis, Debye):
    X=              1.2696    Y=              0.0140    Z=             -0.0583  Tot=              1.2710

 Test job not archived.
 1\1\GINC-SE388\SP\RHF\Aug-CC-pVDZ\C3H3N1O1S2\OHZDE\06-Apr-2025\0\\#t h
 f aug-cc-pvdz iop(5/13=1,5/36=2,99/5=2) pseudo=read geom=check guess=(
 read,tcheck) scf=(maxcycle=1)\\title\\0,1\S,0,2.378504,-0.99683,-0.060
 055\S,0,1.032305,1.615124,-0.000766\O,0,-3.857822,-0.222967,-0.090876\
 N,0,-1.504533,-0.005601,0.047838\C,0,0.996939,-0.123544,0.017628\C,0,-
 0.336437,-0.850557,0.141815\C,0,-2.693129,-0.1777,-0.020459\H,0,-0.301
 843,1.818938,0.05545\H,0,-0.325396,-1.359868,1.107578\H,0,-0.355645,-1
 .618027,-0.631648\\Version=ES64L-G16RevC.01\State=1-A\HF=-1041.2446054

 Normal termination of Gaussian 16 at Sun Apr  6 08:02:00 2025.
