 Gaussian 16, Revision C.01,

 ----------------------------------------------------------------------
 #t hf aug-cc-pvdz symm=none int=(grid=ultrafine) guess=(read,tcheck) s
 table=(opt,rrhf)
 ----------------------------------------------------------------------
 -----
 title
 -----
 Symbolic Z-matrix:
 Charge =  0 Multiplicity = 1

 SCF Done:  E(RHF) =  -632.920927181     A.U. after   12 cycles

 1\1\GINC-SE254\Stability\RHF\Aug-CC-pVDZ\C6H14S1\OHZDE\06-Apr-2025\0\\
 #t hf aug-cc-pvdz symm=none int=(grid=ultrafine) guess=(read,tcheck) s
 table=(opt,rrhf)\\title\\0,1\C,0,1.734839,-1.077796,-1.065905\C,0,2.63
 2719,0.591958,0.605922\C,0,-1.73484,-1.077794,1.065906\C,0,-2.632718,0
 .591958,-0.605923\C,0,1.441089,-0.271419,0.195238\C,0,-1.441089,-0.271
 419,-0.195238\S,0,0.,0.866458,0.\H,0,2.591479,-1.736141,-0.899071\H,0,
 0.892872,-1.704377,-1.358644\H,0,1.969701,-0.41564,-1.900083\H,0,3.513
 715,-0.035344,0.754087\H,0,2.435115,1.129802,1.532456\H,0,2.869539,1.3

 Normal termination of Gaussian 16 at Sun Apr  6 08:02:47 2025.
 Gaussian 16:  ES64L-G16RevC.01  3-Jul-2019

 ----------------------------------------------------------------------
 #t hf aug-cc-pvdz iop(5/13=1,5/36=2,99/5=2) pseudo=read geom=check gue
 ss=(read,tcheck) scf=(maxcycle=1)
 ----------------------------------------------------------------------
 -----
 title
 -----
 Structure from the checkpoint file:  "2-isopropylsulfanylpropane.chk"
 Charge =  0 Multiplicity = 1

                         Standard orientation:
 ---------------------------------------------------------------------
 Center     Atomic      Atomic             Coordinates (Angstroms)
 Number     Number       Type             X           Y           Z
 ---------------------------------------------------------------------
      1          6           0        1.734839   -1.077796   -1.065905
      2          6           0        2.632719    0.591958    0.605922
      3          6           0       -1.734840   -1.077794    1.065906
      4          6           0       -2.632718    0.591958   -0.605923
      5          6           0        1.441089   -0.271419    0.195238
      6          6           0       -1.441089   -0.271419   -0.195238
      7         16           0       -0.000000    0.866458    0.000000
      8          1           0        2.591479   -1.736141   -0.899071
      9          1           0        0.892872   -1.704377   -1.358644
     10          1           0        1.969701   -0.415640   -1.900083
     11          1           0        3.513715   -0.035344    0.754087
     12          1           0        2.435115    1.129802    1.532456
     13          1           0        2.869539    1.323680   -0.168464
     14          1           0       -2.591478   -1.736141    0.899071
     15          1           0       -0.892872   -1.704375    1.358647
     16          1           0       -1.969704   -0.415638    1.900082
     17          1           0       -3.513714   -0.035344   -0.754090
     18          1           0       -2.435113    1.129802   -1.532458
     19          1           0       -2.869540    1.323680    0.168462
     20          1           0        1.204385   -0.950113    1.015660
     21          1           0       -1.204384   -0.950114   -1.015659
 ---------------------------------------------------------------------

 SCF Done:  E(RHF) =  -634.399211916     A.U. after    2 cycles

 The electronic state is 1-A.
 Alpha  occ. eigenvalues --  -75.65674 -13.12863 -13.08301 -13.02127 -11.42738
 Alpha  occ. eigenvalues --  -11.42231 -11.38758 -11.38563 -11.36005 -11.35619
 Alpha  occ. eigenvalues --   -7.99750  -1.29485  -1.20258  -1.02369  -1.00968
 Alpha  occ. eigenvalues --   -0.99936  -0.84453  -0.78886  -0.64662  -0.63260
 Alpha  occ. eigenvalues --   -0.60341  -0.57977  -0.56114  -0.55956  -0.53730
 Alpha  occ. eigenvalues --   -0.53606  -0.48339  -0.46927  -0.46801  -0.46474
 Alpha  occ. eigenvalues --   -0.37487  -0.33245  -0.21787
 Alpha virt. eigenvalues --    0.03862   0.04289   0.05358   0.05522   0.05961
 Alpha virt. eigenvalues --    0.06245   0.06276   0.06437   0.07181   0.07269
 Alpha virt. eigenvalues --    0.08145   0.08542   0.09522   0.09740   0.12514

 Mulliken charges:
               1
     1  C   -3.974020
     2  C   -4.009802
     3  C   -3.974019
     4  C   -4.009800
     5  C   -2.365544
     6  C   -2.365545
     7  S    0.987139
     8  H    1.208917
     9  H    1.399012
    10  H    1.381914
    11  H    1.142664
    12  H    1.371272
    13  H    1.415529
    14  H    1.208917
    15  H    1.399010
    16  H    1.381915
    17  H    1.142664
    18  H    1.371271
    19  H    1.415529
    20  H    1.936488
    21  H    1.936488
 Sum of Mulliken charges =  -0.00000

 Dipole moment (field-independent basis, Debye):
    X=             -0.0000    Y=             -0.0604    Z=              0.0000  Tot=              0.0604

 Test job not archived.
 1\1\GINC-SE254\SP\RHF\Aug-CC-pVDZ\C6H14S1\OHZDE\06-Apr-2025\0\\#t hf a
 ug-cc-pvdz iop(5/13=1,5/36=2,99/5=2) pseudo=read geom=check guess=(rea
 d,tcheck) scf=(maxcycle=1)\\title\\0,1\C,0,1.734839,-1.077796,-1.06590
 5\C,0,2.632719,0.591958,0.605922\C,0,-1.73484,-1.077794,1.065906\C,0,-
 2.632718,0.591958,-0.605923\C,0,1.441089,-0.271419,0.195238\C,0,-1.441
 089,-0.271419,-0.195238\S,0,0.,0.866458,0.\H,0,2.591479,-1.736141,-0.8
 99071\H,0,0.892872,-1.704377,-1.358644\H,0,1.969701,-0.41564,-1.900083
 \H,0,3.513715,-0.035344,0.754087\H,0,2.435115,1.129802,1.532456\H,0,2.

 Normal termination of Gaussian 16 at Sun Apr  6 08:02:56 2025.
