 Gaussian 16, Revision C.01,

 ----------------------------------------------------------------------
 #t hf aug-cc-pvdz symm=none int=(grid=ultrafine) guess=(read,tcheck) s
 table=(opt,rrhf)
 ----------------------------------------------------------------------
 -----
 title
 -----
 Symbolic Z-matrix:
 Charge =  0 Multiplicity = 1

 SCF Done:  E(RHF) =  -298.553660464     A.U. after   15 cycles
 Normal termination of Gaussian 16 at Sun Apr  6 08:01:52 2025.
 Gaussian 16:  ES64L-G16RevC.01  3-Jul-2019

 ----------------------------------------------------------------------
 #t hf aug-cc-pvdz iop(5/13=1,5/36=2,99/5=2) pseudo=read geom=check gue
 ss=(read,tcheck) scf=(maxcycle=1)
 ----------------------------------------------------------------------
 -----
 title
 -----
 Structure from the checkpoint file:  "2-isocyanatoacetonitrile.chk"
 Charge =  0 Multiplicity = 1

                         Standard orientation:
 ---------------------------------------------------------------------
 Center     Atomic      Atomic             Coordinates (Angstroms)
 Number     Number       Type             X           Y           Z
 ---------------------------------------------------------------------
      1          8           0        2.314952   -0.784408    0.074091
      2          7           0        0.623911    0.847435   -0.202435
      3          7           0       -2.202485   -1.136869   -0.048234
      4          6           0       -0.767680    1.044455    0.111907
      5          6           0        1.438243   -0.023374   -0.027656
      6          6           0       -1.574416   -0.177183    0.019351
      7          1           0       -1.175339    1.782439   -0.578436
      8          1           0       -0.871142    1.455478    1.118785
 ---------------------------------------------------------------------

 SCF Done:  E(RHF) =  -299.833538411     A.U. after    2 cycles

 The electronic state is 1-A.
 Alpha  occ. eigenvalues --  -21.14129 -15.79266 -15.78563 -11.60313 -11.52061
 Alpha  occ. eigenvalues --  -11.45097  -1.78791  -1.45329  -1.32083  -1.12036
 Alpha  occ. eigenvalues --   -0.79848  -0.72394  -0.70016  -0.63648  -0.59973
 Alpha  occ. eigenvalues --   -0.58635  -0.54036  -0.47244  -0.46157  -0.38321
 Alpha  occ. eigenvalues --   -0.35567
 Alpha virt. eigenvalues --    0.02103   0.05354   0.07538   0.08141   0.10252
 Alpha virt. eigenvalues --    0.10530   0.10663   0.11364   0.11508   0.11787
 Alpha virt. eigenvalues --    0.14410   0.14839   0.16634   0.17062   0.18097

 Mulliken charges:
               1
     1  O   -2.453356
     2  N   -2.226587
     3  N   -2.381210
     4  C   -2.181370
     5  C    3.845594
     6  C    2.446684
     7  H    1.450374
     8  H    1.499870
 Sum of Mulliken charges =   0.00000

 Dipole moment (field-independent basis, Debye):
    X=              0.9454    Y=              2.0819    Z=              0.6823  Tot=              2.3861

 Test job not archived.
 1\1\GINC-SE388\SP\RHF\Aug-CC-pVDZ\C3H2N2O1\OHZDE\06-Apr-2025\0\\#t hf
 aug-cc-pvdz iop(5/13=1,5/36=2,99/5=2) pseudo=read geom=check guess=(re
 ad,tcheck) scf=(maxcycle=1)\\title\\0,1\O,0,2.314952,-0.784408,0.07409
 1\N,0,0.623911,0.847435,-0.202435\N,0,-2.202485,-1.136869,-0.048234\C,
 0,-0.76768,1.044455,0.111907\C,0,1.438243,-0.023374,-0.027656\C,0,-1.5
 74416,-0.177183,0.019351\H,0,-1.175339,1.782439,-0.578436\H,0,-0.87114
 2,1.455478,1.118785\\Version=ES64L-G16RevC.01\State=1-A\HF=-299.833538
 4\RMSD=1.736e-01\Dipole=0.3719392,0.8190719,0.2684569\Quadrupole=-2.00

 Normal termination of Gaussian 16 at Sun Apr  6 08:01:56 2025.
