 Gaussian 16, Revision C.01,

 ----------------------------------------------------------------------
 #t hf aug-cc-pvdz symm=none int=(grid=ultrafine) guess=(read,tcheck) s
 table=(opt,rrhf)
 ----------------------------------------------------------------------
 -----
 title
 -----
 Symbolic Z-matrix:
 Charge =  0 Multiplicity = 1

 SCF Done:  E(RHF) =  -267.995601340     A.U. after   12 cycles
 Normal termination of Gaussian 16 at Sun Apr  6 08:02:30 2025.
 Gaussian 16:  ES64L-G16RevC.01  3-Jul-2019

 ----------------------------------------------------------------------
 #t hf aug-cc-pvdz iop(5/13=1,5/36=2,99/5=2) pseudo=read geom=check gue
 ss=(read,tcheck) scf=(maxcycle=1)
 ----------------------------------------------------------------------
 -----
 title
 -----
 Structure from the checkpoint file:  "2-methoxyethanol.chk"
 Charge =  0 Multiplicity = 1

                         Standard orientation:
 ---------------------------------------------------------------------
 Center     Atomic      Atomic             Coordinates (Angstroms)
 Number     Number       Type             X           Y           Z
 ---------------------------------------------------------------------
      1          6           0       -2.240901   -0.228900    0.078947
      2          6           0        1.357635    0.506201   -0.241163
      3          6           0       -0.057727    0.632576    0.286522
      4          8           0        1.985166   -0.733246    0.058970
      5          8           0       -0.911332   -0.260311   -0.393888
      6          1           0       -2.296798   -0.511289    1.137407
      7          1           0       -2.810353   -0.945359   -0.509172
      8          1           0       -2.687110    0.766333   -0.039775
      9          1           0        1.946368    1.347748    0.143838
     10          1           0        1.344535    0.574466   -1.328580
     11          1           0       -0.397375    1.669916    0.147193
     12          1           0       -0.075546    0.427374    1.368715
     13          1           0        2.031563   -0.840001    1.013883
 ---------------------------------------------------------------------

 SCF Done:  E(RHF) =  -269.210533329     A.U. after    2 cycles

 The electronic state is 1-A.
 Alpha  occ. eigenvalues --  -21.06386 -21.04254 -11.44952 -11.40208 -11.38854
 Alpha  occ. eigenvalues --   -1.75912  -1.69200  -1.09660  -0.96574  -0.86302
 Alpha  occ. eigenvalues --   -0.65823  -0.64866  -0.62912  -0.58042  -0.57696
 Alpha  occ. eigenvalues --   -0.50919  -0.49817  -0.41166  -0.37939  -0.31566
 Alpha  occ. eigenvalues --   -0.29572
 Alpha virt. eigenvalues --    0.03907   0.04964   0.05415   0.05796   0.06140
 Alpha virt. eigenvalues --    0.06363   0.07137   0.07712   0.12090   0.12607
 Alpha virt. eigenvalues --    0.13840   0.14898   0.15136   0.16416   0.16854

 Mulliken charges:
               1
     1  C   -2.835437
     2  C   -1.139359
     3  C   -0.998019
     4  O   -2.442314
     5  O   -2.812679
     6  H    1.304249
     7  H    1.287203
     8  H    1.321023
     9  H    1.162774
    10  H    1.402083
    11  H    1.477651
    12  H    1.561574
    13  H    0.711252
 Sum of Mulliken charges =   0.00000

 Dipole moment (field-independent basis, Debye):
    X=             -0.4740    Y=              0.5957    Z=              0.6798  Tot=              1.0206

 Test job not archived.
 1\1\GINC-SE010\SP\RHF\Aug-CC-pVDZ\C3H8O2\OHZDE\06-Apr-2025\0\\#t hf au
 g-cc-pvdz iop(5/13=1,5/36=2,99/5=2) pseudo=read geom=check guess=(read
 ,tcheck) scf=(maxcycle=1)\\title\\0,1\C,0,-2.240901,-0.2289,0.078947\C
 ,0,1.357635,0.506201,-0.241163\C,0,-0.057727,0.632576,0.286522\O,0,1.9
 85166,-0.733246,0.05897\O,0,-0.911332,-0.260311,-0.393888\H,0,-2.29679
 8,-0.511289,1.137407\H,0,-2.810353,-0.945359,-0.509172\H,0,-2.68711,0.
 766333,-0.039775\H,0,1.946368,1.347748,0.143838\H,0,1.344535,0.574466,
 -1.32858\H,0,-0.397375,1.669916,0.147193\H,0,-0.075546,0.427374,1.3687

 Normal termination of Gaussian 16 at Sun Apr  6 08:02:48 2025.
