 Gaussian 16, Revision C.01,

 ----------------------------------------------------------------------
 #t hf aug-cc-pvdz symm=none int=(grid=ultrafine) guess=(read,tcheck) s
 table=(opt,rrhf)
 ----------------------------------------------------------------------
 -----
 title
 -----
 Symbolic Z-matrix:
 Charge =  0 Multiplicity = 1

 SCF Done:  E(RHF) =  -593.883462026     A.U. after   12 cycles

 1\1\GINC-SE150\Stability\RHF\Aug-CC-pVDZ\C5H12S1\OHZDE\06-Apr-2025\0\\
 #t hf aug-cc-pvdz symm=none int=(grid=ultrafine) guess=(read,tcheck) s
 table=(opt,rrhf)\\title\\0,1\C,0,0.033256,1.911012,-0.006826\H,0,-0.98
 6044,2.108323,-0.337943\H,0,0.093132,2.170909,1.052977\H,0,0.697112,2.
 582639,-0.552731\S,0,-2.221681,-0.406315,-0.170182\H,0,-2.696542,-1.50
 7291,0.437978\C,0,-0.500845,-0.518317,0.493893\H,0,-0.520646,-0.291581
 ,1.560399\H,0,-0.169368,-1.544432,0.361547\C,0,0.437737,0.451031,-0.23
 1891\H,0,0.370711,0.237349,-1.303989\C,0,2.508461,-1.112816,-0.216529\

 Normal termination of Gaussian 16 at Sun Apr  6 08:02:55 2025.
 Gaussian 16:  ES64L-G16RevC.01  3-Jul-2019

 ----------------------------------------------------------------------
 #t hf aug-cc-pvdz iop(5/13=1,5/36=2,99/5=2) pseudo=read geom=check gue
 ss=(read,tcheck) scf=(maxcycle=1)
 ----------------------------------------------------------------------
 -----
 title
 -----
 Structure from the checkpoint file:  "2-methyl-1-butanethiol.chk"
 Charge =  0 Multiplicity = 1

                         Standard orientation:
 ---------------------------------------------------------------------
 Center     Atomic      Atomic             Coordinates (Angstroms)
 Number     Number       Type             X           Y           Z
 ---------------------------------------------------------------------
      1          6           0        0.033256    1.911012   -0.006826
      2          1           0       -0.986044    2.108323   -0.337943
      3          1           0        0.093132    2.170909    1.052977
      4          1           0        0.697112    2.582639   -0.552731
      5         16           0       -2.221681   -0.406315   -0.170182
      6          1           0       -2.696542   -1.507291    0.437978
      7          6           0       -0.500845   -0.518317    0.493893
      8          1           0       -0.520646   -0.291581    1.560399
      9          1           0       -0.169368   -1.544432    0.361547
     10          6           0        0.437737    0.451031   -0.231891
     11          1           0        0.370711    0.237349   -1.303989
     12          6           0        2.508461   -1.112816   -0.216529
     13          1           0        3.564281   -1.156476    0.053666
     14          1           0        2.018303   -1.959968    0.264207
     15          1           0        2.437887   -1.258057   -1.296481
     16          6           0        1.899038    0.226212    0.199414
     17          1           0        2.499117    1.032331   -0.230492
     18          1           0        1.973065    0.344573    1.285406
 ---------------------------------------------------------------------

 SCF Done:  E(RHF) =  -595.149386835     A.U. after    2 cycles

 The electronic state is 1-A.
 Alpha  occ. eigenvalues --  -75.67816 -13.14346 -13.07708 -13.01485 -11.42759
 Alpha  occ. eigenvalues --  -11.41736 -11.39593 -11.37250 -11.34945  -8.01663
 Alpha  occ. eigenvalues --   -1.29782  -1.14125  -1.07211  -0.95982  -0.89890
 Alpha  occ. eigenvalues --   -0.80172  -0.64835  -0.62235  -0.60904  -0.57160
 Alpha  occ. eigenvalues --   -0.55194  -0.51691  -0.50221  -0.49259  -0.45420
 Alpha  occ. eigenvalues --   -0.43544  -0.42084  -0.36540  -0.23280
 Alpha virt. eigenvalues --    0.03791   0.04359   0.05114   0.05570   0.05772
 Alpha virt. eigenvalues --    0.06050   0.06216   0.06515   0.06603   0.08684
 Alpha virt. eigenvalues --    0.09014   0.09354   0.11362   0.13204   0.13416

 Mulliken charges:
               1
     1  C   -4.370874
     2  H    1.315575
     3  H    1.278699
     4  H    1.281098
     5  S   -0.550664
     6  H    0.885157
     7  C   -3.777010
     8  H    1.488697
     9  H    1.538516
    10  C   -0.490035
    11  H    1.865206
    12  C   -3.889695
    13  H    1.064109
    14  H    1.437858
    15  H    1.247460
    16  C   -3.193658
    17  H    1.452360
    18  H    1.417202
 Sum of Mulliken charges =  -0.00000

 Dipole moment (field-independent basis, Debye):
    X=              0.8148    Y=              0.8093    Z=             -0.4024  Tot=              1.2169

 Test job not archived.
 1\1\GINC-SE150\SP\RHF\Aug-CC-pVDZ\C5H12S1\OHZDE\06-Apr-2025\0\\#t hf a
 ug-cc-pvdz iop(5/13=1,5/36=2,99/5=2) pseudo=read geom=check guess=(rea
 d,tcheck) scf=(maxcycle=1)\\title\\0,1\C,0,0.033256,1.911012,-0.006826
 \H,0,-0.986044,2.108323,-0.337943\H,0,0.093132,2.170909,1.052977\H,0,0
 .697112,2.582639,-0.552731\S,0,-2.221681,-0.406315,-0.170182\H,0,-2.69
 6542,-1.507291,0.437978\C,0,-0.500845,-0.518317,0.493893\H,0,-0.520646
 ,-0.291581,1.560399\H,0,-0.169368,-1.544432,0.361547\C,0,0.437737,0.45
 1031,-0.231891\H,0,0.370711,0.237349,-1.303989\C,0,2.508461,-1.112816,

 Normal termination of Gaussian 16 at Sun Apr  6 08:03:02 2025.
