 Gaussian 16, Revision C.01,

 ----------------------------------------------------------------------
 #t hf aug-cc-pvdz symm=none int=(grid=ultrafine) guess=(read,tcheck) s
 table=(opt,rrhf)
 ----------------------------------------------------------------------
 -----
 title
 -----
 Symbolic Z-matrix:
 Charge =  0 Multiplicity = 1

 SCF Done:  E(RHF) =  -554.846980631     A.U. after   12 cycles

 1\1\GINC-SE208\Stability\RHF\Aug-CC-pVDZ\C4H10S1\OHZDE\06-Apr-2025\0\\
 #t hf aug-cc-pvdz symm=none int=(grid=ultrafine) guess=(read,tcheck) s
 table=(opt,rrhf)\\title\\0,1\C,0,1.015957,1.451343,0.163935\H,0,0.1238
 68,2.04069,-0.046686\H,0,1.188253,1.483529,1.242634\H,0,1.861449,1.938
 979,-0.323138\S,0,-1.912944,0.066947,-0.125366\H,0,-2.706994,-0.873776
 ,0.415091\C,0,2.163432,-0.784591,-0.063963\H,0,2.089609,-1.805448,-0.4
 42007\H,0,3.013177,-0.307136,-0.553827\H,0,2.384593,-0.837208,1.004776
 \C,0,-0.305593,-0.718329,0.333908\H,0,-0.334382,-1.754724,0.003227\H,0

 Normal termination of Gaussian 16 at Sun Apr  6 08:03:08 2025.
 Gaussian 16:  ES64L-G16RevC.01  3-Jul-2019

 ----------------------------------------------------------------------
 #t hf aug-cc-pvdz iop(5/13=1,5/36=2,99/5=2) pseudo=read geom=check gue
 ss=(read,tcheck) scf=(maxcycle=1)
 ----------------------------------------------------------------------
 -----
 title
 -----
 Structure from the checkpoint file:  "2-methyl-1-propanethiol.chk"
 Charge =  0 Multiplicity = 1

                         Standard orientation:
 ---------------------------------------------------------------------
 Center     Atomic      Atomic             Coordinates (Angstroms)
 Number     Number       Type             X           Y           Z
 ---------------------------------------------------------------------
      1          6           0        1.015957    1.451343    0.163935
      2          1           0        0.123868    2.040690   -0.046686
      3          1           0        1.188253    1.483529    1.242634
      4          1           0        1.861449    1.938979   -0.323138
      5         16           0       -1.912944    0.066948   -0.125366
      6          1           0       -2.706994   -0.873775    0.415091
      7          6           0        2.163432   -0.784591   -0.063963
      8          1           0        2.089609   -1.805448   -0.442007
      9          1           0        3.013177   -0.307136   -0.553827
     10          1           0        2.384593   -0.837208    1.004776
     11          6           0       -0.305593   -0.718329    0.333908
     12          1           0       -0.334382   -1.754724    0.003227
     13          1           0       -0.203516   -0.701401    1.419378
     14          6           0        0.875283    0.005676   -0.319616
     15          1           0        0.696575    0.020737   -1.399165
 ---------------------------------------------------------------------

 SCF Done:  E(RHF) =  -555.906729241     A.U. after    2 cycles

 The electronic state is 1-A.
 Alpha  occ. eigenvalues --  -75.67850 -13.13942 -13.07521 -13.01284 -11.42537
 Alpha  occ. eigenvalues --  -11.40339 -11.38402 -11.35222  -8.01706  -1.28444
 Alpha  occ. eigenvalues --   -1.11911  -1.00360  -0.94480  -0.80782  -0.65072
 Alpha  occ. eigenvalues --   -0.61085  -0.59150  -0.55265  -0.53581  -0.51372
 Alpha  occ. eigenvalues --   -0.46304  -0.45028  -0.42843  -0.37022  -0.23337
 Alpha virt. eigenvalues --    0.03544   0.04396   0.05517   0.05804   0.05971
 Alpha virt. eigenvalues --    0.06196   0.06464   0.06894   0.06989   0.09107
 Alpha virt. eigenvalues --    0.11047   0.13037   0.13194   0.13784   0.15364

 Mulliken charges:
               1
     1  C   -3.910332
     2  H    1.381536
     3  H    1.272473
     4  H    1.249850
     5  S   -0.497277
     6  H    0.868232
     7  C   -3.831931
     8  H    1.259916
     9  H    1.247286
    10  H    1.312542
    11  C   -3.513501
    12  H    1.354410
    13  H    1.468788
    14  C   -1.386640
    15  H    1.724648
 Sum of Mulliken charges =  -0.00000

 Dipole moment (field-independent basis, Debye):
    X=              0.8891    Y=              0.5646    Z=             -0.4353  Tot=              1.1396

 Test job not archived.
 1\1\GINC-SE208\SP\RHF\Aug-CC-pVDZ\C4H10S1\OHZDE\06-Apr-2025\0\\#t hf a
 ug-cc-pvdz iop(5/13=1,5/36=2,99/5=2) pseudo=read geom=check guess=(rea
 d,tcheck) scf=(maxcycle=1)\\title\\0,1\C,0,1.015957,1.451343,0.163935\
 H,0,0.123868,2.04069,-0.046686\H,0,1.188253,1.483529,1.242634\H,0,1.86
 1449,1.938979,-0.323138\S,0,-1.912944,0.066947,-0.125366\H,0,-2.706994
 ,-0.873776,0.415091\C,0,2.163432,-0.784591,-0.063963\H,0,2.089609,-1.8
 05448,-0.442007\H,0,3.013177,-0.307136,-0.553827\H,0,2.384593,-0.83720
 8,1.004776\C,0,-0.305593,-0.718329,0.333908\H,0,-0.334382,-1.754724,0.

 Normal termination of Gaussian 16 at Sun Apr  6 08:03:13 2025.
