 Gaussian 16, Revision C.01,

 ----------------------------------------------------------------------
 #t hf aug-cc-pvdz symm=none int=(grid=ultrafine) guess=(read,tcheck) s
 table=(opt,rrhf)
 ----------------------------------------------------------------------
 -----
 title
 -----
 Symbolic Z-matrix:
 Charge =  0 Multiplicity = 1

 SCF Done:  E(RHF) =  -704.516524495     A.U. after   13 cycles
 Normal termination of Gaussian 16 at Sun Apr  6 08:03:27 2025.
 Gaussian 16:  ES64L-G16RevC.01  3-Jul-2019

 ----------------------------------------------------------------------
 #t hf aug-cc-pvdz iop(5/13=1,5/36=2,99/5=2) pseudo=read geom=check gue
 ss=(read,tcheck) scf=(maxcycle=1)
 ----------------------------------------------------------------------
 -----
 title
 -----
 Structure from the checkpoint file:  "2-methylsulphonylpropane.chk"
 Charge =  0 Multiplicity = 1

                         Standard orientation:
 ---------------------------------------------------------------------
 Center     Atomic      Atomic             Coordinates (Angstroms)
 Number     Number       Type             X           Y           Z
 ---------------------------------------------------------------------
      1          6           0        1.914502   -1.078827   -0.104407
      2          6           0        1.061527    0.128342   -0.489304
      3          6           0        1.601028    1.440504    0.068529
      4         16           0       -0.649449   -0.198934    0.095737
      5          6           0       -1.646361    1.149605   -0.566671
      6          8           0       -1.109835   -1.428241   -0.547411
      7          8           0       -0.671628   -0.094970    1.553917
      8          1           0        1.500968   -2.001807   -0.504676
      9          1           0        2.919668   -0.945748   -0.505540
     10          1           0        1.988659   -1.170348    0.978888
     11          1           0        0.955561    0.177066   -1.574814
     12          1           0        2.625980    1.581977   -0.276903
     13          1           0        1.023347    2.303886   -0.259803
     14          1           0        1.607003    1.421611    1.157570
     15          1           0       -1.554403    1.165976   -1.649467
     16          1           0       -2.667243    0.908254   -0.279320
     17          1           0       -1.340835    2.090018   -0.118649
 ---------------------------------------------------------------------

 SCF Done:  E(RHF) =  -706.234550950     A.U. after    2 cycles

 The electronic state is 1-A.
 Alpha  occ. eigenvalues --  -75.86934 -21.03112 -21.03038 -13.48400 -13.39209
 Alpha  occ. eigenvalues --  -13.33797 -11.45330 -11.42567 -11.40743 -11.38373
 Alpha  occ. eigenvalues --   -8.21928  -1.80976  -1.63321  -1.26775  -1.13586
 Alpha  occ. eigenvalues --   -1.03132  -0.95380  -0.82159  -0.67812  -0.65537
 Alpha  occ. eigenvalues --   -0.63140  -0.61152  -0.59360  -0.56540  -0.54341
 Alpha  occ. eigenvalues --   -0.50875  -0.49839  -0.48685  -0.41982  -0.37882
 Alpha  occ. eigenvalues --   -0.37015  -0.33740  -0.33455
 Alpha virt. eigenvalues --    0.02813   0.04079   0.04783   0.05089   0.05974
 Alpha virt. eigenvalues --    0.06496   0.06637   0.07391   0.08010   0.08888
 Alpha virt. eigenvalues --    0.11563   0.11852   0.12966   0.13368   0.13932

 Mulliken charges:
               1
     1  C   -3.639395
     2  C   -3.120095
     3  C   -3.728284
     4  S    6.774011
     5  C   -4.855223
     6  O   -2.573170
     7  O   -2.599390
     8  H    1.300696
     9  H    1.209555
    10  H    1.377189
    11  H    1.806518
    12  H    1.190582
    13  H    1.328898
    14  H    1.372244
    15  H    1.304615
    16  H    1.314187
    17  H    1.537061
 Sum of Mulliken charges =  -0.00000

 Dipole moment (field-independent basis, Debye):
    X=              1.2099    Y=              1.7195    Z=             -1.2345  Tot=              2.4382

 Test job not archived.
 1\1\GINC-SE270\SP\RHF\Aug-CC-pVDZ\C4H10O2S1\OHZDE\06-Apr-2025\0\\#t hf
  aug-cc-pvdz iop(5/13=1,5/36=2,99/5=2) pseudo=read geom=check guess=(r
 ead,tcheck) scf=(maxcycle=1)\\title\\0,1\C,0,1.914502,-1.078827,-0.104
 407\C,0,1.061527,0.128342,-0.489304\C,0,1.601028,1.440504,0.068529\S,0
 ,-0.649449,-0.198934,0.095737\C,0,-1.646361,1.149604,-0.566671\O,0,-1.
 109835,-1.428241,-0.547411\O,0,-0.671628,-0.09497,1.553917\H,0,1.50096
 8,-2.001807,-0.504676\H,0,2.919668,-0.945747,-0.50554\H,0,1.988659,-1.
 170348,0.978888\H,0,0.955561,0.177066,-1.574814\H,0,2.625979,1.581977,

 Normal termination of Gaussian 16 at Sun Apr  6 08:03:34 2025.
