 Gaussian 16, Revision C.01,

 ----------------------------------------------------------------------
 #t hf aug-cc-pvdz symm=none int=(grid=ultrafine) guess=(read,tcheck) s
 table=(opt,rrhf)
 ----------------------------------------------------------------------
 -----
 title
 -----
 Symbolic Z-matrix:
 Charge =  0 Multiplicity = 1

 SCF Done:  E(RHF) =  -231.017228773     A.U. after   14 cycles
 Normal termination of Gaussian 16 at Sun Apr  6 08:03:00 2025.
 Gaussian 16:  ES64L-G16RevC.01  3-Jul-2019

 ----------------------------------------------------------------------
 #t hf aug-cc-pvdz iop(5/13=1,5/36=2,99/5=2) pseudo=read geom=check gue
 ss=(read,tcheck) scf=(maxcycle=1)
 ----------------------------------------------------------------------
 -----
 title
 -----
 Structure from the checkpoint file:  "2-methylpropanal.chk"
 Charge =  0 Multiplicity = 1

                         Standard orientation:
 ---------------------------------------------------------------------
 Center     Atomic      Atomic             Coordinates (Angstroms)
 Number     Number       Type             X           Y           Z
 ---------------------------------------------------------------------
      1          6           0        0.937510   -0.611838   -0.203807
      2          6           0       -1.492937   -0.871126    0.255516
      3          6           0       -0.484064    1.465272    0.040969
      4          6           0       -0.424750    0.011005   -0.411659
      5          8           0        1.895644   -0.059647    0.273304
      6          1           0        1.010075   -1.671440   -0.531638
      7          1           0       -1.421771   -1.909326   -0.072827
      8          1           0       -2.490925   -0.510469    0.007755
      9          1           0       -1.387988   -0.851505    1.341538
     10          1           0       -1.458921    1.896199   -0.188710
     11          1           0        0.282989    2.063378   -0.448681
     12          1           0       -0.321325    1.543319    1.116354
     13          1           0       -0.591848   -0.042855   -1.496335
 ---------------------------------------------------------------------

 SCF Done:  E(RHF) =  -232.111571240     A.U. after    2 cycles

 The electronic state is 1-A.
 Alpha  occ. eigenvalues --  -21.06090 -11.48105 -11.42293 -11.39339 -11.36474
 Alpha  occ. eigenvalues --   -1.70854  -1.24274  -1.01516  -0.93447  -0.78010
 Alpha  occ. eigenvalues --   -0.67336  -0.61992  -0.58148  -0.54806  -0.53172
 Alpha  occ. eigenvalues --   -0.49398  -0.48234  -0.45729  -0.41715  -0.28877
 Alpha virt. eigenvalues --    0.03507   0.05292   0.05432   0.05604   0.06070
 Alpha virt. eigenvalues --    0.06535   0.07051   0.07612   0.10969   0.12748
 Alpha virt. eigenvalues --    0.12813   0.13759   0.14275   0.15060   0.15686

 Mulliken charges:
               1
     1  C    1.894372
     2  C   -3.384553
     3  C   -3.616195
     4  C   -2.738463
     5  O   -2.856317
     6  H    1.437832
     7  H    1.263368
     8  H    1.255794
     9  H    1.381738
    10  H    1.215040
    11  H    1.214350
    12  H    1.288254
    13  H    1.644779
 Sum of Mulliken charges =  -0.00000

 Dipole moment (field-independent basis, Debye):
    X=             -1.3533    Y=             -0.1816    Z=             -0.4703  Tot=              1.4442

 Test job not archived.
 1\1\GINC-SE388\SP\RHF\Aug-CC-pVDZ\C4H8O1\OHZDE\06-Apr-2025\0\\#t hf au
 g-cc-pvdz iop(5/13=1,5/36=2,99/5=2) pseudo=read geom=check guess=(read
 ,tcheck) scf=(maxcycle=1)\\title\\0,1\C,0,0.93751,-0.611839,-0.203807\
 C,0,-1.492937,-0.871125,0.255516\C,0,-0.484063,1.465272,0.040969\C,0,-
 0.42475,0.011005,-0.411659\O,0,1.895644,-0.059648,0.273304\H,0,1.01007
 4,-1.671441,-0.531638\H,0,-1.421772,-1.909325,-0.072827\H,0,-2.490925,
 -0.510468,0.007755\H,0,-1.387988,-0.851504,1.341538\H,0,-1.45892,1.896
 2,-0.18871\H,0,0.28299,2.063378,-0.448681\H,0,-0.321324,1.543319,1.116

 Normal termination of Gaussian 16 at Sun Apr  6 08:03:03 2025.
