 Gaussian 16, Revision C.01,

 ----------------------------------------------------------------------
 #t hf aug-cc-pvdz symm=none int=(grid=ultrafine) guess=(read,tcheck) s
 table=(opt,rrhf)
 ----------------------------------------------------------------------
 -----
 title
 -----
 Symbolic Z-matrix:
 Charge =  0 Multiplicity = 1

 SCF Done:  E(RHF) =  -263.894898459     A.U. after   14 cycles
 Normal termination of Gaussian 16 at Sun Apr  6 08:02:58 2025.
 Gaussian 16:  ES64L-G16RevC.01  3-Jul-2019

 ----------------------------------------------------------------------
 #t hf aug-cc-pvdz iop(5/13=1,5/36=2,99/5=2) pseudo=read geom=check gue
 ss=(read,tcheck) scf=(maxcycle=1)
 ----------------------------------------------------------------------
 -----
 title
 -----
 Structure from the checkpoint file:  "2-methyl-1H-imidazole.chk"
 Charge =  0 Multiplicity = 1

                         Standard orientation:
 ---------------------------------------------------------------------
 Center     Atomic      Atomic             Coordinates (Angstroms)
 Number     Number       Type             X           Y           Z
 ---------------------------------------------------------------------
      1          6           0       -0.211213    2.098944    0.000000
      2          1           0       -0.763664    2.429115    0.882489
      3          1           0        0.758858    2.588726    0.000000
      4          1           0       -0.763664    2.429115   -0.882489
      5          7           0       -1.022980   -0.282177    0.000000
      6          1           0       -2.004898   -0.069530    0.000000
      7          6           0        0.000000    0.624449    0.000000
      8          7           0        1.160665    0.009381    0.000000
      9          6           0        0.880939   -1.338149    0.000000
     10          1           0        1.664738   -2.075911    0.000000
     11          6           0       -0.467672   -1.544500    0.000000
     12          1           0       -1.067486   -2.436412    0.000000
 ---------------------------------------------------------------------

 SCF Done:  E(RHF) =  -265.140630385     A.U. after    2 cycles

 The electronic state is 1-A'.
 Alpha  occ. eigenvalues --  -15.78929 -15.70458 -11.44838 -11.43082 -11.38421
 Alpha  occ. eigenvalues --  -11.36663  -1.55771  -1.25975  -1.14448  -1.00178
 Alpha  occ. eigenvalues --   -0.83413  -0.79354  -0.71573  -0.62109  -0.59052
 Alpha  occ. eigenvalues --   -0.55600  -0.54387  -0.51992  -0.50098  -0.37680
 Alpha  occ. eigenvalues --   -0.36166  -0.29390
 Alpha virt. eigenvalues --    0.03218   0.04729   0.05517   0.05963   0.06124
 Alpha virt. eigenvalues --    0.07251   0.09941   0.11710   0.12073   0.12477
 Alpha virt. eigenvalues --    0.13114   0.13840   0.14688   0.15199   0.15863

 Mulliken charges:
               1
     1  C   -4.455596
     2  H    1.184044
     3  H    1.251356
     4  H    1.184044
     5  N   -3.377515
     6  H    0.805010
     7  C    4.383126
     8  N   -3.628862
     9  C    0.357967
    10  H    1.320581
    11  C   -0.180220
    12  H    1.156065
 Sum of Mulliken charges =   0.00000

 Dipole moment (field-independent basis, Debye):
    X=             -3.3657    Y=              0.1975    Z=             -0.0000  Tot=              3.3715

 Test job not archived.
 1\1\GINC-SE223\SP\RHF\Aug-CC-pVDZ\C4H6N2\OHZDE\06-Apr-2025\0\\#t hf au
 g-cc-pvdz iop(5/13=1,5/36=2,99/5=2) pseudo=read geom=check guess=(read
 ,tcheck) scf=(maxcycle=1)\\title\\0,1\C,0,-0.211213,2.098944,0.\H,0,-0
 .763664,2.429115,0.882489\H,0,0.758858,2.588726,0.\H,0,-0.763664,2.429
 115,-0.882489\N,0,-1.02298,-0.282177,0.\H,0,-2.004898,-0.06953,0.\C,0,
 0.,0.624449,0.\N,0,1.160665,0.009381,0.\C,0,0.880939,-1.338149,0.\H,0,
 1.664738,-2.075911,0.\C,0,-0.467672,-1.5445,0.\H,0,-1.067486,-2.436412
 ,0.\\Version=ES64L-G16RevC.01\State=1-A'\HF=-265.1406304\RMSD=5.158e-0

 Normal termination of Gaussian 16 at Sun Apr  6 08:03:05 2025.
