 Gaussian 16, Revision C.01,

 ----------------------------------------------------------------------
 #t hf aug-cc-pvdz symm=none int=(grid=ultrafine) guess=(read,tcheck) s
 table=(opt,rrhf)
 ----------------------------------------------------------------------
 -----
 title
 -----
 Symbolic Z-matrix:
 Charge =  0 Multiplicity = 1

 SCF Done:  E(RHF) =  -212.349709747     A.U. after   12 cycles

 1\1\GINC-SE047\Stability\RHF\Aug-CC-pVDZ\C4H11N1\OHZDE\06-Apr-2025\0\\
 #t hf aug-cc-pvdz symm=none int=(grid=ultrafine) guess=(read,tcheck) s
 table=(opt,rrhf)\\title\\0,1\N,0,-2.017293,-0.02783,-0.195165\H,0,-2.8
 20908,-0.592269,0.048212\H,0,-2.147266,0.872192,0.248999\C,0,-0.776018
 ,-0.669821,0.249843\H,0,-0.672045,-0.698833,1.345476\H,0,-0.809076,-1.
 707432,-0.088935\C,0,1.722505,-0.804982,0.017003\H,0,1.877218,-0.83259
 9,1.098733\H,0,1.649672,-1.835748,-0.334919\H,0,2.613446,-0.362479,-0.
 430967\C,0,0.606424,1.454776,0.111148\H,0,1.501894,1.911846,-0.313053\

 Normal termination of Gaussian 16 at Sun Apr  6 08:03:06 2025.
 Gaussian 16:  ES64L-G16RevC.01  3-Jul-2019

 ----------------------------------------------------------------------
 #t hf aug-cc-pvdz iop(5/13=1,5/36=2,99/5=2) pseudo=read geom=check gue
 ss=(read,tcheck) scf=(maxcycle=1)
 ----------------------------------------------------------------------
 -----
 title
 -----
 Structure from the checkpoint file:  "2-methyl-1-propanamine.chk"
 Charge =  0 Multiplicity = 1

                         Standard orientation:
 ---------------------------------------------------------------------
 Center     Atomic      Atomic             Coordinates (Angstroms)
 Number     Number       Type             X           Y           Z
 ---------------------------------------------------------------------
      1          7           0       -2.017293   -0.027830   -0.195165
      2          1           0       -2.820908   -0.592269    0.048212
      3          1           0       -2.147266    0.872192    0.248999
      4          6           0       -0.776018   -0.669821    0.249843
      5          1           0       -0.672045   -0.698833    1.345476
      6          1           0       -0.809076   -1.707432   -0.088935
      7          6           0        1.722505   -0.804982    0.017003
      8          1           0        1.877218   -0.832599    1.098733
      9          1           0        1.649672   -1.835748   -0.334919
     10          1           0        2.613446   -0.362479   -0.430967
     11          6           0        0.606424    1.454776    0.111148
     12          1           0        1.501894    1.911846   -0.313053
     13          1           0       -0.244796    2.059218   -0.204351
     14          1           0        0.687235    1.520067    1.200032
     15          6           0        0.469897   -0.001587   -0.340529
     16          1           0        0.348831   -0.009471   -1.427859
 ---------------------------------------------------------------------

 SCF Done:  E(RHF) =  -213.446554513     A.U. after    2 cycles

 The electronic state is 1-A.
 Alpha  occ. eigenvalues --  -15.72269 -11.41748 -11.39279 -11.37597 -11.33912
 Alpha  occ. eigenvalues --   -1.34360  -1.19046  -0.99711  -0.94880  -0.79764
 Alpha  occ. eigenvalues --   -0.66766  -0.63300  -0.58815  -0.57353  -0.54560
 Alpha  occ. eigenvalues --   -0.53004  -0.50487  -0.44724  -0.42898  -0.42365
 Alpha  occ. eigenvalues --   -0.34339
 Alpha virt. eigenvalues --    0.04179   0.05258   0.05883   0.05912   0.05992
 Alpha virt. eigenvalues --    0.06167   0.06550   0.06771   0.07067   0.09088
 Alpha virt. eigenvalues --    0.09724   0.13520   0.13887   0.14567   0.15304

 Mulliken charges:
               1
     1  N   -2.466093
     2  H    0.543800
     3  H    0.615846
     4  C   -1.818838
     5  H    1.477530
     6  H    1.477007
     7  C   -3.667287
     8  H    1.288918
     9  H    1.241879
    10  H    1.252935
    11  C   -3.728031
    12  H    1.251190
    13  H    1.333432
    14  H    1.290704
    15  C   -1.839931
    16  H    1.746938
 Sum of Mulliken charges =  -0.00000

 Dipole moment (field-independent basis, Debye):
    X=             -0.2245    Y=             -0.1155    Z=              0.7624  Tot=              0.8031

 Test job not archived.
 1\1\GINC-SE047\SP\RHF\Aug-CC-pVDZ\C4H11N1\OHZDE\06-Apr-2025\0\\#t hf a
 ug-cc-pvdz iop(5/13=1,5/36=2,99/5=2) pseudo=read geom=check guess=(rea
 d,tcheck) scf=(maxcycle=1)\\title\\0,1\N,0,-2.017293,-0.02783,-0.19516
 5\H,0,-2.820908,-0.592269,0.048212\H,0,-2.147266,0.872192,0.248999\C,0
 ,-0.776018,-0.669821,0.249843\H,0,-0.672045,-0.698833,1.345476\H,0,-0.
 809076,-1.707432,-0.088935\C,0,1.722505,-0.804982,0.017003\H,0,1.87721
 8,-0.832599,1.098733\H,0,1.649672,-1.835748,-0.334919\H,0,2.613446,-0.
 362479,-0.430967\C,0,0.606424,1.454776,0.111148\H,0,1.501894,1.911846,

 Normal termination of Gaussian 16 at Sun Apr  6 08:03:11 2025.
