 Gaussian 16, Revision C.01,

 ----------------------------------------------------------------------
 #t hf aug-cc-pvdz symm=none int=(grid=ultrafine) guess=(read,tcheck) s
 table=(opt,rrhf)
 ----------------------------------------------------------------------
 -----
 title
 -----
 Symbolic Z-matrix:
 Charge =  0 Multiplicity = 1

 SCF Done:  E(RHF) =  -286.090245833     A.U. after   13 cycles
 Normal termination of Gaussian 16 at Sun Apr  6 08:03:08 2025.
 Gaussian 16:  ES64L-G16RevC.01  3-Jul-2019

 ----------------------------------------------------------------------
 #t hf aug-cc-pvdz iop(5/13=1,5/36=2,99/5=2) pseudo=read geom=check gue
 ss=(read,tcheck) scf=(maxcycle=1)
 ----------------------------------------------------------------------
 -----
 title
 -----
 Structure from the checkpoint file:  "2-methylpropanamide.chk"
 Charge =  0 Multiplicity = 1

                         Standard orientation:
 ---------------------------------------------------------------------
 Center     Atomic      Atomic             Coordinates (Angstroms)
 Number     Number       Type             X           Y           Z
 ---------------------------------------------------------------------
      1          6           0        1.353431    1.270810    0.013760
      2          1           0        0.841398    2.180726   -0.302096
      3          1           0        1.417446    1.279075    1.101271
      4          1           0        2.364879    1.292140   -0.393745
      5          6           0        1.362786   -1.262502   -0.056829
      6          1           0        0.858541   -2.157090   -0.424699
      7          1           0        1.425064   -1.331889    1.028585
      8          6           0        0.615424    0.013505   -0.461515
      9          1           0        0.538032    0.043857   -1.552099
     10          7           0       -1.818851    0.026866   -0.759937
     11          1           0       -2.762329    0.014931   -0.411347
     12          1           0       -1.665858    0.059091   -1.750368
     13          6           0       -0.791440   -0.007396    0.135988
     14          8           0       -0.987670   -0.050347    1.337337
     15          1           0        2.374939   -1.252626   -0.463060
 ---------------------------------------------------------------------

 SCF Done:  E(RHF) =  -287.440610449     A.U. after    2 cycles

 The electronic state is 1-A.
 Alpha  occ. eigenvalues --  -21.01526 -15.77787 -11.50644 -11.42389 -11.38552
 Alpha  occ. eigenvalues --  -11.36198  -1.69792  -1.34814  -1.21841  -1.00759
 Alpha  occ. eigenvalues --   -0.91613  -0.77416  -0.70576  -0.67120  -0.60290
 Alpha  occ. eigenvalues --   -0.58457  -0.54057  -0.52558  -0.51109  -0.46482
 Alpha  occ. eigenvalues --   -0.45424  -0.44515  -0.31826  -0.27860
 Alpha virt. eigenvalues --    0.03456   0.04760   0.05216   0.05592   0.05804
 Alpha virt. eigenvalues --    0.06658   0.07056   0.07869   0.08063   0.11820
 Alpha virt. eigenvalues --    0.12933   0.13076   0.14101   0.15033   0.15160

 Mulliken charges:
               1
     1  C   -3.879355
     2  H    1.240689
     3  H    1.364239
     4  H    1.233106
     5  C   -3.874996
     6  H    1.240405
     7  H    1.367000
     8  C   -2.278111
     9  H    1.780305
    10  N   -3.316032
    11  H    0.734584
    12  H    0.696394
    13  C    5.827060
    14  O   -3.366143
    15  H    1.230855
 Sum of Mulliken charges =  -0.00000

 Dipole moment (field-independent basis, Debye):
    X=             -0.1998    Y=              0.0851    Z=             -2.4313  Tot=              2.4410

 Test job not archived.
 1\1\GINC-SE388\SP\RHF\Aug-CC-pVDZ\C4H9N1O1\OHZDE\06-Apr-2025\0\\#t hf
 aug-cc-pvdz iop(5/13=1,5/36=2,99/5=2) pseudo=read geom=check guess=(re
 ad,tcheck) scf=(maxcycle=1)\\title\\0,1\C,0,1.353431,1.27081,0.01376\H
 ,0,0.841398,2.180726,-0.302096\H,0,1.417446,1.279075,1.101271\H,0,2.36
 4879,1.29214,-0.393745\C,0,1.362786,-1.262502,-0.056829\H,0,0.858541,-
 2.15709,-0.424699\H,0,1.425064,-1.331889,1.028585\C,0,0.615424,0.01350
 5,-0.461515\H,0,0.538032,0.043857,-1.552099\N,0,-1.818851,0.026866,-0.
 759937\H,0,-2.762329,0.014931,-0.411347\H,0,-1.665858,0.059091,-1.7503

 Normal termination of Gaussian 16 at Sun Apr  6 08:03:12 2025.
