 Gaussian 16, Revision C.01,

 ----------------------------------------------------------------------
 #t hf aug-cc-pvdz symm=none int=(grid=ultrafine) guess=(read,tcheck) s
 table=(opt,rrhf)
 ----------------------------------------------------------------------
 -----
 title
 -----
 Symbolic Z-matrix:
 Charge =  0 Multiplicity = 1

 SCF Done:  E(RHF) =  -271.227431174     A.U. after   12 cycles

 1\1\GINC-SE012\Stability\RHF\Aug-CC-pVDZ\C5H12O1\OHZDE\06-Apr-2025\0\\
 #t hf aug-cc-pvdz symm=none int=(grid=ultrafine) guess=(read,tcheck) s
 table=(opt,rrhf)\\title\\0,1\C,0,-2.165229,-0.019777,-0.016641\C,0,0.5
 34517,1.417395,-0.549756\C,0,1.641044,-0.836748,-0.424661\C,0,-0.86497
 5,-0.71006,-0.425335\C,0,0.429999,-0.005131,0.007651\O,0,0.376349,0.04
 3462,1.448394\H,0,-3.021673,-0.639001,-0.286612\H,0,-2.292415,0.942994
 ,-0.512746\H,0,-2.195466,0.147199,1.059086\H,0,0.507717,1.416045,-1.64
 0747\H,0,-0.278903,2.041128,-0.183517\H,0,1.4768,1.877169,-0.242684\H,

 Normal termination of Gaussian 16 at Sun Apr  6 08:03:23 2025.
 Gaussian 16:  ES64L-G16RevC.01  3-Jul-2019

 ----------------------------------------------------------------------
 #t hf aug-cc-pvdz iop(5/13=1,5/36=2,99/5=2) pseudo=read geom=check gue
 ss=(read,tcheck) scf=(maxcycle=1)
 ----------------------------------------------------------------------
 -----
 title
 -----
 Structure from the checkpoint file:  "2-methyl-2-butanol.chk"
 Charge =  0 Multiplicity = 1

                         Standard orientation:
 ---------------------------------------------------------------------
 Center     Atomic      Atomic             Coordinates (Angstroms)
 Number     Number       Type             X           Y           Z
 ---------------------------------------------------------------------
      1          6           0       -2.165229   -0.019777   -0.016641
      2          6           0        0.534517    1.417395   -0.549756
      3          6           0        1.641044   -0.836748   -0.424661
      4          6           0       -0.864975   -0.710060   -0.425335
      5          6           0        0.429999   -0.005131    0.007651
      6          8           0        0.376349    0.043462    1.448394
      7          1           0       -3.021673   -0.639001   -0.286612
      8          1           0       -2.292415    0.942994   -0.512746
      9          1           0       -2.195466    0.147199    1.059086
     10          1           0        0.507717    1.416045   -1.640747
     11          1           0       -0.278903    2.041128   -0.183517
     12          1           0        1.476800    1.877169   -0.242684
     13          1           0        1.695208   -0.921627   -1.511210
     14          1           0        2.569524   -0.374559   -0.081065
     15          1           0        1.582438   -1.839278   -0.001025
     16          1           0       -0.835262   -0.834371   -1.510827
     17          1           0       -0.842950   -1.714358    0.004098
     18          1           0        1.172045    0.476886    1.772546
 ---------------------------------------------------------------------

 SCF Done:  E(RHF) =  -272.570919321     A.U. after    2 cycles

 The electronic state is 1-A.
 Alpha  occ. eigenvalues --  -21.05362 -11.44651 -11.40836 -11.39083 -11.36674
 Alpha  occ. eigenvalues --  -11.34189  -1.70588  -1.22190  -1.08854  -1.01249
 Alpha  occ. eigenvalues --   -0.91077  -0.77635  -0.65040  -0.62944  -0.59793
 Alpha  occ. eigenvalues --   -0.57663  -0.54782  -0.53434  -0.52664  -0.49660
 Alpha  occ. eigenvalues --   -0.47163  -0.44184  -0.41773  -0.37718  -0.30718
 Alpha virt. eigenvalues --    0.03896   0.05238   0.05290   0.05502   0.05664
 Alpha virt. eigenvalues --    0.05919   0.06148   0.06645   0.07323   0.09063
 Alpha virt. eigenvalues --    0.09312   0.09500   0.13135   0.13384   0.13871

 Mulliken charges:
               1
     1  C   -3.840204
     2  C   -4.487372
     3  C   -4.766241
     4  C   -3.760144
     5  C    6.042585
     6  O   -3.830224
     7  H    1.032768
     8  H    1.411023
     9  H    1.324371
    10  H    1.192394
    11  H    1.343214
    12  H    1.181598
    13  H    1.226223
    14  H    1.172722
    15  H    1.224783
    16  H    1.371765
    17  H    1.384986
    18  H    0.775753
 Sum of Mulliken charges =   0.00000

 Dipole moment (field-independent basis, Debye):
    X=              0.3238    Y=              0.1503    Z=             -0.3419  Tot=              0.4943

 Test job not archived.
 1\1\GINC-SE012\SP\RHF\Aug-CC-pVDZ\C5H12O1\OHZDE\06-Apr-2025\0\\#t hf a
 ug-cc-pvdz iop(5/13=1,5/36=2,99/5=2) pseudo=read geom=check guess=(rea
 d,tcheck) scf=(maxcycle=1)\\title\\0,1\C,0,-2.165229,-0.019777,-0.0166
 41\C,0,0.534517,1.417395,-0.549756\C,0,1.641044,-0.836748,-0.424661\C,
 0,-0.864975,-0.71006,-0.425335\C,0,0.429999,-0.005131,0.007651\O,0,0.3
 76349,0.043462,1.448394\H,0,-3.021673,-0.639001,-0.286612\H,0,-2.29241
 5,0.942994,-0.512746\H,0,-2.195466,0.147199,1.059086\H,0,0.507717,1.41
 6045,-1.640747\H,0,-0.278903,2.041128,-0.183517\H,0,1.4768,1.877169,-0

 Normal termination of Gaussian 16 at Sun Apr  6 08:03:30 2025.
