 Gaussian 16, Revision C.01,

 ----------------------------------------------------------------------
 #t hf aug-cc-pvdz symm=none int=(grid=ultrafine) guess=(read,tcheck) s
 table=(opt,rrhf)
 ----------------------------------------------------------------------
 -----
 title
 -----
 Symbolic Z-matrix:
 Charge =  0 Multiplicity = 1

 SCF Done:  E(RHF) =  -289.261802209     A.U. after   12 cycles

 1\1\GINC-SE275\Stability\RHF\Aug-CC-pVDZ\C6H13N1\OHZDE\06-Apr-2025\0\\
 #t hf aug-cc-pvdz symm=none int=(grid=ultrafine) guess=(read,tcheck) s
 table=(opt,rrhf)\\title\\0,1\C,0,-1.876724,-0.056528,0.292117\C,0,-1.2
 20756,1.238754,-0.193233\C,0,0.269212,1.266716,0.162963\C,0,0.99315,0.
 003566,-0.331778\N,0,0.336494,-1.236054,0.10124\C,0,-1.09353,-1.276574
 ,-0.20657\C,0,2.45808,-0.02292,0.084158\H,0,-2.914516,-0.113656,-0.046
 636\H,0,-1.90032,-0.067386,1.38704\H,0,-1.33115,1.311007,-1.280554\H,0
 ,-1.729106,2.108897,0.227207\H,0,0.744092,2.1563,-0.259637\H,0,0.38553

 Normal termination of Gaussian 16 at Sun Apr  6 08:03:36 2025.
 Gaussian 16:  ES64L-G16RevC.01  3-Jul-2019

 ----------------------------------------------------------------------
 #t hf aug-cc-pvdz iop(5/13=1,5/36=2,99/5=2) pseudo=read geom=check gue
 ss=(read,tcheck) scf=(maxcycle=1)
 ----------------------------------------------------------------------
 -----
 title
 -----
 Structure from the checkpoint file:  "2-methylpiperidine.chk"
 Charge =  0 Multiplicity = 1

                         Standard orientation:
 ---------------------------------------------------------------------
 Center     Atomic      Atomic             Coordinates (Angstroms)
 Number     Number       Type             X           Y           Z
 ---------------------------------------------------------------------
      1          6           0       -1.876724   -0.056528    0.292117
      2          6           0       -1.220756    1.238754   -0.193233
      3          6           0        0.269212    1.266716    0.162963
      4          6           0        0.993150    0.003566   -0.331778
      5          7           0        0.336494   -1.236054    0.101240
      6          6           0       -1.093530   -1.276574   -0.206570
      7          6           0        2.458080   -0.022920    0.084158
      8          1           0       -2.914516   -0.113656   -0.046636
      9          1           0       -1.900320   -0.067386    1.387040
     10          1           0       -1.331150    1.311007   -1.280554
     11          1           0       -1.729106    2.108897    0.227207
     12          1           0        0.744092    2.156300   -0.259637
     13          1           0        0.385539    1.333833    1.250920
     14          1           0        0.947191    0.002171   -1.427861
     15          1           0        0.478094   -1.362314    1.097987
     16          1           0       -1.506343   -2.198011    0.207370
     17          1           0       -1.194856   -1.349044   -1.294590
     18          1           0        2.954195   -0.908747   -0.311642
     19          1           0        2.551510   -0.040360    1.173496
     20          1           0        2.983619    0.861609   -0.277729
 ---------------------------------------------------------------------

 SCF Done:  E(RHF) =  -290.736143998     A.U. after    2 cycles

 The electronic state is 1-A.
 Alpha  occ. eigenvalues --  -15.70080 -11.44098 -11.42205 -11.40635 -11.38416
 Alpha  occ. eigenvalues --  -11.35800 -11.33812  -1.41263  -1.17875  -1.15289
 Alpha  occ. eigenvalues --   -1.00455  -0.90563  -0.85784  -0.79723  -0.65498
 Alpha  occ. eigenvalues --   -0.62669  -0.62049  -0.60468  -0.56869  -0.53777
 Alpha  occ. eigenvalues --   -0.50538  -0.48823  -0.47857  -0.46246  -0.45071
 Alpha  occ. eigenvalues --   -0.43631  -0.39624  -0.29516
 Alpha virt. eigenvalues --    0.04449   0.05210   0.05461   0.05556   0.05706
 Alpha virt. eigenvalues --    0.05770   0.05973   0.06379   0.06515   0.08328
 Alpha virt. eigenvalues --    0.08592   0.08808   0.09098   0.12690   0.13092

 Mulliken charges:
               1
     1  C   -2.438663
     2  C   -2.835748
     3  C   -2.539121
     4  C   -0.025542
     5  N   -2.499846
     6  C   -2.492992
     7  C   -4.136849
     8  H    1.273367
     9  H    1.364740
    10  H    1.417452
    11  H    1.212324
    12  H    1.341306
    13  H    1.439089
    14  H    1.905490
    15  H    0.524564
    16  H    1.298595
    17  H    1.494856
    18  H    1.172132
    19  H    1.314765
    20  H    1.210082
 Sum of Mulliken charges =  -0.00000

 Dipole moment (field-independent basis, Debye):
    X=             -0.4220    Y=              0.5013    Z=              0.3322  Tot=              0.7347

 Test job not archived.
 1\1\GINC-SE275\SP\RHF\Aug-CC-pVDZ\C6H13N1\OHZDE\06-Apr-2025\0\\#t hf a
 ug-cc-pvdz iop(5/13=1,5/36=2,99/5=2) pseudo=read geom=check guess=(rea
 d,tcheck) scf=(maxcycle=1)\\title\\0,1\C,0,-1.876724,-0.056528,0.29211
 7\C,0,-1.220756,1.238754,-0.193233\C,0,0.269212,1.266716,0.162963\C,0,
 0.99315,0.003566,-0.331778\N,0,0.336494,-1.236054,0.10124\C,0,-1.09353
 ,-1.276574,-0.20657\C,0,2.45808,-0.02292,0.084158\H,0,-2.914516,-0.113
 656,-0.046636\H,0,-1.90032,-0.067386,1.38704\H,0,-1.33115,1.311007,-1.
 280554\H,0,-1.729106,2.108897,0.227207\H,0,0.744092,2.1563,-0.259637\H

 Normal termination of Gaussian 16 at Sun Apr  6 08:03:44 2025.
