 Gaussian 16, Revision C.01,

 ----------------------------------------------------------------------
 #t hf aug-cc-pvdz symm=none int=(grid=ultrafine) guess=(read,tcheck) s
 table=(opt,rrhf)
 ----------------------------------------------------------------------
 -----
 title
 -----
 Symbolic Z-matrix:
 Charge =  0 Multiplicity = 1

 SCF Done:  E(RHF) =  -156.129603611     A.U. after   12 cycles
 Normal termination of Gaussian 16 at Sun Apr  6 08:02:52 2025.
 Gaussian 16:  ES64L-G16RevC.01  3-Jul-2019

 ----------------------------------------------------------------------
 #t hf aug-cc-pvdz iop(5/13=1,5/36=2,99/5=2) pseudo=read geom=check gue
 ss=(read,tcheck) scf=(maxcycle=1)
 ----------------------------------------------------------------------
 -----
 title
 -----
 Structure from the checkpoint file:  "2-methyl-1-propene.chk"
 Charge =  0 Multiplicity = 1

                         Standard orientation:
 ---------------------------------------------------------------------
 Center     Atomic      Atomic             Coordinates (Angstroms)
 Number     Number       Type             X           Y           Z
 ---------------------------------------------------------------------
      1          6           0        0.000000   -0.000000    1.454540
      2          6           0        0.000000   -0.000000    0.123825
      3          6           0        0.000000    1.272551   -0.676777
      4          6           0       -0.000000   -1.272551   -0.676777
      5          1           0        0.000000   -0.922142    2.021334
      6          1           0        0.000000    0.922142    2.021334
      7          1           0        0.876282    1.321528   -1.329331
      8          1           0       -0.876282    1.321528   -1.329331
      9          1           0        0.000000    2.153807   -0.037106
     10          1           0       -0.876282   -1.321528   -1.329331
     11          1           0        0.876282   -1.321528   -1.329331
     12          1           0       -0.000000   -2.153807   -0.037106
 ---------------------------------------------------------------------

 SCF Done:  E(RHF) =  -156.938336435     A.U. after    2 cycles

 The electronic state is 1-A1.
 Alpha  occ. eigenvalues --  -11.40952 -11.37792 -11.37385 -11.34949  -1.24361
 Alpha  occ. eigenvalues --   -1.00957  -0.98159  -0.74567  -0.61765  -0.59992
 Alpha  occ. eigenvalues --   -0.58880  -0.53159  -0.51624  -0.47865  -0.44307
 Alpha  occ. eigenvalues --   -0.32998
 Alpha virt. eigenvalues --    0.03319   0.05611   0.05857   0.06244   0.06379
 Alpha virt. eigenvalues --    0.06400   0.07507   0.09325   0.10843   0.11956
 Alpha virt. eigenvalues --    0.14365   0.14711   0.15215   0.16121   0.16841

 Mulliken charges:
               1
     1  C   -4.168108
     2  C    2.451527
     3  C   -4.408266
     4  C   -4.408266
     5  H    1.571108
     6  H    1.571108
     7  H    1.168236
     8  H    1.168236
     9  H    1.358977
    10  H    1.168236
    11  H    1.168236
    12  H    1.358977
 Sum of Mulliken charges =   0.00000

 Dipole moment (field-independent basis, Debye):
    X=              0.0000    Y=             -0.0000    Z=             -0.4849  Tot=              0.4849

 Test job not archived.
 1\1\GINC-SE222\SP\RHF\Aug-CC-pVDZ\C4H8\OHZDE\06-Apr-2025\0\\#t hf aug-
 cc-pvdz iop(5/13=1,5/36=2,99/5=2) pseudo=read geom=check guess=(read,t
 check) scf=(maxcycle=1)\\title\\0,1\C,0,0.,0.,1.45454\C,0,0.,0.,0.1238
 25\C,0,0.,1.272551,-0.676777\C,0,0.,-1.272551,-0.676777\H,0,0.,-0.9221
 42,2.021334\H,0,0.,0.922142,2.021334\H,0,0.876282,1.321528,-1.329331\H
 ,0,-0.876282,1.321528,-1.329331\H,0,0.,2.153807,-0.037106\H,0,-0.87628
 2,-1.321528,-1.329331\H,0,0.876282,-1.321528,-1.329331\H,0,0.,-2.15380
 7,-0.037106\\Version=ES64L-G16RevC.01\State=1-A1\HF=-156.9383364\RMSD=

 Normal termination of Gaussian 16 at Sun Apr  6 08:02:54 2025.
