 Gaussian 16, Revision C.01,

 ----------------------------------------------------------------------
 #t hf aug-cc-pvdz symm=none int=(grid=ultrafine) guess=(read,tcheck) s
 table=(opt,rrhf)
 ----------------------------------------------------------------------
 -----
 title
 -----
 Symbolic Z-matrix:
 Charge =  0 Multiplicity = 1

 SCF Done:  E(RHF) =  -399.665034215     A.U. after   16 cycles
 Normal termination of Gaussian 16 at Sun Apr  6 08:03:00 2025.
 Gaussian 16:  ES64L-G16RevC.01  3-Jul-2019

 ----------------------------------------------------------------------
 #t hf aug-cc-pvdz iop(5/13=1,5/36=2,99/5=2) pseudo=read geom=check gue
 ss=(read,tcheck) scf=(maxcycle=1)
 ----------------------------------------------------------------------
 -----
 title
 -----
 Structure from the checkpoint file:  "2-methoxyaniline.chk"
 Charge =  0 Multiplicity = 1

                         Standard orientation:
 ---------------------------------------------------------------------
 Center     Atomic      Atomic             Coordinates (Angstroms)
 Number     Number       Type             X           Y           Z
 ---------------------------------------------------------------------
      1          6           0       -2.271210   -0.667396    0.006455
      2          6           0       -1.340708   -1.693820    0.003564
      3          6           0       -1.847275    0.658049   -0.000251
      4          6           0        0.022067   -1.392654   -0.001131
      5          6           0       -0.492758    0.980526   -0.008667
      6          6           0        0.445302   -0.071805   -0.005646
      7          6           0        2.767671   -0.660845    0.004342
      8          7           0       -0.043263    2.295390   -0.074695
      9          8           0        1.756422    0.332204    0.000731
     10          1           0       -3.329530   -0.889156    0.012129
     11          1           0       -1.659536   -2.726611    0.006451
     12          1           0       -2.575105    1.460127   -0.006553
     13          1           0        0.743830   -2.195462    0.001739
     14          1           0        2.710088   -1.289626   -0.887662
     15          1           0        2.704278   -1.291535    0.894876
     16          1           0        3.714636   -0.127595    0.007528
     17          1           0       -0.670523    2.990656    0.293401
     18          1           0        0.914787    2.431518    0.203116
 ---------------------------------------------------------------------

 SCF Done:  E(RHF) =  -401.538691337     A.U. after    2 cycles

 The electronic state is 1-A.
 Alpha  occ. eigenvalues --  -21.06982 -15.74724 -11.52470 -11.44890 -11.44071
 Alpha  occ. eigenvalues --  -11.41587 -11.40594 -11.39720 -11.35455  -1.78709
 Alpha  occ. eigenvalues --   -1.38680  -1.25773  -1.08270  -1.05692  -0.98565
 Alpha  occ. eigenvalues --   -0.86110  -0.82707  -0.70234  -0.67949  -0.65270
 Alpha  occ. eigenvalues --   -0.62505  -0.62111  -0.57742  -0.57043  -0.53940
 Alpha  occ. eigenvalues --   -0.52554  -0.48102  -0.44159  -0.42514  -0.40507
 Alpha  occ. eigenvalues --   -0.39007  -0.29417  -0.23872
 Alpha virt. eigenvalues --    0.03490   0.04609   0.05306   0.05798   0.06047
 Alpha virt. eigenvalues --    0.06443   0.06993   0.07985   0.08913   0.10940
 Alpha virt. eigenvalues --    0.12431   0.12625   0.13091   0.13881   0.14103

 Mulliken charges:
               1
     1  C   -1.486153
     2  C   -1.141663
     3  C   -1.248654
     4  C   -2.795417
     5  C   -0.110310
     6  C    6.927346
     7  C   -3.643525
     8  N   -3.763406
     9  O   -4.994888
    10  H    1.553539
    11  H    1.554843
    12  H    1.705921
    13  H    1.953249
    14  H    1.325098
    15  H    1.329388
    16  H    1.445492
    17  H    0.587800
    18  H    0.801341
 Sum of Mulliken charges =  -0.00000

 Dipole moment (field-independent basis, Debye):
    X=              1.3487    Y=              0.7326    Z=              0.7153  Tot=              1.6933

 Test job not archived.
 1\1\GINC-SE454\SP\RHF\Aug-CC-pVDZ\C7H9N1O1\OHZDE\06-Apr-2025\0\\#t hf
 aug-cc-pvdz iop(5/13=1,5/36=2,99/5=2) pseudo=read geom=check guess=(re
 ad,tcheck) scf=(maxcycle=1)\\title\\0,1\C,0,-2.27121,-0.667396,0.00645
 5\C,0,-1.340708,-1.69382,0.003564\C,0,-1.847275,0.658049,-0.000251\C,0
 ,0.022067,-1.392654,-0.001131\C,0,-0.492758,0.980526,-0.008667\C,0,0.4
 45302,-0.071805,-0.005646\C,0,2.767671,-0.660845,0.004342\N,0,-0.04326
 3,2.29539,-0.074695\O,0,1.756422,0.332204,0.000731\H,0,-3.32953,-0.889
 156,0.012129\H,0,-1.659536,-2.726611,0.006451\H,0,-2.575105,1.460127,-

 Normal termination of Gaussian 16 at Sun Apr  6 08:03:08 2025.
