 Gaussian 16, Revision C.01,

 ----------------------------------------------------------------------
 #t hf aug-cc-pvdz symm=none int=(grid=ultrafine) guess=(read,tcheck) s
 table=(opt,rrhf)
 ----------------------------------------------------------------------
 -----
 title
 -----
 Symbolic Z-matrix:
 Charge =  0 Multiplicity = 1

 SCF Done:  E(RHF) =  -196.351222729     A.U. after   11 cycles
 Normal termination of Gaussian 16 at Sun Apr  6 08:03:10 2025.
 Gaussian 16:  ES64L-G16RevC.01  3-Jul-2019

 ----------------------------------------------------------------------
 #t hf aug-cc-pvdz iop(5/13=1,5/36=2,99/5=2) pseudo=read geom=check gue
 ss=(read,tcheck) scf=(maxcycle=1)
 ----------------------------------------------------------------------
 -----
 title
 -----
 Structure from the checkpoint file:  "2-methylbutane.chk"
 Charge =  0 Multiplicity = 1

                         Standard orientation:
 ---------------------------------------------------------------------
 Center     Atomic      Atomic             Coordinates (Angstroms)
 Number     Number       Type             X           Y           Z
 ---------------------------------------------------------------------
      1          6           0        0.350820   -1.850666    0.000000
      2          6           0        0.350820    1.050444    1.263414
      3          6           0        0.350820    1.050444   -1.263414
      4          6           0       -0.805408   -0.847966    0.000000
      5          6           0       -0.414139    0.642850   -0.000000
      6          1           0       -0.031506   -2.872394    0.000000
      7          1           0        0.984723   -1.741982    0.880927
      8          1           0        0.984723   -1.741982   -0.880927
      9          1           0        1.332012    0.574521    1.311117
     10          1           0       -0.197555    0.775240    2.166524
     11          1           0        0.512150    2.129575    1.288536
     12          1           0        1.332012    0.574521   -1.311117
     13          1           0        0.512150    2.129575   -1.288536
     14          1           0       -0.197555    0.775240   -2.166524
     15          1           0       -1.436172   -1.037018   -0.873465
     16          1           0       -1.436172   -1.037018    0.873465
     17          1           0       -1.356290    1.201080   -0.000000
 ---------------------------------------------------------------------

 SCF Done:  E(RHF) =  -197.402058814     A.U. after    2 cycles

 The electronic state is 1-A'.
 Alpha  occ. eigenvalues --  -11.41340 -11.39158 -11.37619 -11.36034 -11.33516
 Alpha  occ. eigenvalues --   -1.26342  -1.08425  -0.99486  -0.91060  -0.77875
 Alpha  occ. eigenvalues --   -0.64017  -0.61672  -0.58976  -0.54785  -0.53499
 Alpha  occ. eigenvalues --   -0.51883  -0.50190  -0.47536  -0.42291  -0.42219
 Alpha  occ. eigenvalues --   -0.40560
 Alpha virt. eigenvalues --    0.03895   0.05579   0.05745   0.05769   0.05932
 Alpha virt. eigenvalues --    0.05977   0.06033   0.06539   0.06569   0.09239
 Alpha virt. eigenvalues --    0.09280   0.10037   0.12497   0.13774   0.14643

 Mulliken charges:
               1
     1  C   -3.798120
     2  C   -4.136026
     3  C   -4.136026
     4  C   -2.893700
     5  C   -0.864375
     6  H    1.104800
     7  H    1.361028
     8  H    1.361028
     9  H    1.478597
    10  H    1.223469
    11  H    1.166150
    12  H    1.478597
    13  H    1.166150
    14  H    1.223469
    15  H    1.322108
    16  H    1.322108
    17  H    1.620742
 Sum of Mulliken charges =  -0.00000

 Dipole moment (field-independent basis, Debye):
    X=             -0.2168    Y=              0.0461    Z=             -0.0000  Tot=              0.2217

 Test job not archived.
 1\1\GINC-SE085\SP\RHF\Aug-CC-pVDZ\C5H12\OHZDE\06-Apr-2025\0\\#t hf aug
 -cc-pvdz iop(5/13=1,5/36=2,99/5=2) pseudo=read geom=check guess=(read,
 tcheck) scf=(maxcycle=1)\\title\\0,1\C,0,0.35082,-1.850666,0.\C,0,0.35
 082,1.050444,1.263414\C,0,0.35082,1.050444,-1.263414\C,0,-0.805408,-0.
 847966,0.\C,0,-0.414139,0.64285,0.\H,0,-0.031506,-2.872394,0.\H,0,0.98
 4723,-1.741982,0.880927\H,0,0.984723,-1.741982,-0.880927\H,0,1.332012,
 0.574521,1.311117\H,0,-0.197555,0.77524,2.166524\H,0,0.51215,2.129575,
 1.288536\H,0,1.332012,0.574521,-1.311117\H,0,0.51215,2.129575,-1.28853

 Normal termination of Gaussian 16 at Sun Apr  6 08:03:14 2025.
