 Gaussian 16, Revision C.01,

 ----------------------------------------------------------------------
 #t hf aug-cc-pvdz symm=none int=(grid=ultrafine) guess=(read,tcheck) s
 table=(opt,rrhf)
 ----------------------------------------------------------------------
 -----
 title
 -----
 Symbolic Z-matrix:
 Charge =  0 Multiplicity = 1

 SCF Done:  E(RHF) =  -271.220219959     A.U. after   12 cycles

 1\1\GINC-SE165\Stability\RHF\Aug-CC-pVDZ\C5H12O1\OHZDE\06-Apr-2025\0\\
 #t hf aug-cc-pvdz symm=none int=(grid=ultrafine) guess=(read,tcheck) s
 table=(opt,rrhf)\\title\\0,1\C,0,-2.236267,-0.829238,-0.168845\C,0,-0.
 460692,1.802331,-0.02324\C,0,-0.836105,-0.683283,0.427209\C,0,1.500792
 ,0.264459,0.201369\C,0,0.043139,0.374428,-0.255318\O,0,2.109917,-0.991
 421,-0.095886\H,0,-2.822588,0.085548,-0.074475\H,0,-2.186814,-1.08279,
 -1.230252\H,0,-2.790772,-1.623663,0.332395\H,0,-0.462102,2.045466,1.04
 232\H,0,-1.476626,1.936066,-0.392815\H,0,0.171194,2.533818,-0.530269\H

 Normal termination of Gaussian 16 at Sun Apr  6 08:03:23 2025.
 Gaussian 16:  ES64L-G16RevC.01  3-Jul-2019

 ----------------------------------------------------------------------
 #t hf aug-cc-pvdz iop(5/13=1,5/36=2,99/5=2) pseudo=read geom=check gue
 ss=(read,tcheck) scf=(maxcycle=1)
 ----------------------------------------------------------------------
 -----
 title
 -----
 Structure from the checkpoint file:  "2-methyl-1-butanol.chk"
 Charge =  0 Multiplicity = 1

                         Standard orientation:
 ---------------------------------------------------------------------
 Center     Atomic      Atomic             Coordinates (Angstroms)
 Number     Number       Type             X           Y           Z
 ---------------------------------------------------------------------
      1          6           0       -2.236267   -0.829238   -0.168845
      2          6           0       -0.460692    1.802331   -0.023240
      3          6           0       -0.836105   -0.683283    0.427209
      4          6           0        1.500792    0.264459    0.201369
      5          6           0        0.043139    0.374428   -0.255318
      6          8           0        2.109917   -0.991421   -0.095886
      7          1           0       -2.822588    0.085548   -0.074475
      8          1           0       -2.186814   -1.082790   -1.230252
      9          1           0       -2.790772   -1.623663    0.332395
     10          1           0       -0.462102    2.045466    1.042320
     11          1           0       -1.476626    1.936066   -0.392815
     12          1           0        0.171194    2.533818   -0.530269
     13          1           0       -0.321864   -1.644079    0.373767
     14          1           0       -0.914617   -0.436619    1.491531
     15          1           0        1.558959    0.362361    1.287435
     16          1           0        2.087287    1.082323   -0.232344
     17          1           0        0.027882    0.181040   -1.336643
     18          1           0        2.185520   -1.080283   -1.050612
 ---------------------------------------------------------------------

 SCF Done:  E(RHF) =  -272.559791898     A.U. after    2 cycles

 The electronic state is 1-A.
 Alpha  occ. eigenvalues --  -21.06230 -11.43202 -11.41480 -11.39247 -11.36918
 Alpha  occ. eigenvalues --  -11.34203  -1.70123  -1.25365  -1.08455  -0.97249
 Alpha  occ. eigenvalues --   -0.90216  -0.80319  -0.65215  -0.63128  -0.61354
 Alpha  occ. eigenvalues --   -0.57332  -0.54955  -0.53373  -0.52131  -0.48616
 Alpha  occ. eigenvalues --   -0.46009  -0.44910  -0.42215  -0.38308  -0.30767
 Alpha virt. eigenvalues --    0.04217   0.05150   0.05252   0.05439   0.05912
 Alpha virt. eigenvalues --    0.06191   0.06250   0.06540   0.07085   0.08663
 Alpha virt. eigenvalues --    0.09192   0.09612   0.12820   0.13209   0.14139

 Mulliken charges:
               1
     1  C   -3.873069
     2  C   -3.880348
     3  C   -3.250776
     4  C   -1.107688
     5  C   -1.132234
     6  O   -2.555082
     7  H    1.430078
     8  H    1.241381
     9  H    1.077370
    10  H    1.278923
    11  H    1.351814
    12  H    1.213641
    13  H    1.552003
    14  H    1.413629
    15  H    1.416672
    16  H    1.290388
    17  H    1.871559
    18  H    0.661740
 Sum of Mulliken charges =  -0.00000

 Dipole moment (field-independent basis, Debye):
    X=             -0.2332    Y=              0.3691    Z=             -0.4866  Tot=              0.6538

 Test job not archived.
 1\1\GINC-SE165\SP\RHF\Aug-CC-pVDZ\C5H12O1\OHZDE\06-Apr-2025\0\\#t hf a
 ug-cc-pvdz iop(5/13=1,5/36=2,99/5=2) pseudo=read geom=check guess=(rea
 d,tcheck) scf=(maxcycle=1)\\title\\0,1\C,0,-2.236267,-0.829238,-0.1688
 45\C,0,-0.460692,1.802331,-0.02324\C,0,-0.836105,-0.683283,0.427209\C,
 0,1.500792,0.264459,0.201369\C,0,0.043139,0.374428,-0.255318\O,0,2.109
 917,-0.991421,-0.095886\H,0,-2.822588,0.085548,-0.074475\H,0,-2.186814
 ,-1.08279,-1.230252\H,0,-2.790772,-1.623663,0.332395\H,0,-0.462102,2.0
 45466,1.04232\H,0,-1.476626,1.936066,-0.392815\H,0,0.171194,2.533818,-

 Normal termination of Gaussian 16 at Sun Apr  6 08:03:30 2025.
