 Gaussian 16, Revision C.01,

 ----------------------------------------------------------------------
 #t hf aug-cc-pvdz symm=none int=(grid=ultrafine) guess=(read,tcheck) s
 table=(opt,rrhf)
 ----------------------------------------------------------------------
 -----
 title
 -----
 Symbolic Z-matrix:
 Charge =  0 Multiplicity = 1

 SCF Done:  E(RHF) =  -267.387155176     A.U. after   12 cycles

 1\1\GINC-SE042\Stability\RHF\Aug-CC-pVDZ\C4H12N2\OHZDE\06-Apr-2025\0\\
 #t hf aug-cc-pvdz symm=none int=(grid=ultrafine) guess=(read,tcheck) s
 table=(opt,rrhf)\\title\\0,1\C,0,-0.376341,0.22036,0.\H,0,1.502631,0.8
 16125,0.875477\H,0,1.502631,0.816125,-0.875477\N,0,1.913976,-1.014914,
 0.\H,0,1.709887,-1.574258,0.817358\H,0,1.709887,-1.574258,-0.817358\N,
 0,-0.906035,1.595947,0.\H,0,-0.583445,2.106254,-0.814987\H,0,-0.583445
 ,2.106254,0.814987\C,0,1.179166,0.245313,0.\C,0,-0.906035,-0.473601,-1
 .257115\C,0,-0.906035,-0.473601,1.257115\H,0,-0.558883,0.037001,-2.158

 Normal termination of Gaussian 16 at Sun Apr  6 08:03:22 2025.
 Gaussian 16:  ES64L-G16RevC.01  3-Jul-2019

 ----------------------------------------------------------------------
 #t hf aug-cc-pvdz iop(5/13=1,5/36=2,99/5=2) pseudo=read geom=check gue
 ss=(read,tcheck) scf=(maxcycle=1)
 ----------------------------------------------------------------------
 -----
 title
 -----
 Structure from the checkpoint file:  "2-methyl-1-2-propanediamine.chk"
 Charge =  0 Multiplicity = 1

                         Standard orientation:
 ---------------------------------------------------------------------
 Center     Atomic      Atomic             Coordinates (Angstroms)
 Number     Number       Type             X           Y           Z
 ---------------------------------------------------------------------
      1          6           0       -0.376341    0.220360   -0.000000
      2          1           0        1.502631    0.816125    0.875477
      3          1           0        1.502631    0.816125   -0.875477
      4          7           0        1.913976   -1.014914    0.000000
      5          1           0        1.709887   -1.574258    0.817358
      6          1           0        1.709887   -1.574258   -0.817358
      7          7           0       -0.906035    1.595947   -0.000000
      8          1           0       -0.583445    2.106254   -0.814987
      9          1           0       -0.583445    2.106254    0.814987
     10          6           0        1.179166    0.245313   -0.000000
     11          6           0       -0.906035   -0.473601   -1.257115
     12          6           0       -0.906035   -0.473601    1.257115
     13          1           0       -0.558883    0.037001   -2.158942
     14          1           0       -0.558883    0.037001    2.158942
     15          1           0       -0.574785   -1.511227    1.310395
     16          1           0       -0.574785   -1.511227   -1.310395
     17          1           0       -1.995459   -0.462925   -1.263115
     18          1           0       -1.995459   -0.462925    1.263115
 ---------------------------------------------------------------------

 SCF Done:  E(RHF) =  -268.739255013     A.U. after    2 cycles

 The electronic state is 1-A'.
 Alpha  occ. eigenvalues --  -15.72640 -15.72197 -11.43338 -11.40876 -11.38892
 Alpha  occ. eigenvalues --  -11.34962  -1.39585  -1.28851  -1.11251  -1.01234
 Alpha  occ. eigenvalues --   -0.96210  -0.78634  -0.67918  -0.64572  -0.64533
 Alpha  occ. eigenvalues --   -0.60779  -0.54976  -0.54579  -0.52771  -0.50139
 Alpha  occ. eigenvalues --   -0.48315  -0.44744  -0.42850  -0.39409  -0.29967
 Alpha virt. eigenvalues --    0.03897   0.05570   0.05581   0.05590   0.05908
 Alpha virt. eigenvalues --    0.06100   0.06192   0.06550   0.06979   0.08883
 Alpha virt. eigenvalues --    0.09224   0.10055   0.11877   0.13760   0.14389

 Mulliken charges:
               1
     1  C    5.434213
     2  H    1.220241
     3  H    1.220241
     4  N   -2.415025
     5  H    0.536431
     6  H    0.536431
     7  N   -3.949590
     8  H    0.555577
     9  H    0.555577
    10  C   -1.967773
    11  C   -4.393352
    12  C   -4.393352
    13  H    1.133640
    14  H    1.133640
    15  H    1.277896
    16  H    1.277896
    17  H    1.118655
    18  H    1.118655
 Sum of Mulliken charges =  -0.00000

 Dipole moment (field-independent basis, Debye):
    X=             -0.0682    Y=             -0.2032    Z=             -0.0000  Tot=              0.2143

 Test job not archived.
 1\1\GINC-SE042\SP\RHF\Aug-CC-pVDZ\C4H12N2\OHZDE\06-Apr-2025\0\\#t hf a
 ug-cc-pvdz iop(5/13=1,5/36=2,99/5=2) pseudo=read geom=check guess=(rea
 d,tcheck) scf=(maxcycle=1)\\title\\0,1\C,0,-0.376341,0.22036,0.\H,0,1.
 502631,0.816125,0.875477\H,0,1.502631,0.816125,-0.875477\N,0,1.913976,
 -1.014914,0.\H,0,1.709887,-1.574258,0.817358\H,0,1.709887,-1.574258,-0
 .817358\N,0,-0.906035,1.595947,0.\H,0,-0.583445,2.106254,-0.814987\H,0
 ,-0.583445,2.106254,0.814987\C,0,1.179166,0.245313,0.\C,0,-0.906035,-0
 .473601,-1.257115\C,0,-0.906035,-0.473601,1.257115\H,0,-0.558883,0.037

 Normal termination of Gaussian 16 at Sun Apr  6 08:03:27 2025.
