 Gaussian 16, Revision C.01,

 ----------------------------------------------------------------------
 #t hf aug-cc-pvdz symm=none int=(grid=ultrafine) guess=(read,tcheck) s
 table=(opt,rrhf)
 ----------------------------------------------------------------------
 -----
 title
 -----
 Symbolic Z-matrix:
 Charge =  0 Multiplicity = 1

 SCF Done:  E(RHF) =  -230.982407330     A.U. after   13 cycles
 Normal termination of Gaussian 16 at Sun Apr  6 08:02:01 2025.
 Gaussian 16:  ES64L-G16RevC.01  3-Jul-2019

 ----------------------------------------------------------------------
 #t hf aug-cc-pvdz iop(5/13=1,5/36=2,99/5=2) pseudo=read geom=check gue
 ss=(read,tcheck) scf=(maxcycle=1)
 ----------------------------------------------------------------------
 -----
 title
 -----
 Structure from the checkpoint file:  "2-methoxy-1-propene.chk"
 Charge =  0 Multiplicity = 1

                         Standard orientation:
 ---------------------------------------------------------------------
 Center     Atomic      Atomic             Coordinates (Angstroms)
 Number     Number       Type             X           Y           Z
 ---------------------------------------------------------------------
      1          6           0        1.837929   -0.075225    0.168133
      2          1           0        1.826268    0.039396    1.255725
      3          1           0        2.650139   -0.742755   -0.108297
      4          1           0        2.008448    0.898348   -0.296127
      5          8           0        0.647190   -0.693975   -0.300207
      6          6           0       -0.598702    1.412224   -0.036759
      7          1           0       -0.014163    1.839066    0.780446
      8          1           0       -0.198576    1.814610   -0.970439
      9          1           0       -1.625342    1.752574    0.072846
     10          6           0       -0.558029   -0.087441   -0.037725
     11          6           0       -1.627694   -0.863197    0.124504
     12          1           0       -2.606952   -0.428216    0.248327
     13          1           0       -1.538361   -1.939393    0.110257
 ---------------------------------------------------------------------

 SCF Done:  E(RHF) =  -232.082229358     A.U. after    2 cycles

 The electronic state is 1-A.
 Alpha  occ. eigenvalues --  -21.05821 -11.45148 -11.40940 -11.38364 -11.35599
 Alpha  occ. eigenvalues --   -1.77072  -1.16684  -1.02670  -0.96748  -0.75133
 Alpha  occ. eigenvalues --   -0.64470  -0.62608  -0.61885  -0.57568  -0.55439
 Alpha  occ. eigenvalues --   -0.50720  -0.50205  -0.42448  -0.36534  -0.26948
 Alpha virt. eigenvalues --    0.03360   0.05349   0.05671   0.05790   0.06157
 Alpha virt. eigenvalues --    0.06561   0.06789   0.08712   0.10787   0.11718
 Alpha virt. eigenvalues --    0.13189   0.14288   0.14732   0.15205   0.16124

 Mulliken charges:
               1
     1  C   -2.997276
     2  H    1.305035
     3  H    1.288597
     4  H    1.413273
     5  O   -3.800671
     6  C   -4.182284
     7  H    1.220572
     8  H    1.250547
     9  H    1.308012
    10  C    4.083198
    11  C   -3.889009
    12  H    1.495932
    13  H    1.504073
 Sum of Mulliken charges =  -0.00000

 Dipole moment (field-independent basis, Debye):
    X=              0.9371    Y=              0.9299    Z=              0.1613  Tot=              1.3300

 Test job not archived.
 1\1\GINC-SE275\SP\RHF\Aug-CC-pVDZ\C4H8O1\OHZDE\06-Apr-2025\0\\#t hf au
 g-cc-pvdz iop(5/13=1,5/36=2,99/5=2) pseudo=read geom=check guess=(read
 ,tcheck) scf=(maxcycle=1)\\title\\0,1\C,0,1.837929,-0.075225,0.168133\
 H,0,1.826268,0.039396,1.255725\H,0,2.650139,-0.742755,-0.108297\H,0,2.
 008448,0.898348,-0.296127\O,0,0.64719,-0.693975,-0.300207\C,0,-0.59870
 2,1.412224,-0.036759\H,0,-0.014163,1.839066,0.780446\H,0,-0.198576,1.8
 1461,-0.970439\H,0,-1.625342,1.752574,0.072846\C,0,-0.558029,-0.087441
 ,-0.037725\C,0,-1.627694,-0.863197,0.124504\H,0,-2.606952,-0.428216,0.

 Normal termination of Gaussian 16 at Sun Apr  6 08:02:04 2025.
