 Gaussian 16, Revision C.01,

 ----------------------------------------------------------------------
 #t hf aug-cc-pvdz symm=none int=(grid=ultrafine) guess=(read,tcheck) s
 table=(opt,rrhf)
 ----------------------------------------------------------------------
 -----
 title
 -----
 Symbolic Z-matrix:
 Charge =  0 Multiplicity = 1

 SCF Done:  E(RHF) =  -193.981971304     A.U. after   13 cycles
 Normal termination of Gaussian 16 at Sun Apr  6 08:03:02 2025.
 Gaussian 16:  ES64L-G16RevC.01  3-Jul-2019

 ----------------------------------------------------------------------
 #t hf aug-cc-pvdz iop(5/13=1,5/36=2,99/5=2) pseudo=read geom=check gue
 ss=(read,tcheck) scf=(maxcycle=1)
 ----------------------------------------------------------------------
 -----
 title
 -----
 Structure from the checkpoint file:  "2-methyl-1-3-butadiene.chk"
 Charge =  0 Multiplicity = 1

                         Standard orientation:
 ---------------------------------------------------------------------
 Center     Atomic      Atomic             Coordinates (Angstroms)
 Number     Number       Type             X           Y           Z
 ---------------------------------------------------------------------
      1          6           0       -0.370784   -1.943846    0.000000
      2          6           0       -0.590876    1.724659    0.000000
      3          6           0       -0.821447   -0.687962    0.000000
      4          6           0        0.000000    0.523640    0.000000
      5          6           0        1.497508    0.383184    0.000000
      6          1           0       -1.054523   -2.781159    0.000000
      7          1           0        0.684570   -2.180530    0.000000
      8          1           0       -0.016812    2.641330    0.000000
      9          1           0       -1.668879    1.820992    0.000000
     10          1           0       -1.893631   -0.520009    0.000000
     11          1           0        1.840844   -0.168419    0.877918
     12          1           0        1.981179    1.358162    0.000000
     13          1           0        1.840844   -0.168419   -0.877918
 ---------------------------------------------------------------------

 SCF Done:  E(RHF) =  -194.957680253     A.U. after    2 cycles

 The electronic state is 1-A'.
 Alpha  occ. eigenvalues --  -11.43753 -11.40300 -11.38722 -11.38487 -11.36212
 Alpha  occ. eigenvalues --   -1.26987  -1.08536  -1.00021  -0.85749  -0.73910
 Alpha  occ. eigenvalues --   -0.64607  -0.61960  -0.57172  -0.54882  -0.52505
 Alpha  occ. eigenvalues --   -0.48596  -0.44446  -0.41407  -0.30267
 Alpha virt. eigenvalues --    0.03510   0.05358   0.05386   0.05855   0.06320
 Alpha virt. eigenvalues --    0.06865   0.07926   0.08319   0.10384   0.10476
 Alpha virt. eigenvalues --    0.11668   0.13807   0.14185   0.14266   0.14516

 Mulliken charges:
               1
     1  C   -3.509819
     2  C   -4.752980
     3  C   -0.327661
     4  C    2.074957
     5  C   -4.443240
     6  H    1.364569
     7  H    1.588393
     8  H    1.587446
     9  H    1.548903
    10  H    1.372541
    11  H    1.109224
    12  H    1.278444
    13  H    1.109224
 Sum of Mulliken charges =   0.00000

 Dipole moment (field-independent basis, Debye):
    X=              0.2188    Y=             -0.0292    Z=              0.0000  Tot=              0.2207

 Test job not archived.
 1\1\GINC-SE104\SP\RHF\Aug-CC-pVDZ\C5H8\OHZDE\06-Apr-2025\0\\#t hf aug-
 cc-pvdz iop(5/13=1,5/36=2,99/5=2) pseudo=read geom=check guess=(read,t
 check) scf=(maxcycle=1)\\title\\0,1\C,0,-0.370784,-1.943846,0.\C,0,-0.
 590876,1.724659,0.\C,0,-0.821447,-0.687962,0.\C,0,0.,0.52364,0.\C,0,1.
 497508,0.383184,0.\H,0,-1.054523,-2.781159,0.\H,0,0.68457,-2.18053,0.\
 H,0,-0.016812,2.64133,0.\H,0,-1.668879,1.820992,0.\H,0,-1.893631,-0.52
 0009,0.\H,0,1.840844,-0.168419,0.877918\H,0,1.981179,1.358162,0.\H,0,1
 .840844,-0.168419,-0.877918\\Version=ES64L-G16RevC.01\State=1-A'\HF=-1

 Normal termination of Gaussian 16 at Sun Apr  6 08:03:06 2025.
