 Gaussian 16, Revision C.01,

 ----------------------------------------------------------------------
 #t hf aug-cc-pvdz symm=none int=(grid=ultrafine) guess=(read,tcheck) s
 table=(opt,rrhf)
 ----------------------------------------------------------------------
 -----
 title
 -----
 Symbolic Z-matrix:
 Charge =  0 Multiplicity = 1

 SCF Done:  E(RHF) =  -235.391427047     A.U. after   11 cycles
 Normal termination of Gaussian 16 at Sun Apr  6 08:03:27 2025.
 Gaussian 16:  ES64L-G16RevC.01  3-Jul-2019

 ----------------------------------------------------------------------
 #t hf aug-cc-pvdz iop(5/13=1,5/36=2,99/5=2) pseudo=read geom=check gue
 ss=(read,tcheck) scf=(maxcycle=1)
 ----------------------------------------------------------------------
 -----
 title
 -----
 Structure from the checkpoint file:  "2-methylpentane.chk"
 Charge =  0 Multiplicity = 1

                         Standard orientation:
 ---------------------------------------------------------------------
 Center     Atomic      Atomic             Coordinates (Angstroms)
 Number     Number       Type             X           Y           Z
 ---------------------------------------------------------------------
      1          6           0        2.838715   -0.210284    0.151499
      2          6           0       -1.452331    1.374908    0.194977
      3          6           0       -2.150229   -1.037838    0.031809
      4          6           0        1.495560    0.356257   -0.307569
      5          6           0        0.304604   -0.477105    0.169426
      6          6           0       -1.071855   -0.012797   -0.331369
      7          1           0        2.897031   -0.252318    1.241150
      8          1           0        2.988894   -1.224454   -0.224592
      9          1           0        3.671051    0.400513   -0.201048
     10          1           0       -0.743775    2.142198   -0.116896
     11          1           0       -1.487672    1.377435    1.287781
     12          1           0       -2.438033    1.672153   -0.167266
     13          1           0       -2.241995   -1.138272    1.116369
     14          1           0       -3.126439   -0.741164   -0.355760
     15          1           0       -1.914534   -2.023603   -0.373148
     16          1           0        1.400426    1.383805    0.050622
     17          1           0        1.479386    0.411612   -1.400581
     18          1           0        0.457236   -1.513257   -0.149856
     19          1           0        0.293963   -0.498723    1.265583
     20          1           0       -1.022318    0.045239   -1.424998
 ---------------------------------------------------------------------

 SCF Done:  E(RHF) =  -236.646989154     A.U. after    2 cycles

 The electronic state is 1-A.
 Alpha  occ. eigenvalues --  -11.41739 -11.40505 -11.38065 -11.37575 -11.35619
 Alpha  occ. eigenvalues --  -11.33321  -1.27895  -1.14258  -0.99412  -0.98236
 Alpha  occ. eigenvalues --   -0.85277  -0.79265  -0.64925  -0.60966  -0.60070
 Alpha  occ. eigenvalues --   -0.56870  -0.54848  -0.52736  -0.51878  -0.49583
 Alpha  occ. eigenvalues --   -0.46817  -0.45863  -0.43616  -0.41747  -0.39146
 Alpha virt. eigenvalues --    0.04277   0.05106   0.05235   0.05670   0.05793
 Alpha virt. eigenvalues --    0.05956   0.06279   0.06469   0.06528   0.08014
 Alpha virt. eigenvalues --    0.08567   0.09039   0.09130   0.11013   0.12712

 Mulliken charges:
               1
     1  C   -4.310818
     2  C   -3.972369
     3  C   -4.314266
     4  C   -2.872944
     5  C   -2.467432
     6  C   -1.442536
     7  H    1.291624
     8  H    1.322254
     9  H    1.078512
    10  H    1.374181
    11  H    1.288889
    12  H    1.273351
    13  H    1.326676
    14  H    1.192022
    15  H    1.270717
    16  H    1.604832
    17  H    1.412508
    18  H    1.604358
    19  H    1.534498
    20  H    1.805943
 Sum of Mulliken charges =  -0.00000

 Dipole moment (field-independent basis, Debye):
    X=              0.0268    Y=              0.0758    Z=             -0.2100  Tot=              0.2249

 Test job not archived.
 1\1\GINC-SE249\SP\RHF\Aug-CC-pVDZ\C6H14\OHZDE\06-Apr-2025\0\\#t hf aug
 -cc-pvdz iop(5/13=1,5/36=2,99/5=2) pseudo=read geom=check guess=(read,
 tcheck) scf=(maxcycle=1)\\title\\0,1\C,0,2.838715,-0.210284,0.151499\C
 ,0,-1.452331,1.374908,0.194977\C,0,-2.150229,-1.037838,0.031809\C,0,1.
 49556,0.356257,-0.307569\C,0,0.304604,-0.477105,0.169426\C,0,-1.071855
 ,-0.012797,-0.331369\H,0,2.897031,-0.252318,1.24115\H,0,2.988894,-1.22
 4454,-0.224592\H,0,3.671051,0.400513,-0.201048\H,0,-0.743775,2.142198,
 -0.116896\H,0,-1.487672,1.377435,1.287781\H,0,-2.438033,1.672153,-0.16

 Normal termination of Gaussian 16 at Sun Apr  6 08:03:34 2025.
