 Gaussian 16, Revision C.01,

 ----------------------------------------------------------------------
 #t hf aug-cc-pvdz symm=none int=(grid=ultrafine) guess=(read,tcheck) s
 table=(opt,rrhf)
 ----------------------------------------------------------------------
 -----
 title
 -----
 Symbolic Z-matrix:
 Charge =  0 Multiplicity = 1

 SCF Done:  E(RHF) =  -590.370753950     A.U. after   15 cycles
 Normal termination of Gaussian 16 at Sun Apr  6 08:02:58 2025.
 Gaussian 16:  ES64L-G16RevC.01  3-Jul-2019

 ----------------------------------------------------------------------
 #t hf aug-cc-pvdz iop(5/13=1,5/36=2,99/5=2) pseudo=read geom=check gue
 ss=(read,tcheck) scf=(maxcycle=1)
 ----------------------------------------------------------------------
 -----
 title
 -----
 Structure from the checkpoint file:  "2-methylthiophene.chk"
 Charge =  0 Multiplicity = 1

                         Standard orientation:
 ---------------------------------------------------------------------
 Center     Atomic      Atomic             Coordinates (Angstroms)
 Number     Number       Type             X           Y           Z
 ---------------------------------------------------------------------
      1          6           0       -1.431534   -1.031992    0.000000
      2          6           0       -1.295454    0.385519    0.000000
      3          6           0       -0.233038   -1.675211    0.000000
      4          6           0        0.000000    0.813659    0.000000
      5          6           0        0.515874    2.217453    0.000000
      6         16           0        1.080231   -0.550999    0.000000
      7          1           0       -2.381672   -1.545414    0.000000
      8          1           0       -2.133617    1.068000    0.000000
      9          1           0       -0.039022   -2.734092    0.000000
     10          1           0       -0.319300    2.917141    0.000000
     11          1           0        1.127412    2.426894    0.879789
     12          1           0        1.127412    2.426894   -0.879789
 ---------------------------------------------------------------------

 SCF Done:  E(RHF) =  -591.545297773     A.U. after    2 cycles

 The electronic state is 1-A'.
 Alpha  occ. eigenvalues --  -75.70220 -13.16045 -13.13915 -13.02080 -11.46511
 Alpha  occ. eigenvalues --  -11.43098 -11.41119 -11.39550 -11.36605  -8.04770
 Alpha  occ. eigenvalues --   -1.37122  -1.12460  -1.07423  -0.97717  -0.78852
 Alpha  occ. eigenvalues --   -0.74758  -0.68522  -0.58389  -0.58174  -0.53769
 Alpha  occ. eigenvalues --   -0.48474  -0.48366  -0.43490  -0.37362  -0.30914
 Alpha  occ. eigenvalues --   -0.26014
 Alpha virt. eigenvalues --    0.03195   0.04210   0.05506   0.05921   0.06562
 Alpha virt. eigenvalues --    0.06979   0.08783   0.10345   0.11721   0.12091
 Alpha virt. eigenvalues --    0.13167   0.13860   0.14269   0.14738   0.15224

 Mulliken charges:
               1
     1  C   -0.884927
     2  C   -2.526849
     3  C   -3.525565
     4  C    2.129379
     5  C   -4.656402
     6  S    1.740868
     7  H    1.419442
     8  H    1.555869
     9  H    1.230571
    10  H    1.181562
    11  H    1.168026
    12  H    1.168026
 Sum of Mulliken charges =  -0.00000

 Dipole moment (field-independent basis, Debye):
    X=              1.6977    Y=              0.1796    Z=              0.0000  Tot=              1.7072

 Test job not archived.
 1\1\GINC-SE271\SP\RHF\Aug-CC-pVDZ\C5H6S1\OHZDE\06-Apr-2025\0\\#t hf au
 g-cc-pvdz iop(5/13=1,5/36=2,99/5=2) pseudo=read geom=check guess=(read
 ,tcheck) scf=(maxcycle=1)\\title\\0,1\C,0,-1.431534,-1.031992,0.\C,0,-
 1.295454,0.385519,0.\C,0,-0.233038,-1.675211,0.\C,0,0.,0.813659,0.\C,0
 ,0.515874,2.217453,0.\S,0,1.080231,-0.550999,0.\H,0,-2.381672,-1.54541
 4,0.\H,0,-2.133617,1.068,0.\H,0,-0.039022,-2.734092,0.\H,0,-0.3193,2.9
 17141,0.\H,0,1.127412,2.426894,0.879789\H,0,1.127412,2.426894,-0.87978
 9\\Version=ES64L-G16RevC.01\State=1-A'\HF=-591.5452978\RMSD=1.857e+00\

 Normal termination of Gaussian 16 at Sun Apr  6 08:03:05 2025.
