 Gaussian 16, Revision C.01,

 ----------------------------------------------------------------------
 #t hf aug-cc-pvdz symm=none int=(grid=ultrafine) guess=(read,tcheck) s
 table=(opt,rrhf)
 ----------------------------------------------------------------------
 -----
 title
 -----
 Symbolic Z-matrix:
 Charge =  0 Multiplicity = 1

 SCF Done:  E(RHF) =  -284.888906491     A.U. after   13 cycles
 Normal termination of Gaussian 16 at Sun Apr  6 08:03:04 2025.
 Gaussian 16:  ES64L-G16RevC.01  3-Jul-2019

 ----------------------------------------------------------------------
 #t hf aug-cc-pvdz iop(5/13=1,5/36=2,99/5=2) pseudo=read geom=check gue
 ss=(read,tcheck) scf=(maxcycle=1)
 ----------------------------------------------------------------------
 -----
 title
 -----
 Structure from the checkpoint file:  "2-methyl-4-5-dihydro-1-3-oxazole.chk"
 Charge =  0 Multiplicity = 1

                         Standard orientation:
 ---------------------------------------------------------------------
 Center     Atomic      Atomic             Coordinates (Angstroms)
 Number     Number       Type             X           Y           Z
 ---------------------------------------------------------------------
      1          6           0        0.336343    2.129295    0.000000
      2          6           0        0.540978   -1.506450    0.000000
      3          6           0       -0.989729   -1.289163    0.000000
      4          7           0       -1.159293    0.170312    0.000000
      5          8           0        1.078204   -0.160300    0.000000
      6          6           0        0.000000    0.680984    0.000000
      7          1           0        0.910587   -2.017738    0.887540
      8          1           0        0.910587   -2.017738   -0.887540
      9          1           0       -1.473240   -1.716662    0.879292
     10          1           0       -1.473240   -1.716662   -0.879292
     11          1           0        0.932661    2.376888    0.879004
     12          1           0        0.932661    2.376888   -0.879004
     13          1           0       -0.576148    2.717242    0.000000
 ---------------------------------------------------------------------

 SCF Done:  E(RHF) =  -286.202924622     A.U. after    2 cycles

 The electronic state is 1-A'.
 Alpha  occ. eigenvalues --  -21.07300 -15.70732 -11.46991 -11.46769 -11.38877
 Alpha  occ. eigenvalues --  -11.38131  -1.80914  -1.34773  -1.15551  -1.03056
 Alpha  occ. eigenvalues --   -0.88102  -0.74536  -0.67973  -0.66904  -0.59251
 Alpha  occ. eigenvalues --   -0.58963  -0.54327  -0.50624  -0.49010  -0.45745
 Alpha  occ. eigenvalues --   -0.41833  -0.36147  -0.28957
 Alpha virt. eigenvalues --    0.03603   0.05417   0.05691   0.05791   0.06187
 Alpha virt. eigenvalues --    0.07028   0.07107   0.09242   0.11278   0.12138
 Alpha virt. eigenvalues --    0.13489   0.14204   0.14765   0.14889   0.15472

 Mulliken charges:
               1
     1  C   -4.494643
     2  C   -1.674661
     3  C   -2.348607
     4  N   -3.006837
     5  O   -3.231757
     6  C    5.408066
     7  H    1.383088
     8  H    1.383088
     9  H    1.395190
    10  H    1.395190
    11  H    1.252484
    12  H    1.252484
    13  H    1.286915
 Sum of Mulliken charges =  -0.00000

 Dipole moment (field-independent basis, Debye):
    X=              1.4700    Y=             -0.5951    Z=              0.0000  Tot=              1.5858

 Test job not archived.
 1\1\GINC-SE085\SP\RHF\Aug-CC-pVDZ\C4H7N1O1\OHZDE\06-Apr-2025\0\\#t hf
 aug-cc-pvdz iop(5/13=1,5/36=2,99/5=2) pseudo=read geom=check guess=(re
 ad,tcheck) scf=(maxcycle=1)\\title\\0,1\C,0,0.336343,2.129295,0.\C,0,0
 .540978,-1.50645,0.\C,0,-0.989729,-1.289163,0.\N,0,-1.159293,0.170312,
 0.\O,0,1.078204,-0.1603,0.\C,0,0.,0.680984,0.\H,0,0.910587,-2.017738,0
 .88754\H,0,0.910587,-2.017738,-0.88754\H,0,-1.47324,-1.716662,0.879292
 \H,0,-1.47324,-1.716662,-0.879292\H,0,0.932661,2.376888,0.879004\H,0,0
 .932661,2.376888,-0.879004\H,0,-0.576148,2.717242,0.\\Version=ES64L-G1

 Normal termination of Gaussian 16 at Sun Apr  6 08:03:07 2025.
