 Gaussian 16, Revision C.01,

 ----------------------------------------------------------------------
 #t hf aug-cc-pvdz symm=none int=(grid=ultrafine) guess=(read,tcheck) s
 table=(opt,rrhf)
 ----------------------------------------------------------------------
 -----
 title
 -----
 Symbolic Z-matrix:
 Charge =  0 Multiplicity = 1

 SCF Done:  E(RHF) =  -270.050103707     A.U. after   12 cycles

 1\1\GINC-SE271\Stability\RHF\Aug-CC-pVDZ\C5H10O1\OHZDE\06-Apr-2025\0\\
 #t hf aug-cc-pvdz symm=none int=(grid=ultrafine) guess=(read,tcheck) s
 table=(opt,rrhf)\\title\\0,1\C,0,-1.5452,0.674146,-0.126359\C,0,-0.105
 076,1.223728,0.00573\C,0,-1.368914,-0.846757,0.057412\C,0,0.7328,-0.01
 1059,0.378649\C,0,2.152046,-0.027585,-0.146353\O,0,0.009355,-1.112893,
 -0.176593\H,0,-2.218989,1.088613,0.622495\H,0,-1.962003,0.904798,-1.10
 5364\H,0,0.242266,1.630722,-0.944467\H,0,-0.020334,2.011011,0.754025\H
 ,0,-1.637823,-1.149102,1.077531\H,0,-1.947361,-1.446214,-0.643058\H,0,

 Normal termination of Gaussian 16 at Sun Apr  6 08:03:12 2025.
 Gaussian 16:  ES64L-G16RevC.01  3-Jul-2019

 ----------------------------------------------------------------------
 #t hf aug-cc-pvdz iop(5/13=1,5/36=2,99/5=2) pseudo=read geom=check gue
 ss=(read,tcheck) scf=(maxcycle=1)
 ----------------------------------------------------------------------
 -----
 title
 -----
 Structure from the checkpoint file:  "2-methyltetrahydrofuran.chk"
 Charge =  0 Multiplicity = 1

                         Standard orientation:
 ---------------------------------------------------------------------
 Center     Atomic      Atomic             Coordinates (Angstroms)
 Number     Number       Type             X           Y           Z
 ---------------------------------------------------------------------
      1          6           0       -1.545200    0.674146   -0.126359
      2          6           0       -0.105076    1.223728    0.005730
      3          6           0       -1.368914   -0.846757    0.057412
      4          6           0        0.732800   -0.011059    0.378649
      5          6           0        2.152046   -0.027584   -0.146353
      6          8           0        0.009355   -1.112893   -0.176593
      7          1           0       -2.218989    1.088612    0.622495
      8          1           0       -1.962003    0.904797   -1.105364
      9          1           0        0.242265    1.630722   -0.944467
     10          1           0       -0.020335    2.011011    0.754025
     11          1           0       -1.637823   -1.149102    1.077531
     12          1           0       -1.947361   -1.446215   -0.643058
     13          1           0        0.744850   -0.121334    1.473448
     14          1           0        2.155499    0.063415   -1.233368
     15          1           0        2.721516    0.803003    0.273159
     16          1           0        2.653606   -0.956605    0.123859
 ---------------------------------------------------------------------

 SCF Done:  E(RHF) =  -271.354958028     A.U. after    2 cycles

 The electronic state is 1-A.
 Alpha  occ. eigenvalues --  -21.02832 -11.51217 -11.42014 -11.39645 -11.37377
 Alpha  occ. eigenvalues --  -11.34739  -1.75445  -1.19048  -1.12563  -0.97490
 Alpha  occ. eigenvalues --   -0.84054  -0.81284  -0.67082  -0.65750  -0.61258
 Alpha  occ. eigenvalues --   -0.57315  -0.55847  -0.51389  -0.45955  -0.45572
 Alpha  occ. eigenvalues --   -0.44664  -0.43045  -0.36809  -0.28913
 Alpha virt. eigenvalues --    0.04255   0.05124   0.05369   0.05472   0.05779
 Alpha virt. eigenvalues --    0.06181   0.06438   0.07177   0.07260   0.09187
 Alpha virt. eigenvalues --    0.12354   0.12739   0.13253   0.14623   0.14923

 Mulliken charges:
               1
     1  C   -2.762630
     2  C   -2.622514
     3  C   -1.702675
     4  C    0.532813
     5  C   -3.831710
     6  O   -3.215665
     7  H    1.366737
     8  H    1.290064
     9  H    1.476860
    10  H    1.323037
    11  H    1.478657
    12  H    1.390229
    13  H    1.707591
    14  H    1.228101
    15  H    1.137931
    16  H    1.203175
 Sum of Mulliken charges =   0.00000

 Dipole moment (field-independent basis, Debye):
    X=             -0.2417    Y=              0.5505    Z=              0.1629  Tot=              0.6229

 Test job not archived.
 1\1\GINC-SE271\SP\RHF\Aug-CC-pVDZ\C5H10O1\OHZDE\06-Apr-2025\0\\#t hf a
 ug-cc-pvdz iop(5/13=1,5/36=2,99/5=2) pseudo=read geom=check guess=(rea
 d,tcheck) scf=(maxcycle=1)\\title\\0,1\C,0,-1.5452,0.674146,-0.126359\
 C,0,-0.105076,1.223728,0.00573\C,0,-1.368914,-0.846757,0.057412\C,0,0.
 7328,-0.011059,0.378649\C,0,2.152046,-0.027585,-0.146353\O,0,0.009355,
 -1.112893,-0.176593\H,0,-2.218989,1.088613,0.622495\H,0,-1.962003,0.90
 4798,-1.105364\H,0,0.242266,1.630722,-0.944467\H,0,-0.020334,2.011011,
 0.754025\H,0,-1.637823,-1.149102,1.077531\H,0,-1.947361,-1.446214,-0.6

 Normal termination of Gaussian 16 at Sun Apr  6 08:03:17 2025.
