 Gaussian 16, Revision C.01,

 ----------------------------------------------------------------------
 #t hf aug-cc-pvdz symm=none int=(grid=ultrafine) guess=(read,tcheck) s
 table=(opt,rrhf)
 ----------------------------------------------------------------------
 -----
 title
 -----
 Symbolic Z-matrix:
 Charge =  0 Multiplicity = 1

 SCF Done:  E(RHF) =  -271.209671191     A.U. after   12 cycles

 1\1\GINC-SE275\Stability\RHF\Aug-CC-pVDZ\C5H12O1\OHZDE\06-Apr-2025\0\\
 #t hf aug-cc-pvdz symm=none int=(grid=ultrafine) guess=(read,tcheck) s
 table=(opt,rrhf)\\title\\0,1\C,0,-0.634025,0.771526,1.26238\C,0,1.5183
 92,1.037638,0.\C,0,-0.634025,0.771526,-1.26238\C,0,-0.634025,-1.948562
 ,0.\C,0,0.140834,0.377397,0.\O,0,0.443226,-1.034249,0.\H,0,-0.10178,0.
 437781,2.153609\H,0,-0.741929,1.855478,1.313981\H,0,-1.636409,0.343353
 ,1.277197\H,0,2.081691,0.735411,-0.882718\H,0,2.081691,0.735411,0.8827
 18\H,0,1.426783,2.124044,0.\H,0,-1.636409,0.343353,-1.277197\H,0,-0.74

 Normal termination of Gaussian 16 at Sun Apr  6 08:02:16 2025.
 Gaussian 16:  ES64L-G16RevC.01  3-Jul-2019

 ----------------------------------------------------------------------
 #t hf aug-cc-pvdz iop(5/13=1,5/36=2,99/5=2) pseudo=read geom=check gue
 ss=(read,tcheck) scf=(maxcycle=1)
 ----------------------------------------------------------------------
 -----
 title
 -----
 Structure from the checkpoint file:  "2-methoxy-2-methylpropane.chk"
 Charge =  0 Multiplicity = 1

                         Standard orientation:
 ---------------------------------------------------------------------
 Center     Atomic      Atomic             Coordinates (Angstroms)
 Number     Number       Type             X           Y           Z
 ---------------------------------------------------------------------
      1          6           0       -0.634025    0.771526    1.262380
      2          6           0        1.518392    1.037638   -0.000000
      3          6           0       -0.634025    0.771526   -1.262380
      4          6           0       -0.634025   -1.948562    0.000000
      5          6           0        0.140834    0.377397   -0.000000
      6          8           0        0.443226   -1.034249    0.000000
      7          1           0       -0.101780    0.437781    2.153609
      8          1           0       -0.741929    1.855478    1.313981
      9          1           0       -1.636409    0.343353    1.277197
     10          1           0        2.081691    0.735411   -0.882718
     11          1           0        2.081691    0.735411    0.882718
     12          1           0        1.426783    2.124044   -0.000000
     13          1           0       -1.636409    0.343353   -1.277197
     14          1           0       -0.741929    1.855478   -1.313981
     15          1           0       -0.101780    0.437781   -2.153609
     16          1           0       -1.264755   -1.854556   -0.889485
     17          1           0       -1.264755   -1.854556    0.889485
     18          1           0       -0.189132   -2.942139    0.000000
 ---------------------------------------------------------------------

 SCF Done:  E(RHF) =  -272.556165508     A.U. after    2 cycles

 The electronic state is 1-A'.
 Alpha  occ. eigenvalues --  -21.02630 -11.44084 -11.39474 -11.39011 -11.38631
 Alpha  occ. eigenvalues --  -11.34447  -1.73833  -1.21047  -1.01531  -1.01238
 Alpha  occ. eigenvalues --   -0.96589  -0.76828  -0.64103  -0.62264  -0.61862
 Alpha  occ. eigenvalues --   -0.59443  -0.56674  -0.53748  -0.53143  -0.50928
 Alpha  occ. eigenvalues --   -0.48526  -0.45206  -0.43024  -0.35124  -0.28448
 Alpha virt. eigenvalues --    0.03877   0.05321   0.05415   0.05521   0.05709
 Alpha virt. eigenvalues --    0.05753   0.06066   0.06740   0.06913   0.09299
 Alpha virt. eigenvalues --    0.09496   0.09794   0.11411   0.12966   0.14214

 Mulliken charges:
               1
     1  C   -4.430555
     2  C   -3.962698
     3  C   -4.430555
     4  C   -3.260532
     5  C    4.534217
     6  O   -4.130968
     7  H    1.257264
     8  H    1.178120
     9  H    1.422207
    10  H    1.284185
    11  H    1.284185
    12  H    1.218769
    13  H    1.422207
    14  H    1.178120
    15  H    1.257264
    16  H    1.440286
    17  H    1.440286
    18  H    1.298200
 Sum of Mulliken charges =   0.00000

 Dipole moment (field-independent basis, Debye):
    X=             -0.3764    Y=              0.1662    Z=             -0.0000  Tot=              0.4115

 Test job not archived.
 1\1\GINC-SE275\SP\RHF\Aug-CC-pVDZ\C5H12O1\OHZDE\06-Apr-2025\0\\#t hf a
 ug-cc-pvdz iop(5/13=1,5/36=2,99/5=2) pseudo=read geom=check guess=(rea
 d,tcheck) scf=(maxcycle=1)\\title\\0,1\C,0,-0.634025,0.771526,1.26238\
 C,0,1.518392,1.037638,0.\C,0,-0.634025,0.771526,-1.26238\C,0,-0.634025
 ,-1.948562,0.\C,0,0.140834,0.377397,0.\O,0,0.443226,-1.034249,0.\H,0,-
 0.10178,0.437781,2.153609\H,0,-0.741929,1.855478,1.313981\H,0,-1.63640
 9,0.343353,1.277197\H,0,2.081691,0.735411,-0.882718\H,0,2.081691,0.735
 411,0.882718\H,0,1.426783,2.124044,0.\H,0,-1.636409,0.343353,-1.277197

 Normal termination of Gaussian 16 at Sun Apr  6 08:02:49 2025.
