 Gaussian 16, Revision C.01,

 ----------------------------------------------------------------------
 #t hf aug-cc-pvdz symm=none int=(grid=ultrafine) guess=(read,tcheck) s
 table=(opt,rrhf)
 ----------------------------------------------------------------------
 -----
 title
 -----
 Symbolic Z-matrix:
 Charge =  0 Multiplicity = 1

 SCF Done:  E(RHF) =  -195.167457114     A.U. after   13 cycles
 Normal termination of Gaussian 16 at Sun Apr  6 08:03:05 2025.
 Gaussian 16:  ES64L-G16RevC.01  3-Jul-2019

 ----------------------------------------------------------------------
 #t hf aug-cc-pvdz iop(5/13=1,5/36=2,99/5=2) pseudo=read geom=check gue
 ss=(read,tcheck) scf=(maxcycle=1)
 ----------------------------------------------------------------------
 -----
 title
 -----
 Structure from the checkpoint file:  "2-methyl-2-butene.chk"
 Charge =  0 Multiplicity = 1

                         Standard orientation:
 ---------------------------------------------------------------------
 Center     Atomic      Atomic             Coordinates (Angstroms)
 Number     Number       Type             X           Y           Z
 ---------------------------------------------------------------------
      1          6           0       -0.735351   -0.665405    0.000000
      2          6           0        0.000000    0.449055    0.000000
      3          6           0       -0.272212   -2.090707    0.000000
      4          6           0       -0.654331    1.805181    0.000000
      5          6           0        1.503840    0.487539    0.000000
      6          1           0       -1.815046   -0.542325    0.000000
      7          1           0        0.811162   -2.190686    0.000000
      8          1           0       -0.654736   -2.622552    0.875627
      9          1           0       -0.654736   -2.622552   -0.875627
     10          1           0       -1.741078    1.730857    0.000000
     11          1           0       -0.352201    2.386480    0.876320
     12          1           0       -0.352201    2.386480   -0.876320
     13          1           0        1.872880    1.029375   -0.875759
     14          1           0        1.872880    1.029375    0.875759
     15          1           0        1.961399   -0.498430    0.000000
 ---------------------------------------------------------------------

 SCF Done:  E(RHF) =  -196.183027433     A.U. after    2 cycles

 The electronic state is 1-A'.
 Alpha  occ. eigenvalues --  -11.42306 -11.38957 -11.38297 -11.37187 -11.34510
 Alpha  occ. eigenvalues --   -1.25921  -1.08217  -1.00557  -0.91073  -0.72365
 Alpha  occ. eigenvalues --   -0.62580  -0.58901  -0.58480  -0.55064  -0.52649
 Alpha  occ. eigenvalues --   -0.52573  -0.50499  -0.45815  -0.42740  -0.31333
 Alpha virt. eigenvalues --    0.03519   0.05342   0.05577   0.05919   0.06188
 Alpha virt. eigenvalues --    0.06468   0.07075   0.07219   0.08877   0.09355
 Alpha virt. eigenvalues --    0.10856   0.13277   0.13320   0.14048   0.14428

 Mulliken charges:
               1
     1  C   -0.401366
     2  C    2.253335
     3  C   -4.371817
     4  C   -4.909301
     5  C   -4.978303
     6  H    1.522204
     7  H    1.380338
     8  H    1.133695
     9  H    1.133695
    10  H    1.329451
    11  H    1.124024
    12  H    1.124024
    13  H    1.095521
    14  H    1.095521
    15  H    1.468978
 Sum of Mulliken charges =   0.00000

 Dipole moment (field-independent basis, Debye):
    X=              0.1751    Y=              0.0331    Z=              0.0000  Tot=              0.1782

 Test job not archived.
 1\1\GINC-SE012\SP\RHF\Aug-CC-pVDZ\C5H10\OHZDE\06-Apr-2025\0\\#t hf aug
 -cc-pvdz iop(5/13=1,5/36=2,99/5=2) pseudo=read geom=check guess=(read,
 tcheck) scf=(maxcycle=1)\\title\\0,1\C,0,-0.735351,-0.665405,0.\C,0,0.
 ,0.449055,0.\C,0,-0.272212,-2.090707,0.\C,0,-0.654331,1.805181,0.\C,0,
 1.50384,0.487539,0.\H,0,-1.815046,-0.542325,0.\H,0,0.811162,-2.190686,
 0.\H,0,-0.654737,-2.622552,0.875627\H,0,-0.654737,-2.622552,-0.875627\
 H,0,-1.741078,1.730857,0.\H,0,-0.352201,2.38648,0.87632\H,0,-0.352201,
 2.38648,-0.87632\H,0,1.87288,1.029375,-0.875759\H,0,1.87288,1.029375,0

 Normal termination of Gaussian 16 at Sun Apr  6 08:03:08 2025.
