 Gaussian 16, Revision C.01,

 ----------------------------------------------------------------------
 #t hf aug-cc-pvdz symm=none int=(grid=ultrafine) guess=(read,tcheck) s
 table=(opt,rrhf)
 ----------------------------------------------------------------------
 -----
 title
 -----
 Symbolic Z-matrix:
 Charge =  0 Multiplicity = 1

 SCF Done:  E(RHF) =  -212.354594725     A.U. after   12 cycles

 1\1\GINC-SE168\Stability\RHF\Aug-CC-pVDZ\C4H11N1\OHZDE\06-Apr-2025\0\\
 #t hf aug-cc-pvdz symm=none int=(grid=ultrafine) guess=(read,tcheck) s
 table=(opt,rrhf)\\title\\0,1\N,0,0.544724,1.387269,0.\H,0,0.216989,1.8
 95686,0.813925\H,0,0.216989,1.895686,-0.813925\C,0,-1.527556,-0.018978
 ,0.\H,0,-1.923151,0.487103,0.883105\H,0,-1.923151,0.487103,-0.883105\H
 ,0,-1.91004,-1.041945,0.\C,0,0.544724,-0.686055,1.255867\H,0,1.634333,
 -0.676871,1.262856\H,0,0.196491,-0.179088,2.158818\H,0,0.203288,-1.720
 826,1.303577\C,0,0.01162,0.01093,0.\C,0,0.544724,-0.686055,-1.255867\H

 Normal termination of Gaussian 16 at Sun Apr  6 08:03:09 2025.
 Gaussian 16:  ES64L-G16RevC.01  3-Jul-2019

 ----------------------------------------------------------------------
 #t hf aug-cc-pvdz iop(5/13=1,5/36=2,99/5=2) pseudo=read geom=check gue
 ss=(read,tcheck) scf=(maxcycle=1)
 ----------------------------------------------------------------------
 -----
 title
 -----
 Structure from the checkpoint file:  "2-methyl-2-propanamine.chk"
 Charge =  0 Multiplicity = 1

                         Standard orientation:
 ---------------------------------------------------------------------
 Center     Atomic      Atomic             Coordinates (Angstroms)
 Number     Number       Type             X           Y           Z
 ---------------------------------------------------------------------
      1          7           0        0.544724    1.387269   -0.000000
      2          1           0        0.216989    1.895686    0.813925
      3          1           0        0.216989    1.895686   -0.813925
      4          6           0       -1.527556   -0.018978    0.000000
      5          1           0       -1.923151    0.487103    0.883105
      6          1           0       -1.923151    0.487103   -0.883105
      7          1           0       -1.910040   -1.041945    0.000000
      8          6           0        0.544724   -0.686055    1.255867
      9          1           0        1.634333   -0.676871    1.262856
     10          1           0        0.196491   -0.179088    2.158818
     11          1           0        0.203288   -1.720826    1.303577
     12          6           0        0.011620    0.010930   -0.000000
     13          6           0        0.544724   -0.686055   -1.255867
     14          1           0        1.634333   -0.676871   -1.262856
     15          1           0        0.203288   -1.720826   -1.303577
     16          1           0        0.196491   -0.179088   -2.158818
 ---------------------------------------------------------------------

 SCF Done:  E(RHF) =  -213.454131764     A.U. after    2 cycles

 The electronic state is 1-A'.
 Alpha  occ. eigenvalues --  -15.71763 -11.42087 -11.38245 -11.38176 -11.34080
 Alpha  occ. eigenvalues --   -1.36918  -1.13015  -1.00457  -1.00442  -0.78385
 Alpha  occ. eigenvalues --   -0.65318  -0.62926  -0.60597  -0.57197  -0.54289
 Alpha  occ. eigenvalues --   -0.52171  -0.50778  -0.46727  -0.43618  -0.42419
 Alpha  occ. eigenvalues --   -0.33753
 Alpha virt. eigenvalues --    0.03743   0.05692   0.05809   0.05995   0.06079
 Alpha virt. eigenvalues --    0.06163   0.06527   0.06574   0.07070   0.09113
 Alpha virt. eigenvalues --    0.09573   0.11730   0.14079   0.14127   0.15070

 Mulliken charges:
               1
     1  N   -3.642658
     2  H    0.532428
     3  H    0.532428
     4  C   -4.112608
     5  H    1.205834
     6  H    1.205834
     7  H    1.213048
     8  C   -4.003125
     9  H    1.187386
    10  H    1.227543
    11  H    1.195294
    12  C    3.851497
    13  C   -4.003125
    14  H    1.187386
    15  H    1.195294
    16  H    1.227543
 Sum of Mulliken charges =  -0.00000

 Dipole moment (field-independent basis, Debye):
    X=             -0.8676    Y=              0.1251    Z=              0.0000  Tot=              0.8766

 Test job not archived.
 1\1\GINC-SE168\SP\RHF\Aug-CC-pVDZ\C4H11N1\OHZDE\06-Apr-2025\0\\#t hf a
 ug-cc-pvdz iop(5/13=1,5/36=2,99/5=2) pseudo=read geom=check guess=(rea
 d,tcheck) scf=(maxcycle=1)\\title\\0,1\N,0,0.544724,1.387269,0.\H,0,0.
 216989,1.895686,0.813925\H,0,0.216989,1.895686,-0.813925\C,0,-1.527556
 ,-0.018978,0.\H,0,-1.923151,0.487103,0.883105\H,0,-1.923151,0.487103,-
 0.883105\H,0,-1.91004,-1.041945,0.\C,0,0.544724,-0.686055,1.255867\H,0
 ,1.634333,-0.676871,1.262856\H,0,0.196491,-0.179088,2.158818\H,0,0.203
 288,-1.720826,1.303577\C,0,0.01162,0.01093,0.\C,0,0.544724,-0.686055,-

 Normal termination of Gaussian 16 at Sun Apr  6 08:03:13 2025.
