 Gaussian 16, Revision C.01,

 ----------------------------------------------------------------------
 #t hf aug-cc-pvdz symm=none int=(grid=ultrafine) guess=(read,tcheck) s
 table=(opt,rrhf)
 ----------------------------------------------------------------------
 -----
 title
 -----
 Symbolic Z-matrix:
 Charge =  0 Multiplicity = 1

 SCF Done:  E(RHF) =  -310.265999688     A.U. after   12 cycles

 1\1\GINC-SE422\Stability\RHF\Aug-CC-pVDZ\C6H14O1\OHZDE\06-Apr-2025\0\\
 #t hf aug-cc-pvdz symm=none int=(grid=ultrafine) guess=(read,tcheck) s
 table=(opt,rrhf)\\title\\0,1\C,0,3.005568,-0.234641,-0.07587\C,0,-1.94
 6912,-1.107066,-0.387839\C,0,-1.238412,1.280682,-0.728586\C,0,1.63283,
 0.41303,0.105069\C,0,0.49271,-0.535387,-0.269388\C,0,-0.931821,-0.0291
 61,0.003653\O,0,-0.996264,0.187836,1.42867\H,0,3.165367,-0.547167,-1.1
 10366\H,0,3.109196,-1.119822,0.554911\H,0,3.807682,0.455938,0.188183\H
 ,0,-2.963517,-0.784311,-0.150713\H,0,-1.747156,-2.030635,0.155349\H,0,

 Normal termination of Gaussian 16 at Sun Apr  6 08:03:39 2025.
 Gaussian 16:  ES64L-G16RevC.01  3-Jul-2019

 ----------------------------------------------------------------------
 #t hf aug-cc-pvdz iop(5/13=1,5/36=2,99/5=2) pseudo=read geom=check gue
 ss=(read,tcheck) scf=(maxcycle=1)
 ----------------------------------------------------------------------
 -----
 title
 -----
 Structure from the checkpoint file:  "2-methylpentan-2-ol.chk"
 Charge =  0 Multiplicity = 1

                         Standard orientation:
 ---------------------------------------------------------------------
 Center     Atomic      Atomic             Coordinates (Angstroms)
 Number     Number       Type             X           Y           Z
 ---------------------------------------------------------------------
      1          6           0        3.005568   -0.234641   -0.075870
      2          6           0       -1.946912   -1.107066   -0.387839
      3          6           0       -1.238412    1.280682   -0.728586
      4          6           0        1.632830    0.413030    0.105069
      5          6           0        0.492710   -0.535387   -0.269388
      6          6           0       -0.931821   -0.029161    0.003653
      7          8           0       -0.996264    0.187836    1.428670
      8          1           0        3.165367   -0.547167   -1.110366
      9          1           0        3.109196   -1.119822    0.554911
     10          1           0        3.807682    0.455938    0.188183
     11          1           0       -2.963517   -0.784311   -0.150713
     12          1           0       -1.747156   -2.030635    0.155349
     13          1           0       -1.906985   -1.318328   -1.457633
     14          1           0       -0.578207    2.078717   -0.394031
     15          1           0       -2.268050    1.591351   -0.535843
     16          1           0       -1.124654    1.164869   -1.807771
     17          1           0        1.507934    0.728735    1.141736
     18          1           0        1.583749    1.318038   -0.504908
     19          1           0        0.564713   -0.793340   -1.330153
     20          1           0        0.615355   -1.469442    0.286075
     21          1           0       -1.879090    0.497967    1.653569
 ---------------------------------------------------------------------

 SCF Done:  E(RHF) =  -311.814117202     A.U. after    2 cycles

 The electronic state is 1-A.
 Alpha  occ. eigenvalues --  -21.05373 -11.45295 -11.41741 -11.39223 -11.38485
 Alpha  occ. eigenvalues --  -11.36273 -11.33841  -1.70597  -1.24054  -1.13498
 Alpha  occ. eigenvalues --   -1.01280  -0.99088  -0.85457  -0.77837  -0.65595
 Alpha  occ. eigenvalues --   -0.63116  -0.60452  -0.59103  -0.55801  -0.54513
 Alpha  occ. eigenvalues --   -0.54215  -0.50627  -0.49664  -0.47937  -0.45289
 Alpha  occ. eigenvalues --   -0.43338  -0.40700  -0.37493  -0.30699
 Alpha virt. eigenvalues --    0.03997   0.04931   0.05183   0.05231   0.05592
 Alpha virt. eigenvalues --    0.05876   0.05912   0.06434   0.07116   0.08142
 Alpha virt. eigenvalues --    0.08766   0.08905   0.09385   0.10909   0.12918

 Mulliken charges:
               1
     1  C   -4.407545
     2  C   -5.098486
     3  C   -4.579720
     4  C   -2.868907
     5  C   -3.627412
     6  C    6.711520
     7  O   -3.952010
     8  H    1.286168
     9  H    1.302522
    10  H    1.055285
    11  H    1.151308
    12  H    1.205184
    13  H    1.213247
    14  H    1.346129
    15  H    1.186672
    16  H    1.197633
    17  H    1.538659
    18  H    1.570270
    19  H    1.442745
    20  H    1.529612
    21  H    0.797126
 Sum of Mulliken charges =  -0.00000

 Dipole moment (field-independent basis, Debye):
    X=             -0.3646    Y=              0.1874    Z=             -0.2967  Tot=              0.5061

 Test job not archived.
 1\1\GINC-SE422\SP\RHF\Aug-CC-pVDZ\C6H14O1\OHZDE\06-Apr-2025\0\\#t hf a
 ug-cc-pvdz iop(5/13=1,5/36=2,99/5=2) pseudo=read geom=check guess=(rea
 d,tcheck) scf=(maxcycle=1)\\title\\0,1\C,0,3.005568,-0.234641,-0.07587
 \C,0,-1.946912,-1.107066,-0.387839\C,0,-1.238412,1.280682,-0.728586\C,
 0,1.63283,0.41303,0.105069\C,0,0.49271,-0.535387,-0.269388\C,0,-0.9318
 21,-0.029161,0.003653\O,0,-0.996264,0.187836,1.42867\H,0,3.165367,-0.5
 47167,-1.110366\H,0,3.109196,-1.119822,0.554911\H,0,3.807682,0.455938,
 0.188183\H,0,-2.963517,-0.784311,-0.150713\H,0,-1.747156,-2.030635,0.1

 Normal termination of Gaussian 16 at Sun Apr  6 08:03:47 2025.
