 Gaussian 16, Revision C.01,

 ----------------------------------------------------------------------
 #t hf aug-cc-pvdz symm=none int=(grid=ultrafine) guess=(read,tcheck) s
 table=(opt,rrhf)
 ----------------------------------------------------------------------
 -----
 title
 -----
 Symbolic Z-matrix:
 Charge =  0 Multiplicity = 1

 SCF Done:  E(RHF) =  -249.059685813     A.U. after   14 cycles
 Normal termination of Gaussian 16 at Sun Apr  6 08:03:09 2025.
 Gaussian 16:  ES64L-G16RevC.01  3-Jul-2019

 ----------------------------------------------------------------------
 #t hf aug-cc-pvdz iop(5/13=1,5/36=2,99/5=2) pseudo=read geom=check gue
 ss=(read,tcheck) scf=(maxcycle=1)
 ----------------------------------------------------------------------
 -----
 title
 -----
 Structure from the checkpoint file:  "2-methylbutanenitrile.chk"
 Charge =  0 Multiplicity = 1

                         Standard orientation:
 ---------------------------------------------------------------------
 Center     Atomic      Atomic             Coordinates (Angstroms)
 Number     Number       Type             X           Y           Z
 ---------------------------------------------------------------------
      1          6           0       -1.519478   -0.306091    0.116403
      2          7           0       -2.579509   -0.707080   -0.081472
      3          6           0       -0.053322    1.653906   -0.147603
      4          1           0       -0.178135    1.700270   -1.229566
      5          1           0       -0.816479    2.281556    0.309582
      6          1           0        0.921467    2.065882    0.106210
      7          6           0        2.314757   -0.422465    0.087354
      8          1           0        2.455299   -0.421432    1.170184
      9          1           0        2.992332   -1.166370   -0.331717
     10          1           0        2.625607    0.550800   -0.292013
     11          6           0        0.870992   -0.753554   -0.283413
     12          1           0        0.745929   -0.734085   -1.368367
     13          1           0        0.638768   -1.770647    0.035713
     14          6           0       -0.164996    0.202947    0.349922
     15          1           0       -0.015943    0.195124    1.434302
 ---------------------------------------------------------------------

 SCF Done:  E(RHF) =  -250.287997734     A.U. after    2 cycles

 The electronic state is 1-A.
 Alpha  occ. eigenvalues --  -15.75085 -11.47547 -11.43307 -11.42106 -11.39676
 Alpha  occ. eigenvalues --  -11.37484  -1.34076  -1.23922  -1.10377  -0.97503
 Alpha  occ. eigenvalues --   -0.87072  -0.71316  -0.66290  -0.61258  -0.58190
 Alpha  occ. eigenvalues --   -0.56032  -0.53807  -0.53002  -0.49245  -0.48395
 Alpha  occ. eigenvalues --   -0.47161  -0.42078  -0.40919
 Alpha virt. eigenvalues --    0.03183   0.04902   0.05132   0.05389   0.05923
 Alpha virt. eigenvalues --    0.06077   0.06718   0.07117   0.08415   0.10501
 Alpha virt. eigenvalues --    0.11783   0.12449   0.12668   0.13903   0.14188

 Mulliken charges:
               1
     1  C    2.488401
     2  N   -2.540872
     3  C   -3.828230
     4  H    1.321032
     5  H    1.256455
     6  H    1.385044
     7  C   -3.748314
     8  H    1.232365
     9  H    1.057542
    10  H    1.411385
    11  C   -2.977977
    12  H    1.465792
    13  H    1.496519
    14  C   -1.783836
    15  H    1.764694
 Sum of Mulliken charges =   0.00000

 Dipole moment (field-independent basis, Debye):
    X=              3.5837    Y=              1.1831    Z=              0.4430  Tot=              3.7998

 Test job not archived.
 1\1\GINC-SE254\SP\RHF\Aug-CC-pVDZ\C5H9N1\OHZDE\06-Apr-2025\0\\#t hf au
 g-cc-pvdz iop(5/13=1,5/36=2,99/5=2) pseudo=read geom=check guess=(read
 ,tcheck) scf=(maxcycle=1)\\title\\0,1\C,0,-1.519478,-0.306091,0.116403
 \N,0,-2.579509,-0.70708,-0.081472\C,0,-0.053322,1.653906,-0.147603\H,0
 ,-0.178135,1.70027,-1.229566\H,0,-0.816479,2.281556,0.309582\H,0,0.921
 467,2.065882,0.10621\C,0,2.314757,-0.422465,0.087354\H,0,2.455299,-0.4
 21432,1.170184\H,0,2.992332,-1.16637,-0.331717\H,0,2.625607,0.5508,-0.
 292013\C,0,0.870992,-0.753554,-0.283413\H,0,0.745929,-0.734085,-1.3683

 Normal termination of Gaussian 16 at Sun Apr  6 08:03:13 2025.
