 Gaussian 16, Revision C.01,

 ----------------------------------------------------------------------
 #t hf aug-cc-pvdz symm=none int=(grid=ultrafine) guess=(read,tcheck) s
 table=(opt,rrhf)
 ----------------------------------------------------------------------
 -----
 title
 -----
 Symbolic Z-matrix:
 Charge =  0 Multiplicity = 1

 SCF Done:  E(RHF) =  -248.165532626     A.U. after   12 cycles
 Normal termination of Gaussian 16 at Sun Apr  6 08:02:01 2025.
 Gaussian 16:  ES64L-G16RevC.01  3-Jul-2019

 ----------------------------------------------------------------------
 #t hf aug-cc-pvdz iop(5/13=1,5/36=2,99/5=2) pseudo=read geom=check gue
 ss=(read,tcheck) scf=(maxcycle=1)
 ----------------------------------------------------------------------
 -----
 title
 -----
 Structure from the checkpoint file:  "2-methoxyethanamine.chk"
 Charge =  0 Multiplicity = 1

                         Standard orientation:
 ---------------------------------------------------------------------
 Center     Atomic      Atomic             Coordinates (Angstroms)
 Number     Number       Type             X           Y           Z
 ---------------------------------------------------------------------
      1          6           0        2.394338   -0.198378    0.010397
      2          6           0       -1.213963    0.512011   -0.011820
      3          6           0        0.040704   -0.342423    0.060690
      4          7           0       -2.400419   -0.343513    0.068122
      5          8           0        1.170345    0.499841   -0.068361
      6          1           0        3.193257    0.531998   -0.100922
      7          1           0        2.481000   -0.946782   -0.786913
      8          1           0        2.505379   -0.705551    0.976378
      9          1           0       -1.223477    1.192544    0.840371
     10          1           0       -1.165713    1.129196   -0.917074
     11          1           0        0.034198   -1.091761   -0.745001
     12          1           0        0.066402   -0.885403    1.013302
     13          1           0       -2.543778   -0.851532   -0.796036
     14          1           0       -3.233572    0.205897    0.230329
 ---------------------------------------------------------------------

 SCF Done:  E(RHF) =  -249.341303814     A.U. after    2 cycles

 The electronic state is 1-A.
 Alpha  occ. eigenvalues --  -21.03781 -15.72893 -11.43424 -11.39733 -11.37240
 Alpha  occ. eigenvalues --   -1.74641  -1.32684  -1.06486  -0.94767  -0.85620
 Alpha  occ. eigenvalues --   -0.67881  -0.63718  -0.60918  -0.60045  -0.57497
 Alpha  occ. eigenvalues --   -0.53856  -0.49311  -0.45378  -0.38319  -0.35076
 Alpha  occ. eigenvalues --   -0.29398
 Alpha virt. eigenvalues --    0.04099   0.05018   0.05737   0.05892   0.06001
 Alpha virt. eigenvalues --    0.06685   0.07043   0.07862   0.09335   0.11352
 Alpha virt. eigenvalues --    0.12077   0.14750   0.15516   0.16450   0.16693

 Mulliken charges:
               1
     1  C   -2.900099
     2  C   -2.438168
     3  C   -0.456466
     4  N   -2.192591
     5  O   -3.034071
     6  H    1.307752
     7  H    1.336868
     8  H    1.333990
     9  H    1.406736
    10  H    1.426446
    11  H    1.569612
    12  H    1.486974
    13  H    0.577047
    14  H    0.575970
 Sum of Mulliken charges =  -0.00000

 Dipole moment (field-independent basis, Debye):
    X=             -0.3083    Y=              0.2903    Z=             -0.6863  Tot=              0.8064

 Test job not archived.
 1\1\GINC-SE453\SP\RHF\Aug-CC-pVDZ\C3H9N1O1\OHZDE\06-Apr-2025\0\\#t hf
 aug-cc-pvdz iop(5/13=1,5/36=2,99/5=2) pseudo=read geom=check guess=(re
 ad,tcheck) scf=(maxcycle=1)\\title\\0,1\C,0,2.394338,-0.198378,0.01039
 7\C,0,-1.213963,0.512011,-0.01182\C,0,0.040704,-0.342423,0.06069\N,0,-
 2.400419,-0.343513,0.068122\O,0,1.170345,0.499841,-0.068361\H,0,3.1932
 57,0.531998,-0.100922\H,0,2.481,-0.946782,-0.786913\H,0,2.505379,-0.70
 5551,0.976378\H,0,-1.223477,1.192544,0.840371\H,0,-1.165713,1.129196,-
 0.917074\H,0,0.034198,-1.091761,-0.745001\H,0,0.066402,-0.885403,1.013

 Normal termination of Gaussian 16 at Sun Apr  6 08:02:04 2025.
