 Gaussian 16, Revision C.01,

 ----------------------------------------------------------------------
 #t hf aug-cc-pvdz symm=none int=(grid=ultrafine) guess=(read,tcheck) s
 table=(opt,rrhf)
 ----------------------------------------------------------------------
 -----
 title
 -----
 Symbolic Z-matrix:
 Charge =  0 Multiplicity = 1

 SCF Done:  E(RHF) =  -419.497847687     A.U. after   15 cycles
 Normal termination of Gaussian 16 at Sun Apr  6 08:03:57 2025.
 Gaussian 16:  ES64L-G16RevC.01  3-Jul-2019

 ----------------------------------------------------------------------
 #t hf aug-cc-pvdz iop(5/13=1,5/36=2,99/5=2) pseudo=read geom=check gue
 ss=(read,tcheck) scf=(maxcycle=1)
 ----------------------------------------------------------------------
 -----
 title
 -----
 Structure from the checkpoint file:  "2-methoxyphenol.chk"
 Charge =  0 Multiplicity = 1

                         Standard orientation:
 ---------------------------------------------------------------------
 Center     Atomic      Atomic             Coordinates (Angstroms)
 Number     Number       Type             X           Y           Z
 ---------------------------------------------------------------------
      1          6           0       -0.983062   -2.154025    0.000000
      2          6           0       -1.860094   -1.080555    0.000000
      3          6           0        0.392477   -1.934250    0.000000
      4          6           0       -1.369349    0.225898    0.000000
      5          6           0        0.887643   -0.641461    0.000000
      6          6           0        0.000000    0.446658    0.000000
      7          6           0       -0.195214    2.837494    0.000000
      8          8           0        2.233459   -0.428850    0.000000
      9          8           0        0.616159    1.672471    0.000000
     10          1           0       -1.361602   -3.166654    0.000000
     11          1           0       -2.928255   -1.246184    0.000000
     12          1           0        1.093761   -2.757095    0.000000
     13          1           0       -2.058350    1.057052    0.000000
     14          1           0       -0.824743    2.879274    0.891811
     15          1           0       -0.824743    2.879274   -0.891811
     16          1           0        0.488417    3.681876    0.000000
     17          1           0        2.384168    0.524940    0.000000
 ---------------------------------------------------------------------

 SCF Done:  E(RHF) =  -421.406879887     A.U. after    2 cycles

 The electronic state is 1-A'.
 Alpha  occ. eigenvalues --  -21.09135 -21.08297 -11.53079 -11.45392 -11.45109
 Alpha  occ. eigenvalues --  -11.42530 -11.41391 -11.40472 -11.36337  -1.81261
 Alpha  occ. eigenvalues --   -1.73076  -1.30566  -1.09210  -1.07760  -0.99595
 Alpha  occ. eigenvalues --   -0.86469  -0.83745  -0.70827  -0.66774  -0.65201
 Alpha  occ. eigenvalues --   -0.63496  -0.61601  -0.57470  -0.55271  -0.54842
 Alpha  occ. eigenvalues --   -0.49827  -0.47808  -0.42733  -0.41434  -0.41275
 Alpha  occ. eigenvalues --   -0.40262  -0.29815  -0.24356
 Alpha virt. eigenvalues --    0.03218   0.04702   0.05132   0.05932   0.06060
 Alpha virt. eigenvalues --    0.06794   0.07173   0.08268   0.09735   0.12103
 Alpha virt. eigenvalues --    0.12559   0.13013   0.13563   0.13606   0.13775

 Mulliken charges:
               1
     1  C   -1.117105
     2  C   -1.320143
     3  C   -2.790488
     4  C   -1.699405
     5  C    4.494278
     6  C    3.431171
     7  C   -3.660241
     8  O   -4.534194
     9  O   -4.781552
    10  H    1.542761
    11  H    1.507258
    12  H    1.752581
    13  H    1.928366
    14  H    1.310683
    15  H    1.310683
    16  H    1.434233
    17  H    1.191111
 Sum of Mulliken charges =   0.00000

 Dipole moment (field-independent basis, Debye):
    X=             -0.0355    Y=              1.7967    Z=             -0.0000  Tot=              1.7970

 Test job not archived.
 1\1\GINC-SE028\SP\RHF\Aug-CC-pVDZ\C7H8O2\OHZDE\06-Apr-2025\0\\#t hf au
 g-cc-pvdz iop(5/13=1,5/36=2,99/5=2) pseudo=read geom=check guess=(read
 ,tcheck) scf=(maxcycle=1)\\title\\0,1\C,0,-0.983062,-2.154025,0.\C,0,-
 1.860094,-1.080555,0.\C,0,0.392477,-1.93425,0.\C,0,-1.369349,0.225898,
 0.\C,0,0.887643,-0.641461,0.\C,0,0.,0.446658,0.\C,0,-0.195214,2.837494
 ,0.\O,0,2.233459,-0.42885,0.\O,0,0.616159,1.672471,0.\H,0,-1.361602,-3
 .166654,0.\H,0,-2.928255,-1.246184,0.\H,0,1.093761,-2.757095,0.\H,0,-2
 .05835,1.057052,0.\H,0,-0.824743,2.879274,0.891811\H,0,-0.824743,2.879

 Normal termination of Gaussian 16 at Sun Apr  6 08:04:04 2025.
