 Gaussian 16, Revision C.01,

 ----------------------------------------------------------------------
 #t hf aug-cc-pvdz symm=none int=(grid=ultrafine) guess=(read,tcheck) s
 table=(opt,rrhf)
 ----------------------------------------------------------------------
 -----
 title
 -----
 Symbolic Z-matrix:
 Charge =  0 Multiplicity = 1

 SCF Done:  E(RHF) =  -192.769370609     A.U. after   15 cycles
 Normal termination of Gaussian 16 at Sun Apr  6 08:02:55 2025.
 Gaussian 16:  ES64L-G16RevC.01  3-Jul-2019

 ----------------------------------------------------------------------
 #t hf aug-cc-pvdz iop(5/13=1,5/36=2,99/5=2) pseudo=read geom=check gue
 ss=(read,tcheck) scf=(maxcycle=1)
 ----------------------------------------------------------------------
 -----
 title
 -----
 Structure from the checkpoint file:  "2-methyl-1-buten-3-yne.chk"
 Charge =  0 Multiplicity = 1

                         Standard orientation:
 ---------------------------------------------------------------------
 Center     Atomic      Atomic             Coordinates (Angstroms)
 Number     Number       Type             X           Y           Z
 ---------------------------------------------------------------------
      1          6           0       -1.467731    0.790367    0.000000
      2          1           0       -1.610102    1.869749    0.000000
      3          1           0       -1.963613    0.371038    0.877295
      4          1           0       -1.963613    0.371038   -0.877295
      5          6           0        0.530643   -2.135031    0.000000
      6          1           0        0.736992   -3.175778    0.000000
      7          6           0        0.314957   -0.952176    0.000000
      8          6           0        0.000000    0.441174    0.000000
      9          6           0        0.966097    1.364809    0.000000
     10          1           0        2.010863    1.089814    0.000000
     11          1           0        0.725678    2.419275    0.000000
 ---------------------------------------------------------------------

 SCF Done:  E(RHF) =  -193.715154665     A.U. after    2 cycles

 The electronic state is 1-A'.
 Alpha  occ. eigenvalues --  -11.44867 -11.42252 -11.39995 -11.39434 -11.37944
 Alpha  occ. eigenvalues --   -1.26174  -1.06673  -1.00479  -0.85113  -0.71570
 Alpha  occ. eigenvalues --   -0.64812  -0.59344  -0.57809  -0.52155  -0.49549
 Alpha  occ. eigenvalues --   -0.43430  -0.37091  -0.31576
 Alpha virt. eigenvalues --    0.03125   0.05026   0.05742   0.06078   0.06922
 Alpha virt. eigenvalues --    0.07357   0.09801   0.09965   0.11163   0.11795
 Alpha virt. eigenvalues --    0.12231   0.14224   0.15103   0.15274   0.15333

 Mulliken charges:
               1
     1  C   -4.898952
     2  H    1.300447
     3  H    1.017880
     4  H    1.017880
     5  C   -3.511193
     6  H    0.598954
     7  C    3.956833
     8  C    2.272563
     9  C   -4.802949
    10  H    1.515476
    11  H    1.533061
 Sum of Mulliken charges =  -0.00000

 Dipole moment (field-independent basis, Debye):
    X=             -0.2630    Y=              0.2449    Z=              0.0000  Tot=              0.3594

 Test job not archived.
 1\1\GINC-SE212\SP\RHF\Aug-CC-pVDZ\C5H6\OHZDE\06-Apr-2025\0\\#t hf aug-
 cc-pvdz iop(5/13=1,5/36=2,99/5=2) pseudo=read geom=check guess=(read,t
 check) scf=(maxcycle=1)\\title\\0,1\C,0,-1.467731,0.790367,0.\H,0,-1.6
 10102,1.869749,0.\H,0,-1.963613,0.371038,0.877295\H,0,-1.963613,0.3710
 38,-0.877295\C,0,0.530643,-2.135031,0.\H,0,0.736992,-3.175778,0.\C,0,0
 .314957,-0.952176,0.\C,0,0.,0.441174,0.\C,0,0.966097,1.364809,0.\H,0,2
 .010863,1.089814,0.\H,0,0.725678,2.419275,0.\\Version=ES64L-G16RevC.01
 \State=1-A'\HF=-193.7151547\RMSD=9.731e-01\Dipole=-0.1034735,0.0963534

 Normal termination of Gaussian 16 at Sun Apr  6 08:03:00 2025.
