 Gaussian 16, Revision C.01,

 ----------------------------------------------------------------------
 #t hf aug-cc-pvdz symm=none int=(grid=ultrafine) guess=(read,tcheck) s
 table=(opt,rrhf)
 ----------------------------------------------------------------------
 -----
 title
 -----
 Symbolic Z-matrix:
 Charge =  0 Multiplicity = 1

 SCF Done:  E(RHF) =  -285.769100195     A.U. after   14 cycles
 Normal termination of Gaussian 16 at Sun Apr  6 08:03:15 2025.
 Gaussian 16:  ES64L-G16RevC.01  3-Jul-2019

 ----------------------------------------------------------------------
 #t hf aug-cc-pvdz iop(5/13=1,5/36=2,99/5=2) pseudo=read geom=check gue
 ss=(read,tcheck) scf=(maxcycle=1)
 ----------------------------------------------------------------------
 -----
 title
 -----
 Structure from the checkpoint file:  "2-methylpyridine.chk"
 Charge =  0 Multiplicity = 1

                         Standard orientation:
 ---------------------------------------------------------------------
 Center     Atomic      Atomic             Coordinates (Angstroms)
 Number     Number       Type             X           Y           Z
 ---------------------------------------------------------------------
      1          7           0        1.184590    0.251105    0.000000
      2          6           0       -0.000000    0.875562    0.000000
      3          6           0       -1.202367    0.166726    0.000000
      4          6           0       -1.174475   -1.220655    0.000000
      5          6           0        0.054155   -1.864985    0.000000
      6          6           0        1.201261   -1.080306    0.000000
      7          6           0        0.032915    2.378142    0.000000
      8          1           0       -2.143876    0.698947    0.000000
      9          1           0       -2.096226   -1.787364    0.000000
     10          1           0        0.127330   -2.943410    0.000000
     11          1           0        2.181582   -1.544032    0.000000
     12          1           0       -0.968801    2.804749    0.000000
     13          1           0        0.569466    2.743239    0.876757
     14          1           0        0.569466    2.743239   -0.876757
 ---------------------------------------------------------------------

 SCF Done:  E(RHF) =  -287.140770713     A.U. after    2 cycles

 The electronic state is 1-A'.
 Alpha  occ. eigenvalues --  -15.72719 -11.48852 -11.44921 -11.43453 -11.40448
 Alpha  occ. eigenvalues --  -11.38710 -11.36905  -1.45063  -1.18587  -1.15669
 Alpha  occ. eigenvalues --   -1.01414  -0.88727  -0.85095  -0.71117  -0.64188
 Alpha  occ. eigenvalues --   -0.62105  -0.58699  -0.56814  -0.54462  -0.51696
 Alpha  occ. eigenvalues --   -0.51089  -0.45730  -0.36424  -0.35135  -0.32889
 Alpha virt. eigenvalues --    0.03336   0.04977   0.05218   0.05631   0.06428
 Alpha virt. eigenvalues --    0.07089   0.07646   0.10419   0.10535   0.11478
 Alpha virt. eigenvalues --    0.11793   0.12639   0.13356   0.14003   0.14272

 Mulliken charges:
               1
     1  N   -3.781467
     2  C    2.563926
     3  C   -1.725968
     4  C   -0.065326
     5  C   -0.951035
     6  C   -0.990962
     7  C   -4.738957
     8  H    1.591036
     9  H    1.556753
    10  H    1.424262
    11  H    1.589229
    12  H    1.235196
    13  H    1.146657
    14  H    1.146657
 Sum of Mulliken charges =   0.00000

 Dipole moment (field-independent basis, Debye):
    X=             -1.4386    Y=             -0.6652    Z=              0.0000  Tot=              1.5849

 Test job not archived.
 1\1\GINC-SE253\SP\RHF\Aug-CC-pVDZ\C6H7N1\OHZDE\06-Apr-2025\0\\#t hf au
 g-cc-pvdz iop(5/13=1,5/36=2,99/5=2) pseudo=read geom=check guess=(read
 ,tcheck) scf=(maxcycle=1)\\title\\0,1\N,0,1.18459,0.251105,0.\C,0,0.,0
 .875562,0.\C,0,-1.202367,0.166726,0.\C,0,-1.174475,-1.220655,0.\C,0,0.
 054155,-1.864985,0.\C,0,1.201261,-1.080306,0.\C,0,0.032915,2.378142,0.
 \H,0,-2.143876,0.698947,0.\H,0,-2.096226,-1.787364,0.\H,0,0.12733,-2.9
 4341,0.\H,0,2.181582,-1.544032,0.\H,0,-0.968801,2.804749,0.\H,0,0.5694
 66,2.743239,0.876757\H,0,0.569466,2.743239,-0.876757\\Version=ES64L-G1

 Normal termination of Gaussian 16 at Sun Apr  6 08:03:20 2025.
