 Gaussian 16, Revision C.01,

 ----------------------------------------------------------------------
 #t hf aug-cc-pvdz symm=none int=(grid=ultrafine) guess=(read,tcheck) s
 table=(opt,rrhf)
 ----------------------------------------------------------------------
 -----
 title
 -----
 Symbolic Z-matrix:
 Charge =  0 Multiplicity = 1

 SCF Done:  E(RHF) =  -295.837133703     A.U. after   15 cycles
 Normal termination of Gaussian 16 at Sun Apr  6 08:02:55 2025.
 Gaussian 16:  ES64L-G16RevC.01  3-Jul-2019

 ----------------------------------------------------------------------
 #t hf aug-cc-pvdz iop(5/13=1,5/36=2,99/5=2) pseudo=read geom=check gue
 ss=(read,tcheck) scf=(maxcycle=1)
 ----------------------------------------------------------------------
 -----
 title
 -----
 Structure from the checkpoint file:  "2-methyl-2H-tetrazole.chk"
 Charge =  0 Multiplicity = 1

                         Standard orientation:
 ---------------------------------------------------------------------
 Center     Atomic      Atomic             Coordinates (Angstroms)
 Number     Number       Type             X           Y           Z
 ---------------------------------------------------------------------
      1          1           0        1.261590   -2.270226    0.000000
      2          6           0        0.638250   -1.394165    0.000000
      3          7           0        1.115640   -0.158335    0.000000
      4          7           0       -0.709343   -1.427292    0.000000
      5          7           0       -1.101004   -0.179300    0.000000
      6          7           0        0.000000    0.555258    0.000000
      7          1           0        0.482613    2.378013    0.888585
      8          1           0       -1.062032    2.314158    0.000000
      9          1           0        0.482613    2.378013   -0.888585
     10          6           0       -0.021889    2.005452    0.000000
 ---------------------------------------------------------------------

 SCF Done:  E(RHF) =  -297.181170414     A.U. after    2 cycles

 The electronic state is 1-A'.
 Alpha  occ. eigenvalues --  -15.84751 -15.81353 -15.78362 -15.76631 -11.44941
 Alpha  occ. eigenvalues --  -11.42185  -1.76677  -1.40090  -1.30869  -1.07903
 Alpha  occ. eigenvalues --   -0.88054  -0.84613  -0.73165  -0.71045  -0.62398
 Alpha  occ. eigenvalues --   -0.59591  -0.56930  -0.51482  -0.43501  -0.40850
 Alpha  occ. eigenvalues --   -0.40104  -0.37346
 Alpha virt. eigenvalues --    0.03233   0.05077   0.05890   0.06176   0.09963
 Alpha virt. eigenvalues --    0.10458   0.11376   0.12546   0.13473   0.14211
 Alpha virt. eigenvalues --    0.14633   0.16122   0.16556   0.16991   0.17581

 Mulliken charges:
               1
     1  H    1.628462
     2  C    1.276420
     3  N   -2.062241
     4  N   -1.518171
     5  N   -0.385490
     6  N   -0.147200
     7  H    1.425298
     8  H    1.402789
     9  H    1.425298
    10  C   -3.045167
 Sum of Mulliken charges =  -0.00000

 Dipole moment (field-independent basis, Debye):
    X=              1.2124    Y=              2.5525    Z=              0.0000  Tot=              2.8258

 Test job not archived.
 1\1\GINC-SE084\SP\RHF\Aug-CC-pVDZ\C2H4N4\OHZDE\06-Apr-2025\0\\#t hf au
 g-cc-pvdz iop(5/13=1,5/36=2,99/5=2) pseudo=read geom=check guess=(read
 ,tcheck) scf=(maxcycle=1)\\title\\0,1\H,0,1.26159,-2.270226,0.\C,0,0.6
 3825,-1.394165,0.\N,0,1.11564,-0.158335,0.\N,0,-0.709343,-1.427292,0.\
 N,0,-1.101004,-0.1793,0.\N,0,0.,0.555258,0.\H,0,0.482613,2.378013,0.88
 8585\H,0,-1.062032,2.314158,0.\H,0,0.482613,2.378013,-0.888585\C,0,-0.
 021889,2.005452,0.\\Version=ES64L-G16RevC.01\State=1-A'\HF=-297.181170
 4\RMSD=9.899e-02\Dipole=0.4769754,1.0042462,0.\Quadrupole=-3.6846461,3

 Normal termination of Gaussian 16 at Sun Apr  6 08:02:59 2025.
