 Gaussian 16, Revision C.01,

 ----------------------------------------------------------------------
 #t hf aug-cc-pvdz symm=none int=(grid=ultrafine) guess=(read,tcheck) s
 table=(opt,rrhf)
 ----------------------------------------------------------------------
 -----
 title
 -----
 Symbolic Z-matrix:
 Charge =  0 Multiplicity = 1

 SCF Done:  E(RHF) =  -274.428631242     A.U. after   11 cycles
 Normal termination of Gaussian 16 at Sun Apr  6 08:03:54 2025.
 Gaussian 16:  ES64L-G16RevC.01  3-Jul-2019

 ----------------------------------------------------------------------
 #t hf aug-cc-pvdz iop(5/13=1,5/36=2,99/5=2) pseudo=read geom=check gue
 ss=(read,tcheck) scf=(maxcycle=1)
 ----------------------------------------------------------------------
 -----
 title
 -----
 Structure from the checkpoint file:  "2-methylhexane.chk"
 Charge =  0 Multiplicity = 1

                         Standard orientation:
 ---------------------------------------------------------------------
 Center     Atomic      Atomic             Coordinates (Angstroms)
 Number     Number       Type             X           Y           Z
 ---------------------------------------------------------------------
      1          6           0       -0.868384    3.234895   -0.000000
      2          6           0       -0.219571   -2.152365    1.263450
      3          6           0       -0.219571   -2.152365   -1.263450
      4          6           0        0.268040    2.213869   -0.000000
      5          6           0       -0.219571    0.763488   -0.000000
      6          6           0        0.930524   -0.247686    0.000000
      7          6           0        0.542679   -1.739197    0.000000
      8          1           0       -0.486911    4.257021   -0.000000
      9          1           0       -1.503449    3.118553   -0.880742
     10          1           0       -1.503449    3.118553    0.880742
     11          1           0       -1.205277   -1.685922    1.310069
     12          1           0       -0.370188   -3.233066    1.289312
     13          1           0        0.325690   -1.871056    2.166571
     14          1           0       -1.205277   -1.685922   -1.310069
     15          1           0       -0.370188   -3.233066   -1.289312
     16          1           0        0.325690   -1.871056   -2.166571
     17          1           0        0.905576    2.378650    0.873933
     18          1           0        0.905576    2.378650   -0.873933
     19          1           0       -0.856827    0.606146    0.874834
     20          1           0       -0.856827    0.606146   -0.874834
     21          1           0        1.561967   -0.056811   -0.873944
     22          1           0        1.561967   -0.056811    0.873944
     23          1           0        1.487050   -2.293848    0.000000
 ---------------------------------------------------------------------

 SCF Done:  E(RHF) =  -275.889495652     A.U. after    2 cycles

 The electronic state is 1-A'.
 Alpha  occ. eigenvalues --  -11.42076 -11.41660 -11.39621 -11.37752 -11.36778
 Alpha  occ. eigenvalues --  -11.35094 -11.33294  -1.28495  -1.17797  -1.04479
 Alpha  occ. eigenvalues --   -0.99485  -0.92332  -0.83479  -0.78025  -0.64885
 Alpha  occ. eigenvalues --   -0.63276  -0.59151  -0.58630  -0.57066  -0.54191
 Alpha  occ. eigenvalues --   -0.51969  -0.51937  -0.48426  -0.47970  -0.45630
 Alpha  occ. eigenvalues --   -0.45081  -0.42195  -0.41500  -0.38492
 Alpha virt. eigenvalues --    0.04141   0.04962   0.05062   0.05303   0.05695
 Alpha virt. eigenvalues --    0.05751   0.06204   0.06282   0.06349   0.07381
 Alpha virt. eigenvalues --    0.08018   0.08055   0.08892   0.09961   0.10747

 Mulliken charges:
               1
     1  C   -4.482401
     2  C   -4.259231
     3  C   -4.259231
     4  C   -2.994446
     5  C   -2.709704
     6  C   -2.450724
     7  C   -1.225290
     8  H    1.077027
     9  H    1.318431
    10  H    1.318431
    11  H    1.509111
    12  H    1.178687
    13  H    1.249892
    14  H    1.509111
    15  H    1.178687
    16  H    1.249892
    17  H    1.453136
    18  H    1.453136
    19  H    1.763431
    20  H    1.763431
    21  H    1.448223
    22  H    1.448223
    23  H    1.462177
 Sum of Mulliken charges =   0.00000

 Dipole moment (field-independent basis, Debye):
    X=              0.2157    Y=             -0.0658    Z=              0.0000  Tot=              0.2255

 Test job not archived.
 1\1\GINC-SE398\SP\RHF\Aug-CC-pVDZ\C7H16\OHZDE\06-Apr-2025\0\\#t hf aug
 -cc-pvdz iop(5/13=1,5/36=2,99/5=2) pseudo=read geom=check guess=(read,
 tcheck) scf=(maxcycle=1)\\title\\0,1\C,0,-0.868384,3.234895,0.\C,0,-0.
 219571,-2.152365,1.26345\C,0,-0.219571,-2.152365,-1.26345\C,0,0.26804,
 2.213869,0.\C,0,-0.219571,0.763488,0.\C,0,0.930524,-0.247686,0.\C,0,0.
 542679,-1.739197,0.\H,0,-0.486911,4.257021,0.\H,0,-1.503449,3.118553,-
 0.880742\H,0,-1.503449,3.118553,0.880742\H,0,-1.205277,-1.685922,1.310
 069\H,0,-0.370188,-3.233066,1.289312\H,0,0.32569,-1.871056,2.166571\H,

 Normal termination of Gaussian 16 at Sun Apr  6 08:04:01 2025.
