 Gaussian 16, Revision C.01,

 ----------------------------------------------------------------------
 #t hf aug-cc-pvdz symm=none int=(grid=ultrafine) guess=(read,tcheck) s
 table=(opt,rrhf)
 ----------------------------------------------------------------------
 -----
 title
 -----
 Symbolic Z-matrix:
 Charge =  0 Multiplicity = 1

 SCF Done:  E(RHF) =  -232.171548729     A.U. after   12 cycles

 1\1\GINC-SE038\Stability\RHF\Aug-CC-pVDZ\C4H10O1\OHZDE\06-Apr-2025\0\\
 #t hf aug-cc-pvdz symm=none int=(grid=ultrafine) guess=(read,tcheck) s
 table=(opt,rrhf)\\title\\0,1\C,0,-0.678099,1.442161,-0.097723\C,0,-1.6
 02385,-0.90915,-0.006698\C,0,1.963999,-0.107579,0.092089\C,0,-0.421488
 ,-0.006587,0.311499\O,0,0.708102,-0.560944,-0.366728\H,0,-1.546873,1.8
 37096,0.431111\H,0,0.169074,2.086994,0.135299\H,0,-0.870837,1.501789,-
 1.170041\H,0,-2.500908,-0.561297,0.503988\H,0,-1.397458,-1.932194,0.30
 6542\H,0,-1.795646,-0.912336,-1.080473\H,0,2.130121,0.953843,-0.119355

 Normal termination of Gaussian 16 at Sun Apr  6 08:02:34 2025.
 Gaussian 16:  ES64L-G16RevC.01  3-Jul-2019

 ----------------------------------------------------------------------
 #t hf aug-cc-pvdz iop(5/13=1,5/36=2,99/5=2) pseudo=read geom=check gue
 ss=(read,tcheck) scf=(maxcycle=1)
 ----------------------------------------------------------------------
 -----
 title
 -----
 Structure from the checkpoint file:  "2-methoxypropane.chk"
 Charge =  0 Multiplicity = 1

                         Standard orientation:
 ---------------------------------------------------------------------
 Center     Atomic      Atomic             Coordinates (Angstroms)
 Number     Number       Type             X           Y           Z
 ---------------------------------------------------------------------
      1          6           0       -0.678099    1.442161   -0.097723
      2          6           0       -1.602385   -0.909150   -0.006698
      3          6           0        1.963999   -0.107579    0.092089
      4          6           0       -0.421488   -0.006587    0.311499
      5          8           0        0.708102   -0.560944   -0.366728
      6          1           0       -1.546873    1.837096    0.431111
      7          1           0        0.169074    2.086994    0.135299
      8          1           0       -0.870837    1.501789   -1.170041
      9          1           0       -2.500908   -0.561297    0.503988
     10          1           0       -1.397458   -1.932194    0.306542
     11          1           0       -1.795646   -0.912336   -1.080473
     12          1           0        2.130121    0.953843   -0.119355
     13          1           0        2.722137   -0.686882   -0.431688
     14          1           0        2.076887   -0.270336    1.171121
     15          1           0       -0.223479   -0.042199    1.392313
 ---------------------------------------------------------------------

 SCF Done:  E(RHF) =  -233.306692962     A.U. after    2 cycles

 The electronic state is 1-A.
 Alpha  occ. eigenvalues --  -21.03136 -11.43521 -11.39581 -11.38379 -11.34954
 Alpha  occ. eigenvalues --   -1.74160  -1.17148  -1.01022  -0.96824  -0.81615
 Alpha  occ. eigenvalues --   -0.64832  -0.62483  -0.60190  -0.58068  -0.54477
 Alpha  occ. eigenvalues --   -0.53389  -0.49530  -0.47333  -0.44290  -0.36745
 Alpha  occ. eigenvalues --   -0.28841
 Alpha virt. eigenvalues --    0.04067   0.05462   0.05696   0.05809   0.05888
 Alpha virt. eigenvalues --    0.06436   0.06620   0.06923   0.07548   0.09416
 Alpha virt. eigenvalues --    0.12275   0.13852   0.14342   0.14799   0.15493

 Mulliken charges:
               1
     1  C   -3.556163
     2  C   -3.800661
     3  C   -2.952655
     4  C    0.118078
     5  O   -3.253706
     6  H    1.221682
     7  H    1.310348
     8  H    1.296014
     9  H    1.188647
    10  H    1.296224
    11  H    1.246144
    12  H    1.441865
    13  H    1.247569
    14  H    1.328333
    15  H    1.868281
 Sum of Mulliken charges =   0.00000

 Dipole moment (field-independent basis, Debye):
    X=              0.0553    Y=              0.2023    Z=              0.4023  Tot=              0.4537

 Test job not archived.
 1\1\GINC-SE038\SP\RHF\Aug-CC-pVDZ\C4H10O1\OHZDE\06-Apr-2025\0\\#t hf a
 ug-cc-pvdz iop(5/13=1,5/36=2,99/5=2) pseudo=read geom=check guess=(rea
 d,tcheck) scf=(maxcycle=1)\\title\\0,1\C,0,-0.678099,1.442161,-0.09772
 3\C,0,-1.602385,-0.90915,-0.006698\C,0,1.963999,-0.107579,0.092089\C,0
 ,-0.421488,-0.006587,0.311499\O,0,0.708102,-0.560944,-0.366728\H,0,-1.
 546873,1.837096,0.431111\H,0,0.169074,2.086994,0.135299\H,0,-0.870837,
 1.501789,-1.170041\H,0,-2.500908,-0.561297,0.503988\H,0,-1.397458,-1.9
 32194,0.306542\H,0,-1.795646,-0.912336,-1.080473\H,0,2.130121,0.953843

 Normal termination of Gaussian 16 at Sun Apr  6 08:02:48 2025.
