 Gaussian 16, Revision C.01,

 ----------------------------------------------------------------------
 #t hf aug-cc-pvdz symm=none int=(grid=ultrafine) guess=(read,tcheck) s
 table=(opt,rrhf)
 ----------------------------------------------------------------------
 -----
 title
 -----
 Symbolic Z-matrix:
 Charge =  0 Multiplicity = 1

 SCF Done:  E(RHF) =  -232.191208997     A.U. after   12 cycles

 1\1\GINC-SE276\Stability\RHF\Aug-CC-pVDZ\C4H10O1\OHZDE\06-Apr-2025\0\\
 #t hf aug-cc-pvdz symm=none int=(grid=ultrafine) guess=(read,tcheck) s
 table=(opt,rrhf)\\title\\0,1\C,0,-0.486076,-0.705434,1.261168\C,0,-0.4
 86076,-0.705434,-1.261168\C,0,1.521674,0.142791,0.\C,0,0.001813,0.0122
 59,0.\O,0,-0.486076,1.369657,0.\H,0,-1.57707,-0.763138,1.276432\H,0,-0
 .09932,-1.724561,1.310729\H,0,-0.160405,-0.167882,2.151574\H,0,-0.1604
 05,-0.167882,-2.151574\H,0,-1.57707,-0.763138,-1.276432\H,0,-0.09932,-
 1.724561,-1.310729\H,0,1.854033,0.688346,0.883017\H,0,1.994672,-0.8395

 Normal termination of Gaussian 16 at Sun Apr  6 08:03:04 2025.
 Gaussian 16:  ES64L-G16RevC.01  3-Jul-2019

 ----------------------------------------------------------------------
 #t hf aug-cc-pvdz iop(5/13=1,5/36=2,99/5=2) pseudo=read geom=check gue
 ss=(read,tcheck) scf=(maxcycle=1)
 ----------------------------------------------------------------------
 -----
 title
 -----
 Structure from the checkpoint file:  "2-methylpropan-2-ol.chk"
 Charge =  0 Multiplicity = 1

                         Standard orientation:
 ---------------------------------------------------------------------
 Center     Atomic      Atomic             Coordinates (Angstroms)
 Number     Number       Type             X           Y           Z
 ---------------------------------------------------------------------
      1          6           0       -0.486076   -0.705434    1.261168
      2          6           0       -0.486076   -0.705434   -1.261168
      3          6           0        1.521674    0.142791    0.000000
      4          6           0        0.001813    0.012259    0.000000
      5          8           0       -0.486076    1.369657    0.000000
      6          1           0       -1.577070   -0.763138    1.276432
      7          1           0       -0.099320   -1.724561    1.310729
      8          1           0       -0.160405   -0.167882    2.151574
      9          1           0       -0.160405   -0.167882   -2.151574
     10          1           0       -1.577070   -0.763138   -1.276432
     11          1           0       -0.099320   -1.724561   -1.310729
     12          1           0        1.854033    0.688346    0.883017
     13          1           0        1.994672   -0.839511    0.000000
     14          1           0        1.854033    0.688346   -0.883017
     15          1           0       -1.448562    1.351622   -0.000000
 ---------------------------------------------------------------------

 SCF Done:  E(RHF) =  -233.329173126     A.U. after    2 cycles

 The electronic state is 1-A'.
 Alpha  occ. eigenvalues --  -21.05427 -11.43832 -11.39063 -11.38731 -11.34653
 Alpha  occ. eigenvalues --   -1.70524  -1.19995  -1.01231  -1.01030  -0.78886
 Alpha  occ. eigenvalues --   -0.64154  -0.61515  -0.61392  -0.55552  -0.54792
 Alpha  occ. eigenvalues --   -0.51308  -0.50236  -0.45774  -0.44127  -0.38114
 Alpha  occ. eigenvalues --   -0.30806
 Alpha virt. eigenvalues --    0.03619   0.05498   0.05601   0.05652   0.06117
 Alpha virt. eigenvalues --    0.06352   0.06435   0.06846   0.07565   0.09601
 Alpha virt. eigenvalues --    0.11841   0.13710   0.14451   0.15410   0.15553

 Mulliken charges:
               1
     1  C   -4.066702
     2  C   -4.066702
     3  C   -3.896061
     4  C    3.954569
     5  O   -3.688719
     6  H    1.204366
     7  H    1.229542
     8  H    1.211707
     9  H    1.211707
    10  H    1.204366
    11  H    1.229542
    12  H    1.227502
    13  H    1.240840
    14  H    1.227502
    15  H    0.776541
 Sum of Mulliken charges =  -0.00000

 Dipole moment (field-independent basis, Debye):
    X=             -0.2398    Y=             -0.5447    Z=              0.0000  Tot=              0.5952

 Test job not archived.
 1\1\GINC-SE276\SP\RHF\Aug-CC-pVDZ\C4H10O1\OHZDE\06-Apr-2025\0\\#t hf a
 ug-cc-pvdz iop(5/13=1,5/36=2,99/5=2) pseudo=read geom=check guess=(rea
 d,tcheck) scf=(maxcycle=1)\\title\\0,1\C,0,-0.486076,-0.705434,1.26116
 8\C,0,-0.486076,-0.705434,-1.261168\C,0,1.521674,0.142791,0.\C,0,0.001
 813,0.012259,0.\O,0,-0.486076,1.369657,0.\H,0,-1.57707,-0.763138,1.276
 432\H,0,-0.09932,-1.724561,1.310729\H,0,-0.160405,-0.167882,2.151574\H
 ,0,-0.160405,-0.167882,-2.151574\H,0,-1.57707,-0.763138,-1.276432\H,0,
 -0.09932,-1.724561,-1.310729\H,0,1.854033,0.688346,0.883017\H,0,1.9946

 Normal termination of Gaussian 16 at Sun Apr  6 08:03:06 2025.
