 Gaussian 16, Revision C.01,

 ----------------------------------------------------------------------
 #t hf aug-cc-pvdz symm=none int=(grid=ultrafine) guess=(read,tcheck) s
 table=(opt,rrhf)
 ----------------------------------------------------------------------
 -----
 title
 -----
 Symbolic Z-matrix:
 Charge =  0 Multiplicity = 1

 SCF Done:  E(RHF) =  -310.261242137     A.U. after   12 cycles

 1\1\GINC-SE086\Stability\RHF\Aug-CC-pVDZ\C6H14O1\OHZDE\06-Apr-2025\0\\
 #t hf aug-cc-pvdz symm=none int=(grid=ultrafine) guess=(read,tcheck) s
 table=(opt,rrhf)\\title\\0,1\C,0,-2.743598,0.27938,0.263321\C,0,1.5276
 37,1.583398,0.042847\C,0,2.22605,-0.822775,0.228502\C,0,-1.371578,0.64
 9289,-0.298578\C,0,1.159473,0.137171,-0.308936\C,0,-0.242383,-0.258067
 ,0.197134\O,0,-0.529559,-1.629626,-0.1126\H,0,-3.515575,0.944672,-0.12
 5339\H,0,-2.752787,0.361074,1.352137\H,0,-3.015995,-0.743733,0.008715\
 H,0,0.893332,2.312783,-0.458542\H,0,1.450647,1.75347,1.119924\H,0,2.55

 Normal termination of Gaussian 16 at Sun Apr  6 08:03:47 2025.
 Gaussian 16:  ES64L-G16RevC.01  3-Jul-2019

 ----------------------------------------------------------------------
 #t hf aug-cc-pvdz iop(5/13=1,5/36=2,99/5=2) pseudo=read geom=check gue
 ss=(read,tcheck) scf=(maxcycle=1)
 ----------------------------------------------------------------------
 -----
 title
 -----
 Structure from the checkpoint file:  "2-methyl-3-pentanol.chk"
 Charge =  0 Multiplicity = 1

                         Standard orientation:
 ---------------------------------------------------------------------
 Center     Atomic      Atomic             Coordinates (Angstroms)
 Number     Number       Type             X           Y           Z
 ---------------------------------------------------------------------
      1          6           0       -2.743598    0.279380    0.263321
      2          6           0        1.527637    1.583398    0.042847
      3          6           0        2.226050   -0.822775    0.228502
      4          6           0       -1.371578    0.649289   -0.298578
      5          6           0        1.159473    0.137171   -0.308936
      6          6           0       -0.242383   -0.258067    0.197134
      7          8           0       -0.529559   -1.629626   -0.112600
      8          1           0       -3.515575    0.944672   -0.125339
      9          1           0       -2.752787    0.361074    1.352137
     10          1           0       -3.015995   -0.743733    0.008715
     11          1           0        0.893332    2.312783   -0.458542
     12          1           0        1.450647    1.753470    1.119924
     13          1           0        2.558304    1.792091   -0.246918
     14          1           0        3.203847   -0.588092   -0.194843
     15          1           0        1.989120   -1.858593   -0.004759
     16          1           0        2.306790   -0.736724    1.315244
     17          1           0       -1.393282    0.611750   -1.394424
     18          1           0       -1.144600    1.683054   -0.034580
     19          1           0        1.140378    0.049342   -1.403355
     20          1           0       -0.228904   -0.235027    1.291831
     21          1           0       -0.588412   -1.719433   -1.070029
 ---------------------------------------------------------------------

 SCF Done:  E(RHF) =  -311.808095805     A.U. after    2 cycles

 The electronic state is 1-A.
 Alpha  occ. eigenvalues --  -21.05617 -11.45353 -11.42036 -11.39263 -11.38053
 Alpha  occ. eigenvalues --  -11.36385 -11.34300  -1.70472  -1.24905  -1.14725
 Alpha  occ. eigenvalues --   -0.99635  -0.97277  -0.86249  -0.80497  -0.64585
 Alpha  occ. eigenvalues --   -0.62344  -0.61325  -0.60047  -0.55235  -0.53980
 Alpha  occ. eigenvalues --   -0.53008  -0.51619  -0.48791  -0.46886  -0.46434
 Alpha  occ. eigenvalues --   -0.44889  -0.42373  -0.36948  -0.30172
 Alpha virt. eigenvalues --    0.04243   0.04842   0.05061   0.05215   0.05550
 Alpha virt. eigenvalues --    0.05929   0.06020   0.06311   0.07004   0.08211
 Alpha virt. eigenvalues --    0.08443   0.08977   0.09129   0.10641   0.12812

 Mulliken charges:
               1
     1  C   -4.256393
     2  C   -4.010561
     3  C   -4.407325
     4  C   -3.228162
     5  C   -1.685977
     6  C    2.168197
     7  O   -3.140637
     8  H    1.051763
     9  H    1.249581
    10  H    1.391158
    11  H    1.295952
    12  H    1.271100
    13  H    1.204164
    14  H    1.160274
    15  H    1.389717
    16  H    1.284907
    17  H    1.413932
    18  H    1.630567
    19  H    1.706743
    20  H    1.894485
    21  H    0.616515
 Sum of Mulliken charges =   0.00000

 Dipole moment (field-independent basis, Debye):
    X=              0.0758    Y=              0.4648    Z=             -0.4532  Tot=              0.6536

 Test job not archived.
 1\1\GINC-SE086\SP\RHF\Aug-CC-pVDZ\C6H14O1\OHZDE\06-Apr-2025\0\\#t hf a
 ug-cc-pvdz iop(5/13=1,5/36=2,99/5=2) pseudo=read geom=check guess=(rea
 d,tcheck) scf=(maxcycle=1)\\title\\0,1\C,0,-2.743598,0.27938,0.263321\
 C,0,1.527637,1.583398,0.042847\C,0,2.22605,-0.822775,0.228502\C,0,-1.3
 71578,0.649289,-0.298578\C,0,1.159473,0.137171,-0.308936\C,0,-0.242383
 ,-0.258067,0.197134\O,0,-0.529559,-1.629626,-0.1126\H,0,-3.515575,0.94
 4672,-0.125339\H,0,-2.752787,0.361074,1.352137\H,0,-3.015995,-0.743733
 ,0.008715\H,0,0.893332,2.312783,-0.458542\H,0,1.450647,1.75347,1.11992

 Normal termination of Gaussian 16 at Sun Apr  6 08:03:59 2025.
