 Gaussian 16, Revision C.01,

 ----------------------------------------------------------------------
 #t hf aug-cc-pvdz symm=none int=(grid=ultrafine) guess=(read,tcheck) s
 table=(opt,rrhf)
 ----------------------------------------------------------------------
 -----
 title
 -----
 Symbolic Z-matrix:
 Charge =  0 Multiplicity = 1

 SCF Done:  E(RHF) =  -232.183750668     A.U. after   12 cycles

 1\1\GINC-SE209\Stability\RHF\Aug-CC-pVDZ\C4H10O1\OHZDE\06-Apr-2025\0\\
 #t hf aug-cc-pvdz symm=none int=(grid=ultrafine) guess=(read,tcheck) s
 table=(opt,rrhf)\\title\\0,1\C,0,0.590555,1.457337,0.129753\C,0,1.6947
 39,-0.815651,0.002549\C,0,-0.789368,-0.654893,0.262196\C,0,0.447978,0.
 006154,-0.333326\O,0,-1.954191,0.041487,-0.185733\H,0,1.450174,1.93317
 6,-0.344932\H,0,0.740265,1.505313,1.211861\H,0,-0.298201,2.037207,-0.1
 13238\H,0,2.583805,-0.37069,-0.44573\H,0,1.613928,-1.840373,-0.36471\H
 ,0,1.858337,-0.858604,1.082387\H,0,-0.832465,-1.704406,-0.050526\H,0,-

 Normal termination of Gaussian 16 at Sun Apr  6 08:03:04 2025.
 Gaussian 16:  ES64L-G16RevC.01  3-Jul-2019

 ----------------------------------------------------------------------
 #t hf aug-cc-pvdz iop(5/13=1,5/36=2,99/5=2) pseudo=read geom=check gue
 ss=(read,tcheck) scf=(maxcycle=1)
 ----------------------------------------------------------------------
 -----
 title
 -----
 Structure from the checkpoint file:  "2-methyl-1-propanol.chk"
 Charge =  0 Multiplicity = 1

                         Standard orientation:
 ---------------------------------------------------------------------
 Center     Atomic      Atomic             Coordinates (Angstroms)
 Number     Number       Type             X           Y           Z
 ---------------------------------------------------------------------
      1          6           0        0.590555    1.457337    0.129753
      2          6           0        1.694739   -0.815651    0.002549
      3          6           0       -0.789368   -0.654893    0.262196
      4          6           0        0.447978    0.006154   -0.333326
      5          8           0       -1.954191    0.041487   -0.185733
      6          1           0        1.450174    1.933176   -0.344932
      7          1           0        0.740265    1.505313    1.211861
      8          1           0       -0.298201    2.037207   -0.113238
      9          1           0        2.583805   -0.370690   -0.445730
     10          1           0        1.613928   -1.840373   -0.364710
     11          1           0        1.858337   -0.858604    1.082387
     12          1           0       -0.832465   -1.704406   -0.050526
     13          1           0       -0.727572   -0.631330    1.357984
     14          1           0        0.314167    0.004019   -1.419727
     15          1           0       -2.732335   -0.363889    0.205458
 ---------------------------------------------------------------------

 SCF Done:  E(RHF) =  -233.316537761     A.U. after    2 cycles

 The electronic state is 1-A.
 Alpha  occ. eigenvalues --  -21.06192 -11.43060 -11.39642 -11.37553 -11.34147
 Alpha  occ. eigenvalues --   -1.70141  -1.22887  -0.99589  -0.96365  -0.80336
 Alpha  occ. eigenvalues --   -0.65037  -0.63849  -0.59277  -0.56947  -0.53137
 Alpha  occ. eigenvalues --   -0.52039  -0.45836  -0.44335  -0.42945  -0.39843
 Alpha  occ. eigenvalues --   -0.31519
 Alpha virt. eigenvalues --    0.04107   0.05306   0.05602   0.06010   0.06089
 Alpha virt. eigenvalues --    0.06406   0.06592   0.07026   0.07256   0.08975
 Alpha virt. eigenvalues --    0.12876   0.13686   0.14492   0.15182   0.15916

 Mulliken charges:
               1
     1  C   -3.752766
     2  C   -3.530909
     3  C   -0.524422
     4  C   -2.529493
     5  O   -2.753383
     6  H    1.237946
     7  H    1.323300
     8  H    1.335494
     9  H    1.264039
    10  H    1.213461
    11  H    1.279562
    12  H    1.439712
    13  H    1.492544
    14  H    1.717880
    15  H    0.787036
 Sum of Mulliken charges =  -0.00000

 Dipole moment (field-independent basis, Debye):
    X=             -0.0917    Y=             -0.4927    Z=              0.2235  Tot=              0.5487

 Test job not archived.
 1\1\GINC-SE209\SP\RHF\Aug-CC-pVDZ\C4H10O1\OHZDE\06-Apr-2025\0\\#t hf a
 ug-cc-pvdz iop(5/13=1,5/36=2,99/5=2) pseudo=read geom=check guess=(rea
 d,tcheck) scf=(maxcycle=1)\\title\\0,1\C,0,0.590555,1.457337,0.129753\
 C,0,1.694739,-0.815651,0.002549\C,0,-0.789368,-0.654893,0.262196\C,0,0
 .447978,0.006154,-0.333326\O,0,-1.954191,0.041487,-0.185733\H,0,1.4501
 74,1.933176,-0.344932\H,0,0.740265,1.505313,1.211861\H,0,-0.298201,2.0
 37207,-0.113238\H,0,2.583805,-0.37069,-0.44573\H,0,1.613928,-1.840373,
 -0.36471\H,0,1.858337,-0.858604,1.082387\H,0,-0.832465,-1.704406,-0.05

 Normal termination of Gaussian 16 at Sun Apr  6 08:03:08 2025.
