 Gaussian 16, Revision C.01,

 ----------------------------------------------------------------------
 #t hf aug-cc-pvdz symm=none int=(grid=ultrafine) guess=(read,tcheck) s
 table=(opt,rrhf)
 ----------------------------------------------------------------------
 -----
 title
 -----
 Symbolic Z-matrix:
 Charge =  0 Multiplicity = 1

 SCF Done:  E(RHF) =  -304.095233383     A.U. after   13 cycles

 1\1\GINC-SE136\Stability\RHF\Aug-CC-pVDZ\C5H10N2\OHZDE\06-Apr-2025\0\\
 #t hf aug-cc-pvdz symm=none int=(grid=ultrafine) guess=(read,tcheck) s
 table=(opt,rrhf)\\title\\0,1\C,0,0.941514,-0.098483,-0.014842\C,0,-1.7
 81018,-0.019406,0.390258\C,0,-1.091888,-1.260357,-0.181491\C,0,-1.1370
 73,1.235394,-0.190517\C,0,2.440033,-0.02573,0.105285\N,0,0.363471,-1.2
 38193,-0.066973\N,0,0.305683,1.121283,-0.051204\H,0,-2.849215,-0.03038
 6,0.168731\H,0,-1.669794,-0.010999,1.476831\H,0,-1.454663,-2.156545,0.
 325164\H,0,-1.359693,-1.380641,-1.237877\H,0,-1.420985,1.347734,-1.243

 Normal termination of Gaussian 16 at Sun Apr  6 08:03:27 2025.
 Gaussian 16:  ES64L-G16RevC.01  3-Jul-2019

 ----------------------------------------------------------------------
 #t hf aug-cc-pvdz iop(5/13=1,5/36=2,99/5=2) pseudo=read geom=check gue
 ss=(read,tcheck) scf=(maxcycle=1)
 ----------------------------------------------------------------------
 -----
 title
 -----
 Structure from the checkpoint file:  "2-methyl-1-4-5-6-tetrahydropyrimidine.chk"
 Charge =  0 Multiplicity = 1

                         Standard orientation:
 ---------------------------------------------------------------------
 Center     Atomic      Atomic             Coordinates (Angstroms)
 Number     Number       Type             X           Y           Z
 ---------------------------------------------------------------------
      1          6           0        0.941514   -0.098483   -0.014842
      2          6           0       -1.781018   -0.019406    0.390258
      3          6           0       -1.091888   -1.260357   -0.181491
      4          6           0       -1.137073    1.235394   -0.190517
      5          6           0        2.440033   -0.025730    0.105285
      6          7           0        0.363471   -1.238193   -0.066973
      7          7           0        0.305683    1.121283   -0.051204
      8          1           0       -2.849215   -0.030386    0.168731
      9          1           0       -1.669794   -0.010999    1.476831
     10          1           0       -1.454663   -2.156545    0.325164
     11          1           0       -1.359693   -1.380641   -1.237877
     12          1           0       -1.420985    1.347734   -1.243241
     13          1           0       -1.475506    2.129505    0.335358
     14          1           0        2.734140    0.509347    1.011023
     15          1           0        2.874653    0.500871   -0.747674
     16          1           0        2.842634   -1.033035    0.140948
     17          1           0        0.864952    1.954010   -0.054174
 ---------------------------------------------------------------------

 SCF Done:  E(RHF) =  -305.578125209     A.U. after    2 cycles

 The electronic state is 1-A.
 Alpha  occ. eigenvalues --  -15.74132 -15.67804 -11.45634 -11.42950 -11.40694
 Alpha  occ. eigenvalues --  -11.36934 -11.35482  -1.47945  -1.27799  -1.18656
 Alpha  occ. eigenvalues --   -1.04330  -0.94974  -0.87700  -0.73357  -0.69393
 Alpha  occ. eigenvalues --   -0.64153  -0.60732  -0.58379  -0.58093  -0.53983
 Alpha  occ. eigenvalues --   -0.52136  -0.50492  -0.49562  -0.43927  -0.41795
 Alpha  occ. eigenvalues --   -0.32233  -0.28567
 Alpha virt. eigenvalues --    0.03680   0.04990   0.05426   0.05825   0.05986
 Alpha virt. eigenvalues --    0.06219   0.06448   0.06967   0.07126   0.08455
 Alpha virt. eigenvalues --    0.11380   0.12455   0.12576   0.13331   0.14201

 Mulliken charges:
               1
     1  C    5.225207
     2  C   -2.602956
     3  C   -2.161501
     4  C   -2.318429
     5  C   -4.499116
     6  N   -3.386772
     7  N   -3.155421
     8  H    1.283200
     9  H    1.307184
    10  H    1.361963
    11  H    1.506868
    12  H    1.482775
    13  H    1.399515
    14  H    1.241199
    15  H    1.221244
    16  H    1.318107
    17  H    0.776933
 Sum of Mulliken charges =  -0.00000

 Dipole moment (field-independent basis, Debye):
    X=             -0.4438    Y=              2.7914    Z=             -0.0448  Tot=              2.8269

 Test job not archived.
 1\1\GINC-SE136\SP\RHF\Aug-CC-pVDZ\C5H10N2\OHZDE\06-Apr-2025\0\\#t hf a
 ug-cc-pvdz iop(5/13=1,5/36=2,99/5=2) pseudo=read geom=check guess=(rea
 d,tcheck) scf=(maxcycle=1)\\title\\0,1\C,0,0.941514,-0.098483,-0.01484
 2\C,0,-1.781018,-0.019406,0.390258\C,0,-1.091888,-1.260357,-0.181491\C
 ,0,-1.137073,1.235394,-0.190517\C,0,2.440033,-0.02573,0.105285\N,0,0.3
 63471,-1.238193,-0.066973\N,0,0.305683,1.121283,-0.051204\H,0,-2.84921
 5,-0.030386,0.168731\H,0,-1.669794,-0.010999,1.476831\H,0,-1.454663,-2
 .156545,0.325164\H,0,-1.359693,-1.380641,-1.237877\H,0,-1.420985,1.347

 Normal termination of Gaussian 16 at Sun Apr  6 08:03:34 2025.
