 Gaussian 16, Revision C.01,

 ----------------------------------------------------------------------
 #t hf aug-cc-pvdz symm=none int=(grid=ultrafine) guess=(read,tcheck) s
 table=(opt,rrhf)
 ----------------------------------------------------------------------
 -----
 title
 -----
 Symbolic Z-matrix:
 Charge =  0 Multiplicity = 1

 SCF Done:  E(RHF) =  -301.760551194     A.U. after   14 cycles
 Normal termination of Gaussian 16 at Sun Apr  6 08:03:08 2025.
 Gaussian 16:  ES64L-G16RevC.01  3-Jul-2019

 ----------------------------------------------------------------------
 #t hf aug-cc-pvdz iop(5/13=1,5/36=2,99/5=2) pseudo=read geom=check gue
 ss=(read,tcheck) scf=(maxcycle=1)
 ----------------------------------------------------------------------
 -----
 title
 -----
 Structure from the checkpoint file:  "2-methylpyrazine.chk"
 Charge =  0 Multiplicity = 1

                         Standard orientation:
 ---------------------------------------------------------------------
 Center     Atomic      Atomic             Coordinates (Angstroms)
 Number     Number       Type             X           Y           Z
 ---------------------------------------------------------------------
      1          6           0       -0.001868   -1.820771    0.000000
      2          6           0       -1.182467   -1.087059    0.000000
      3          6           0        1.179811    0.108531    0.000000
      4          6           0        0.000000    0.858405    0.000000
      5          6           0        0.008652    2.358272    0.000000
      6          7           0        1.186439   -1.221482    0.000000
      7          7           0       -1.186506    0.242772    0.000000
      8          1           0       -0.015053   -2.903968    0.000000
      9          1           0       -2.145893   -1.583765    0.000000
     10          1           0        2.144697    0.602719    0.000000
     11          1           0       -0.515539    2.739063    0.877425
     12          1           0        1.023030    2.753583    0.000000
     13          1           0       -0.515539    2.739063   -0.877425
 ---------------------------------------------------------------------

 SCF Done:  E(RHF) =  -303.172479375     A.U. after    2 cycles

 The electronic state is 1-A'.
 Alpha  occ. eigenvalues --  -15.76119 -15.75467 -11.47824 -11.46219 -11.41711
 Alpha  occ. eigenvalues --  -11.40093 -11.38331  -1.51103  -1.33177  -1.17510
 Alpha  occ. eigenvalues --   -1.03981  -0.92631  -0.87879  -0.72082  -0.65886
 Alpha  occ. eigenvalues --   -0.64554  -0.60596  -0.57362  -0.54471  -0.54171
 Alpha  occ. eigenvalues --   -0.49022  -0.45510  -0.41017  -0.34201  -0.33491
 Alpha virt. eigenvalues --    0.03332   0.05059   0.05557   0.06140   0.06537
 Alpha virt. eigenvalues --    0.06707   0.09637   0.09895   0.11048   0.11558
 Alpha virt. eigenvalues --    0.11690   0.11996   0.14057   0.14420   0.14537

 Mulliken charges:
               1
     1  C    0.111231
     2  C    0.710605
     3  C   -0.791251
     4  C    4.250134
     5  C   -4.328969
     6  N   -3.732149
     7  N   -4.624214
     8  H    1.509533
     9  H    1.582879
    10  H    1.605868
    11  H    1.218387
    12  H    1.269561
    13  H    1.218387
 Sum of Mulliken charges =   0.00000

 Dipole moment (field-independent basis, Debye):
    X=             -0.1702    Y=              0.4008    Z=              0.0000  Tot=              0.4354

 Test job not archived.
 1\1\GINC-SE453\SP\RHF\Aug-CC-pVDZ\C5H6N2\OHZDE\06-Apr-2025\0\\#t hf au
 g-cc-pvdz iop(5/13=1,5/36=2,99/5=2) pseudo=read geom=check guess=(read
 ,tcheck) scf=(maxcycle=1)\\title\\0,1\C,0,-0.001868,-1.820771,0.\C,0,-
 1.182467,-1.087059,0.\C,0,1.179811,0.108531,0.\C,0,0.,0.858405,0.\C,0,
 0.008652,2.358272,0.\N,0,1.186439,-1.221482,0.\N,0,-1.186506,0.242772,
 0.\H,0,-0.015053,-2.903968,0.\H,0,-2.145893,-1.583765,0.\H,0,2.144697,
 0.602719,0.\H,0,-0.515539,2.739063,0.877425\H,0,1.02303,2.753583,0.\H,
 0,-0.515539,2.739063,-0.877425\\Version=ES64L-G16RevC.01\State=1-A'\HF

 Normal termination of Gaussian 16 at Sun Apr  6 08:03:12 2025.
