 Gaussian 16, Revision C.01,

 ----------------------------------------------------------------------
 #t hf aug-cc-pvdz symm=none int=(grid=ultrafine) guess=(read,tcheck) s
 table=(opt,rrhf)
 ----------------------------------------------------------------------
 -----
 title
 -----
 Symbolic Z-matrix:
 Charge =  0 Multiplicity = 1

 SCF Done:  E(RHF) =  -593.880558901     A.U. after   13 cycles

 1\1\GINC-SE167\Stability\RHF\Aug-CC-pVDZ\C5H12S1\OHZDE\06-Apr-2025\0\\
 #t hf aug-cc-pvdz symm=none int=(grid=ultrafine) guess=(read,tcheck) s
 table=(opt,rrhf)\\title\\0,1\S,0,-0.692409,-1.055906,0.\C,0,-0.026867,
 0.686541,0.\C,0,-1.284091,1.562967,0.\C,0,0.800267,-2.097232,0.\H,0,0.
 440552,-3.124595,0.\H,0,-0.998307,2.616921,0.\C,0,0.800267,0.953171,1.
 259728\C,0,0.800267,0.953171,-1.259728\H,0,1.404795,-1.943574,0.891889
 \H,0,1.404795,-1.943574,-0.891889\H,0,0.214552,0.768111,-2.159589\H,0,
 0.214552,0.768111,2.159589\H,0,1.131617,1.995073,1.274003\H,0,1.131617

 Normal termination of Gaussian 16 at Sun Apr  6 08:03:27 2025.
 Gaussian 16:  ES64L-G16RevC.01  3-Jul-2019

 ----------------------------------------------------------------------
 #t hf aug-cc-pvdz iop(5/13=1,5/36=2,99/5=2) pseudo=read geom=check gue
 ss=(read,tcheck) scf=(maxcycle=1)
 ----------------------------------------------------------------------
 -----
 title
 -----
 Structure from the checkpoint file:  "2-methyl-2-methylsulfanylpropane.chk"
 Charge =  0 Multiplicity = 1

                         Standard orientation:
 ---------------------------------------------------------------------
 Center     Atomic      Atomic             Coordinates (Angstroms)
 Number     Number       Type             X           Y           Z
 ---------------------------------------------------------------------
      1         16           0       -0.692409   -1.055906    0.000000
      2          6           0       -0.026867    0.686541    0.000000
      3          6           0       -1.284091    1.562967    0.000000
      4          6           0        0.800267   -2.097232    0.000000
      5          1           0        0.440552   -3.124595    0.000000
      6          1           0       -0.998307    2.616921    0.000000
      7          6           0        0.800267    0.953171    1.259728
      8          6           0        0.800267    0.953171   -1.259728
      9          1           0        1.404795   -1.943574    0.891889
     10          1           0        1.404795   -1.943574   -0.891889
     11          1           0        0.214552    0.768111   -2.159589
     12          1           0        0.214552    0.768111    2.159589
     13          1           0        1.131617    1.995073    1.274003
     14          1           0        1.131617    1.995073   -1.274003
     15          1           0        1.692762    0.328379    1.299095
     16          1           0        1.692762    0.328379   -1.299095
     17          1           0       -1.895101    1.377247   -0.883681
     18          1           0       -1.895101    1.377247    0.883681
 ---------------------------------------------------------------------

 SCF Done:  E(RHF) =  -595.156299669     A.U. after    2 cycles

 The electronic state is 1-A'.
 Alpha  occ. eigenvalues --  -75.66125 -13.11508 -13.08318 -13.02781 -11.42625
 Alpha  occ. eigenvalues --  -11.39063 -11.38943 -11.38701 -11.35382  -8.00157
 Alpha  occ. eigenvalues --   -1.30417  -1.12970  -1.01125  -1.01123  -0.93444
 Alpha  occ. eigenvalues --   -0.76584  -0.62999  -0.61040  -0.60912  -0.58718
 Alpha  occ. eigenvalues --   -0.56717  -0.54595  -0.53768  -0.51343  -0.45786
 Alpha  occ. eigenvalues --   -0.44793  -0.40033  -0.33145  -0.21664
 Alpha virt. eigenvalues --    0.03537   0.04195   0.05673   0.05820   0.06017
 Alpha virt. eigenvalues --    0.06143   0.06268   0.06710   0.06752   0.09168
 Alpha virt. eigenvalues --    0.09340   0.09599   0.10597   0.12143   0.12750

 Mulliken charges:
               1
     1  S    0.543859
     2  C    1.656557
     3  C   -4.003669
     4  C   -4.987767
     5  H    1.302232
     6  H    1.216912
     7  C   -4.635731
     8  C   -4.635731
     9  H    1.505840
    10  H    1.505840
    11  H    1.345252
    12  H    1.345252
    13  H    1.159187
    14  H    1.159187
    15  H    1.427938
    16  H    1.427938
    17  H    1.333453
    18  H    1.333453
 Sum of Mulliken charges =   0.00000

 Dipole moment (field-independent basis, Debye):
    X=             -0.1330    Y=              0.1327    Z=             -0.0000  Tot=              0.1879

 Test job not archived.
 1\1\GINC-SE167\SP\RHF\Aug-CC-pVDZ\C5H12S1\OHZDE\06-Apr-2025\0\\#t hf a
 ug-cc-pvdz iop(5/13=1,5/36=2,99/5=2) pseudo=read geom=check guess=(rea
 d,tcheck) scf=(maxcycle=1)\\title\\0,1\S,0,-0.692409,-1.055906,0.\C,0,
 -0.026867,0.686541,0.\C,0,-1.284091,1.562967,0.\C,0,0.800267,-2.097232
 ,0.\H,0,0.440552,-3.124595,0.\H,0,-0.998307,2.616921,0.\C,0,0.800267,0
 .953171,1.259728\C,0,0.800267,0.953171,-1.259728\H,0,1.404795,-1.94357
 4,0.891889\H,0,1.404795,-1.943574,-0.891889\H,0,0.214552,0.768111,-2.1
 59589\H,0,0.214552,0.768111,2.159589\H,0,1.131617,1.995073,1.274003\H,

 Normal termination of Gaussian 16 at Sun Apr  6 08:03:32 2025.
