 Gaussian 16, Revision C.01,

 ----------------------------------------------------------------------
 #t hf aug-cc-pvdz symm=none int=(grid=ultrafine) guess=(read,tcheck) s
 table=(opt,rrhf)
 ----------------------------------------------------------------------
 -----
 title
 -----
 Symbolic Z-matrix:
 Charge =  0 Multiplicity = 1

 SCF Done:  E(RHF) =  -210.022322845     A.U. after   13 cycles
 Normal termination of Gaussian 16 at Sun Apr  6 08:02:54 2025.
 Gaussian 16:  ES64L-G16RevC.01  3-Jul-2019

 ----------------------------------------------------------------------
 #t hf aug-cc-pvdz iop(5/13=1,5/36=2,99/5=2) pseudo=read geom=check gue
 ss=(read,tcheck) scf=(maxcycle=1)
 ----------------------------------------------------------------------
 -----
 title
 -----
 Structure from the checkpoint file:  "2-methylpropanenitrile.chk"
 Charge =  0 Multiplicity = 1

                         Standard orientation:
 ---------------------------------------------------------------------
 Center     Atomic      Atomic             Coordinates (Angstroms)
 Number     Number       Type             X           Y           Z
 ---------------------------------------------------------------------
      1          7           0       -0.400750   -2.173012   -0.000000
      2          6           0       -0.026829   -1.085083   -0.000000
      3          1           0        1.527406    0.267302    0.000000
      4          6           0        0.434603    0.306529    0.000000
      5          1           0        0.322951    0.513931    2.170270
      6          1           0        0.322951    0.513931   -2.170270
      7          1           0       -1.114559    1.081957   -1.317044
      8          1           0       -1.114559    1.081957    1.317044
      9          6           0       -0.026829    1.027994   -1.276481
     10          6           0       -0.026829    1.027994    1.276481
     11          1           0        0.368182    2.043699   -1.284867
     12          1           0        0.368182    2.043699    1.284867
 ---------------------------------------------------------------------

 SCF Done:  E(RHF) =  -211.045400240     A.U. after    2 cycles

 The electronic state is 1-A'.
 Alpha  occ. eigenvalues --  -15.75223 -11.46944 -11.42712 -11.40872 -11.38626
 Alpha  occ. eigenvalues --   -1.33486  -1.22400  -1.03019  -0.92060  -0.71212
 Alpha  occ. eigenvalues --   -0.64617  -0.59500  -0.56624  -0.56157  -0.51682
 Alpha  occ. eigenvalues --   -0.50390  -0.48626  -0.42288  -0.41838
 Alpha virt. eigenvalues --    0.02952   0.05157   0.05291   0.05757   0.06226
 Alpha virt. eigenvalues --    0.06416   0.06945   0.10047   0.10531   0.12328
 Alpha virt. eigenvalues --    0.13300   0.13875   0.14573   0.15484   0.15686

 Mulliken charges:
               1
     1  N   -2.535956
     2  C    2.808750
     3  H    1.645372
     4  C   -2.608320
     5  H    1.255272
     6  H    1.255272
     7  H    1.356099
     8  H    1.356099
     9  C   -3.523048
    10  C   -3.523048
    11  H    1.256755
    12  H    1.256755
 Sum of Mulliken charges =  -0.00000

 Dipole moment (field-independent basis, Debye):
    X=              1.0810    Y=              3.5065    Z=             -0.0000  Tot=              3.6694

 Test job not archived.
 1\1\GINC-SE453\SP\RHF\Aug-CC-pVDZ\C4H7N1\OHZDE\06-Apr-2025\0\\#t hf au
 g-cc-pvdz iop(5/13=1,5/36=2,99/5=2) pseudo=read geom=check guess=(read
 ,tcheck) scf=(maxcycle=1)\\title\\0,1\N,0,-0.40075,-2.173012,0.\C,0,-0
 .026829,-1.085083,0.\H,0,1.527406,0.267302,0.\C,0,0.434603,0.306529,0.
 \H,0,0.322951,0.513931,2.17027\H,0,0.322951,0.513931,-2.17027\H,0,-1.1
 14559,1.081957,-1.317044\H,0,-1.114559,1.081957,1.317044\C,0,-0.026829
 ,1.027994,-1.276481\C,0,-0.026829,1.027994,1.276481\H,0,0.368182,2.043
 699,-1.284867\H,0,0.368182,2.043699,1.284867\\Version=ES64L-G16RevC.01

 Normal termination of Gaussian 16 at Sun Apr  6 08:02:56 2025.
