 Gaussian 16, Revision C.01,

 ----------------------------------------------------------------------
 #t hf aug-cc-pvdz symm=none int=(grid=ultrafine) guess=(read,tcheck) s
 table=(opt,rrhf)
 ----------------------------------------------------------------------
 -----
 title
 -----
 Symbolic Z-matrix:
 Charge =  0 Multiplicity = 1

 SCF Done:  E(RHF) =  -234.205521903     A.U. after   13 cycles
 Normal termination of Gaussian 16 at Sun Apr  6 08:03:19 2025.
 Gaussian 16:  ES64L-G16RevC.01  3-Jul-2019

 ----------------------------------------------------------------------
 #t hf aug-cc-pvdz iop(5/13=1,5/36=2,99/5=2) pseudo=read geom=check gue
 ss=(read,tcheck) scf=(maxcycle=1)
 ----------------------------------------------------------------------
 -----
 title
 -----
 Structure from the checkpoint file:  "2-methylpentene.chk"
 Charge =  0 Multiplicity = 1

                         Standard orientation:
 ---------------------------------------------------------------------
 Center     Atomic      Atomic             Coordinates (Angstroms)
 Number     Number       Type             X           Y           Z
 ---------------------------------------------------------------------
      1          6           0       -1.943932   -1.168905   -0.210590
      2          6           0       -1.162345   -0.135589    0.096240
      3          6           0       -1.665731    1.281359    0.033583
      4          6           0        2.748156   -0.046354    0.013425
      5          6           0        0.268935   -0.331004    0.532941
      6          6           0        1.316548    0.202314   -0.457619
      7          1           0       -1.582768   -2.188058   -0.155400
      8          1           0       -2.970744   -1.031650   -0.524857
      9          1           0       -1.553525    1.775593    1.002859
     10          1           0       -1.100728    1.876555   -0.687415
     11          1           0       -2.716479    1.319449   -0.249678
     12          1           0        2.941697   -1.113171    0.142398
     13          1           0        2.938946    0.440991    0.971889
     14          1           0        3.474380    0.337828   -0.704090
     15          1           0        0.450856   -1.395047    0.699684
     16          1           0        0.420342    0.167127    1.497865
     17          1           0        1.169178    1.273433   -0.612395
     18          1           0        1.159056   -0.273982   -1.428743
 ---------------------------------------------------------------------

 SCF Done:  E(RHF) =  -235.424235538     A.U. after    2 cycles

 The electronic state is 1-A.
 Alpha  occ. eigenvalues --  -11.43080 -11.40494 -11.38361 -11.37468 -11.35978
 Alpha  occ. eigenvalues --  -11.34330  -1.27764  -1.14422  -1.00069  -0.97646
 Alpha  occ. eigenvalues --   -0.84971  -0.74370  -0.64430  -0.62270  -0.57785
 Alpha  occ. eigenvalues --   -0.57725  -0.56043  -0.51746  -0.51062  -0.47966
 Alpha  occ. eigenvalues --   -0.46074  -0.44998  -0.41518  -0.32528
 Alpha virt. eigenvalues --    0.03788   0.05034   0.05436   0.05691   0.05909
 Alpha virt. eigenvalues --    0.06071   0.06438   0.06777   0.07412   0.08154
 Alpha virt. eigenvalues --    0.08671   0.10775   0.11770   0.12237   0.13235

 Mulliken charges:
               1
     1  C   -4.828717
     2  C    3.290556
     3  C   -4.770175
     4  C   -3.988993
     5  C   -3.371617
     6  C   -2.962927
     7  H    1.497646
     8  H    1.616392
     9  H    1.184386
    10  H    1.270138
    11  H    1.407671
    12  H    1.307353
    13  H    1.228680
    14  H    1.107083
    15  H    1.571080
    16  H    1.376621
    17  H    1.560926
    18  H    1.503898
 Sum of Mulliken charges =   0.00000

 Dipole moment (field-independent basis, Debye):
    X=              0.3316    Y=              0.4054    Z=              0.0211  Tot=              0.5242

 Test job not archived.
 1\1\GINC-SE249\SP\RHF\Aug-CC-pVDZ\C6H12\OHZDE\06-Apr-2025\0\\#t hf aug
 -cc-pvdz iop(5/13=1,5/36=2,99/5=2) pseudo=read geom=check guess=(read,
 tcheck) scf=(maxcycle=1)\\title\\0,1\C,0,-1.943932,-1.168905,-0.21059\
 C,0,-1.162345,-0.135589,0.09624\C,0,-1.665731,1.281359,0.033583\C,0,2.
 748156,-0.046354,0.013425\C,0,0.268935,-0.331004,0.532941\C,0,1.316548
 ,0.202314,-0.457619\H,0,-1.582768,-2.188058,-0.1554\H,0,-2.970744,-1.0
 3165,-0.524857\H,0,-1.553525,1.775593,1.002859\H,0,-1.100728,1.876555,
 -0.687415\H,0,-2.716479,1.319449,-0.249678\H,0,2.941697,-1.113171,0.14

 Normal termination of Gaussian 16 at Sun Apr  6 08:03:25 2025.
