 Gaussian 16, Revision C.01,

 ----------------------------------------------------------------------
 #t hf aug-cc-pvdz symm=none int=(grid=ultrafine) guess=(read,tcheck) s
 table=(opt,rrhf)
 ----------------------------------------------------------------------
 -----
 title
 -----
 Symbolic Z-matrix:
 Charge =  0 Multiplicity = 1

 SCF Done:  E(RHF) =  -267.701478487     A.U. after   14 cycles
 Normal termination of Gaussian 16 at Sun Apr  6 08:02:55 2025.
 Gaussian 16:  ES64L-G16RevC.01  3-Jul-2019

 ----------------------------------------------------------------------
 #t hf aug-cc-pvdz iop(5/13=1,5/36=2,99/5=2) pseudo=read geom=check gue
 ss=(read,tcheck) scf=(maxcycle=1)
 ----------------------------------------------------------------------
 -----
 title
 -----
 Structure from the checkpoint file:  "2-methylfuran.chk"
 Charge =  0 Multiplicity = 1

                         Standard orientation:
 ---------------------------------------------------------------------
 Center     Atomic      Atomic             Coordinates (Angstroms)
 Number     Number       Type             X           Y           Z
 ---------------------------------------------------------------------
      1          8           0        1.035246   -0.245795    0.000000
      2          6           0        0.000000    0.646987    0.000000
      3          6           0        0.492364   -1.497390    0.000000
      4          6           0       -1.179136   -0.026476    0.000000
      5          6           0       -0.858244   -1.422573    0.000000
      6          6           0        0.358496    2.086650    0.000000
      7          1           0        1.190884   -2.314077    0.000000
      8          1           0       -2.160525    0.415739    0.000000
      9          1           0       -1.544479   -2.251632    0.000000
     10          1           0       -0.545250    2.693073    0.000000
     11          1           0        0.948262    2.350033    0.880725
     12          1           0        0.948262    2.350033   -0.880725
 ---------------------------------------------------------------------

 SCF Done:  E(RHF) =  -268.947449052     A.U. after    2 cycles

 The electronic state is 1-A'.
 Alpha  occ. eigenvalues --  -21.10290 -11.47028 -11.44035 -11.41699 -11.39459
 Alpha  occ. eigenvalues --  -11.36018  -1.83795  -1.19547  -1.13345  -0.98162
 Alpha  occ. eigenvalues --   -0.80097  -0.76134  -0.71066  -0.60445  -0.58415
 Alpha  occ. eigenvalues --   -0.53033  -0.53026  -0.49824  -0.48953  -0.42020
 Alpha  occ. eigenvalues --   -0.32673  -0.30263
 Alpha virt. eigenvalues --    0.03448   0.04851   0.05406   0.05910   0.06712
 Alpha virt. eigenvalues --    0.06869   0.09893   0.11350   0.11967   0.13055
 Alpha virt. eigenvalues --    0.13758   0.13906   0.14586   0.14764   0.15748

 Mulliken charges:
               1
     1  O   -4.068520
     2  C    5.476715
     3  C    0.297247
     4  C   -3.190576
     5  C   -1.252108
     6  C   -4.600876
     7  H    1.413924
     8  H    1.318731
     9  H    1.274779
    10  H    1.080045
    11  H    1.125320
    12  H    1.125320
 Sum of Mulliken charges =   0.00000

 Dipole moment (field-independent basis, Debye):
    X=              0.0895    Y=              0.3959    Z=             -0.0000  Tot=              0.4059

 Test job not archived.
 1\1\GINC-SE343\SP\RHF\Aug-CC-pVDZ\C5H6O1\OHZDE\06-Apr-2025\0\\#t hf au
 g-cc-pvdz iop(5/13=1,5/36=2,99/5=2) pseudo=read geom=check guess=(read
 ,tcheck) scf=(maxcycle=1)\\title\\0,1\O,0,1.035246,-0.245795,0.\C,0,0.
 ,0.646987,0.\C,0,0.492364,-1.49739,0.\C,0,-1.179136,-0.026476,0.\C,0,-
 0.858244,-1.422573,0.\C,0,0.358496,2.08665,0.\H,0,1.190884,-2.314077,0
 .\H,0,-2.160525,0.415739,0.\H,0,-1.544479,-2.251632,0.\H,0,-0.54525,2.
 693073,0.\H,0,0.948262,2.350033,0.880725\H,0,0.948262,2.350033,-0.8807
 25\\Version=ES64L-G16RevC.01\State=1-A'\HF=-268.9474491\RMSD=1.504e+00

 Normal termination of Gaussian 16 at Sun Apr  6 08:03:01 2025.
