 Gaussian 16, Revision C.01,

 ----------------------------------------------------------------------
 #t hf aug-cc-pvdz symm=none int=(grid=ultrafine) guess=(read,tcheck) s
 table=(opt,rrhf)
 ----------------------------------------------------------------------
 -----
 title
 -----
 Symbolic Z-matrix:
 Charge =  0 Multiplicity = 1

 SCF Done:  E(RHF) =  -305.879259691     A.U. after   12 cycles
 Normal termination of Gaussian 16 at Sun Apr  6 08:03:06 2025.
 Gaussian 16:  ES64L-G16RevC.01  3-Jul-2019

 ----------------------------------------------------------------------
 #t hf aug-cc-pvdz iop(5/13=1,5/36=2,99/5=2) pseudo=read geom=check gue
 ss=(read,tcheck) scf=(maxcycle=1)
 ----------------------------------------------------------------------
 -----
 title
 -----
 Structure from the checkpoint file:  "2-methyl-1-3-dioxolane.chk"
 Charge =  0 Multiplicity = 1

                         Standard orientation:
 ---------------------------------------------------------------------
 Center     Atomic      Atomic             Coordinates (Angstroms)
 Number     Number       Type             X           Y           Z
 ---------------------------------------------------------------------
      1          6           0       -2.091969    0.010752   -0.180597
      2          1           0       -2.635094   -0.893942    0.090351
      3          1           0       -2.624543    0.872125    0.220077
      4          1           0       -2.045431    0.092193   -1.265498
      5          6           0       -0.698672   -0.035879    0.388299
      6          1           0       -0.716959   -0.130269    1.485995
      7          8           0        0.030683    1.138373    0.045279
      8          8           0        0.034322   -1.115337   -0.154500
      9          6           0        1.399093   -0.761458    0.034643
     10          1           0        1.998042   -1.291310   -0.702163
     11          1           0        1.730930   -1.043846    1.039807
     12          6           0        1.397982    0.765704   -0.146745
     13          1           0        1.700345    1.065105   -1.151226
     14          1           0        2.034073    1.270939    0.582825
 ---------------------------------------------------------------------

 SCF Done:  E(RHF) =  -307.259193941     A.U. after    2 cycles

 The electronic state is 1-A.
 Alpha  occ. eigenvalues --  -21.04903 -21.04149 -11.47398 -11.45823 -11.40150
 Alpha  occ. eigenvalues --  -11.36658  -1.85199  -1.65702  -1.15544  -1.03698
 Alpha  occ. eigenvalues --   -0.87584  -0.84222  -0.68914  -0.67884  -0.63431
 Alpha  occ. eigenvalues --   -0.58360  -0.55588  -0.52481  -0.48526  -0.47021
 Alpha  occ. eigenvalues --   -0.41574  -0.36926  -0.30834  -0.29758
 Alpha virt. eigenvalues --    0.04062   0.05111   0.05333   0.05415   0.05847
 Alpha virt. eigenvalues --    0.06752   0.06894   0.07379   0.10082   0.12677
 Alpha virt. eigenvalues --    0.13447   0.13585   0.14500   0.14960   0.15172

 Mulliken charges:
               1
     1  C   -3.273354
     2  H    1.198635
     3  H    1.201834
     4  H    1.257270
     5  C    1.857812
     6  H    1.639233
     7  O   -3.011032
     8  O   -2.953268
     9  C   -2.011992
    10  H    1.309660
    11  H    1.377022
    12  C   -1.325414
    13  H    1.363014
    14  H    1.370583
 Sum of Mulliken charges =   0.00000

 Dipole moment (field-independent basis, Debye):
    X=              0.6023    Y=             -0.2068    Z=              0.0320  Tot=              0.6376

 Test job not archived.
 1\1\GINC-SE108\SP\RHF\Aug-CC-pVDZ\C4H8O2\OHZDE\06-Apr-2025\0\\#t hf au
 g-cc-pvdz iop(5/13=1,5/36=2,99/5=2) pseudo=read geom=check guess=(read
 ,tcheck) scf=(maxcycle=1)\\title\\0,1\C,0,-2.091969,0.010752,-0.180597
 \H,0,-2.635094,-0.893942,0.090351\H,0,-2.624543,0.872125,0.220077\H,0,
 -2.045431,0.092193,-1.265498\C,0,-0.698672,-0.035879,0.388299\H,0,-0.7
 16959,-0.130269,1.485995\O,0,0.030683,1.138373,0.045279\O,0,0.034322,-
 1.115337,-0.1545\C,0,1.399093,-0.761458,0.034643\H,0,1.998042,-1.29131
 ,-0.702163\H,0,1.73093,-1.043846,1.039807\C,0,1.397982,0.765704,-0.146

 Normal termination of Gaussian 16 at Sun Apr  6 08:03:10 2025.
