 Gaussian 16, Revision C.01,

 ----------------------------------------------------------------------
 #t hf aug-cc-pvdz symm=none int=(grid=ultrafine) guess=(read,tcheck) s
 table=(opt,rrhf)
 ----------------------------------------------------------------------
 -----
 title
 -----
 Symbolic Z-matrix:
 Charge =  0 Multiplicity = 1

 SCF Done:  E(RHF) =  -593.884303280     A.U. after   13 cycles

 1\1\GINC-SE013\Stability\RHF\Aug-CC-pVDZ\C5H12S1\OHZDE\06-Apr-2025\0\\
 #t hf aug-cc-pvdz symm=none int=(grid=ultrafine) guess=(read,tcheck) s
 table=(opt,rrhf)\\title\\0,1\H,0,-2.24159,-1.215243,-0.387645\H,0,-0.9
 12425,-2.289504,-0.826315\H,0,-1.300954,-0.896147,-1.84639\C,0,-1.2395
 95,-1.246048,-0.81681\C,0,-0.259075,-0.399357,-0.001092\H,0,1.407768,-
 1.489975,-0.756299\H,0,1.007906,-0.079353,-1.707859\C,0,1.124715,-0.43
 5306,-0.681589\H,0,2.022628,1.398388,0.091245\H,0,3.169518,0.252206,-0
 .593787\H,0,2.473612,-0.046308,0.992131\C,0,2.255992,0.338004,-0.00428

 Normal termination of Gaussian 16 at Sun Apr  6 08:03:28 2025.
 Gaussian 16:  ES64L-G16RevC.01  3-Jul-2019

 ----------------------------------------------------------------------
 #t hf aug-cc-pvdz iop(5/13=1,5/36=2,99/5=2) pseudo=read geom=check gue
 ss=(read,tcheck) scf=(maxcycle=1)
 ----------------------------------------------------------------------
 -----
 title
 -----
 Structure from the checkpoint file:  "2-methyl-2-butanethiol.chk"
 Charge =  0 Multiplicity = 1

                         Standard orientation:
 ---------------------------------------------------------------------
 Center     Atomic      Atomic             Coordinates (Angstroms)
 Number     Number       Type             X           Y           Z
 ---------------------------------------------------------------------
      1          1           0       -2.241591   -1.215242   -0.387645
      2          1           0       -0.912426   -2.289504   -0.826315
      3          1           0       -1.300955   -0.896146   -1.846390
      4          6           0       -1.239596   -1.246047   -0.816810
      5          6           0       -0.259075   -0.399357   -0.001092
      6          1           0        1.407767   -1.489976   -0.756299
      7          1           0        1.007906   -0.079354   -1.707859
      8          6           0        1.124715   -0.435307   -0.681589
      9          1           0        2.022629    1.398387    0.091245
     10          1           0        3.169518    0.252204   -0.593787
     11          1           0        2.473612   -0.046309    0.992131
     12          6           0        2.255992    0.338003   -0.004285
     13          1           0        0.185173   -1.926656    1.466143
     14          1           0       -1.196830   -0.915575    1.889107
     15          1           0        0.434562   -0.280652    2.066600
     16          6           0       -0.201952   -0.903990    1.442827
     17          1           0       -2.042024    1.174321    0.484066
     18         16           0       -0.817990    1.387168   -0.031582
 ---------------------------------------------------------------------

 SCF Done:  E(RHF) =  -595.157362076     A.U. after    2 cycles

 The electronic state is 1-A.
 Alpha  occ. eigenvalues --  -75.67287 -13.14258 -13.09483 -13.04343 -11.44182
 Alpha  occ. eigenvalues --  -11.41340 -11.39084 -11.37333 -11.35239  -8.01176
 Alpha  occ. eigenvalues --   -1.31335  -1.10979  -1.05155  -1.01321  -0.91551
 Alpha  occ. eigenvalues --   -0.76820  -0.64440  -0.62749  -0.59699  -0.57797
 Alpha  occ. eigenvalues --   -0.54824  -0.53727  -0.50132  -0.49821  -0.47279
 Alpha  occ. eigenvalues --   -0.44078  -0.41702  -0.34698  -0.23442
 Alpha virt. eigenvalues --    0.03489   0.04864   0.05497   0.05635   0.05723
 Alpha virt. eigenvalues --    0.06174   0.06343   0.06384   0.06813   0.08583
 Alpha virt. eigenvalues --    0.08973   0.09504   0.11403   0.12807   0.13092

 Mulliken charges:
               1
     1  H    1.219670
     2  H    1.238677
     3  H    1.365926
     4  C   -4.625774
     5  C    2.668475
     6  H    1.348820
     7  H    1.373504
     8  C   -3.460181
     9  H    1.367211
    10  H    1.034696
    11  H    1.384741
    12  C   -3.905975
    13  H    1.150692
    14  H    1.202555
    15  H    1.492141
    16  C   -4.668685
    17  H    0.923579
    18  S   -1.110072
 Sum of Mulliken charges =   0.00000

 Dipole moment (field-independent basis, Debye):
    X=              1.1469    Y=             -0.1106    Z=             -0.3851  Tot=              1.2148

 Test job not archived.
 1\1\GINC-SE013\SP\RHF\Aug-CC-pVDZ\C5H12S1\OHZDE\06-Apr-2025\0\\#t hf a
 ug-cc-pvdz iop(5/13=1,5/36=2,99/5=2) pseudo=read geom=check guess=(rea
 d,tcheck) scf=(maxcycle=1)\\title\\0,1\H,0,-2.24159,-1.215243,-0.38764
 5\H,0,-0.912425,-2.289504,-0.826315\H,0,-1.300954,-0.896147,-1.84639\C
 ,0,-1.239595,-1.246048,-0.81681\C,0,-0.259075,-0.399357,-0.001092\H,0,
 1.407768,-1.489975,-0.756299\H,0,1.007906,-0.079353,-1.707859\C,0,1.12
 4715,-0.435306,-0.681589\H,0,2.022628,1.398388,0.091245\H,0,3.169518,0
 .252206,-0.593787\H,0,2.473612,-0.046308,0.992131\C,0,2.255992,0.33800

 Normal termination of Gaussian 16 at Sun Apr  6 08:03:35 2025.
