 Gaussian 16, Revision C.01,

 ----------------------------------------------------------------------
 #t hf aug-cc-pvdz symm=none int=(grid=ultrafine) guess=(read,tcheck) s
 table=(opt,rrhf)
 ----------------------------------------------------------------------
 -----
 title
 -----
 Symbolic Z-matrix:
 Charge =  0 Multiplicity = 1

 SCF Done:  E(RHF) =  -554.849194926     A.U. after   13 cycles

 1\1\GINC-SE169\Stability\RHF\Aug-CC-pVDZ\C4H10S1\OHZDE\06-Apr-2025\0\\
 #t hf aug-cc-pvdz symm=none int=(grid=ultrafine) guess=(read,tcheck) s
 table=(opt,rrhf)\\title\\0,1\C,0,0.836982,-0.734002,1.259163\C,0,0.836
 982,-0.734002,-1.259163\C,0,0.836982,1.444049,0.\C,0,0.356343,-0.01036
 6,0.\S,0,-1.509289,0.094963,0.\H,0,0.477461,-1.763198,1.286405\H,0,1.9
 29912,-0.76142,1.279568\H,0,0.489091,-0.229768,2.159568\H,0,0.489091,-
 0.229768,-2.159568\H,0,0.477461,-1.763198,-1.286405\H,0,1.929912,-0.76
 142,-1.279568\H,0,0.487296,1.977794,0.88398\H,0,1.928534,1.468659,0.\H

 Normal termination of Gaussian 16 at Sun Apr  6 08:03:08 2025.
 Gaussian 16:  ES64L-G16RevC.01  3-Jul-2019

 ----------------------------------------------------------------------
 #t hf aug-cc-pvdz iop(5/13=1,5/36=2,99/5=2) pseudo=read geom=check gue
 ss=(read,tcheck) scf=(maxcycle=1)
 ----------------------------------------------------------------------
 -----
 title
 -----
 Structure from the checkpoint file:  "2-methyl-2-propanethiol.chk"
 Charge =  0 Multiplicity = 1

                         Standard orientation:
 ---------------------------------------------------------------------
 Center     Atomic      Atomic             Coordinates (Angstroms)
 Number     Number       Type             X           Y           Z
 ---------------------------------------------------------------------
      1          6           0        0.836982   -0.734002    1.259163
      2          6           0        0.836982   -0.734002   -1.259163
      3          6           0        0.836982    1.444049    0.000000
      4          6           0        0.356343   -0.010366    0.000000
      5         16           0       -1.509289    0.094963    0.000000
      6          1           0        0.477461   -1.763198    1.286405
      7          1           0        1.929912   -0.761420    1.279568
      8          1           0        0.489091   -0.229768    2.159568
      9          1           0        0.489091   -0.229768   -2.159568
     10          1           0        0.477461   -1.763198   -1.286405
     11          1           0        1.929912   -0.761420   -1.279568
     12          1           0        0.487296    1.977794    0.883980
     13          1           0        1.928534    1.468659    0.000000
     14          1           0        0.487296    1.977794   -0.883980
     15          1           0       -1.751158   -1.228962    0.000000
 ---------------------------------------------------------------------

 SCF Done:  E(RHF) =  -555.914545069     A.U. after    2 cycles

 The electronic state is 1-A'.
 Alpha  occ. eigenvalues --  -75.67432 -13.13830 -13.09150 -13.03644 -11.43233
 Alpha  occ. eigenvalues --  -11.39337 -11.39106 -11.35675  -8.01313  -1.30155
 Alpha  occ. eigenvalues --   -1.05561  -1.01521  -1.01333  -0.78091  -0.63077
 Alpha  occ. eigenvalues --   -0.61281  -0.61207  -0.55282  -0.54733  -0.51871
 Alpha  occ. eigenvalues --   -0.47846  -0.45250  -0.43838  -0.34996  -0.23539
 Alpha virt. eigenvalues --    0.03180   0.05151   0.05692   0.05757   0.05963
 Alpha virt. eigenvalues --    0.06396   0.06522   0.06966   0.07061   0.09183
 Alpha virt. eigenvalues --    0.10880   0.11759   0.13660   0.13752   0.15378

 Mulliken charges:
               1
     1  C   -3.959835
     2  C   -3.959835
     3  C   -3.947789
     4  C    0.410529
     5  S   -0.857104
     6  H    1.225701
     7  H    1.215398
     8  H    1.357017
     9  H    1.357017
    10  H    1.225701
    11  H    1.215398
    12  H    1.259081
    13  H    1.221723
    14  H    1.259081
    15  H    0.977917
 Sum of Mulliken charges =   0.00000

 Dipole moment (field-independent basis, Debye):
    X=              0.5419    Y=              0.9869    Z=             -0.0000  Tot=              1.1259

 Test job not archived.
 1\1\GINC-SE169\SP\RHF\Aug-CC-pVDZ\C4H10S1\OHZDE\06-Apr-2025\0\\#t hf a
 ug-cc-pvdz iop(5/13=1,5/36=2,99/5=2) pseudo=read geom=check guess=(rea
 d,tcheck) scf=(maxcycle=1)\\title\\0,1\C,0,0.836982,-0.734002,1.259163
 \C,0,0.836982,-0.734002,-1.259163\C,0,0.836982,1.444049,0.\C,0,0.35634
 3,-0.010366,0.\S,0,-1.509289,0.094963,0.\H,0,0.477461,-1.763198,1.2864
 05\H,0,1.929912,-0.76142,1.279568\H,0,0.489091,-0.229768,2.159568\H,0,
 0.489091,-0.229768,-2.159568\H,0,0.477461,-1.763198,-1.286405\H,0,1.92
 9912,-0.76142,-1.279568\H,0,0.487296,1.977794,0.88398\H,0,1.928534,1.4

 Normal termination of Gaussian 16 at Sun Apr  6 08:03:13 2025.
