 Gaussian 16, Revision C.01,

 ----------------------------------------------------------------------
 #t hf aug-cc-pvdz symm=none int=(grid=ultrafine) guess=(read,tcheck) s
 table=(opt,rrhf)
 ----------------------------------------------------------------------
 -----
 title
 -----
 Symbolic Z-matrix:
 Charge =  0 Multiplicity = 1

 SCF Done:  E(RHF) =  -489.276558262     A.U. after   16 cycles
 Normal termination of Gaussian 16 at Sun Apr  6 08:03:59 2025.
 Gaussian 16:  ES64L-G16RevC.01  3-Jul-2019

 ----------------------------------------------------------------------
 #t hf aug-cc-pvdz iop(5/13=1,5/36=2,99/5=2) pseudo=read geom=check gue
 ss=(read,tcheck) scf=(maxcycle=1)
 ----------------------------------------------------------------------
 -----
 title
 -----
 Structure from the checkpoint file:  "2-nitroaniline.chk"
 Charge =  0 Multiplicity = 1

                         Standard orientation:
 ---------------------------------------------------------------------
 Center     Atomic      Atomic             Coordinates (Angstroms)
 Number     Number       Type             X           Y           Z
 ---------------------------------------------------------------------
      1          6           0        2.063464   -1.503763    0.000000
      2          6           0        2.365819   -0.135580    0.000000
      3          6           0        0.760060   -1.938693    0.000000
      4          6           0        1.333452    0.772214    0.000000
      5          6           0       -0.327896   -1.035393   -0.000000
      6          6           0       -0.000000    0.344759    0.000000
      7          7           0       -1.591077   -1.520223   -0.000000
      8          7           0       -1.021402    1.372732   -0.000000
      9          8           0       -0.674531    2.546284   -0.000000
     10          8           0       -2.211698    1.027891   -0.000000
     11          1           0        2.862699   -2.232880    0.000000
     12          1           0        3.391203    0.202815    0.000000
     13          1           0        0.541477   -2.998734   -0.000000
     14          1           0        1.518872    1.834417    0.000000
     15          1           0       -1.742811   -2.511061   -0.000000
     16          1           0       -2.363649   -0.876785   -0.000000
 ---------------------------------------------------------------------

 SCF Done:  E(RHF) =  -491.472428768     A.U. after    2 cycles

 The electronic state is 1-A'.
 Alpha  occ. eigenvalues --  -21.08642 -21.08131 -15.99504 -15.78154 -11.55859
 Alpha  occ. eigenvalues --  -11.49356 -11.46881 -11.44693 -11.42514 -11.39052
 Alpha  occ. eigenvalues --   -1.99180  -1.68294  -1.44284  -1.30214  -1.18563
 Alpha  occ. eigenvalues --   -1.09238  -0.99065  -0.89514  -0.84411  -0.74296
 Alpha  occ. eigenvalues --   -0.71348  -0.69648  -0.67558  -0.64405  -0.62699
 Alpha  occ. eigenvalues --   -0.60857  -0.55006  -0.54969  -0.50710  -0.47722
 Alpha  occ. eigenvalues --   -0.45484  -0.36175  -0.35315  -0.31237  -0.30621
 Alpha  occ. eigenvalues --   -0.28715
 Alpha virt. eigenvalues --    0.03011   0.04366   0.04714   0.06003   0.06718
 Alpha virt. eigenvalues --    0.08002   0.08474   0.10030   0.11552   0.12011
 Alpha virt. eigenvalues --    0.12849   0.13301   0.13308   0.13712   0.14360

 Mulliken charges:
               1
     1  C   -1.629527
     2  C   -0.838146
     3  C   -0.468333
     4  C   -2.226812
     5  C    1.417716
     6  C    2.967313
     7  N   -4.409659
     8  N    2.971591
     9  O   -2.901367
    10  O   -3.092627
    11  H    1.528426
    12  H    1.573644
    13  H    1.634106
    14  H    1.832450
    15  H    0.799601
    16  H    0.841625
 Sum of Mulliken charges =   0.00000

 Dipole moment (field-independent basis, Debye):
    X=              0.7657    Y=             -3.1450    Z=              0.0000  Tot=              3.2369

 Test job not archived.
 1\1\GINC-SE084\SP\RHF\Aug-CC-pVDZ\C6H6N2O2\OHZDE\06-Apr-2025\0\\#t hf
 aug-cc-pvdz iop(5/13=1,5/36=2,99/5=2) pseudo=read geom=check guess=(re
 ad,tcheck) scf=(maxcycle=1)\\title\\0,1\C,0,2.063464,-1.503763,0.\C,0,
 2.365819,-0.13558,0.\C,0,0.76006,-1.938693,0.\C,0,1.333452,0.772214,0.
 \C,0,-0.327896,-1.035393,0.\C,0,0.,0.344759,0.\N,0,-1.591077,-1.520223
 ,0.\N,0,-1.021402,1.372732,0.\O,0,-0.674531,2.546284,0.\O,0,-2.211698,
 1.027891,0.\H,0,2.862699,-2.23288,0.\H,0,3.391203,0.202815,0.\H,0,0.54
 1477,-2.998734,0.\H,0,1.518872,1.834417,0.\H,0,-1.742811,-2.511061,0.\

 Normal termination of Gaussian 16 at Sun Apr  6 08:04:07 2025.
