 Gaussian 16, Revision C.01,

 ----------------------------------------------------------------------
 #t hf aug-cc-pvdz symm=none int=(grid=ultrafine) guess=(read,tcheck) s
 table=(opt,rrhf)
 ----------------------------------------------------------------------
 -----
 title
 -----
 Symbolic Z-matrix:
 Charge =  0 Multiplicity = 1

 SCF Done:  E(RHF) =  -321.789414442     A.U. after   15 cycles
 Normal termination of Gaussian 16 at Sun Apr  6 08:03:36 2025.
 Gaussian 16:  ES64L-G16RevC.01  3-Jul-2019

 ----------------------------------------------------------------------
 #t hf aug-cc-pvdz iop(5/13=1,5/36=2,99/5=2) pseudo=read geom=check gue
 ss=(read,tcheck) scf=(maxcycle=1)
 ----------------------------------------------------------------------
 -----
 title
 -----
 Structure from the checkpoint file:  "2-nitropropane.chk"
 Charge =  0 Multiplicity = 1

                         Standard orientation:
 ---------------------------------------------------------------------
 Center     Atomic      Atomic             Coordinates (Angstroms)
 Number     Number       Type             X           Y           Z
 ---------------------------------------------------------------------
      1          6           0       -0.019580    1.273801    1.273937
      2          6           0       -0.019580    1.273801   -1.273937
      3          6           0        0.466570    0.597774   -0.000000
      4          7           0       -0.019580   -0.850943    0.000000
      5          8           0        0.828786   -1.727382   -0.000000
      6          8           0       -1.224451   -1.038289    0.000000
      7          1           0        0.370883    2.290811    1.305811
      8          1           0       -1.106994    1.317390    1.296364
      9          1           0        0.330843    0.747565    2.161338
     10          1           0        0.330843    0.747565   -2.161338
     11          1           0        0.370883    2.290811   -1.305811
     12          1           0       -1.106994    1.317390   -1.296364
     13          1           0        1.548465    0.498180   -0.000000
 ---------------------------------------------------------------------

 SCF Done:  E(RHF) =  -323.247275993     A.U. after    2 cycles

 The electronic state is 1-A'.
 Alpha  occ. eigenvalues --  -21.09210 -21.08825 -15.98216 -11.48199 -11.42042
 Alpha  occ. eigenvalues --  -11.38953  -1.99126  -1.68590  -1.28420  -1.04467
 Alpha  occ. eigenvalues --   -1.01088  -0.81193  -0.70667  -0.67613  -0.66533
 Alpha  occ. eigenvalues --   -0.59335  -0.57708  -0.56556  -0.55908  -0.50321
 Alpha  occ. eigenvalues --   -0.48884  -0.34154  -0.30990  -0.30717
 Alpha virt. eigenvalues --    0.03266   0.05127   0.05290   0.05567   0.06287
 Alpha virt. eigenvalues --    0.06460   0.06984   0.11366   0.11658   0.13208
 Alpha virt. eigenvalues --    0.13981   0.14396   0.15684   0.16136   0.16330

 Mulliken charges:
               1
     1  C   -3.222394
     2  C   -3.222394
     3  C   -2.127910
     4  N    4.385625
     5  O   -2.668365
     6  O   -2.850848
     7  H    1.236301
     8  H    1.366263
     9  H    1.312266
    10  H    1.312266
    11  H    1.236301
    12  H    1.366263
    13  H    1.876627
 Sum of Mulliken charges =  -0.00000

 Dipole moment (field-independent basis, Debye):
    X=              0.5889    Y=              2.6447    Z=              0.0000  Tot=              2.7095

 Test job not archived.
 1\1\GINC-SE014\SP\RHF\Aug-CC-pVDZ\C3H7N1O2\OHZDE\06-Apr-2025\0\\#t hf
 aug-cc-pvdz iop(5/13=1,5/36=2,99/5=2) pseudo=read geom=check guess=(re
 ad,tcheck) scf=(maxcycle=1)\\title\\0,1\C,0,-0.01958,1.273801,1.273937
 \C,0,-0.01958,1.273801,-1.273937\C,0,0.46657,0.597774,0.\N,0,-0.01958,
 -0.850943,0.\O,0,0.828786,-1.727382,0.\O,0,-1.224451,-1.038289,0.\H,0,
 0.370883,2.290811,1.305811\H,0,-1.106994,1.31739,1.296364\H,0,0.330843
 ,0.747565,2.161338\H,0,0.330843,0.747565,-2.161338\H,0,0.370883,2.2908
 11,-1.305811\H,0,-1.106994,1.31739,-1.296364\H,0,1.548465,0.49818,0.\\

 Normal termination of Gaussian 16 at Sun Apr  6 08:03:39 2025.
