 Gaussian 16, Revision C.01,

 ----------------------------------------------------------------------
 #t hf aug-cc-pvdz symm=none int=(grid=ultrafine) guess=(read,tcheck) s
 table=(opt,rrhf)
 ----------------------------------------------------------------------
 -----
 title
 -----
 Symbolic Z-matrix:
 Charge =  0 Multiplicity = 1

 SCF Done:  E(RHF) =  -509.095663438     A.U. after   17 cycles
 Normal termination of Gaussian 16 at Sun Apr  6 08:03:46 2025.
 Gaussian 16:  ES64L-G16RevC.01  3-Jul-2019

 ----------------------------------------------------------------------
 #t hf aug-cc-pvdz iop(5/13=1,5/36=2,99/5=2) pseudo=read geom=check gue
 ss=(read,tcheck) scf=(maxcycle=1)
 ----------------------------------------------------------------------
 -----
 title
 -----
 Structure from the checkpoint file:  "2-nitrophenol.chk"
 Charge =  0 Multiplicity = 1

                         Standard orientation:
 ---------------------------------------------------------------------
 Center     Atomic      Atomic             Coordinates (Angstroms)
 Number     Number       Type             X           Y           Z
 ---------------------------------------------------------------------
      1          6           0       -1.835597   -1.471168    0.106759
      2          6           0       -2.531726   -0.267314    0.040621
      3          6           0       -0.452973   -1.452868    0.080538
      4          6           0       -1.850063    0.934346   -0.048731
      5          6           0        0.235671   -0.246214    0.013147
      6          6           0       -0.453434    0.973310   -0.060215
      7          7           0        1.703827   -0.306080    0.022093
      8          8           0        2.221476   -1.316605   -0.438893
      9          8           0        2.315378    0.632296    0.504570
     10          8           0        0.220545    2.138083   -0.177817
     11          1           0       -2.364481   -2.410267    0.175643
     12          1           0       -3.612989   -0.262930    0.054068
     13          1           0        0.123143   -2.364653    0.116206
     14          1           0       -2.397052    1.867174   -0.114478
     15          1           0       -0.405870    2.862503   -0.281682
 ---------------------------------------------------------------------

 SCF Done:  E(RHF) =  -511.328090518     A.U. after    2 cycles

 The electronic state is 1-A.
 Alpha  occ. eigenvalues --  -21.13120 -21.08838 -21.08302 -15.99516 -11.56991
 Alpha  occ. eigenvalues --  -11.49786 -11.47777 -11.45598 -11.43565 -11.40098
 Alpha  occ. eigenvalues --   -1.99319  -1.78996  -1.68267  -1.36261  -1.18750
 Alpha  occ. eigenvalues --   -1.11198  -0.99781  -0.90952  -0.83891  -0.74413
 Alpha  occ. eigenvalues --   -0.70586  -0.68230  -0.66057  -0.64537  -0.61765
 Alpha  occ. eigenvalues --   -0.59039  -0.56506  -0.53516  -0.49194  -0.46124
 Alpha  occ. eigenvalues --   -0.45681  -0.37468  -0.34497  -0.30485  -0.30386
 Alpha  occ. eigenvalues --   -0.29365
 Alpha virt. eigenvalues --    0.02671   0.04224   0.04444   0.06228   0.06814
 Alpha virt. eigenvalues --    0.08156   0.09777   0.10469   0.11808   0.12375
 Alpha virt. eigenvalues --    0.12842   0.12959   0.13442   0.13647   0.13968

 Mulliken charges:
               1
     1  C   -0.372901
     2  C   -1.318739
     3  C   -1.929725
     4  C   -3.108318
     5  C    0.911641
     6  C    5.419709
     7  N    3.069007
     8  O   -2.848271
     9  O   -2.804331
    10  O   -4.540577
    11  H    1.536227
    12  H    1.495224
    13  H    1.817909
    14  H    1.624013
    15  H    1.049133
 Sum of Mulliken charges =   0.00000

 Dipole moment (field-independent basis, Debye):
    X=             -3.4987    Y=              1.2925    Z=             -0.0743  Tot=              3.7306

 Test job not archived.
 1\1\GINC-SE364\SP\RHF\Aug-CC-pVDZ\C6H5N1O3\OHZDE\06-Apr-2025\0\\#t hf
 aug-cc-pvdz iop(5/13=1,5/36=2,99/5=2) pseudo=read geom=check guess=(re
 ad,tcheck) scf=(maxcycle=1)\\title\\0,1\C,0,-1.835597,-1.471168,0.1067
 59\C,0,-2.531726,-0.267314,0.040621\C,0,-0.452973,-1.452868,0.080538\C
 ,0,-1.850063,0.934346,-0.048731\C,0,0.235671,-0.246214,0.013147\C,0,-0
 .453434,0.97331,-0.060215\N,0,1.703827,-0.30608,0.022093\O,0,2.221476,
 -1.316606,-0.438893\O,0,2.315378,0.632295,0.50457\O,0,0.220545,2.13808
 3,-0.177817\H,0,-2.364482,-2.410267,0.175643\H,0,-3.612989,-0.262929,0

 Normal termination of Gaussian 16 at Sun Apr  6 08:03:57 2025.
