 Gaussian 16, Revision C.01,

 ----------------------------------------------------------------------
 #t hf aug-cc-pvdz symm=none int=(grid=ultrafine) guess=(read,tcheck) s
 table=(opt,rrhf)
 ----------------------------------------------------------------------
 -----
 title
 -----
 Symbolic Z-matrix:
 Charge =  0 Multiplicity = 1

 SCF Done:  E(RHF) =  -450.257577457     A.U. after   16 cycles
 Normal termination of Gaussian 16 at Sun Apr  6 08:03:58 2025.
 Gaussian 16:  ES64L-G16RevC.01  3-Jul-2019

 ----------------------------------------------------------------------
 #t hf aug-cc-pvdz iop(5/13=1,5/36=2,99/5=2) pseudo=read geom=check gue
 ss=(read,tcheck) scf=(maxcycle=1)
 ----------------------------------------------------------------------
 -----
 title
 -----
 Structure from the checkpoint file:  "2-nitroso-3-pyridinol.chk"
 Charge =  0 Multiplicity = 1

                         Standard orientation:
 ---------------------------------------------------------------------
 Center     Atomic      Atomic             Coordinates (Angstroms)
 Number     Number       Type             X           Y           Z
 ---------------------------------------------------------------------
      1          8           0        2.164676   -0.539196    0.000000
      2          8           0        0.084580    2.775541    0.000000
      3          7           0       -1.331579    0.475000   -0.000000
      4          7           0        0.726390    1.750983    0.000000
      5          6           0        0.000000    0.522358    0.000000
      6          6           0        0.824411   -0.616949    0.000000
      7          6           0        0.204822   -1.870177   -0.000000
      8          6           0       -1.905774   -0.710961   -0.000000
      9          6           0       -1.171952   -1.910799   -0.000000
     10          1           0        2.405510    0.402858    0.000000
     11          1           0        0.809768   -2.765739   -0.000000
     12          1           0       -2.988888   -0.732364   -0.000000
     13          1           0       -1.693161   -2.858226   -0.000000
 ---------------------------------------------------------------------

 SCF Done:  E(RHF) =  -452.225810063     A.U. after    2 cycles

 The electronic state is 1-A'.
 Alpha  occ. eigenvalues --  -21.12844 -21.12705 -15.86736 -15.77091 -11.53542
 Alpha  occ. eigenvalues --  -11.48038 -11.46386 -11.45208 -11.40997  -1.86421
 Alpha  occ. eigenvalues --   -1.79062  -1.46865  -1.21535  -1.18886  -1.03435
 Alpha  occ. eigenvalues --   -0.90662  -0.86412  -0.74247  -0.69660  -0.66960
 Alpha  occ. eigenvalues --   -0.62277  -0.61576  -0.58870  -0.52915  -0.51851
 Alpha  occ. eigenvalues --   -0.51807  -0.50468  -0.48132  -0.37993  -0.37709
 Alpha  occ. eigenvalues --   -0.29636  -0.28149
 Alpha virt. eigenvalues --    0.03035   0.05013   0.05159   0.06167   0.06314
 Alpha virt. eigenvalues --    0.09193   0.09993   0.10209   0.11988   0.12463
 Alpha virt. eigenvalues --    0.12971   0.13195   0.13695   0.14059   0.14216

 Mulliken charges:
               1
     1  O   -4.534399
     2  O   -2.457296
     3  N   -3.240875
     4  N    0.371616
     5  C    0.048905
     6  C    5.544711
     7  C   -0.301993
     8  C   -0.644318
     9  C   -0.548660
    10  H    1.059757
    11  H    1.711758
    12  H    1.585614
    13  H    1.405179
 Sum of Mulliken charges =   0.00000

 Dipole moment (field-independent basis, Debye):
    X=              0.0824    Y=             -2.5080    Z=             -0.0000  Tot=              2.5093

 Test job not archived.
 1\1\GINC-SE038\SP\RHF\Aug-CC-pVDZ\C5H4N2O2\OHZDE\06-Apr-2025\0\\#t hf
 aug-cc-pvdz iop(5/13=1,5/36=2,99/5=2) pseudo=read geom=check guess=(re
 ad,tcheck) scf=(maxcycle=1)\\title\\0,1\O,0,2.164676,-0.539196,0.\O,0,
 0.08458,2.775541,0.\N,0,-1.331579,0.475,0.\N,0,0.72639,1.750983,0.\C,0
 ,0.,0.522358,0.\C,0,0.824411,-0.616949,0.\C,0,0.204822,-1.870177,0.\C,
 0,-1.905774,-0.710961,0.\C,0,-1.171952,-1.910799,0.\H,0,2.40551,0.4028
 58,0.\H,0,0.809768,-2.765739,0.\H,0,-2.988888,-0.732364,0.\H,0,-1.6931
 61,-2.858226,0.\\Version=ES64L-G16RevC.01\State=1-A'\HF=-452.2258101\R

 Normal termination of Gaussian 16 at Sun Apr  6 08:04:03 2025.
