 Gaussian 16, Revision C.01,

 ----------------------------------------------------------------------
 #t hf aug-cc-pvdz symm=none int=(grid=ultrafine) guess=(read,tcheck) s
 table=(opt,rrhf)
 ----------------------------------------------------------------------
 -----
 title
 -----
 Symbolic Z-matrix:
 Charge =  0 Multiplicity = 1

 SCF Done:  E(RHF) =  -1115.65622355     A.U. after   17 cycles
 Normal termination of Gaussian 16 at Sun Apr  6 08:04:00 2025.
 Gaussian 16:  ES64L-G16RevC.01  3-Jul-2019

 ----------------------------------------------------------------------
 #t hf aug-cc-pvdz iop(5/13=1,5/36=2,99/5=2) pseudo=read geom=check gue
 ss=(read,tcheck) scf=(maxcycle=1)
 ----------------------------------------------------------------------
 -----
 title
 -----
 Structure from the checkpoint file:  "2-nitropropanedithioic_acid.chk"
 Charge =  0 Multiplicity = 1

                         Standard orientation:
 ---------------------------------------------------------------------
 Center     Atomic      Atomic             Coordinates (Angstroms)
 Number     Number       Type             X           Y           Z
 ---------------------------------------------------------------------
      1         16           0       -1.970085   -1.004827    0.404057
      2         16           0       -1.139600    1.747515   -0.120095
      3          8           0        2.148970    1.195733   -0.147249
      4          8           0        1.936106   -0.474437    1.215650
      5          7           0        1.643397    0.143181    0.214618
      6          6           0        0.530339   -0.432912   -0.684238
      7          6           0       -0.823235    0.025273   -0.124545
      8          6           0        0.716286   -1.928719   -0.821212
      9          1           0        0.055106    2.176069   -0.582816
     10          1           0        0.695123    0.073347   -1.632561
     11          1           0        0.587914   -2.431303    0.132211
     12          1           0       -0.020665   -2.316756   -1.520848
     13          1           0        1.712760   -2.138854   -1.208928
 ---------------------------------------------------------------------

 SCF Done:  E(RHF) =  -1117.51698779     A.U. after    2 cycles

 The electronic state is 1-A.
 Alpha  occ. eigenvalues --  -75.73988 -75.69641 -21.11895 -21.11255 -16.01105
 Alpha  occ. eigenvalues --  -13.19587 -13.18589 -13.16624 -13.06847 -13.06146
 Alpha  occ. eigenvalues --  -13.01571 -11.54874 -11.50016 -11.41604  -8.08070
 Alpha  occ. eigenvalues --   -8.03814  -2.01776  -1.71258  -1.35854  -1.20674
 Alpha  occ. eigenvalues --   -1.11191  -1.04117  -0.90284  -0.78830  -0.72877
 Alpha  occ. eigenvalues --   -0.69530  -0.66878  -0.61797  -0.57600  -0.57136
 Alpha  occ. eigenvalues --   -0.55118  -0.47555  -0.44145  -0.43484  -0.35952
 Alpha  occ. eigenvalues --   -0.33239  -0.32968  -0.25181  -0.24482
 Alpha virt. eigenvalues --    0.02490   0.04238   0.04682   0.05668   0.05849
 Alpha virt. eigenvalues --    0.06775   0.07171   0.08728   0.09920   0.12092
 Alpha virt. eigenvalues --    0.12273   0.12640   0.13677   0.14380   0.14683

 Mulliken charges:
               1
     1  S    1.236643
     2  S   -0.389798
     3  O   -2.945414
     4  O   -2.909713
     5  N    4.964063
     6  C   -2.084177
     7  C   -1.459179
     8  C   -3.127805
     9  H    1.095076
    10  H    1.950717
    11  H    1.375000
    12  H    1.131362
    13  H    1.163227
 Sum of Mulliken charges =  -0.00000

 Dipole moment (field-independent basis, Debye):
    X=             -3.1591    Y=             -1.0407    Z=             -0.2282  Tot=              3.3340

 Test job not archived.
 1\1\GINC-SE023\SP\RHF\Aug-CC-pVDZ\C3H5N1O2S2\OHZDE\06-Apr-2025\0\\#t h
 f aug-cc-pvdz iop(5/13=1,5/36=2,99/5=2) pseudo=read geom=check guess=(
 read,tcheck) scf=(maxcycle=1)\\title\\0,1\S,0,-1.970085,-1.004828,0.40
 4057\S,0,-1.139601,1.747515,-0.120095\O,0,2.14897,1.195734,-0.147249\O
 ,0,1.936106,-0.474436,1.21565\N,0,1.643397,0.143182,0.214618\C,0,0.530
 339,-0.432912,-0.684238\C,0,-0.823235,0.025273,-0.124545\C,0,0.716287,
 -1.928719,-0.821212\H,0,0.055105,2.176069,-0.582816\H,0,0.695123,0.073
 347,-1.632561\H,0,0.587915,-2.431303,0.132211\H,0,-0.020664,-2.316756,

 Normal termination of Gaussian 16 at Sun Apr  6 08:04:06 2025.
