 Gaussian 16, Revision C.01,

 ----------------------------------------------------------------------
 #t hf aug-cc-pvdz symm=none int=(grid=ultrafine) guess=(read,tcheck) s
 table=(opt,rrhf)
 ----------------------------------------------------------------------
 -----
 title
 -----
 Symbolic Z-matrix:
 Charge =  0 Multiplicity = 1

 SCF Done:  E(RHF) =  -360.828300887     A.U. after   15 cycles
 Normal termination of Gaussian 16 at Sun Apr  6 08:03:23 2025.
 Gaussian 16:  ES64L-G16RevC.01  3-Jul-2019

 ----------------------------------------------------------------------
 #t hf aug-cc-pvdz iop(5/13=1,5/36=2,99/5=2) pseudo=read geom=check gue
 ss=(read,tcheck) scf=(maxcycle=1)
 ----------------------------------------------------------------------
 -----
 title
 -----
 Structure from the checkpoint file:  "2-nitrobutane.chk"
 Charge =  0 Multiplicity = 1

                         Standard orientation:
 ---------------------------------------------------------------------
 Center     Atomic      Atomic             Coordinates (Angstroms)
 Number     Number       Type             X           Y           Z
 ---------------------------------------------------------------------
      1          6           0        0.729471    1.904216   -0.107889
      2          6           0       -0.016491    0.615252   -0.425867
      3          7           0        0.850921   -0.558678    0.026714
      4          8           0        1.306585   -1.287691   -0.838614
      5          8           0        1.039827   -0.688006    1.224692
      6          6           0       -1.386010    0.520666    0.241641
      7          6           0       -2.166261   -0.746449   -0.100809
      8          1           0        0.857898    2.020360    0.966917
      9          1           0        1.709251    1.922511   -0.584185
     10          1           0        0.153750    2.749659   -0.483645
     11          1           0       -0.096788    0.467156   -1.500194
     12          1           0       -1.947266    1.400933   -0.080637
     13          1           0       -1.253956    0.607897    1.320918
     14          1           0       -2.318382   -0.842024   -1.177079
     15          1           0       -1.649746   -1.642316    0.245321
     16          1           0       -3.146754   -0.729961    0.374509
 ---------------------------------------------------------------------

 SCF Done:  E(RHF) =  -362.490481558     A.U. after    2 cycles

 The electronic state is 1-A.
 Alpha  occ. eigenvalues --  -21.09117 -21.08714 -15.98071 -11.48512 -11.43600
 Alpha  occ. eigenvalues --  -11.40249 -11.37487  -1.99050  -1.68502  -1.29991
 Alpha  occ. eigenvalues --   -1.12292  -1.01759  -0.92829  -0.80603  -0.70914
 Alpha  occ. eigenvalues --   -0.68459  -0.64516  -0.60978  -0.59068  -0.58645
 Alpha  occ. eigenvalues --   -0.55964  -0.53264  -0.50548  -0.48731  -0.45739
 Alpha  occ. eigenvalues --   -0.33963  -0.30977  -0.30552
 Alpha virt. eigenvalues --    0.03658   0.04460   0.05290   0.05408   0.05765
 Alpha virt. eigenvalues --    0.06092   0.06765   0.08049   0.08751   0.10931
 Alpha virt. eigenvalues --    0.11943   0.13114   0.13809   0.14749   0.15280

 Mulliken charges:
               1
     1  C   -3.551919
     2  C   -1.783647
     3  N    4.693030
     4  O   -2.734485
     5  O   -2.978556
     6  C   -2.644026
     7  C   -3.600343
     8  H    1.360101
     9  H    1.270687
    10  H    1.244299
    11  H    2.092382
    12  H    1.367579
    13  H    1.567282
    14  H    1.261642
    15  H    1.357555
    16  H    1.078418
 Sum of Mulliken charges =  -0.00000

 Dipole moment (field-independent basis, Debye):
    X=             -1.7038    Y=              2.0350    Z=             -0.4782  Tot=              2.6968

 Test job not archived.
 1\1\GINC-SE412\SP\RHF\Aug-CC-pVDZ\C4H9N1O2\OHZDE\06-Apr-2025\0\\#t hf
 aug-cc-pvdz iop(5/13=1,5/36=2,99/5=2) pseudo=read geom=check guess=(re
 ad,tcheck) scf=(maxcycle=1)\\title\\0,1\C,0,0.729471,1.904216,-0.10788
 9\C,0,-0.016491,0.615252,-0.425867\N,0,0.850921,-0.558678,0.026714\O,0
 ,1.306585,-1.287691,-0.838614\O,0,1.039827,-0.688006,1.224692\C,0,-1.3
 8601,0.520666,0.241641\C,0,-2.166261,-0.746449,-0.100809\H,0,0.857898,
 2.02036,0.966917\H,0,1.709251,1.922511,-0.584185\H,0,0.15375,2.749659,
 -0.483645\H,0,-0.096788,0.467156,-1.500194\H,0,-1.947266,1.400933,-0.0

 Normal termination of Gaussian 16 at Sun Apr  6 08:03:29 2025.
