 Gaussian 16, Revision C.01,

 ----------------------------------------------------------------------
 #t hf aug-cc-pvdz symm=none int=(grid=ultrafine) guess=(read,tcheck) s
 table=(opt,rrhf)
 ----------------------------------------------------------------------
 -----
 title
 -----
 Symbolic Z-matrix:
 Charge =  0 Multiplicity = 1

 SCF Done:  E(RHF) =  -436.712667451     A.U. after   14 cycles
 Normal termination of Gaussian 16 at Sun Apr  6 08:04:30 2025.
 Gaussian 16:  ES64L-G16RevC.01  3-Jul-2019

 ----------------------------------------------------------------------
 #t hf aug-cc-pvdz iop(5/13=1,5/36=2,99/5=2) pseudo=read geom=check gue
 ss=(read,tcheck) scf=(maxcycle=1)
 ----------------------------------------------------------------------
 -----
 title
 -----
 Structure from the checkpoint file:  "2-oxo-1-piperidinecarbaldehyde.chk"
 Charge =  0 Multiplicity = 1

                         Standard orientation:
 ---------------------------------------------------------------------
 Center     Atomic      Atomic             Coordinates (Angstroms)
 Number     Number       Type             X           Y           Z
 ---------------------------------------------------------------------
      1          6           0       -0.186018    1.136555   -0.016276
      2          6           0        2.009439    0.143910   -0.020263
      3          6           0       -1.688458    0.930915   -0.085110
      4          6           0       -2.193334   -0.451194    0.319463
      5          6           0       -1.329801   -1.518012   -0.342061
      6          6           0        0.110985   -1.389348    0.120028
      7          7           0        0.625043   -0.010474   -0.004995
      8          8           0        0.292401    2.250735   -0.012180
      9          8           0        2.774688   -0.789444    0.046595
     10          1           0        2.318270    1.188945   -0.103512
     11          1           0       -2.134838    1.730283    0.504410
     12          1           0       -1.958505    1.134988   -1.126204
     13          1           0       -2.147779   -0.565223    1.406075
     14          1           0       -3.240882   -0.559386    0.036482
     15          1           0       -1.680512   -2.521239   -0.096983
     16          1           0       -1.383960   -1.417352   -1.429648
     17          1           0        0.200795   -1.695360    1.165693
     18          1           0        0.778519   -2.029625   -0.451356
 ---------------------------------------------------------------------

 SCF Done:  E(RHF) =  -438.686196300     A.U. after    2 cycles

 The electronic state is 1-A.
 Alpha  occ. eigenvalues --  -21.05234 -21.04657 -15.77539 -11.53618 -11.49227
 Alpha  occ. eigenvalues --  -11.45894 -11.45099 -11.41349 -11.38259  -1.74317
 Alpha  occ. eigenvalues --   -1.70988  -1.44529  -1.24990  -1.12249  -0.99163
 Alpha  occ. eigenvalues --   -0.91162  -0.86902  -0.75777  -0.69224  -0.67213
 Alpha  occ. eigenvalues --   -0.64666  -0.62940  -0.60210  -0.59193  -0.53083
 Alpha  occ. eigenvalues --   -0.51502  -0.50380  -0.49082  -0.46502  -0.44945
 Alpha  occ. eigenvalues --   -0.43645  -0.33391  -0.31195  -0.27888
 Alpha virt. eigenvalues --    0.03194   0.04728   0.04960   0.05289   0.05406
 Alpha virt. eigenvalues --    0.05656   0.06760   0.07297   0.07918   0.10132
 Alpha virt. eigenvalues --    0.10352   0.11599   0.11687   0.12339   0.12776

 Mulliken charges:
               1
     1  C    5.376188
     2  C    1.940710
     3  C   -3.019315
     4  C   -2.913986
     5  C   -2.876882
     6  C   -2.428910
     7  N   -2.712066
     8  O   -3.432269
     9  O   -2.804955
    10  H    1.705406
    11  H    1.319359
    12  H    1.317231
    13  H    1.427148
    14  H    1.294788
    15  H    1.236141
    16  H    1.405735
    17  H    1.524633
    18  H    1.641044
 Sum of Mulliken charges =  -0.00000

 Dipole moment (field-independent basis, Debye):
    X=             -2.7521    Y=             -1.4617    Z=             -0.0427  Tot=              3.1165

 Test job not archived.
 1\1\GINC-SE041\SP\RHF\Aug-CC-pVDZ\C6H9N1O2\OHZDE\06-Apr-2025\0\\#t hf
 aug-cc-pvdz iop(5/13=1,5/36=2,99/5=2) pseudo=read geom=check guess=(re
 ad,tcheck) scf=(maxcycle=1)\\title\\0,1\C,0,-0.186018,1.136555,-0.0162
 76\C,0,2.009439,0.14391,-0.020263\C,0,-1.688458,0.930915,-0.08511\C,0,
 -2.193334,-0.451194,0.319463\C,0,-1.329801,-1.518012,-0.342061\C,0,0.1
 10985,-1.389348,0.120028\N,0,0.625043,-0.010474,-0.004995\O,0,0.292401
 ,2.250735,-0.01218\O,0,2.774688,-0.789444,0.046595\H,0,2.31827,1.18894
 5,-0.103512\H,0,-2.134838,1.730283,0.50441\H,0,-1.958505,1.134988,-1.1

 Normal termination of Gaussian 16 at Sun Apr  6 08:04:58 2025.
