 Gaussian 16, Revision C.01,

 ----------------------------------------------------------------------
 #t hf aug-cc-pvdz symm=none int=(grid=ultrafine) guess=(read,tcheck) s
 table=(opt,rrhf)
 ----------------------------------------------------------------------
 -----
 title
 -----
 Symbolic Z-matrix:
 Charge =  0 Multiplicity = 1

 SCF Done:  E(RHF) =  -271.226322582     A.U. after   12 cycles

 1\1\GINC-SE044\Stability\RHF\Aug-CC-pVDZ\C5H12O1\OHZDE\06-Apr-2025\0\\
 #t hf aug-cc-pvdz symm=none int=(grid=ultrafine) guess=(read,tcheck) s
 table=(opt,rrhf)\\title\\0,1\C,0,-2.811044,-0.221945,-0.162139\C,0,2.2
 21288,-0.900163,-0.048109\C,0,-1.473342,0.339233,0.316846\C,0,-0.28085
 8,-0.504253,-0.134238\C,0,1.07141,0.02896,0.322589\O,0,1.239016,1.3197
 77,-0.283419\H,0,-3.644676,0.394864,0.176352\H,0,-2.975117,-1.234898,0
 .212481\H,0,-2.852626,-0.264029,-1.252522\H,0,2.257486,-1.050421,-1.12
 8043\H,0,3.179284,-0.482509,0.27\H,0,2.107939,-1.872159,0.434921\H,0,-

 Normal termination of Gaussian 16 at Sun Apr  6 08:03:56 2025.
 Gaussian 16:  ES64L-G16RevC.01  3-Jul-2019

 ----------------------------------------------------------------------
 #t hf aug-cc-pvdz iop(5/13=1,5/36=2,99/5=2) pseudo=read geom=check gue
 ss=(read,tcheck) scf=(maxcycle=1)
 ----------------------------------------------------------------------
 -----
 title
 -----
 Structure from the checkpoint file:  "2-pentanol.chk"
 Charge =  0 Multiplicity = 1

                         Standard orientation:
 ---------------------------------------------------------------------
 Center     Atomic      Atomic             Coordinates (Angstroms)
 Number     Number       Type             X           Y           Z
 ---------------------------------------------------------------------
      1          6           0       -2.811044   -0.221945   -0.162139
      2          6           0        2.221288   -0.900163   -0.048109
      3          6           0       -1.473342    0.339233    0.316846
      4          6           0       -0.280858   -0.504253   -0.134238
      5          6           0        1.071410    0.028960    0.322589
      6          8           0        1.239016    1.319777   -0.283419
      7          1           0       -3.644676    0.394864    0.176352
      8          1           0       -2.975117   -1.234898    0.212481
      9          1           0       -2.852626   -0.264029   -1.252522
     10          1           0        2.257486   -1.050421   -1.128043
     11          1           0        3.179284   -0.482509    0.270000
     12          1           0        2.107939   -1.872159    0.434921
     13          1           0       -1.347052    1.358855   -0.049391
     14          1           0       -1.474885    0.402013    1.409571
     15          1           0       -0.391242   -1.525089    0.243683
     16          1           0       -0.268458   -0.572453   -1.226633
     17          1           0        1.048581    0.150408    1.414128
     18          1           0        2.083920    1.686207   -0.006882
 ---------------------------------------------------------------------

 SCF Done:  E(RHF) =  -272.564780622     A.U. after    2 cycles

 The electronic state is 1-A.
 Alpha  occ. eigenvalues --  -21.05763 -11.44485 -11.40766 -11.38387 -11.36559
 Alpha  occ. eigenvalues --  -11.33822  -1.70348  -1.22568  -1.10827  -0.99277
 Alpha  occ. eigenvalues --   -0.86183  -0.80985  -0.67462  -0.61166  -0.59321
 Alpha  occ. eigenvalues --   -0.58488  -0.55074  -0.53190  -0.50588  -0.49056
 Alpha  occ. eigenvalues --   -0.45553  -0.44617  -0.41705  -0.38497  -0.31184
 Alpha virt. eigenvalues --    0.04097   0.05098   0.05179   0.05629   0.05793
 Alpha virt. eigenvalues --    0.06064   0.06367   0.06946   0.08289   0.08963
 Alpha virt. eigenvalues --    0.09248   0.09615   0.10748   0.13276   0.14306

 Mulliken charges:
               1
     1  C   -4.245130
     2  C   -4.143177
     3  C   -2.849907
     4  C   -2.423264
     5  C    0.847910
     6  O   -3.015175
     7  H    1.082405
     8  H    1.301200
     9  H    1.305152
    10  H    1.223271
    11  H    1.091273
    12  H    1.259767
    13  H    1.536444
    14  H    1.409451
    15  H    1.537288
    16  H    1.553156
    17  H    1.742743
    18  H    0.786592
 Sum of Mulliken charges =   0.00000

 Dipole moment (field-independent basis, Debye):
    X=              0.4104    Y=             -0.1181    Z=              0.4637  Tot=              0.6304

 Test job not archived.
 1\1\GINC-SE044\SP\RHF\Aug-CC-pVDZ\C5H12O1\OHZDE\06-Apr-2025\0\\#t hf a
 ug-cc-pvdz iop(5/13=1,5/36=2,99/5=2) pseudo=read geom=check guess=(rea
 d,tcheck) scf=(maxcycle=1)\\title\\0,1\C,0,-2.811044,-0.221945,-0.1621
 39\C,0,2.221288,-0.900163,-0.048109\C,0,-1.473342,0.339233,0.316846\C,
 0,-0.280858,-0.504253,-0.134238\C,0,1.07141,0.02896,0.322589\O,0,1.239
 016,1.319777,-0.283419\H,0,-3.644676,0.394864,0.176352\H,0,-2.975117,-
 1.234898,0.212481\H,0,-2.852626,-0.264029,-1.252522\H,0,2.257486,-1.05
 0421,-1.128043\H,0,3.179284,-0.482509,0.27\H,0,2.107939,-1.872159,0.43

 Normal termination of Gaussian 16 at Sun Apr  6 08:04:05 2025.
