 Gaussian 16, Revision C.01,

 ----------------------------------------------------------------------
 #t hf aug-cc-pvdz symm=none int=(grid=ultrafine) guess=(read,tcheck) s
 table=(opt,rrhf)
 ----------------------------------------------------------------------
 -----
 title
 -----
 Symbolic Z-matrix:
 Charge =  0 Multiplicity = 1

 SCF Done:  E(RHF) =  -270.066693974     A.U. after   13 cycles

 1\1\GINC-SE050\Stability\RHF\Aug-CC-pVDZ\C5H10O1\OHZDE\06-Apr-2025\0\\
 #t hf aug-cc-pvdz symm=none int=(grid=ultrafine) guess=(read,tcheck) s
 table=(opt,rrhf)\\title\\0,1\C,0,1.137455,0.146005,-0.002101\C,0,2.339
 985,-0.775148,0.003438\C,0,-2.754057,-0.294448,-0.000481\C,0,-0.22544,
 -0.525525,-0.005704\C,0,-1.410723,0.432588,0.006368\O,0,1.262714,1.350
 118,-0.002835\H,0,2.311679,-1.443961,-0.859263\H,0,2.326989,-1.406936,
 0.894211\H,0,3.256222,-0.191143,-0.01554\H,0,-2.862511,-0.940914,0.873
 136\H,0,-2.864356,-0.920583,-0.888559\H,0,-3.583566,0.413374,0.008555\

 Normal termination of Gaussian 16 at Sun Apr  6 08:03:44 2025.
 Gaussian 16:  ES64L-G16RevC.01  3-Jul-2019

 ----------------------------------------------------------------------
 #t hf aug-cc-pvdz iop(5/13=1,5/36=2,99/5=2) pseudo=read geom=check gue
 ss=(read,tcheck) scf=(maxcycle=1)
 ----------------------------------------------------------------------
 -----
 title
 -----
 Structure from the checkpoint file:  "2-pentanone.chk"
 Charge =  0 Multiplicity = 1

                         Standard orientation:
 ---------------------------------------------------------------------
 Center     Atomic      Atomic             Coordinates (Angstroms)
 Number     Number       Type             X           Y           Z
 ---------------------------------------------------------------------
      1          6           0        1.137455    0.146005   -0.002101
      2          6           0        2.339985   -0.775148    0.003438
      3          6           0       -2.754057   -0.294448   -0.000481
      4          6           0       -0.225440   -0.525525   -0.005704
      5          6           0       -1.410723    0.432588    0.006368
      6          8           0        1.262714    1.350118   -0.002835
      7          1           0        2.311679   -1.443961   -0.859263
      8          1           0        2.326989   -1.406936    0.894211
      9          1           0        3.256222   -0.191143   -0.015540
     10          1           0       -2.862511   -0.940914    0.873136
     11          1           0       -2.864356   -0.920583   -0.888559
     12          1           0       -3.583566    0.413374    0.008555
     13          1           0       -0.263760   -1.203516    0.854803
     14          1           0       -0.266645   -1.183799   -0.881400
     15          1           0       -1.338759    1.077971    0.883375
     16          1           0       -1.340329    1.097732   -0.855756
 ---------------------------------------------------------------------

 SCF Done:  E(RHF) =  -271.367736256     A.U. after    2 cycles

 The electronic state is 1-A.
 Alpha  occ. eigenvalues --  -21.04525 -11.49126 -11.42142 -11.39119 -11.38454
 Alpha  occ. eigenvalues --  -11.35353  -1.70305  -1.23019  -1.11166  -1.01348
 Alpha  occ. eigenvalues --   -0.86394  -0.73953  -0.65353  -0.62830  -0.59142
 Alpha  occ. eigenvalues --   -0.58438  -0.56449  -0.54150  -0.49245  -0.46659
 Alpha  occ. eigenvalues --   -0.45215  -0.44611  -0.40689  -0.27922
 Alpha virt. eigenvalues --    0.03406   0.04823   0.05080   0.05646   0.06260
 Alpha virt. eigenvalues --    0.06289   0.07058   0.07678   0.08455   0.09167
 Alpha virt. eigenvalues --    0.09967   0.11583   0.13204   0.14263   0.14710

 Mulliken charges:
               1
     1  C    4.771567
     2  C   -4.997329
     3  C   -4.045663
     4  C   -3.206896
     5  C   -2.687706
     6  O   -3.390436
     7  H    1.284986
     8  H    1.279965
     9  H    1.287511
    10  H    1.284019
    11  H    1.281965
    12  H    1.054336
    13  H    1.585120
    14  H    1.578176
    15  H    1.458456
    16  H    1.461927
 Sum of Mulliken charges =   0.00000

 Dipole moment (field-independent basis, Debye):
    X=             -0.2876    Y=             -1.2122    Z=              0.0021  Tot=              1.2458

 Test job not archived.
 1\1\GINC-SE050\SP\RHF\Aug-CC-pVDZ\C5H10O1\OHZDE\06-Apr-2025\0\\#t hf a
 ug-cc-pvdz iop(5/13=1,5/36=2,99/5=2) pseudo=read geom=check guess=(rea
 d,tcheck) scf=(maxcycle=1)\\title\\0,1\C,0,1.137455,0.146005,-0.002101
 \C,0,2.339985,-0.775148,0.003438\C,0,-2.754057,-0.294448,-0.000481\C,0
 ,-0.22544,-0.525525,-0.005704\C,0,-1.410723,0.432588,0.006368\O,0,1.26
 2714,1.350118,-0.002835\H,0,2.311679,-1.443961,-0.859263\H,0,2.326989,
 -1.406936,0.894211\H,0,3.256222,-0.191143,-0.01554\H,0,-2.862511,-0.94
 0914,0.873136\H,0,-2.864356,-0.920583,-0.888559\H,0,-3.583566,0.413374

 Normal termination of Gaussian 16 at Sun Apr  6 08:03:50 2025.
