 Gaussian 16, Revision C.01,

 ----------------------------------------------------------------------
 #t hf aug-cc-pvdz symm=none int=(grid=ultrafine) guess=(read,tcheck) s
 table=(opt,rrhf)
 ----------------------------------------------------------------------
 -----
 title
 -----
 Symbolic Z-matrix:
 Charge =  0 Multiplicity = 1

 SCF Done:  E(RHF) =  -383.675617445     A.U. after   15 cycles

 1\1\GINC-SE101\Stability\RHF\Aug-CC-pVDZ\C8H10O1\OHZDE\06-Apr-2025\0\\
 #t hf aug-cc-pvdz symm=none int=(grid=ultrafine) guess=(read,tcheck) s
 table=(opt,rrhf)\\title\\0,1\C,0,2.814804,-0.001719,-0.301389\C,0,2.13
 4649,-1.200607,-0.119441\C,0,2.136199,1.201043,-0.142617\C,0,0.785938,
 -1.194095,0.216238\C,0,0.787279,1.201961,0.193344\C,0,0.091182,0.00611
 3,0.377674\C,0,-1.382308,0.00657,0.699381\C,0,-2.252301,-0.022112,-0.5
 63342\O,0,-3.645434,-0.085015,-0.273276\H,0,3.864982,-0.004812,-0.5601
 08\H,0,2.655224,-2.142017,-0.234918\H,0,2.657691,2.139541,-0.276374\H,

 Normal termination of Gaussian 16 at Sun Apr  6 08:04:30 2025.
 Gaussian 16:  ES64L-G16RevC.01  3-Jul-2019

 ----------------------------------------------------------------------
 #t hf aug-cc-pvdz iop(5/13=1,5/36=2,99/5=2) pseudo=read geom=check gue
 ss=(read,tcheck) scf=(maxcycle=1)
 ----------------------------------------------------------------------
 -----
 title
 -----
 Structure from the checkpoint file:  "2-phenylethanol.chk"
 Charge =  0 Multiplicity = 1

                         Standard orientation:
 ---------------------------------------------------------------------
 Center     Atomic      Atomic             Coordinates (Angstroms)
 Number     Number       Type             X           Y           Z
 ---------------------------------------------------------------------
      1          6           0        2.814804   -0.001719   -0.301389
      2          6           0        2.134649   -1.200607   -0.119441
      3          6           0        2.136199    1.201043   -0.142617
      4          6           0        0.785938   -1.194095    0.216238
      5          6           0        0.787279    1.201961    0.193344
      6          6           0        0.091182    0.006113    0.377674
      7          6           0       -1.382308    0.006570    0.699381
      8          6           0       -2.252301   -0.022112   -0.563342
      9          8           0       -3.645434   -0.085015   -0.273276
     10          1           0        3.864982   -0.004812   -0.560108
     11          1           0        2.655224   -2.142017   -0.234918
     12          1           0        2.657691    2.139541   -0.276374
     13          1           0        0.266470   -2.133322    0.361844
     14          1           0        0.269747    2.144962    0.321584
     15          1           0       -1.634273    0.897699    1.281212
     16          1           0       -1.639570   -0.859511    1.311331
     17          1           0       -2.033440   -0.917594   -1.144566
     18          1           0       -2.023001    0.842586   -1.195287
     19          1           0       -3.913002    0.729665    0.162405
 ---------------------------------------------------------------------

 SCF Done:  E(RHF) =  -385.498785747     A.U. after    2 cycles

 The electronic state is 1-A.
 Alpha  occ. eigenvalues --  -21.06721 -11.51776 -11.44994 -11.43089 -11.42897
 Alpha  occ. eigenvalues --  -11.40623 -11.40296 -11.38729 -11.35922  -1.70485
 Alpha  occ. eigenvalues --   -1.35420  -1.16763  -1.09114  -1.04040  -0.89792
 Alpha  occ. eigenvalues --   -0.86400  -0.82641  -0.70845  -0.66836  -0.64865
 Alpha  occ. eigenvalues --   -0.59848  -0.57942  -0.57299  -0.56164  -0.52512
 Alpha  occ. eigenvalues --   -0.49825  -0.49034  -0.44940  -0.43892  -0.39806
 Alpha  occ. eigenvalues --   -0.33223  -0.32894  -0.30098
 Alpha virt. eigenvalues --    0.03414   0.04729   0.05040   0.05666   0.05743
 Alpha virt. eigenvalues --    0.06464   0.06591   0.06748   0.07187   0.08854
 Alpha virt. eigenvalues --    0.10291   0.11645   0.11672   0.12705   0.12875

 Mulliken charges:
               1
     1  C   -2.999323
     2  C   -1.623831
     3  C   -1.624554
     4  C   -2.351544
     5  C   -2.036710
     6  C    4.321543
     7  C   -4.151347
     8  C   -1.017113
     9  O   -2.610819
    10  H    1.525821
    11  H    1.495311
    12  H    1.489340
    13  H    1.752553
    14  H    1.740962
    15  H    1.254137
    16  H    1.238389
    17  H    1.460937
    18  H    1.433736
    19  H    0.702511
 Sum of Mulliken charges =  -0.00000

 Dipole moment (field-independent basis, Debye):
    X=              0.4272    Y=              0.4973    Z=              0.1640  Tot=              0.6758

 Test job not archived.
 1\1\GINC-SE101\SP\RHF\Aug-CC-pVDZ\C8H10O1\OHZDE\06-Apr-2025\0\\#t hf a
 ug-cc-pvdz iop(5/13=1,5/36=2,99/5=2) pseudo=read geom=check guess=(rea
 d,tcheck) scf=(maxcycle=1)\\title\\0,1\C,0,2.814804,-0.001719,-0.30138
 9\C,0,2.134649,-1.200607,-0.119441\C,0,2.136199,1.201043,-0.142617\C,0
 ,0.785938,-1.194095,0.216238\C,0,0.787279,1.201961,0.193344\C,0,0.0911
 82,0.006113,0.377674\C,0,-1.382308,0.00657,0.699381\C,0,-2.252301,-0.0
 22112,-0.563342\O,0,-3.645434,-0.085015,-0.273276\H,0,3.864982,-0.0048
 12,-0.560108\H,0,2.655224,-2.142017,-0.234918\H,0,2.657691,2.139541,-0

 Normal termination of Gaussian 16 at Sun Apr  6 08:04:59 2025.
