 Gaussian 16, Revision C.01,

 ----------------------------------------------------------------------
 #t hf aug-cc-pvdz symm=none int=(grid=ultrafine) guess=(read,tcheck) s
 table=(opt,rrhf)
 ----------------------------------------------------------------------
 -----
 title
 -----
 Symbolic Z-matrix:
 Charge =  0 Multiplicity = 1

 SCF Done:  E(RHF) =  -190.738051554     A.U. after   14 cycles
 Normal termination of Gaussian 16 at Sun Apr  6 08:03:20 2025.
 Gaussian 16:  ES64L-G16RevC.01  3-Jul-2019

 ----------------------------------------------------------------------
 #t hf aug-cc-pvdz iop(5/13=1,5/36=2,99/5=2) pseudo=read geom=check gue
 ss=(read,tcheck) scf=(maxcycle=1)
 ----------------------------------------------------------------------
 -----
 title
 -----
 Structure from the checkpoint file:  "2-propyn-1-ol.chk"
 Charge =  0 Multiplicity = 1

                         Standard orientation:
 ---------------------------------------------------------------------
 Center     Atomic      Atomic             Coordinates (Angstroms)
 Number     Number       Type             X           Y           Z
 ---------------------------------------------------------------------
      1          6           0       -0.657272   -0.503422    0.000000
      2          6           0        0.000000    0.795889    0.000000
      3          6           0        0.514208    1.878089    0.000000
      4          8           0        0.326252   -1.539360    0.000000
      5          1           0       -1.299934   -0.577228    0.884602
      6          1           0       -1.299934   -0.577228   -0.884602
      7          1           0        0.977878    2.832712    0.000000
      8          1           0       -0.129644   -2.386711    0.000000
 ---------------------------------------------------------------------

 SCF Done:  E(RHF) =  -191.599539160     A.U. after    2 cycles

 The electronic state is 1-A'.
 Alpha  occ. eigenvalues --  -21.08167 -11.47440 -11.40798 -11.39666  -1.71874
 Alpha  occ. eigenvalues --   -1.14112  -0.98349  -0.74165  -0.66342  -0.64026
 Alpha  occ. eigenvalues --   -0.57833  -0.43867  -0.37768  -0.37109  -0.32866
 Alpha virt. eigenvalues --    0.03057   0.04943   0.05947   0.06126   0.09221
 Alpha virt. eigenvalues --    0.12079   0.12687   0.12835   0.13168   0.14370
 Alpha virt. eigenvalues --    0.15891   0.16094   0.18174   0.18790   0.21785

 Mulliken charges:
               1
     1  C   -1.488797
     2  C    3.575317
     3  C   -3.647703
     4  O   -2.496871
     5  H    1.177385
     6  H    1.177385
     7  H    0.823727
     8  H    0.879558
 Sum of Mulliken charges =   0.00000

 Dipole moment (field-independent basis, Debye):
    X=             -0.8392    Y=             -0.5006    Z=              0.0000  Tot=              0.9772

 Test job not archived.
 1\1\GINC-SE223\SP\RHF\Aug-CC-pVDZ\C3H4O1\OHZDE\06-Apr-2025\0\\#t hf au
 g-cc-pvdz iop(5/13=1,5/36=2,99/5=2) pseudo=read geom=check guess=(read
 ,tcheck) scf=(maxcycle=1)\\title\\0,1\C,0,-0.657272,-0.503422,0.\C,0,0
 .,0.795889,0.\C,0,0.514208,1.878089,0.\O,0,0.326252,-1.53936,0.\H,0,-1
 .299934,-0.577228,0.884602\H,0,-1.299934,-0.577228,-0.884602\H,0,0.977
 878,2.832712,0.\H,0,-0.129644,-2.386711,0.\\Version=ES64L-G16RevC.01\S
 tate=1-A'\HF=-191.5995392\RMSD=9.989e-01\Dipole=-0.3301666,-0.1969412,
 0.\Quadrupole=-1.3514414,3.6279013,-2.2764599,3.0185467,0.,0.\PG=CS [S

 Normal termination of Gaussian 16 at Sun Apr  6 08:03:23 2025.
