 Gaussian 16, Revision C.01,

 ----------------------------------------------------------------------
 #t hf aug-cc-pvdz symm=none int=(grid=ultrafine) guess=(read,tcheck) s
 table=(opt,rrhf)
 ----------------------------------------------------------------------
 -----
 title
 -----
 Symbolic Z-matrix:
 Charge =  0 Multiplicity = 1

 SCF Done:  E(RHF) =  -353.519750187     A.U. after   16 cycles
 Normal termination of Gaussian 16 at Sun Apr  6 08:03:28 2025.
 Gaussian 16:  ES64L-G16RevC.01  3-Jul-2019

 ----------------------------------------------------------------------
 #t hf aug-cc-pvdz iop(5/13=1,5/36=2,99/5=2) pseudo=read geom=check gue
 ss=(read,tcheck) scf=(maxcycle=1)
 ----------------------------------------------------------------------
 -----
 title
 -----
 Structure from the checkpoint file:  "2-propenoylazide.chk"
 Charge =  0 Multiplicity = 1

                         Standard orientation:
 ---------------------------------------------------------------------
 Center     Atomic      Atomic             Coordinates (Angstroms)
 Number     Number       Type             X           Y           Z
 ---------------------------------------------------------------------
      1          8           0        0.112000    1.645041    0.000178
      2          7           0        0.429060   -0.659026   -0.000089
      3          7           0        1.652969   -0.464671   -0.000125
      4          7           0        2.770025   -0.386800   -0.000154
      5          6           0       -1.813590    0.267150    0.000107
      6          6           0       -0.363056    0.533548    0.000075
      7          6           0       -2.364559   -0.942577   -0.000011
      8          1           0       -2.413662    1.167111    0.000239
      9          1           0       -1.760433   -1.838905   -0.000143
     10          1           0       -3.439057   -1.063786    0.000022
 ---------------------------------------------------------------------

 SCF Done:  E(RHF) =  -355.084990156     A.U. after    2 cycles

 The electronic state is 1-A.
 Alpha  occ. eigenvalues --  -21.06246 -15.99128 -15.89172 -15.78988 -11.53041
 Alpha  occ. eigenvalues --  -11.44679 -11.40777  -1.75621  -1.68164  -1.39414
 Alpha  occ. eigenvalues --   -1.19720  -0.97031  -0.86475  -0.71965  -0.70259
 Alpha  occ. eigenvalues --   -0.69614  -0.64132  -0.63271  -0.56593  -0.53532
 Alpha  occ. eigenvalues --   -0.52342  -0.44331  -0.38330  -0.34792  -0.31275
 Alpha virt. eigenvalues --    0.03443   0.05581   0.05922   0.08118   0.09200
 Alpha virt. eigenvalues --    0.10227   0.10783   0.10816   0.12729   0.13204
 Alpha virt. eigenvalues --    0.13573   0.14389   0.14609   0.15872   0.16449

 Mulliken charges:
               1
     1  O   -3.195934
     2  N   -1.689983
     3  N    1.843097
     4  N   -1.355853
     5  C   -1.072984
     6  C    3.664391
     7  C   -2.354625
     8  H    1.295270
     9  H    1.506603
    10  H    1.360019
 Sum of Mulliken charges =   0.00000

 Dipole moment (field-independent basis, Debye):
    X=             -1.4586    Y=             -0.9989    Z=             -0.0001  Tot=              1.7678

 Test job not archived.
 1\1\GINC-SE209\SP\RHF\Aug-CC-pVDZ\C3H3N3O1\OHZDE\06-Apr-2025\0\\#t hf
 aug-cc-pvdz iop(5/13=1,5/36=2,99/5=2) pseudo=read geom=check guess=(re
 ad,tcheck) scf=(maxcycle=1)\\title\\0,1\O,0,0.112,1.645041,0.000178\N,
 0,0.42906,-0.659026,-0.000089\N,0,1.652969,-0.464671,-0.000125\N,0,2.7
 70025,-0.3868,-0.000154\C,0,-1.81359,0.26715,0.000107\C,0,-0.363056,0.
 533548,0.000075\C,0,-2.364559,-0.942577,-0.000011\H,0,-2.413662,1.1671
 11,0.000239\H,0,-1.760433,-1.838905,-0.000143\H,0,-3.439057,-1.063786,
 0.000022\\Version=ES64L-G16RevC.01\State=1-A\HF=-355.0849902\RMSD=4.62

 Normal termination of Gaussian 16 at Sun Apr  6 08:03:32 2025.
