 Gaussian 16, Revision C.01,

 ----------------------------------------------------------------------
 #t hf aug-cc-pvdz symm=none int=(grid=ultrafine) guess=(read,tcheck) s
 table=(opt,rrhf)
 ----------------------------------------------------------------------
 -----
 title
 -----
 Symbolic Z-matrix:
 Charge =  0 Multiplicity = 1

 SCF Done:  E(RHF) =  -191.953660150     A.U. after   13 cycles
 Normal termination of Gaussian 16 at Sun Apr  6 08:03:22 2025.
 Gaussian 16:  ES64L-G16RevC.01  3-Jul-2019

 ----------------------------------------------------------------------
 #t hf aug-cc-pvdz iop(5/13=1,5/36=2,99/5=2) pseudo=read geom=check gue
 ss=(read,tcheck) scf=(maxcycle=1)
 ----------------------------------------------------------------------
 -----
 title
 -----
 Structure from the checkpoint file:  "2-propene-1-ol.chk"
 Charge =  0 Multiplicity = 1

                         Standard orientation:
 ---------------------------------------------------------------------
 Center     Atomic      Atomic             Coordinates (Angstroms)
 Number     Number       Type             X           Y           Z
 ---------------------------------------------------------------------
      1          6           0        1.798671    0.026140   -0.256881
      2          6           0        0.665074   -0.290241    0.357148
      3          6           0       -0.599255    0.505881    0.255208
      4          8           0       -1.694874   -0.274273   -0.232077
      5          1           0        2.690246   -0.577940   -0.155580
      6          1           0        1.876485    0.910633   -0.878456
      7          1           0        0.608435   -1.184136    0.970445
      8          1           0       -0.440048    1.391472   -0.369265
      9          1           0       -0.916428    0.847380    1.242042
     10          1           0       -1.446641   -0.643903   -1.085425
 ---------------------------------------------------------------------

 SCF Done:  E(RHF) =  -192.844917791     A.U. after    2 cycles

 The electronic state is 1-A.
 Alpha  occ. eigenvalues --  -21.06782 -11.43999 -11.40862 -11.37438  -1.70413
 Alpha  occ. eigenvalues --   -1.18018  -0.96540  -0.80201  -0.67547  -0.60240
 Alpha  occ. eigenvalues --   -0.57083  -0.55572  -0.50148  -0.41133  -0.35834
 Alpha  occ. eigenvalues --   -0.31511
 Alpha virt. eigenvalues --    0.03663   0.05559   0.05864   0.06259   0.06446
 Alpha virt. eigenvalues --    0.06820   0.10129   0.11676   0.12464   0.14548
 Alpha virt. eigenvalues --    0.15285   0.15416   0.16954   0.17768   0.18650

 Mulliken charges:
               1
     1  C   -2.818860
     2  C   -0.488027
     3  C   -1.936348
     4  O   -2.358196
     5  H    1.347967
     6  H    1.455823
     7  H    1.334773
     8  H    1.270656
     9  H    1.361921
    10  H    0.830290
 Sum of Mulliken charges =  -0.00000

 Dipole moment (field-independent basis, Debye):
    X=              0.5850    Y=              0.1047    Z=             -0.2300  Tot=              0.6372

 Test job not archived.
 1\1\GINC-SE208\SP\RHF\Aug-CC-pVDZ\C3H6O1\OHZDE\06-Apr-2025\0\\#t hf au
 g-cc-pvdz iop(5/13=1,5/36=2,99/5=2) pseudo=read geom=check guess=(read
 ,tcheck) scf=(maxcycle=1)\\title\\0,1\C,0,1.798671,0.02614,-0.256881\C
 ,0,0.665074,-0.290241,0.357148\C,0,-0.599255,0.505881,0.255208\O,0,-1.
 694874,-0.274273,-0.232077\H,0,2.690246,-0.577939,-0.15558\H,0,1.87648
 5,0.910633,-0.878456\H,0,0.608435,-1.184136,0.970445\H,0,-0.440048,1.3
 91472,-0.369265\H,0,-0.916428,0.84738,1.242042\H,0,-1.446641,-0.643903
 ,-1.085425\\Version=ES64L-G16RevC.01\State=1-A\HF=-192.8449178\RMSD=4.

 Normal termination of Gaussian 16 at Sun Apr  6 08:03:25 2025.
