 Gaussian 16, Revision C.01,

 ----------------------------------------------------------------------
 #t hf aug-cc-pvdz symm=none int=(grid=ultrafine) guess=(read,tcheck) s
 table=(opt,rrhf)
 ----------------------------------------------------------------------
 -----
 title
 -----
 Symbolic Z-matrix:
 Charge =  0 Multiplicity = 1

 SCF Done:  E(RHF) =  -193.148797193     A.U. after   12 cycles
 Normal termination of Gaussian 16 at Sun Apr  6 08:03:25 2025.
 Gaussian 16:  ES64L-G16RevC.01  3-Jul-2019

 ----------------------------------------------------------------------
 #t hf aug-cc-pvdz iop(5/13=1,5/36=2,99/5=2) pseudo=read geom=check gue
 ss=(read,tcheck) scf=(maxcycle=1)
 ----------------------------------------------------------------------
 -----
 title
 -----
 Structure from the checkpoint file:  "2-propanol.chk"
 Charge =  0 Multiplicity = 1

                         Standard orientation:
 ---------------------------------------------------------------------
 Center     Atomic      Atomic             Coordinates (Angstroms)
 Number     Number       Type             X           Y           Z
 ---------------------------------------------------------------------
      1          6           0        0.287231   -0.610477    1.268740
      2          6           0        0.287231   -0.610477   -1.268740
      3          6           0        0.287231    0.234800   -0.000000
      4          8           0       -0.802494    1.166277    0.000000
      5          1           0        1.168231   -1.253175    1.311423
      6          1           0        0.281273    0.027361    2.152009
      7          1           0       -0.596203   -1.253979    1.303814
      8          1           0        1.168231   -1.253175   -1.311423
      9          1           0        0.281273    0.027361   -2.152009
     10          1           0       -0.596203   -1.253979   -1.303814
     11          1           0        1.172769    0.873582   -0.000000
     12          1           0       -1.629582    0.672719    0.000000
 ---------------------------------------------------------------------

 SCF Done:  E(RHF) =  -194.080249747     A.U. after    2 cycles

 The electronic state is 1-A'.
 Alpha  occ. eigenvalues --  -21.05823 -11.43478 -11.38688 -11.35405  -1.70181
 Alpha  occ. eigenvalues --   -1.16266  -1.00970  -0.83580  -0.64562  -0.60996
 Alpha  occ. eigenvalues --   -0.57820  -0.54022  -0.53638  -0.47606  -0.47234
 Alpha  occ. eigenvalues --   -0.38626  -0.30926
 Alpha virt. eigenvalues --    0.03784   0.05751   0.05808   0.06101   0.06254
 Alpha virt. eigenvalues --    0.06507   0.06716   0.07182   0.11395   0.13517
 Alpha virt. eigenvalues --    0.15086   0.15263   0.15273   0.17050   0.17634

 Mulliken charges:
               1
     1  C   -3.706871
     2  C   -3.706871
     3  C    0.709060
     4  O   -3.017354
     5  H    1.262173
     6  H    1.200867
     7  H    1.205587
     8  H    1.262173
     9  H    1.200867
    10  H    1.205587
    11  H    1.632383
    12  H    0.752396
 Sum of Mulliken charges =   0.00000

 Dipole moment (field-independent basis, Debye):
    X=              0.1578    Y=             -0.6211    Z=             -0.0000  Tot=              0.6408

 Test job not archived.
 1\1\GINC-SE212\SP\RHF\Aug-CC-pVDZ\C3H8O1\OHZDE\06-Apr-2025\0\\#t hf au
 g-cc-pvdz iop(5/13=1,5/36=2,99/5=2) pseudo=read geom=check guess=(read
 ,tcheck) scf=(maxcycle=1)\\title\\0,1\C,0,0.287231,-0.610477,1.26874\C
 ,0,0.287231,-0.610477,-1.26874\C,0,0.287231,0.2348,0.\O,0,-0.802494,1.
 166277,0.\H,0,1.168231,-1.253175,1.311423\H,0,0.281273,0.027361,2.1520
 09\H,0,-0.596203,-1.253979,1.303814\H,0,1.168231,-1.253175,-1.311423\H
 ,0,0.281273,0.027361,-2.152009\H,0,-0.596203,-1.253979,-1.303814\H,0,1
 .172769,0.873582,0.\H,0,-1.629582,0.672719,0.\\Version=ES64L-G16RevC.0

 Normal termination of Gaussian 16 at Sun Apr  6 08:03:29 2025.
