 Gaussian 16, Revision C.01,

 ----------------------------------------------------------------------
 #t hf aug-cc-pvdz symm=none int=(grid=ultrafine) guess=(read,tcheck) s
 table=(opt,rrhf)
 ----------------------------------------------------------------------
 -----
 title
 -----
 Symbolic Z-matrix:
 Charge =  0 Multiplicity = 1

 SCF Done:  E(RHF) =  -450.211048269     A.U. after   16 cycles
 Normal termination of Gaussian 16 at Sun Apr  6 08:03:54 2025.
 Gaussian 16:  ES64L-G16RevC.01  3-Jul-2019

 ----------------------------------------------------------------------
 #t hf aug-cc-pvdz iop(5/13=1,5/36=2,99/5=2) pseudo=read geom=check gue
 ss=(read,tcheck) scf=(maxcycle=1)
 ----------------------------------------------------------------------
 -----
 title
 -----
 Structure from the checkpoint file:  "2-propyn-1-yl_diazoacetate.chk"
 Charge =  0 Multiplicity = 1

                         Standard orientation:
 ---------------------------------------------------------------------
 Center     Atomic      Atomic             Coordinates (Angstroms)
 Number     Number       Type             X           Y           Z
 ---------------------------------------------------------------------
      1          8           0       -0.777836    0.622205   -0.000066
      2          8           0        1.157333    1.699452   -0.000071
      3          7           0        2.577306   -0.606933    0.000088
      4          7           0        3.695819   -0.545596    0.000118
      5          6           0       -1.504219   -0.618985   -0.000007
      6          6           0        0.582712    0.639548   -0.000031
      7          6           0        1.267948   -0.648464    0.000052
      8          6           0       -2.928155   -0.331723   -0.000031
      9          6           0       -4.108010   -0.128816   -0.000050
     10          1           0       -1.247335   -1.201991   -0.888800
     11          1           0       -1.247348   -1.201899    0.888849
     12          1           0        0.837583   -1.633315    0.000081
     13          1           0       -5.152401    0.062286   -0.000066
 ---------------------------------------------------------------------

 SCF Done:  E(RHF) =  -452.174895412     A.U. after    2 cycles

 The electronic state is 1-A.
 Alpha  occ. eigenvalues --  -21.10144 -21.04082 -15.96660 -15.89977 -11.54584
 Alpha  occ. eigenvalues --  -11.51373 -11.45086 -11.43114 -11.41910  -1.84991
 Alpha  occ. eigenvalues --   -1.67261  -1.64186  -1.22441  -1.17005  -1.02091
 Alpha  occ. eigenvalues --   -0.90448  -0.77476  -0.75512  -0.70903  -0.68656
 Alpha  occ. eigenvalues --   -0.66898  -0.66402  -0.64084  -0.58859  -0.54291
 Alpha  occ. eigenvalues --   -0.51005  -0.44234  -0.39159  -0.38962  -0.34874
 Alpha  occ. eigenvalues --   -0.30885  -0.30697
 Alpha virt. eigenvalues --    0.02730   0.04254   0.05387   0.05672   0.08307
 Alpha virt. eigenvalues --    0.09471   0.09602   0.10322   0.11024   0.11086
 Alpha virt. eigenvalues --    0.11327   0.12048   0.12792   0.12906   0.14025

 Mulliken charges:
               1
     1  O   -3.083588
     2  O   -3.338529
     3  N    0.523235
     4  N   -1.882122
     5  C   -2.237970
     6  C    5.690528
     7  C   -0.338599
     8  C    3.323364
     9  C   -3.434934
    10  H    1.412789
    11  H    1.412803
    12  H    1.176720
    13  H    0.776302
 Sum of Mulliken charges =   0.00000

 Dipole moment (field-independent basis, Debye):
    X=             -0.8317    Y=             -2.6787    Z=              0.0001  Tot=              2.8048

 Test job not archived.
 1\1\GINC-SE009\SP\RHF\Aug-CC-pVDZ\C5H4N2O2\OHZDE\06-Apr-2025\0\\#t hf
 aug-cc-pvdz iop(5/13=1,5/36=2,99/5=2) pseudo=read geom=check guess=(re
 ad,tcheck) scf=(maxcycle=1)\\title\\0,1\O,0,-0.777836,0.622205,-0.0000
 66\O,0,1.157333,1.699452,-0.000071\N,0,2.577306,-0.606933,0.000088\N,0
 ,3.695819,-0.545596,0.000118\C,0,-1.504219,-0.618985,-0.000007\C,0,0.5
 82712,0.639548,-0.000031\C,0,1.267948,-0.648464,0.000052\C,0,-2.928155
 ,-0.331723,-0.000031\C,0,-4.10801,-0.128816,-0.00005\H,0,-1.247335,-1.
 201991,-0.8888\H,0,-1.247348,-1.201899,0.888849\H,0,0.837583,-1.633315

 Normal termination of Gaussian 16 at Sun Apr  6 08:04:00 2025.
