 Gaussian 16, Revision C.01,

 ----------------------------------------------------------------------
 #t hf aug-cc-pvdz symm=none int=(grid=ultrafine) guess=(read,tcheck) s
 table=(opt,rrhf)
 ----------------------------------------------------------------------
 -----
 title
 -----
 Symbolic Z-matrix:
 Charge =  0 Multiplicity = 1

 SCF Done:  E(RHF) =  -173.314632827     A.U. after   12 cycles
 Normal termination of Gaussian 16 at Sun Apr  6 08:03:29 2025.
 Gaussian 16:  ES64L-G16RevC.01  3-Jul-2019

 ----------------------------------------------------------------------
 #t hf aug-cc-pvdz iop(5/13=1,5/36=2,99/5=2) pseudo=read geom=check gue
 ss=(read,tcheck) scf=(maxcycle=1)
 ----------------------------------------------------------------------
 -----
 title
 -----
 Structure from the checkpoint file:  "2-propanamine.chk"
 Charge =  0 Multiplicity = 1

                         Standard orientation:
 ---------------------------------------------------------------------
 Center     Atomic      Atomic             Coordinates (Angstroms)
 Number     Number       Type             X           Y           Z
 ---------------------------------------------------------------------
      1          6           0        0.291567    0.213459   -0.000000
      2          7           0       -0.907457    1.063947   -0.000000
      3          1           0        1.214879    0.812042   -0.000000
      4          6           0        0.291567   -0.643023    1.262440
      5          6           0        0.291567   -0.643023   -1.262440
      6          1           0       -0.926663    1.665263   -0.815022
      7          1           0       -0.926663    1.665263    0.815022
      8          1           0       -0.596181   -1.276761    1.290536
      9          1           0       -0.596181   -1.276761   -1.290536
     10          1           0        1.176573   -1.279494    1.299902
     11          1           0        1.176573   -1.279494   -1.299902
     12          1           0        0.290826   -0.021081    2.160146
     13          1           0        0.290826   -0.021081   -2.160146
 ---------------------------------------------------------------------

 SCF Done:  E(RHF) =  -174.206815948     A.U. after    2 cycles

 The electronic state is 1-A'.
 Alpha  occ. eigenvalues --  -15.72010 -11.41723 -11.37982 -11.34403  -1.34912
 Alpha  occ. eigenvalues --   -1.10786  -1.00093  -0.81574  -0.65387  -0.64324
 Alpha  occ. eigenvalues --   -0.59449  -0.53285  -0.52142  -0.48488  -0.45436
 Alpha  occ. eigenvalues --   -0.43954  -0.34639
 Alpha virt. eigenvalues --    0.03959   0.05654   0.05775   0.06026   0.06352
 Alpha virt. eigenvalues --    0.06447   0.06938   0.07437   0.09523   0.12057
 Alpha virt. eigenvalues --    0.13086   0.14299   0.15574   0.15876   0.16230

 Mulliken charges:
               1
     1  C   -1.035594
     2  N   -2.578858
     3  H    1.604191
     4  C   -3.244678
     5  C   -3.244678
     6  H    0.570698
     7  H    0.570698
     8  H    1.248721
     9  H    1.248721
    10  H    1.223984
    11  H    1.223984
    12  H    1.206406
    13  H    1.206406
 Sum of Mulliken charges =   0.00000

 Dipole moment (field-independent basis, Debye):
    X=              0.7703    Y=              0.7814    Z=              0.0000  Tot=              1.0972

 Test job not archived.
 1\1\GINC-SE104\SP\RHF\Aug-CC-pVDZ\C3H9N1\OHZDE\06-Apr-2025\0\\#t hf au
 g-cc-pvdz iop(5/13=1,5/36=2,99/5=2) pseudo=read geom=check guess=(read
 ,tcheck) scf=(maxcycle=1)\\title\\0,1\C,0,0.291567,0.213459,0.\N,0,-0.
 907457,1.063947,0.\H,0,1.214879,0.812042,0.\C,0,0.291567,-0.643023,1.2
 6244\C,0,0.291567,-0.643023,-1.26244\H,0,-0.926663,1.665263,-0.815022\
 H,0,-0.926663,1.665263,0.815022\H,0,-0.596181,-1.276761,1.290536\H,0,-
 0.596181,-1.276761,-1.290536\H,0,1.176573,-1.279494,1.299902\H,0,1.176
 573,-1.279494,-1.299902\H,0,0.290826,-0.021081,2.160146\H,0,0.290826,-

 Normal termination of Gaussian 16 at Sun Apr  6 08:03:32 2025.
