 Gaussian 16, Revision C.01,

 ----------------------------------------------------------------------
 #t hf aug-cc-pvdz symm=none int=(grid=ultrafine) guess=(read,tcheck) s
 table=(opt,rrhf)
 ----------------------------------------------------------------------
 -----
 title
 -----
 Symbolic Z-matrix:
 Charge =  0 Multiplicity = 1

 SCF Done:  E(RHF) =  -172.142343761     A.U. after   13 cycles
 Normal termination of Gaussian 16 at Sun Apr  6 08:03:23 2025.
 Gaussian 16:  ES64L-G16RevC.01  3-Jul-2019

 ----------------------------------------------------------------------
 #t hf aug-cc-pvdz iop(5/13=1,5/36=2,99/5=2) pseudo=read geom=check gue
 ss=(read,tcheck) scf=(maxcycle=1)
 ----------------------------------------------------------------------
 -----
 title
 -----
 Structure from the checkpoint file:  "2-propanimine.chk"
 Charge =  0 Multiplicity = 1

                         Standard orientation:
 ---------------------------------------------------------------------
 Center     Atomic      Atomic             Coordinates (Angstroms)
 Number     Number       Type             X           Y           Z
 ---------------------------------------------------------------------
      1          6           0        0.000000    0.160391    0.000000
      2          6           0        1.341166   -0.522197    0.000000
      3          6           0       -1.204165   -0.750105    0.000000
      4          7           0       -0.046207    1.430440    0.000000
      5          1           0        2.139324    0.215075    0.000000
      6          1           0        1.444083   -1.166052    0.876901
      7          1           0        1.444083   -1.166052   -0.876901
      8          1           0       -2.134256   -0.183538    0.000000
      9          1           0       -1.190635   -1.402345    0.876352
     10          1           0       -1.190635   -1.402345   -0.876352
     11          1           0       -1.010521    1.763644    0.000000
 ---------------------------------------------------------------------

 SCF Done:  E(RHF) =  -172.996781118     A.U. after    2 cycles

 The electronic state is 1-A'.
 Alpha  occ. eigenvalues --  -15.72325 -11.44293 -11.38863 -11.36623  -1.35787
 Alpha  occ. eigenvalues --   -1.09806  -1.02750  -0.76471  -0.63695  -0.60732
 Alpha  occ. eigenvalues --   -0.59800  -0.54547  -0.51760  -0.48771  -0.39093
 Alpha  occ. eigenvalues --   -0.36691
 Alpha virt. eigenvalues --    0.03057   0.05547   0.05962   0.05976   0.06869
 Alpha virt. eigenvalues --    0.07243   0.07345   0.11063   0.13731   0.14450
 Alpha virt. eigenvalues --    0.14528   0.14960   0.15528   0.16419   0.16662

 Mulliken charges:
               1
     1  C    2.579583
     2  C   -3.492041
     3  C   -3.980148
     4  N   -3.348765
     5  H    1.297667
     6  H    1.234498
     7  H    1.234498
     8  H    1.329862
     9  H    1.238772
    10  H    1.238772
    11  H    0.667303
 Sum of Mulliken charges =   0.00000

 Dipole moment (field-independent basis, Debye):
    X=             -1.0081    Y=             -1.8148    Z=             -0.0000  Tot=              2.0760

 Test job not archived.
 1\1\GINC-SE155\SP\RHF\Aug-CC-pVDZ\C3H7N1\OHZDE\06-Apr-2025\0\\#t hf au
 g-cc-pvdz iop(5/13=1,5/36=2,99/5=2) pseudo=read geom=check guess=(read
 ,tcheck) scf=(maxcycle=1)\\title\\0,1\C,0,0.,0.160391,0.\C,0,1.341166,
 -0.522197,0.\C,0,-1.204165,-0.750105,0.\N,0,-0.046207,1.43044,0.\H,0,2
 .139324,0.215075,0.\H,0,1.444083,-1.166052,0.876901\H,0,1.444083,-1.16
 6052,-0.876901\H,0,-2.134256,-0.183538,0.\H,0,-1.190635,-1.402345,0.87
 6352\H,0,-1.190635,-1.402345,-0.876352\H,0,-1.010521,1.763644,0.\\Vers
 ion=ES64L-G16RevC.01\State=1-A'\HF=-172.9967811\RMSD=2.325e-01\Dipole=

 Normal termination of Gaussian 16 at Sun Apr  6 08:03:27 2025.
