 Gaussian 16, Revision C.01,

 ----------------------------------------------------------------------
 #t hf aug-cc-pvdz symm=none int=(grid=ultrafine) guess=(read,tcheck) s
 table=(opt,rrhf)
 ----------------------------------------------------------------------
 -----
 title
 -----
 Symbolic Z-matrix:
 Charge =  0 Multiplicity = 1

 SCF Done:  E(RHF) =  -515.810358987     A.U. after   12 cycles
 Normal termination of Gaussian 16 at Sun Apr  6 08:03:24 2025.
 Gaussian 16:  ES64L-G16RevC.01  3-Jul-2019

 ----------------------------------------------------------------------
 #t hf aug-cc-pvdz iop(5/13=1,5/36=2,99/5=2) pseudo=read geom=check gue
 ss=(read,tcheck) scf=(maxcycle=1)
 ----------------------------------------------------------------------
 -----
 title
 -----
 Structure from the checkpoint file:  "2-propanethiol.chk"
 Charge =  0 Multiplicity = 1

                         Standard orientation:
 ---------------------------------------------------------------------
 Center     Atomic      Atomic             Coordinates (Angstroms)
 Number     Number       Type             X           Y           Z
 ---------------------------------------------------------------------
      1          6           0        0.054241    1.100477    1.268813
      2          6           0        0.054241    1.100477   -1.268813
      3          6           0       -0.409424    0.392082   -0.000000
      4         16           0        0.054241   -1.399668    0.000000
      5          1           0       -0.309019    2.131146    1.280502
      6          1           0       -0.310858    0.595967    2.161592
      7          1           0        1.144294    1.131346    1.319556
      8          1           0       -0.309019    2.131146   -1.280502
      9          1           0       -0.310858    0.595967   -2.161592
     10          1           0        1.144294    1.131346   -1.319556
     11          1           0       -1.500071    0.339611   -0.000000
     12          1           0        1.389046   -1.220063    0.000000
 ---------------------------------------------------------------------

 SCF Done:  E(RHF) =  -516.666836295     A.U. after    2 cycles

 The electronic state is 1-A'.
 Alpha  occ. eigenvalues --  -75.67699 -13.11677 -13.08703 -13.03183 -11.43206
 Alpha  occ. eigenvalues --  -11.38558 -11.36210  -8.01576  -1.26467  -1.05178
 Alpha  occ. eigenvalues --   -1.01068  -0.82713  -0.63759  -0.60232  -0.56933
 Alpha  occ. eigenvalues --   -0.54198  -0.50391  -0.47124  -0.45888  -0.36069
 Alpha  occ. eigenvalues --   -0.23506
 Alpha virt. eigenvalues --    0.03265   0.04974   0.05353   0.05936   0.06061
 Alpha virt. eigenvalues --    0.06893   0.07128   0.07339   0.09462   0.11790
 Alpha virt. eigenvalues --    0.14428   0.14765   0.15321   0.15407   0.15979

 Mulliken charges:
               1
     1  C   -3.489974
     2  C   -3.489974
     3  C   -2.920380
     4  S   -0.435540
     5  H    1.256797
     6  H    1.311369
     7  H    1.283505
     8  H    1.256797
     9  H    1.311369
    10  H    1.283505
    11  H    1.654573
    12  H    0.977954
 Sum of Mulliken charges =  -0.00000

 Dipole moment (field-independent basis, Debye):
    X=             -1.1324    Y=              0.1277    Z=              0.0000  Tot=              1.1396

 Test job not archived.
 1\1\GINC-SE150\SP\RHF\Aug-CC-pVDZ\C3H8S1\OHZDE\06-Apr-2025\0\\#t hf au
 g-cc-pvdz iop(5/13=1,5/36=2,99/5=2) pseudo=read geom=check guess=(read
 ,tcheck) scf=(maxcycle=1)\\title\\0,1\C,0,0.054241,1.100477,1.268813\C
 ,0,0.054241,1.100477,-1.268813\C,0,-0.409424,0.392082,0.\S,0,0.054241,
 -1.399668,0.\H,0,-0.309019,2.131146,1.280502\H,0,-0.310858,0.595967,2.
 161592\H,0,1.144294,1.131346,1.319556\H,0,-0.309019,2.131146,-1.280502
 \H,0,-0.310858,0.595967,-2.161592\H,0,1.144294,1.131346,-1.319556\H,0,
 -1.500071,0.339611,0.\H,0,1.389046,-1.220063,0.\\Version=ES64L-G16RevC

 Normal termination of Gaussian 16 at Sun Apr  6 08:03:28 2025.
