 Gaussian 16, Revision C.01,

 ----------------------------------------------------------------------
 #t hf aug-cc-pvdz symm=none int=(grid=ultrafine) guess=(read,tcheck) s
 table=(opt,rrhf)
 ----------------------------------------------------------------------
 -----
 title
 -----
 Symbolic Z-matrix:
 Charge =  0 Multiplicity = 1

 SCF Done:  E(RHF) =  -346.079118723     A.U. after   12 cycles

 1\1\GINC-SE222\Stability\RHF\Aug-CC-pVDZ\C5H12O2\OHZDE\06-Apr-2025\0\\
 #t hf aug-cc-pvdz symm=none int=(grid=ultrafine) guess=(read,tcheck) s
 table=(opt,rrhf)\\title\\0,1\C,0,-3.551731,-0.145916,0.178332\C,0,-2.1
 60631,-0.497409,-0.345698\C,0,-1.084795,0.418115,0.210133\C,0,2.554528
 ,0.252331,-0.341891\C,0,1.246011,0.820604,0.153652\O,0,2.871763,-0.915
 524,0.411744\O,0,0.173609,0.025383,-0.308235\H,0,-3.834247,0.874037,-0
 .090442\H,0,-4.305646,-0.815827,-0.235313\H,0,-3.600044,-0.226907,1.26
 6045\H,0,-2.141876,-0.436709,-1.436016\H,0,-1.907786,-1.527183,-0.0849

 Normal termination of Gaussian 16 at Sun Apr  6 08:04:02 2025.
 Gaussian 16:  ES64L-G16RevC.01  3-Jul-2019

 ----------------------------------------------------------------------
 #t hf aug-cc-pvdz iop(5/13=1,5/36=2,99/5=2) pseudo=read geom=check gue
 ss=(read,tcheck) scf=(maxcycle=1)
 ----------------------------------------------------------------------
 -----
 title
 -----
 Structure from the checkpoint file:  "2-propoxyethanol.chk"
 Charge =  0 Multiplicity = 1

                         Standard orientation:
 ---------------------------------------------------------------------
 Center     Atomic      Atomic             Coordinates (Angstroms)
 Number     Number       Type             X           Y           Z
 ---------------------------------------------------------------------
      1          6           0       -3.551731   -0.145916    0.178332
      2          6           0       -2.160631   -0.497409   -0.345698
      3          6           0       -1.084795    0.418115    0.210133
      4          6           0        2.554528    0.252331   -0.341891
      5          6           0        1.246011    0.820604    0.153652
      6          8           0        2.871763   -0.915524    0.411744
      7          8           0        0.173609    0.025383   -0.308235
      8          1           0       -3.834247    0.874037   -0.090442
      9          1           0       -4.305646   -0.815827   -0.235313
     10          1           0       -3.600044   -0.226907    1.266045
     11          1           0       -2.141876   -0.436709   -1.436016
     12          1           0       -1.907786   -1.527183   -0.084984
     13          1           0       -1.294438    1.463084   -0.062635
     14          1           0       -1.068300    0.365578    1.307923
     15          1           0        3.334739    1.012724   -0.218945
     16          1           0        2.461235    0.020138   -1.407091
     17          1           0        1.140374    1.851849   -0.212086
     18          1           0        1.258753    0.851169    1.250942
     19          1           0        3.573974   -1.397171   -0.032650
 ---------------------------------------------------------------------

 SCF Done:  E(RHF) =  -347.700378840     A.U. after    2 cycles

 The electronic state is 1-A.
 Alpha  occ. eigenvalues --  -21.06243 -21.03262 -11.45684 -11.42731 -11.38924
 Alpha  occ. eigenvalues --  -11.38713 -11.34842  -1.75612  -1.68984  -1.18844
 Alpha  occ. eigenvalues --   -1.08128  -0.95792  -0.85369  -0.84080  -0.68119
 Alpha  occ. eigenvalues --   -0.64398  -0.64119  -0.59151  -0.57234  -0.55456
 Alpha  occ. eigenvalues --   -0.53872  -0.51884  -0.47143  -0.46419  -0.43205
 Alpha  occ. eigenvalues --   -0.39972  -0.37865  -0.31925  -0.28760
 Alpha virt. eigenvalues --    0.04133   0.04900   0.05242   0.05342   0.05864
 Alpha virt. eigenvalues --    0.06216   0.06553   0.06915   0.07382   0.08267
 Alpha virt. eigenvalues --    0.09144   0.09583   0.10804   0.13157   0.13884

 Mulliken charges:
               1
     1  C   -3.541606
     2  C   -3.979203
     3  C   -0.111890
     4  C   -1.952624
     5  C   -1.313324
     6  O   -2.481448
     7  O   -3.438424
     8  H    1.275784
     9  H    1.123320
    10  H    1.270205
    11  H    1.467610
    12  H    1.494544
    13  H    1.696258
    14  H    1.654949
    15  H    1.224472
    16  H    1.588536
    17  H    1.560497
    18  H    1.673900
    19  H    0.788446
 Sum of Mulliken charges =   0.00000

 Dipole moment (field-independent basis, Debye):
    X=              0.1679    Y=              0.1437    Z=             -0.4620  Tot=              0.5121

 Test job not archived.
 1\1\GINC-SE222\SP\RHF\Aug-CC-pVDZ\C5H12O2\OHZDE\06-Apr-2025\0\\#t hf a
 ug-cc-pvdz iop(5/13=1,5/36=2,99/5=2) pseudo=read geom=check guess=(rea
 d,tcheck) scf=(maxcycle=1)\\title\\0,1\C,0,-3.551731,-0.145916,0.17833
 2\C,0,-2.160631,-0.497409,-0.345698\C,0,-1.084795,0.418115,0.210133\C,
 0,2.554528,0.252331,-0.341891\C,0,1.246011,0.820604,0.153652\O,0,2.871
 763,-0.915524,0.411744\O,0,0.173609,0.025383,-0.308235\H,0,-3.834247,0
 .874037,-0.090442\H,0,-4.305646,-0.815827,-0.235313\H,0,-3.600044,-0.2
 26907,1.266045\H,0,-2.141876,-0.436709,-1.436016\H,0,-1.907786,-1.5271

 Normal termination of Gaussian 16 at Sun Apr  6 08:04:09 2025.
