 Gaussian 16, Revision C.01,

 ----------------------------------------------------------------------
 #t hf aug-cc-pvdz symm=none int=(grid=ultrafine) guess=(read,tcheck) s
 table=(opt,rrhf)
 ----------------------------------------------------------------------
 -----
 title
 -----
 Symbolic Z-matrix:
 Charge =  0 Multiplicity = 1

 SCF Done:  E(RHF) =  -892.632235530     A.U. after   16 cycles
 Normal termination of Gaussian 16 at Sun Apr  6 08:05:54 2025.
 Gaussian 16:  ES64L-G16RevC.01  3-Jul-2019

 ----------------------------------------------------------------------
 #t hf aug-cc-pvdz iop(5/13=1,5/36=2,99/5=2) pseudo=read geom=check gue
 ss=(read,tcheck) scf=(maxcycle=1)
 ----------------------------------------------------------------------
 -----
 title
 -----
 Structure from the checkpoint file:  "2-propyn-1-ylsulfonylbenzene.chk"
 Charge =  0 Multiplicity = 1

                         Standard orientation:
 ---------------------------------------------------------------------
 Center     Atomic      Atomic             Coordinates (Angstroms)
 Number     Number       Type             X           Y           Z
 ---------------------------------------------------------------------
      1          8           0        1.156985    1.267774    1.230191
      2         16           0        0.843996    0.000062    0.585576
      3          6           0        1.650805   -0.000061   -1.080985
      4          6           0        3.089778   -0.000082   -0.968083
      5          6           0        4.283059   -0.000104   -0.864662
      6          8           0        1.157003   -1.267545    1.230387
      7          6           0       -0.900255    0.000015    0.152344
      8          6           0       -1.559782   -1.213746   -0.004980
      9          6           0       -2.908652   -1.207188   -0.338370
     10          6           0       -3.579238   -0.000063   -0.507878
     11          6           0       -2.908689    1.207101   -0.338507
     12          6           0       -1.559819    1.213738   -0.005118
     13          1           0        1.278876    0.889853   -1.588820
     14          1           0        1.278846   -0.890027   -1.588706
     15          1           0        5.340191   -0.000125   -0.768376
     16          1           0       -1.026919   -2.140103    0.154686
     17          1           0       -3.436604   -2.143231   -0.457340
     18          1           0       -4.629833   -0.000093   -0.764710
     19          1           0       -3.436669    2.143114   -0.457585
     20          1           0       -1.026981    2.140129    0.154442
 ---------------------------------------------------------------------

 SCF Done:  E(RHF) =  -895.178332935     A.U. after    2 cycles

 The electronic state is 1-A.
 Alpha  occ. eigenvalues --  -75.88924 -21.04335 -21.04274 -13.50999 -13.42232
 Alpha  occ. eigenvalues --  -13.36980 -11.54972 -11.48660 -11.46682 -11.46419
 Alpha  occ. eigenvalues --  -11.44288 -11.43388 -11.42670 -11.41716 -11.39473
 Alpha  occ. eigenvalues --   -8.23796  -1.82213  -1.64597  -1.37607  -1.22985
 Alpha  occ. eigenvalues --   -1.14261  -1.12287  -1.05422  -0.95817  -0.89684
 Alpha  occ. eigenvalues --   -0.85064  -0.75623  -0.74423  -0.67867  -0.65863
 Alpha  occ. eigenvalues --   -0.64899  -0.62415  -0.61318  -0.60444  -0.57673
 Alpha  occ. eigenvalues --   -0.53195  -0.48523  -0.48254  -0.43398  -0.42210
 Alpha  occ. eigenvalues --   -0.39226  -0.38469  -0.38220  -0.35594  -0.35448
 Alpha  occ. eigenvalues --   -0.34924  -0.33679
 Alpha virt. eigenvalues --    0.02454   0.04074   0.04787   0.04824   0.05405
 Alpha virt. eigenvalues --    0.05928   0.07232   0.07375   0.07902   0.08295
 Alpha virt. eigenvalues --    0.09720   0.11212   0.11270   0.11834   0.12173

 Mulliken charges:
               1
     1  O   -2.766459
     2  S    6.641884
     3  C   -5.368466
     4  C    5.137594
     5  C   -4.665356
     6  O   -2.766455
     7  C    2.658283
     8  C   -3.550145
     9  C   -0.679661
    10  C   -2.588258
    11  C   -0.679639
    12  C   -3.550287
    13  H    1.548330
    14  H    1.548346
    15  H    0.752278
    16  H    1.875919
    17  H    1.507592
    18  H    1.560990
    19  H    1.507596
    20  H    1.875914
 Sum of Mulliken charges =  -0.00000

 Dipole moment (field-independent basis, Debye):
    X=             -2.6228    Y=             -0.0002    Z=             -1.8298  Tot=              3.1980

 Test job not archived.
 1\1\GINC-SE010\SP\RHF\Aug-CC-pVDZ\C9H8O2S1\OHZDE\06-Apr-2025\0\\#t hf
 aug-cc-pvdz iop(5/13=1,5/36=2,99/5=2) pseudo=read geom=check guess=(re
 ad,tcheck) scf=(maxcycle=1)\\title\\0,1\O,0,1.156985,1.267774,1.230191
 \S,0,0.843996,0.000062,0.585576\C,0,1.650805,-0.000061,-1.080985\C,0,3
 .089778,-0.000082,-0.968083\C,0,4.283059,-0.000104,-0.864662\O,0,1.157
 003,-1.267545,1.230387\C,0,-0.900255,0.000015,0.152344\C,0,-1.559782,-
 1.213746,-0.00498\C,0,-2.908652,-1.207188,-0.33837\C,0,-3.579238,-0.00
 0063,-0.507878\C,0,-2.908689,1.207101,-0.338507\C,0,-1.559819,1.213738

 Normal termination of Gaussian 16 at Sun Apr  6 08:06:21 2025.
