 Gaussian 16, Revision C.01,

 ----------------------------------------------------------------------
 #t hf aug-cc-pvdz symm=none int=(grid=ultrafine) guess=(read,tcheck) s
 table=(opt,rrhf)
 ----------------------------------------------------------------------
 -----
 title
 -----
 Symbolic Z-matrix:
 Charge =  0 Multiplicity = 1

 SCF Done:  E(RHF) =  -473.404318649     A.U. after   16 cycles
 Normal termination of Gaussian 16 at Sun Apr  6 08:04:33 2025.
 Gaussian 16:  ES64L-G16RevC.01  3-Jul-2019

 ----------------------------------------------------------------------
 #t hf aug-cc-pvdz iop(5/13=1,5/36=2,99/5=2) pseudo=read geom=check gue
 ss=(read,tcheck) scf=(maxcycle=1)
 ----------------------------------------------------------------------
 -----
 title
 -----
 Structure from the checkpoint file:  "2-pyridinyl_acetate.chk"
 Charge =  0 Multiplicity = 1

                         Standard orientation:
 ---------------------------------------------------------------------
 Center     Atomic      Atomic             Coordinates (Angstroms)
 Number     Number       Type             X           Y           Z
 ---------------------------------------------------------------------
      1          6           0       -2.338453    1.106760    0.151750
      2          6           0       -2.887654   -0.169877    0.191707
      3          6           0       -0.990243    1.249733   -0.135297
      4          6           0       -2.057419   -1.252130   -0.061697
      5          6           0       -0.261460    0.091175   -0.369070
      6          6           0        2.022769   -0.010003    0.246139
      7          6           0        3.397877   -0.012120   -0.356274
      8          7           0       -0.757678   -1.126595   -0.342613
      9          8           0        1.751515   -0.164505    1.402471
     10          8           0        1.078492    0.204899   -0.727454
     11          1           0       -2.950154    1.977738    0.343578
     12          1           0       -3.933897   -0.324461    0.412893
     13          1           0       -0.509700    2.215713   -0.177084
     14          1           0       -2.444289   -2.263759   -0.042752
     15          1           0        3.510688   -0.894802   -0.986722
     16          1           0        4.140400   -0.030768    0.435030
     17          1           0        3.538129    0.862122   -0.990340
 ---------------------------------------------------------------------

 SCF Done:  E(RHF) =  -475.521834169     A.U. after    2 cycles

 The electronic state is 1-A.
 Alpha  occ. eigenvalues --  -21.10039 -21.05560 -15.74401 -11.53960 -11.51986
 Alpha  occ. eigenvalues --  -11.47653 -11.44744 -11.41888 -11.39829 -11.38847
 Alpha  occ. eigenvalues --   -1.86020  -1.67791  -1.44423  -1.20293  -1.13672
 Alpha  occ. eigenvalues --   -1.08775  -0.90942  -0.89814  -0.78887  -0.70919
 Alpha  occ. eigenvalues --   -0.65867  -0.64909  -0.63981  -0.61166  -0.60702
 Alpha  occ. eigenvalues --   -0.57150  -0.54617  -0.54225  -0.49661  -0.48655
 Alpha  occ. eigenvalues --   -0.44400  -0.37768  -0.37391  -0.34573  -0.32903
 Alpha  occ. eigenvalues --   -0.29671
 Alpha virt. eigenvalues --    0.03135   0.04736   0.05129   0.05239   0.06404
 Alpha virt. eigenvalues --    0.06736   0.06911   0.09353   0.09930   0.10291
 Alpha virt. eigenvalues --    0.10698   0.11683   0.12297   0.12987   0.13468

 Mulliken charges:
               1
     1  C    0.511193
     2  C   -0.784384
     3  C   -2.280675
     4  C   -1.069665
     5  C    4.240507
     6  C    4.523163
     7  C   -4.389456
     8  N   -3.320956
     9  O   -3.088059
    10  O   -4.249472
    11  H    1.538287
    12  H    1.408189
    13  H    1.515391
    14  H    1.619496
    15  H    1.295124
    16  H    1.208807
    17  H    1.322510
 Sum of Mulliken charges =   0.00000

 Dipole moment (field-independent basis, Debye):
    X=             -1.1766    Y=              1.3348    Z=             -0.5400  Tot=              1.8595

 Test job not archived.
 1\1\GINC-SE012\SP\RHF\Aug-CC-pVDZ\C7H7N1O2\OHZDE\06-Apr-2025\0\\#t hf
 aug-cc-pvdz iop(5/13=1,5/36=2,99/5=2) pseudo=read geom=check guess=(re
 ad,tcheck) scf=(maxcycle=1)\\title\\0,1\C,0,-2.338453,1.10676,0.15175\
 C,0,-2.887654,-0.169877,0.191707\C,0,-0.990243,1.249733,-0.135297\C,0,
 -2.057419,-1.25213,-0.061697\C,0,-0.26146,0.091175,-0.36907\C,0,2.0227
 69,-0.010003,0.246139\C,0,3.397877,-0.01212,-0.356274\N,0,-0.757678,-1
 .126595,-0.342613\O,0,1.751515,-0.164505,1.402471\O,0,1.078492,0.20489
 9,-0.727454\H,0,-2.950154,1.977738,0.343578\H,0,-3.933897,-0.324461,0.

 Normal termination of Gaussian 16 at Sun Apr  6 08:04:58 2025.
