 Gaussian 16, Revision C.01,

 ----------------------------------------------------------------------
 #t hf aug-cc-pvdz symm=none int=(grid=ultrafine) guess=(read,tcheck) s
 table=(opt,rrhf)
 ----------------------------------------------------------------------
 -----
 title
 -----
 Symbolic Z-matrix:
 Charge =  0 Multiplicity = 1

 SCF Done:  E(RHF) =  -321.613743573     A.U. after   15 cycles
 Normal termination of Gaussian 16 at Sun Apr  6 08:03:31 2025.
 Gaussian 16:  ES64L-G16RevC.01  3-Jul-2019

 ----------------------------------------------------------------------
 #t hf aug-cc-pvdz iop(5/13=1,5/36=2,99/5=2) pseudo=read geom=check gue
 ss=(read,tcheck) scf=(maxcycle=1)
 ----------------------------------------------------------------------
 -----
 title
 -----
 Structure from the checkpoint file:  "2-pyridinol.chk"
 Charge =  0 Multiplicity = 1

                         Standard orientation:
 ---------------------------------------------------------------------
 Center     Atomic      Atomic             Coordinates (Angstroms)
 Number     Number       Type             X           Y           Z
 ---------------------------------------------------------------------
      1          7           0       -1.176140    0.295001   -0.000000
      2          6           0       -0.000000    0.900809   -0.000000
      3          6           0        1.223975    0.226351    0.000000
      4          6           0        1.190077   -1.154667    0.000000
      5          6           0       -0.039417   -1.813282    0.000000
      6          6           0       -1.189267   -1.042689    0.000000
      7          8           0        0.005822    2.254025   -0.000000
      8          1           0        2.149101    0.783058   -0.000000
      9          1           0        2.113772   -1.717700    0.000000
     10          1           0       -0.101258   -2.891524    0.000000
     11          1           0       -2.168354   -1.506394    0.000000
     12          1           0       -0.919060    2.536214   -0.000000
 ---------------------------------------------------------------------

 SCF Done:  E(RHF) =  -323.071598166     A.U. after    2 cycles

 The electronic state is 1-A'.
 Alpha  occ. eigenvalues --  -21.10585 -15.73522 -11.51109 -11.47162 -11.44401
 Alpha  occ. eigenvalues --  -11.40922 -11.38036  -1.77521  -1.43090  -1.19676
 Alpha  occ. eigenvalues --   -1.09568  -0.90638  -0.87425  -0.72609  -0.67591
 Alpha  occ. eigenvalues --   -0.64275  -0.58724  -0.57974  -0.55162  -0.50650
 Alpha  occ. eigenvalues --   -0.44431  -0.43964  -0.37340  -0.37224  -0.28656
 Alpha virt. eigenvalues --    0.03342   0.05174   0.05363   0.06128   0.06427
 Alpha virt. eigenvalues --    0.10077   0.10752   0.11925   0.11982   0.12451
 Alpha virt. eigenvalues --    0.12817   0.13713   0.14526   0.14587   0.14824

 Mulliken charges:
               1
     1  N   -3.213940
     2  C    3.290817
     3  C   -1.847802
     4  C    0.474253
     5  C   -0.572397
     6  C   -1.209882
     7  O   -3.814645
     8  H    1.456475
     9  H    1.518167
    10  H    1.370251
    11  H    1.552880
    12  H    0.995823
 Sum of Mulliken charges =   0.00000

 Dipole moment (field-independent basis, Debye):
    X=              0.8245    Y=             -0.6042    Z=              0.0000  Tot=              1.0222

 Test job not archived.
 1\1\GINC-SE011\SP\RHF\Aug-CC-pVDZ\C5H5N1O1\OHZDE\06-Apr-2025\0\\#t hf
 aug-cc-pvdz iop(5/13=1,5/36=2,99/5=2) pseudo=read geom=check guess=(re
 ad,tcheck) scf=(maxcycle=1)\\title\\0,1\N,0,-1.17614,0.295001,0.\C,0,0
 .,0.900809,0.\C,0,1.223975,0.226351,0.\C,0,1.190077,-1.154667,0.\C,0,-
 0.039417,-1.813282,0.\C,0,-1.189267,-1.042689,0.\O,0,0.005822,2.254025
 ,0.\H,0,2.149101,0.783058,0.\H,0,2.113772,-1.7177,0.\H,0,-0.101257,-2.
 891524,0.\H,0,-2.168354,-1.506394,0.\H,0,-0.91906,2.536214,0.\\Version
 =ES64L-G16RevC.01\State=1-A'\HF=-323.0715982\RMSD=1.615e+00\Dipole=0.3

 Normal termination of Gaussian 16 at Sun Apr  6 08:03:36 2025.
