 Gaussian 16, Revision C.01,

 ----------------------------------------------------------------------
 #t hf aug-cc-pvdz symm=none int=(grid=ultrafine) guess=(read,tcheck) s
 table=(opt,rrhf)
 ----------------------------------------------------------------------
 -----
 title
 -----
 Symbolic Z-matrix:
 Charge =  0 Multiplicity = 1

 SCF Done:  E(RHF) =  -659.223851965     A.U. after   15 cycles
 Normal termination of Gaussian 16 at Sun Apr  6 08:03:25 2025.
 Gaussian 16:  ES64L-G16RevC.01  3-Jul-2019

 ----------------------------------------------------------------------
 #t hf aug-cc-pvdz iop(5/13=1,5/36=2,99/5=2) pseudo=read geom=check gue
 ss=(read,tcheck) scf=(maxcycle=1)
 ----------------------------------------------------------------------
 -----
 title
 -----
 Structure from the checkpoint file:  "2-sulfanyl-2-3-dihydro-1-2-3-oxadiazole.chk"
 Charge =  0 Multiplicity = 1

                         Standard orientation:
 ---------------------------------------------------------------------
 Center     Atomic      Atomic             Coordinates (Angstroms)
 Number     Number       Type             X           Y           Z
 ---------------------------------------------------------------------
      1         16           0       -1.764262   -0.028731    0.281446
      2          8           0        0.586821   -1.114709   -0.509303
      3          7           0       -0.251683    0.006912   -0.828675
      4          7           0        0.614061    1.105043   -0.503142
      5          6           0        1.485936   -0.681423    0.451316
      6          6           0        1.501411    0.645466    0.492509
      7          1           0       -1.126094    0.003515    1.472452
      8          1           0        0.064649    1.928199   -0.298450
      9          1           0        2.039233   -1.439683    0.972831
     10          1           0        2.095103    1.317395    1.084212
 ---------------------------------------------------------------------

 SCF Done:  E(RHF) =  -660.611213421     A.U. after    2 cycles

 The electronic state is 1-A.
 Alpha  occ. eigenvalues --  -75.71477 -21.10367 -15.83280 -15.78291 -13.14820
 Alpha  occ. eigenvalues --  -13.11580 -13.05356 -11.47070 -11.41225  -8.05075
 Alpha  occ. eigenvalues --   -1.87501  -1.44328  -1.23231  -1.08178  -0.93095
 Alpha  occ. eigenvalues --   -0.84730  -0.76764  -0.64914  -0.58341  -0.57343
 Alpha  occ. eigenvalues --   -0.56114  -0.45062  -0.43359  -0.42842  -0.39804
 Alpha  occ. eigenvalues --   -0.25775  -0.22822
 Alpha virt. eigenvalues --    0.02912   0.04840   0.05186   0.05784   0.09666
 Alpha virt. eigenvalues --    0.10031   0.10577   0.10822   0.12793   0.13296
 Alpha virt. eigenvalues --    0.14584   0.15161   0.15697   0.15722   0.17769

 Mulliken charges:
               1
     1  S   -0.645323
     2  O   -2.755719
     3  N    0.472467
     4  N   -1.896677
     5  C    0.486690
     6  C    0.090021
     7  H    1.010364
     8  H    0.851169
     9  H    1.243617
    10  H    1.143390
 Sum of Mulliken charges =  -0.00000

 Dipole moment (field-independent basis, Debye):
    X=             -0.2231    Y=              0.4456    Z=              0.9460  Tot=              1.0692

 Test job not archived.
 1\1\GINC-SE046\SP\RHF\Aug-CC-pVDZ\C2H4N2O1S1\OHZDE\06-Apr-2025\0\\#t h
 f aug-cc-pvdz iop(5/13=1,5/36=2,99/5=2) pseudo=read geom=check guess=(
 read,tcheck) scf=(maxcycle=1)\\title\\0,1\S,0,-1.764262,-0.028731,0.28
 1446\O,0,0.586821,-1.114709,-0.509303\N,0,-0.251683,0.006912,-0.828675
 \N,0,0.614061,1.105043,-0.503142\C,0,1.485936,-0.681423,0.451316\C,0,1
 .501411,0.645466,0.492509\H,0,-1.126094,0.003515,1.472452\H,0,0.064649
 ,1.928199,-0.29845\H,0,2.039233,-1.439683,0.972831\H,0,2.095103,1.3173
 95,1.084212\\Version=ES64L-G16RevC.01\State=1-A\HF=-660.6112134\RMSD=5

 Normal termination of Gaussian 16 at Sun Apr  6 08:03:29 2025.
