 Gaussian 16, Revision C.01,

 ----------------------------------------------------------------------
 #t hf aug-cc-pvdz symm=none int=(grid=ultrafine) guess=(read,tcheck) s
 table=(opt,rrhf)
 ----------------------------------------------------------------------
 -----
 title
 -----
 Symbolic Z-matrix:
 Charge =  0 Multiplicity = 1

 SCF Done:  E(RHF) =  -1074.83446191     A.U. after   16 cycles
 Normal termination of Gaussian 16 at Sun Apr  6 08:04:00 2025.
 Gaussian 16:  ES64L-G16RevC.01  3-Jul-2019

 ----------------------------------------------------------------------
 #t hf aug-cc-pvdz iop(5/13=1,5/36=2,99/5=2) pseudo=read geom=check gue
 ss=(read,tcheck) scf=(maxcycle=1)
 ----------------------------------------------------------------------
 -----
 title
 -----
 Structure from the checkpoint file:  "2-sulfanyl-2-3-dihydro-1-2-3-triazine-41H-thione.chk"
 Charge =  0 Multiplicity = 1

                         Standard orientation:
 ---------------------------------------------------------------------
 Center     Atomic      Atomic             Coordinates (Angstroms)
 Number     Number       Type             X           Y           Z
 ---------------------------------------------------------------------
      1         16           0        2.547758   -0.919099   -0.053026
      2         16           0       -2.705184   -0.795536    0.103404
      3          7           0        1.128924   -0.011693   -0.377571
      4          7           0       -0.064029   -0.748349   -0.053981
      5          7           0        1.139175    1.250598    0.371535
      6          6           0       -1.124329   -0.028818   -0.115379
      7          6           0       -1.120311    1.420199   -0.258114
      8          6           0        0.038662    2.018372    0.067171
      9          1           0        2.381553   -1.155465    1.277531
     10          1           0       -2.221852   -2.049836    0.167875
     11          1           0        2.042552    1.684451    0.251989
     12          1           0       -2.024383    1.975775   -0.440590
     13          1           0        0.148326    3.086836    0.195205
 ---------------------------------------------------------------------

 SCF Done:  E(RHF) =  -1076.56680003     A.U. after    2 cycles

 The electronic state is 1-A.
 Alpha  occ. eigenvalues --  -75.71695 -75.70833 -15.79211 -15.78723 -15.75069
 Alpha  occ. eigenvalues --  -13.22294 -13.16382 -13.14507 -13.13219 -13.07831
 Alpha  occ. eigenvalues --  -13.02592 -11.48329 -11.47696 -11.39612  -8.05588
 Alpha  occ. eigenvalues --   -8.04943  -1.60703  -1.35864  -1.30169  -1.13405
 Alpha  occ. eigenvalues --   -1.09916  -0.95900  -0.90844  -0.75884  -0.69953
 Alpha  occ. eigenvalues --   -0.66509  -0.63097  -0.58543  -0.57593  -0.51815
 Alpha  occ. eigenvalues --   -0.47338  -0.46634  -0.42547  -0.40419  -0.36253
 Alpha  occ. eigenvalues --   -0.28089  -0.26146  -0.24085
 Alpha virt. eigenvalues --    0.03017   0.04572   0.04789   0.05315   0.06307
 Alpha virt. eigenvalues --    0.08333   0.08691   0.09585   0.10748   0.11177
 Alpha virt. eigenvalues --    0.12257   0.12636   0.12925   0.13574   0.14273

 Mulliken charges:
               1
     1  S   -0.383165
     2  S   -0.318408
     3  N   -0.542717
     4  N   -2.954748
     5  N   -2.348017
     6  C    2.165239
     7  C   -1.721983
     8  C    0.107454
     9  H    1.127826
    10  H    1.026439
    11  H    0.788553
    12  H    1.577673
    13  H    1.475853
 Sum of Mulliken charges =   0.00000

 Dipole moment (field-independent basis, Debye):
    X=             -0.3804    Y=              2.2999    Z=             -0.4483  Tot=              2.3739

 Test job not archived.
 1\1\GINC-SE047\SP\RHF\Aug-CC-pVDZ\C3H5N3S2\OHZDE\06-Apr-2025\0\\#t hf
 aug-cc-pvdz iop(5/13=1,5/36=2,99/5=2) pseudo=read geom=check guess=(re
 ad,tcheck) scf=(maxcycle=1)\\title\\0,1\S,0,2.547758,-0.919099,-0.0530
 26\S,0,-2.705184,-0.795536,0.103404\N,0,1.128924,-0.011693,-0.377571\N
 ,0,-0.064029,-0.748349,-0.053981\N,0,1.139175,1.250598,0.371535\C,0,-1
 .124329,-0.028818,-0.115379\C,0,-1.120311,1.420199,-0.258114\C,0,0.038
 662,2.018372,0.067171\H,0,2.381553,-1.155465,1.277531\H,0,-2.221852,-2
 .049836,0.167875\H,0,2.042552,1.684451,0.251989\H,0,-2.024383,1.975775

 Normal termination of Gaussian 16 at Sun Apr  6 08:04:05 2025.
