 Gaussian 16, Revision C.01,

 ----------------------------------------------------------------------
 #t hf aug-cc-pvdz symm=none int=(grid=ultrafine) guess=(read,tcheck) s
 table=(opt,rrhf)
 ----------------------------------------------------------------------
 -----
 title
 -----
 Symbolic Z-matrix:
 Charge =  0 Multiplicity = 1

 SCF Done:  E(RHF) =  -705.436354722     A.U. after   15 cycles
 Normal termination of Gaussian 16 at Sun Apr  6 08:04:50 2025.
 Gaussian 16:  ES64L-G16RevC.01  3-Jul-2019

 ----------------------------------------------------------------------
 #t hf aug-cc-pvdz iop(5/13=1,5/36=2,99/5=2) pseudo=read geom=check gue
 ss=(read,tcheck) scf=(maxcycle=1)
 ----------------------------------------------------------------------
 -----
 title
 -----
 Structure from the checkpoint file:  "2-sulfylformaldehyde-3-methylbutene.chk"
 Charge =  0 Multiplicity = 1

                         Standard orientation:
 ---------------------------------------------------------------------
 Center     Atomic      Atomic             Coordinates (Angstroms)
 Number     Number       Type             X           Y           Z
 ---------------------------------------------------------------------
      1          6           0       -1.966141   -0.243997    0.652074
      2          6           0        1.427449   -0.406198   -0.004522
      3          6           0        0.548506    0.597372   -0.160463
      4          6           0        1.159927   -1.840030   -0.373853
      5          6           0        2.811134   -0.200827    0.559532
      6          6           0        0.786607    2.053943    0.137899
      7          8           0       -3.126754   -0.539822    0.672071
      8         16           0       -1.103623    0.293545   -0.820783
      9          1           0       -1.304658   -0.279475    1.536228
     10          1           0        1.992891   -2.231161   -0.963195
     11          1           0        1.099429   -2.460899    0.524518
     12          1           0        0.242889   -1.970157   -0.939207
     13          1           0        2.984133    0.790914    0.963815
     14          1           0        3.562165   -0.391258   -0.212287
     15          1           0        2.996780   -0.925244    1.356070
     16          1           0        0.160197    2.390423    0.967818
     17          1           0        1.822753    2.273115    0.382174
     18          1           0        0.510533    2.664030   -0.723971
 ---------------------------------------------------------------------

 SCF Done:  E(RHF) =  -707.134310332     A.U. after    2 cycles

 The electronic state is 1-A.
 Alpha  occ. eigenvalues --  -75.69811 -21.07161 -13.18831 -13.11459 -13.09796
 Alpha  occ. eigenvalues --  -11.49712 -11.47603 -11.42055 -11.41314 -11.39497
 Alpha  occ. eigenvalues --  -11.37700  -8.04102  -1.71994  -1.31889  -1.16709
 Alpha  occ. eigenvalues --   -1.08256  -1.02198  -0.93612  -0.83914  -0.71880
 Alpha  occ. eigenvalues --   -0.65321  -0.61961  -0.61741  -0.58178  -0.57701
 Alpha  occ. eigenvalues --   -0.54829  -0.54712  -0.51651  -0.50628  -0.48860
 Alpha  occ. eigenvalues --   -0.47350  -0.38452  -0.34834  -0.27236  -0.24741
 Alpha virt. eigenvalues --    0.02647   0.04659   0.05089   0.05359   0.05550
 Alpha virt. eigenvalues --    0.05715   0.06142   0.07022   0.07868   0.08832
 Alpha virt. eigenvalues --    0.09311   0.10593   0.11520   0.12109   0.12558

 Mulliken charges:
               1
     1  C    0.408893
     2  C    2.680989
     3  C    0.950880
     4  C   -5.080281
     5  C   -5.247991
     6  C   -4.833583
     7  O   -2.575116
     8  S    0.551000
     9  H    1.601699
    10  H    1.168163
    11  H    1.103848
    12  H    1.710274
    13  H    1.455806
    14  H    1.091234
    15  H    1.087776
    16  H    1.294862
    17  H    1.374888
    18  H    1.256660
 Sum of Mulliken charges =  -0.00000

 Dipole moment (field-independent basis, Debye):
    X=              2.6238    Y=              0.0464    Z=             -0.9818  Tot=              2.8018

 Test job not archived.
 1\1\GINC-SE047\SP\RHF\Aug-CC-pVDZ\C6H10O1S1\OHZDE\06-Apr-2025\0\\#t hf
  aug-cc-pvdz iop(5/13=1,5/36=2,99/5=2) pseudo=read geom=check guess=(r
 ead,tcheck) scf=(maxcycle=1)\\title\\0,1\C,0,-1.966141,-0.243997,0.652
 074\C,0,1.427449,-0.406198,-0.004522\C,0,0.548506,0.597372,-0.160463\C
 ,0,1.159927,-1.84003,-0.373853\C,0,2.811134,-0.200827,0.559532\C,0,0.7
 86607,2.053943,0.137899\O,0,-3.126754,-0.539822,0.672071\S,0,-1.103623
 ,0.293545,-0.820783\H,0,-1.304658,-0.279475,1.536228\H,0,1.992891,-2.2
 31161,-0.963195\H,0,1.099429,-2.460899,0.524518\H,0,0.242889,-1.970157

 Normal termination of Gaussian 16 at Sun Apr  6 08:05:22 2025.
