 Gaussian 16, Revision C.01,

 ----------------------------------------------------------------------
 #t hf aug-cc-pvdz symm=none int=(grid=ultrafine) guess=(read,tcheck) s
 table=(opt,rrhf)
 ----------------------------------------------------------------------
 -----
 title
 -----
 Symbolic Z-matrix:
 Charge =  0 Multiplicity = 1

 SCF Done:  E(RHF) =  -981.934095641     A.U. after   16 cycles
 Normal termination of Gaussian 16 at Sun Apr  6 08:03:26 2025.
 Gaussian 16:  ES64L-G16RevC.01  3-Jul-2019

 ----------------------------------------------------------------------
 #t hf aug-cc-pvdz iop(5/13=1,5/36=2,99/5=2) pseudo=read geom=check gue
 ss=(read,tcheck) scf=(maxcycle=1)
 ----------------------------------------------------------------------
 -----
 title
 -----
 Structure from the checkpoint file:  "2-sulfanyl-2-3-dihydro-1-2-3-thiadiazole.chk"
 Charge =  0 Multiplicity = 1

                         Standard orientation:
 ---------------------------------------------------------------------
 Center     Atomic      Atomic             Coordinates (Angstroms)
 Number     Number       Type             X           Y           Z
 ---------------------------------------------------------------------
      1         16           0       -0.810277   -1.201087   -0.200139
      2         16           0        1.913381   -0.044710    0.323269
      3          7           0        0.443660   -0.088164   -0.739013
      4          7           0       -0.252291    1.168391   -0.769326
      5          6           0       -1.623704    0.083578    0.709655
      6          6           0       -1.186766    1.266178    0.270196
      7          1           0        1.326453    0.217777    1.515056
      8          1           0        0.406206    1.926467   -0.878431
      9          1           0       -2.353808   -0.114528    1.473493
     10          1           0       -1.505287    2.242921    0.599065
 ---------------------------------------------------------------------

 SCF Done:  E(RHF) =  -983.263452264     A.U. after    2 cycles

 The electronic state is 1-A.
 Alpha  occ. eigenvalues --  -75.71884 -75.71600 -15.79798 -15.78244 -13.19948
 Alpha  occ. eigenvalues --  -13.14509 -13.13350 -13.10440 -13.06286 -13.04930
 Alpha  occ. eigenvalues --  -11.45815 -11.40007  -8.06011  -8.05253  -1.57140
 Alpha  occ. eigenvalues --   -1.24360  -1.19490  -1.07149  -0.89148  -0.82898
 Alpha  occ. eigenvalues --   -0.74805  -0.61512  -0.58007  -0.57778  -0.53016
 Alpha  occ. eigenvalues --   -0.43393  -0.40818  -0.39141  -0.35899  -0.25415
 Alpha  occ. eigenvalues --   -0.19958
 Alpha virt. eigenvalues --    0.02566   0.04573   0.04991   0.06092   0.07655
 Alpha virt. eigenvalues --    0.09009   0.10333   0.10651   0.12100   0.12924
 Alpha virt. eigenvalues --    0.13140   0.14618   0.15080   0.15346   0.15739

 Mulliken charges:
               1
     1  S    1.269187
     2  S   -0.649314
     3  N   -1.395068
     4  N   -1.943281
     5  C   -2.010758
     6  C    0.363862
     7  H    1.029786
     8  H    0.843651
     9  H    1.189085
    10  H    1.302850
 Sum of Mulliken charges =  -0.00000

 Dipole moment (field-independent basis, Debye):
    X=              0.4909    Y=             -0.2257    Z=              0.1834  Tot=              0.5705

 Test job not archived.
 1\1\GINC-SE046\SP\RHF\Aug-CC-pVDZ\C2H4N2S2\OHZDE\06-Apr-2025\0\\#t hf
 aug-cc-pvdz iop(5/13=1,5/36=2,99/5=2) pseudo=read geom=check guess=(re
 ad,tcheck) scf=(maxcycle=1)\\title\\0,1\S,0,-0.810277,-1.201087,-0.200
 139\S,0,1.913381,-0.04471,0.323269\N,0,0.44366,-0.088164,-0.739013\N,0
 ,-0.252291,1.168391,-0.769326\C,0,-1.623704,0.083578,0.709655\C,0,-1.1
 86766,1.266178,0.270196\H,0,1.326453,0.217777,1.515056\H,0,0.406206,1.
 926467,-0.878431\H,0,-2.353808,-0.114528,1.473493\H,0,-1.505287,2.2429
 21,0.599065\\Version=ES64L-G16RevC.01\State=1-A\HF=-983.2634523\RMSD=5

 Normal termination of Gaussian 16 at Sun Apr  6 08:03:30 2025.
