 Gaussian 16, Revision C.01,

 ----------------------------------------------------------------------
 #t hf aug-cc-pvdz symm=none int=(grid=ultrafine) guess=(read,tcheck) s
 table=(opt,rrhf)
 ----------------------------------------------------------------------
 -----
 title
 -----
 Symbolic Z-matrix:
 Charge =  0 Multiplicity = 1

 SCF Done:  E(RHF) =  -1039.76360050     A.U. after   15 cycles
 Normal termination of Gaussian 16 at Sun Apr  6 08:03:30 2025.
 Gaussian 16:  ES64L-G16RevC.01  3-Jul-2019

 ----------------------------------------------------------------------
 #t hf aug-cc-pvdz iop(5/13=1,5/36=2,99/5=2) pseudo=read geom=check gue
 ss=(read,tcheck) scf=(maxcycle=1)
 ----------------------------------------------------------------------
 -----
 title
 -----
 Structure from the checkpoint file:  "2-thioxo-1-3-thiazolidin-5-one.chk"
 Charge =  0 Multiplicity = 1

                         Standard orientation:
 ---------------------------------------------------------------------
 Center     Atomic      Atomic             Coordinates (Angstroms)
 Number     Number       Type             X           Y           Z
 ---------------------------------------------------------------------
      1         16           0        0.301124   -1.194128   -0.000003
      2         16           0       -2.516695   -0.103145   -0.000004
      3          8           0        2.855536   -0.380914    0.000003
      4          7           0       -0.251435    1.319996    0.000004
      5          6           0       -0.891421    0.133788   -0.000001
      6          6           0        1.703099   -0.063528    0.000002
      7          6           0        1.190060    1.371895    0.000006
      8          1           0       -0.815242    2.155712    0.000006
      9          1           0        1.584859    1.877534   -0.885017
     10          1           0        1.584856    1.877528    0.885033
 ---------------------------------------------------------------------

 SCF Done:  E(RHF) =  -1041.28213611     A.U. after    2 cycles

 The electronic state is 1-A.
 Alpha  occ. eigenvalues --  -75.74401 -75.65863 -21.10146 -15.82022 -13.17583
 Alpha  occ. eigenvalues --  -13.16929 -13.15219 -13.06258 -12.99494 -12.96917
 Alpha  occ. eigenvalues --  -11.54756 -11.51995 -11.46853  -8.08767  -8.00057
 Alpha  occ. eigenvalues --   -1.75970  -1.51982  -1.22028  -1.17685  -1.05150
 Alpha  occ. eigenvalues --   -0.85073  -0.81016  -0.70802  -0.70023  -0.61297
 Alpha  occ. eigenvalues --   -0.56390  -0.52999  -0.51186  -0.50109  -0.44276
 Alpha  occ. eigenvalues --   -0.30943  -0.30454  -0.25079  -0.22420
 Alpha virt. eigenvalues --    0.01734   0.05219   0.05307   0.06354   0.07454
 Alpha virt. eigenvalues --    0.08151   0.08410   0.09235   0.11287   0.11400
 Alpha virt. eigenvalues --    0.13029   0.13050   0.13208   0.14819   0.15452

 Mulliken charges:
               1
     1  S    1.608923
     2  S    1.566250
     3  O   -3.080482
     4  N   -2.606125
     5  C   -0.979566
     6  C    2.474746
     7  C   -2.589639
     8  H    0.799409
     9  H    1.403241
    10  H    1.403242
 Sum of Mulliken charges =  -0.00000

 Dipole moment (field-independent basis, Debye):
    X=             -0.3401    Y=             -0.0213    Z=              0.0000  Tot=              0.3408

 Test job not archived.
 1\1\GINC-SE085\SP\RHF\Aug-CC-pVDZ\C3H3N1O1S2\OHZDE\06-Apr-2025\0\\#t h
 f aug-cc-pvdz iop(5/13=1,5/36=2,99/5=2) pseudo=read geom=check guess=(
 read,tcheck) scf=(maxcycle=1)\\title\\0,1\S,0,0.301124,-1.194128,-0.00
 0003\S,0,-2.516695,-0.103145,-0.000004\O,0,2.855536,-0.380914,0.000003
 \N,0,-0.251435,1.319996,0.000004\C,0,-0.891421,0.133788,-0.000001\C,0,
 1.703099,-0.063528,0.000002\C,0,1.19006,1.371895,0.000006\H,0,-0.81524
 2,2.155712,0.000006\H,0,1.584859,1.877534,-0.885017\H,0,1.584856,1.877
 528,0.885033\\Version=ES64L-G16RevC.01\State=1-A\HF=-1041.2821361\RMSD

 Normal termination of Gaussian 16 at Sun Apr  6 08:03:34 2025.
