 Gaussian 16, Revision C.01,

 ----------------------------------------------------------------------
 #t hf aug-cc-pvdz symm=none int=(grid=ultrafine) guess=(read,tcheck) s
 table=(opt,rrhf)
 ----------------------------------------------------------------------
 -----
 title
 -----
 Symbolic Z-matrix:
 Charge =  0 Multiplicity = 1

 SCF Done:  E(RHF) =  -926.980678031     A.U. after   15 cycles
 Normal termination of Gaussian 16 at Sun Apr  6 08:03:22 2025.
 Gaussian 16:  ES64L-G16RevC.01  3-Jul-2019

 ----------------------------------------------------------------------
 #t hf aug-cc-pvdz iop(5/13=1,5/36=2,99/5=2) pseudo=read geom=check gue
 ss=(read,tcheck) scf=(maxcycle=1)
 ----------------------------------------------------------------------
 -----
 title
 -----
 Structure from the checkpoint file:  "2-thioxothioacetamide.chk"
 Charge =  0 Multiplicity = 1

                         Standard orientation:
 ---------------------------------------------------------------------
 Center     Atomic      Atomic             Coordinates (Angstroms)
 Number     Number       Type             X           Y           Z
 ---------------------------------------------------------------------
      1         16           0       -1.212773   -1.207584    0.003315
      2         16           0        2.042508   -0.178536   -0.008928
      3          7           0       -1.534033    1.415066   -0.011441
      4          6           0       -0.689942    0.359550    0.002786
      5          6           0        0.740967    0.774182    0.022682
      6          1           0       -1.200704    2.364588   -0.016085
      7          1           0       -2.525891    1.249315   -0.027968
      8          1           0        0.882911    1.856177    0.061139
 ---------------------------------------------------------------------

 SCF Done:  E(RHF) =  -928.024573875     A.U. after    2 cycles

 The electronic state is 1-A.
 Alpha  occ. eigenvalues --  -75.70731 -75.65144 -15.82093 -13.21945 -13.13800
 Alpha  occ. eigenvalues --  -13.05273 -13.01235 -12.98357 -12.95938 -11.52421
 Alpha  occ. eigenvalues --  -11.47137  -8.04823  -7.99292  -1.45146  -1.22316
 Alpha  occ. eigenvalues --   -1.10945  -0.95386  -0.79247  -0.72413  -0.67424
 Alpha  occ. eigenvalues --   -0.54549  -0.47451  -0.46141  -0.38013  -0.25876
 Alpha  occ. eigenvalues --   -0.24762  -0.21842
 Alpha virt. eigenvalues --    0.01828   0.03444   0.04391   0.05838   0.06969
 Alpha virt. eigenvalues --    0.08223   0.10448   0.11887   0.14058   0.14294
 Alpha virt. eigenvalues --    0.14828   0.15152   0.16404   0.16449   0.17240

 Mulliken charges:
               1
     1  S    1.351261
     2  S    1.958565
     3  N   -3.405534
     4  C    0.365587
     5  C   -2.961215
     6  H    0.743637
     7  H    0.749849
     8  H    1.197850
 Sum of Mulliken charges =   0.00000

 Dipole moment (field-independent basis, Debye):
    X=              0.7634    Y=             -0.1817    Z=             -0.0553  Tot=              0.7867

 Test job not archived.
 1\1\GINC-SE170\SP\RHF\Aug-CC-pVDZ\C2H3N1S2\OHZDE\06-Apr-2025\0\\#t hf
 aug-cc-pvdz iop(5/13=1,5/36=2,99/5=2) pseudo=read geom=check guess=(re
 ad,tcheck) scf=(maxcycle=1)\\title\\0,1\S,0,-1.212773,-1.207584,0.0033
 15\S,0,2.042508,-0.178536,-0.008928\N,0,-1.534033,1.415066,-0.011441\C
 ,0,-0.689942,0.35955,0.002786\C,0,0.740967,0.774182,0.022682\H,0,-1.20
 0704,2.364588,-0.016085\H,0,-2.525891,1.249315,-0.027968\H,0,0.882911,
 1.856177,0.061139\\Version=ES64L-G16RevC.01\State=1-A\HF=-928.0245739\
 RMSD=4.727e-01\Dipole=0.3003371,-0.0715009,-0.0217652\Quadrupole=1.699

 Normal termination of Gaussian 16 at Sun Apr  6 08:03:25 2025.
