 Gaussian 16, Revision C.01,

 ----------------------------------------------------------------------
 #t hf aug-cc-pvdz symm=none int=(grid=ultrafine) guess=(read,tcheck) s
 table=(opt,rrhf)
 ----------------------------------------------------------------------
 -----
 title
 -----
 Symbolic Z-matrix:
 Charge =  0 Multiplicity = 1

 SCF Done:  E(RHF) =  -1098.60070251     A.U. after   17 cycles
 Normal termination of Gaussian 16 at Sun Apr  6 08:03:39 2025.
 Gaussian 16:  ES64L-G16RevC.01  3-Jul-2019

 ----------------------------------------------------------------------
 #t hf aug-cc-pvdz iop(5/13=1,5/36=2,99/5=2) pseudo=read geom=check gue
 ss=(read,tcheck) scf=(maxcycle=1)
 ----------------------------------------------------------------------
 -----
 title
 -----
 Structure from the checkpoint file:  "2-thioformyl-3-thioxopropanoic_acid.chk"
 Charge =  0 Multiplicity = 1

                         Standard orientation:
 ---------------------------------------------------------------------
 Center     Atomic      Atomic             Coordinates (Angstroms)
 Number     Number       Type             X           Y           Z
 ---------------------------------------------------------------------
      1         16           0        2.376125   -1.341872   -0.155715
      2         16           0       -2.376123   -1.341874   -0.155714
      3          8           0       -0.000001    2.271956   -1.220927
      4          8           0       -0.000001    2.134769    1.026292
      5          6           0       -0.000000    0.080610   -0.199333
      6          6           0        0.000000    1.613145   -0.221280
      7          6           0        1.234770   -0.423018    0.519041
      8          6           0       -1.234769   -0.423020    0.519042
      9          1           0       -0.000001    3.100348    0.941425
     10          1           0       -0.000000   -0.255540   -1.230687
     11          1           0        1.305553   -0.122488    1.562193
     12          1           0       -1.305552   -0.122490    1.562194
 ---------------------------------------------------------------------

 SCF Done:  E(RHF) =  -1100.34010605     A.U. after    2 cycles

 The electronic state is 1-A.
 Alpha  occ. eigenvalues --  -75.70387 -75.70362 -21.15624 -21.08839 -13.20127
 Alpha  occ. eigenvalues --  -13.20074 -13.05237 -13.03942 -13.01805 -13.01367
 Alpha  occ. eigenvalues --  -11.56538 -11.50996 -11.49919 -11.45231  -8.04504
 Alpha  occ. eigenvalues --   -8.04501  -1.86193  -1.68909  -1.33154  -1.19822
 Alpha  occ. eigenvalues --   -1.09699  -0.88018  -0.86901  -0.82995  -0.66768
 Alpha  occ. eigenvalues --   -0.65828  -0.63930  -0.57463  -0.57444  -0.50456
 Alpha  occ. eigenvalues --   -0.49339  -0.45252  -0.39610  -0.37228  -0.36031
 Alpha  occ. eigenvalues --   -0.31494  -0.24819  -0.23019
 Alpha virt. eigenvalues --    0.02620   0.04180   0.04748   0.05054   0.05970
 Alpha virt. eigenvalues --    0.06517   0.07512   0.08231   0.09700   0.10997
 Alpha virt. eigenvalues --    0.11196   0.12226   0.12561   0.14490   0.14970

 Mulliken charges:
               1
     1  S    1.172052
     2  S    1.172052
     3  O   -3.205317
     4  O   -3.135022
     5  C   -1.640184
     6  C    5.949956
     7  C   -2.691378
     8  C   -2.691383
     9  H    0.941638
    10  H    1.444224
    11  H    1.341681
    12  H    1.341681
 Sum of Mulliken charges =   0.00000

 Dipole moment (field-independent basis, Debye):
    X=             -0.0000    Y=             -1.3527    Z=              0.1013  Tot=              1.3564

 Test job not archived.
 1\1\GINC-SE084\SP\RHF\Aug-CC-pVDZ\C4H4O2S2\OHZDE\06-Apr-2025\0\\#t hf
 aug-cc-pvdz iop(5/13=1,5/36=2,99/5=2) pseudo=read geom=check guess=(re
 ad,tcheck) scf=(maxcycle=1)\\title\\0,1\S,0,2.376125,-1.341871,-0.1557
 15\S,0,-2.376123,-1.341874,-0.155714\O,0,-0.000002,2.271956,-1.220927\
 O,0,-0.000002,2.134769,1.026292\C,0,0.,0.08061,-0.199333\C,0,0.,1.6131
 45,-0.22128\C,0,1.23477,-0.423018,0.519041\C,0,-1.234769,-0.42302,0.51
 9042\H,0,-0.000002,3.100348,0.941425\H,0,0.,-0.25554,-1.230687\H,0,1.3
 05553,-0.122487,1.562193\H,0,-1.305552,-0.12249,1.562194\\Version=ES64

 Normal termination of Gaussian 16 at Sun Apr  6 08:03:45 2025.
