 Gaussian 16, Revision C.01,

 ----------------------------------------------------------------------
 #t hf aug-cc-pvdz symm=none int=(grid=ultrafine) guess=(read,tcheck) s
 table=(opt,rrhf)
 ----------------------------------------------------------------------
 -----
 title
 -----
 Symbolic Z-matrix:
 Charge =  0 Multiplicity = 1

 SCF Done:  E(RHF) =  -1056.60166442     A.U. after   16 cycles
 Normal termination of Gaussian 16 at Sun Apr  6 08:03:35 2025.
 Gaussian 16:  ES64L-G16RevC.01  3-Jul-2019

 ----------------------------------------------------------------------
 #t hf aug-cc-pvdz iop(5/13=1,5/36=2,99/5=2) pseudo=read geom=check gue
 ss=(read,tcheck) scf=(maxcycle=1)
 ----------------------------------------------------------------------
 -----
 title
 -----
 Structure from the checkpoint file:  "2-thioxo-2-3-dihydro-1-3-thiazole-5-carbonitrile.chk"
 Charge =  0 Multiplicity = 1

                         Standard orientation:
 ---------------------------------------------------------------------
 Center     Atomic      Atomic             Coordinates (Angstroms)
 Number     Number       Type             X           Y           Z
 ---------------------------------------------------------------------
      1         16           0       -0.132326   -1.067056   -0.000002
      2         16           0        2.794229   -0.264794   -0.000005
      3          7           0        0.642381    1.397235    0.000001
      4          7           0       -3.851613   -0.306271    0.000006
      5          6           0       -1.339600    0.198368    0.000002
      6          6           0        1.094765    0.176601   -0.000002
      7          6           0       -0.717729    1.417421    0.000003
      8          6           0       -2.720759   -0.076305    0.000004
      9          1           0        3.213634    1.014221   -0.000004
     10          1           0       -1.239521    2.362120    0.000006
 ---------------------------------------------------------------------

 SCF Done:  E(RHF) =  -1058.21780900     A.U. after    2 cycles

 The electronic state is 1-A.
 Alpha  occ. eigenvalues --  -75.76236 -75.74469 -15.77621 -15.77603 -13.21394
 Alpha  occ. eigenvalues --  -13.21142 -13.19796 -13.17002 -13.08033 -13.06011
 Alpha  occ. eigenvalues --  -11.50947 -11.49527 -11.46636 -11.44539  -8.10662
 Alpha  occ. eigenvalues --   -8.08543  -1.53111  -1.32888  -1.22288  -1.21924
 Alpha  occ. eigenvalues --   -1.08928  -0.91832  -0.79876  -0.75593  -0.63275
 Alpha  occ. eigenvalues --   -0.60908  -0.56854  -0.52035  -0.51807  -0.50834
 Alpha  occ. eigenvalues --   -0.46856  -0.41892  -0.38861  -0.37960  -0.33636
 Alpha  occ. eigenvalues --   -0.25481
 Alpha virt. eigenvalues --    0.02135   0.03830   0.05437   0.06679   0.07255
 Alpha virt. eigenvalues --    0.07455   0.08236   0.10199   0.10754   0.12214
 Alpha virt. eigenvalues --    0.12846   0.12870   0.13496   0.13756   0.14207

 Mulliken charges:
               1
     1  S    1.093309
     2  S    0.186537
     3  N   -3.739019
     4  N   -2.311049
     5  C    1.122666
     6  C    0.125305
     7  C   -0.233728
     8  C    1.236840
     9  H    1.036015
    10  H    1.483124
 Sum of Mulliken charges =  -0.00000

 Dipole moment (field-independent basis, Debye):
    X=              4.2861    Y=             -3.5287    Z=             -0.0000  Tot=              5.5518

 Test job not archived.
 1\1\GINC-SE085\SP\RHF\Aug-CC-pVDZ\C4H2N2S2\OHZDE\06-Apr-2025\0\\#t hf
 aug-cc-pvdz iop(5/13=1,5/36=2,99/5=2) pseudo=read geom=check guess=(re
 ad,tcheck) scf=(maxcycle=1)\\title\\0,1\S,0,-0.132326,-1.067056,-0.000
 002\S,0,2.794229,-0.264794,-0.000005\N,0,0.642381,1.397235,0.000001\N,
 0,-3.851613,-0.306271,0.000006\C,0,-1.3396,0.198368,0.000002\C,0,1.094
 765,0.176601,-0.000002\C,0,-0.717729,1.417421,0.000003\C,0,-2.720759,-
 0.076305,0.000004\H,0,3.213634,1.014221,-0.000004\H,0,-1.239521,2.3621
 2,0.000006\\Version=ES64L-G16RevC.01\State=1-A\HF=-1058.217809\RMSD=8.

 Normal termination of Gaussian 16 at Sun Apr  6 08:03:40 2025.
