 Gaussian 16, Revision C.01,

 ----------------------------------------------------------------------
 #t hf aug-cc-pvdz symm=none int=(grid=ultrafine) guess=(read,tcheck) s
 table=(opt,rrhf)
 ----------------------------------------------------------------------
 -----
 title
 -----
 Symbolic Z-matrix:
 Charge =  0 Multiplicity = 1

 SCF Done:  E(RHF) =  -1039.78143683     A.U. after   15 cycles
 Normal termination of Gaussian 16 at Sun Apr  6 08:03:30 2025.
 Gaussian 16:  ES64L-G16RevC.01  3-Jul-2019

 ----------------------------------------------------------------------
 #t hf aug-cc-pvdz iop(5/13=1,5/36=2,99/5=2) pseudo=read geom=check gue
 ss=(read,tcheck) scf=(maxcycle=1)
 ----------------------------------------------------------------------
 -----
 title
 -----
 Structure from the checkpoint file:  "2-thioxo-1-3-thiazolidin-4-one.chk"
 Charge =  0 Multiplicity = 1

                         Standard orientation:
 ---------------------------------------------------------------------
 Center     Atomic      Atomic             Coordinates (Angstroms)
 Number     Number       Type             X           Y           Z
 ---------------------------------------------------------------------
      1          8           0        1.710628   -2.268770    0.000000
      2          6           0        0.839149   -1.437452    0.000000
      3          7           0        1.061346   -0.070202    0.000000
      4          6           0        0.000000    0.800619    0.000000
      5         16           0        0.108303    2.432861    0.000000
      6          6           0       -0.653682   -1.727173    0.000000
      7         16           0       -1.508948   -0.111223    0.000000
      8          1           0        2.004537    0.291896    0.000000
      9          1           0       -0.910735   -2.306252    0.884785
     10          1           0       -0.910735   -2.306252   -0.884785
 ---------------------------------------------------------------------

 SCF Done:  E(RHF) =  -1041.29825815     A.U. after    2 cycles

 The electronic state is 1-A'.
 Alpha  occ. eigenvalues --  -75.73965 -75.67101 -21.08092 -15.83240 -13.18127
 Alpha  occ. eigenvalues --  -13.17706 -13.16279 -13.06596 -13.00815 -12.98140
 Alpha  occ. eigenvalues --  -11.55339 -11.52613 -11.45413  -8.08228  -8.01299
 Alpha  occ. eigenvalues --   -1.75781  -1.51219  -1.24239  -1.17783  -1.03572
 Alpha  occ. eigenvalues --   -0.87851  -0.85781  -0.68717  -0.65051  -0.62160
 Alpha  occ. eigenvalues --   -0.58385  -0.55270  -0.47734  -0.46319  -0.44357
 Alpha  occ. eigenvalues --   -0.32651  -0.31772  -0.24664  -0.23380
 Alpha virt. eigenvalues --    0.01857   0.05107   0.05257   0.06347   0.07302
 Alpha virt. eigenvalues --    0.07492   0.08212   0.09945   0.10945   0.11207
 Alpha virt. eigenvalues --    0.13124   0.13800   0.15058   0.15104   0.15701

 Mulliken charges:
               1
     1  O   -3.290176
     2  C    4.984202
     3  N   -2.801916
     4  C   -1.489357
     5  S    1.704731
     6  C   -4.521078
     7  S    1.829336
     8  H    0.769226
     9  H    1.407516
    10  H    1.407516
 Sum of Mulliken charges =   0.00000

 Dipole moment (field-independent basis, Debye):
    X=             -2.0366    Y=              0.5275    Z=              0.0000  Tot=              2.1038

 Test job not archived.
 1\1\GINC-SE086\SP\RHF\Aug-CC-pVDZ\C3H3N1O1S2\OHZDE\06-Apr-2025\0\\#t h
 f aug-cc-pvdz iop(5/13=1,5/36=2,99/5=2) pseudo=read geom=check guess=(
 read,tcheck) scf=(maxcycle=1)\\title\\0,1\O,0,1.710629,-2.26877,0.\C,0
 ,0.839149,-1.437452,0.\N,0,1.061346,-0.070202,0.\C,0,0.,0.800619,0.\S,
 0,0.108303,2.432861,0.\C,0,-0.653681,-1.727173,0.\S,0,-1.508948,-0.111
 223,0.\H,0,2.004537,0.291896,0.\H,0,-0.910734,-2.306252,0.884785\H,0,-
 0.910734,-2.306252,-0.884785\\Version=ES64L-G16RevC.01\State=1-A'\HF=-
 1041.2982582\RMSD=2.146e-01\Dipole=-0.801258,0.2075269,0.\Quadrupole=1

 Normal termination of Gaussian 16 at Sun Apr  6 08:03:34 2025.
