 Gaussian 16, Revision C.01,

 ----------------------------------------------------------------------
 #t hf aug-cc-pvdz symm=none int=(grid=ultrafine) guess=(read,tcheck) s
 table=(opt,rrhf)
 ----------------------------------------------------------------------
 -----
 title
 -----
 Symbolic Z-matrix:
 Charge =  0 Multiplicity = 1

 SCF Done:  E(RHF) =  -337.578613971     A.U. after   16 cycles
 Normal termination of Gaussian 16 at Sun Apr  6 08:03:32 2025.
 Gaussian 16:  ES64L-G16RevC.01  3-Jul-2019

 ----------------------------------------------------------------------
 #t hf aug-cc-pvdz iop(5/13=1,5/36=2,99/5=2) pseudo=read geom=check gue
 ss=(read,tcheck) scf=(maxcycle=1)
 ----------------------------------------------------------------------
 -----
 title
 -----
 Structure from the checkpoint file:  "2H-pyridazin-3-one.chk"
 Charge =  0 Multiplicity = 1

                         Standard orientation:
 ---------------------------------------------------------------------
 Center     Atomic      Atomic             Coordinates (Angstroms)
 Number     Number       Type             X           Y           Z
 ---------------------------------------------------------------------
      1          6           0        1.231266   -1.050200   -0.000000
      2          6           0        1.247252    0.302719   -0.000000
      3          6           0       -0.014010   -1.744866    0.000000
      4          6           0       -0.000000    1.044703   -0.000000
      5          7           0       -1.158816   -1.129309    0.000000
      6          7           0       -1.120005    0.204852    0.000000
      7          8           0       -0.133213    2.257718   -0.000000
      8          1           0        2.151945   -1.618873   -0.000000
      9          1           0        2.161023    0.878599   -0.000000
     10          1           0       -0.060616   -2.824365    0.000000
     11          1           0       -2.021955    0.659959    0.000000
 ---------------------------------------------------------------------

 SCF Done:  E(RHF) =  -339.081892271     A.U. after    2 cycles

 The electronic state is 1-A'.
 Alpha  occ. eigenvalues --  -21.02738 -15.81821 -15.80796 -11.52954 -11.48679
 Alpha  occ. eigenvalues --  -11.45114 -11.41457  -1.71590  -1.56793  -1.25073
 Alpha  occ. eigenvalues --   -1.19996  -0.96166  -0.91007  -0.78049  -0.68012
 Alpha  occ. eigenvalues --   -0.67320  -0.62656  -0.59599  -0.57710  -0.49658
 Alpha  occ. eigenvalues --   -0.47247  -0.42806  -0.42650  -0.29250  -0.27769
 Alpha virt. eigenvalues --    0.02822   0.04813   0.05343   0.06472   0.07454
 Alpha virt. eigenvalues --    0.09814   0.10612   0.11403   0.12692   0.12699
 Alpha virt. eigenvalues --    0.13161   0.13578   0.13980   0.14861   0.15699

 Mulliken charges:
               1
     1  C    0.667106
     2  C   -1.342539
     3  C   -0.983431
     4  C    4.109445
     5  N   -1.485538
     6  N   -2.624448
     7  O   -3.654430
     8  H    1.483456
     9  H    1.419410
    10  H    1.437177
    11  H    0.973793
 Sum of Mulliken charges =   0.00000

 Dipole moment (field-independent basis, Debye):
    X=              0.8324    Y=             -2.1653    Z=             -0.0000  Tot=              2.3198

 Test job not archived.
 1\1\GINC-SE168\SP\RHF\Aug-CC-pVDZ\C4H4N2O1\OHZDE\06-Apr-2025\0\\#t hf
 aug-cc-pvdz iop(5/13=1,5/36=2,99/5=2) pseudo=read geom=check guess=(re
 ad,tcheck) scf=(maxcycle=1)\\title\\0,1\C,0,1.231266,-1.0502,0.\C,0,1.
 247252,0.302719,0.\C,0,-0.01401,-1.744866,0.\C,0,0.,1.044703,0.\N,0,-1
 .158816,-1.129309,0.\N,0,-1.120005,0.204852,0.\O,0,-0.133213,2.257718,
 0.\H,0,2.151945,-1.618873,0.\H,0,2.161023,0.878599,0.\H,0,-0.060616,-2
 .824365,0.\H,0,-2.021955,0.659959,0.\\Version=ES64L-G16RevC.01\State=1
 -A'\HF=-339.0818923\RMSD=1.155e+00\Dipole=0.3275062,-0.8518773,0.\Quad

 Normal termination of Gaussian 16 at Sun Apr  6 08:03:37 2025.
