 Gaussian 16, Revision C.01,

 ----------------------------------------------------------------------
 #t hf aug-cc-pvdz symm=none int=(grid=ultrafine) guess=(read,tcheck) s
 table=(opt,rrhf)
 ----------------------------------------------------------------------
 -----
 title
 -----
 Symbolic Z-matrix:
 Charge =  0 Multiplicity = 1

 SCF Done:  E(RHF) =  -663.081177978     A.U. after   13 cycles
 Normal termination of Gaussian 16 at Sun Apr  6 08:03:26 2025.
 Gaussian 16:  ES64L-G16RevC.01  3-Jul-2019

 ----------------------------------------------------------------------
 #t hf aug-cc-pvdz iop(5/13=1,5/36=2,99/5=2) pseudo=read geom=check gue
 ss=(read,tcheck) scf=(maxcycle=1)
 ----------------------------------------------------------------------
 -----
 title
 -----
 Structure from the checkpoint file:  "2H-thiete-1-1-dioxide.chk"
 Charge =  0 Multiplicity = 1

                         Standard orientation:
 ---------------------------------------------------------------------
 Center     Atomic      Atomic             Coordinates (Angstroms)
 Number     Number       Type             X           Y           Z
 ---------------------------------------------------------------------
      1          8           0        1.238707   -1.255661    0.004628
      2         16           0        0.503569   -0.000001    0.014979
      3          8           0        1.238698    1.255665    0.004692
      4          6           0       -0.961544    0.000030   -1.129930
      5          6           0       -1.794509   -0.000009    0.132105
      6          6           0       -0.911283   -0.000031    1.127195
      7          1           0       -1.013806   -0.899488   -1.740062
      8          1           0       -1.013804    0.899596   -1.739990
      9          1           0       -2.873692   -0.000011    0.186098
     10          1           0       -0.971028   -0.000045    2.203515
 ---------------------------------------------------------------------

 SCF Done:  E(RHF) =  -664.539210769     A.U. after    2 cycles

 The electronic state is 1-A.
 Alpha  occ. eigenvalues --  -75.89072 -21.04903 -21.04897 -13.50057 -13.45008
 Alpha  occ. eigenvalues --  -13.29788 -11.50500 -11.45295 -11.43682  -8.23892
 Alpha  occ. eigenvalues --   -1.82502  -1.64208  -1.34629  -1.03008  -0.96277
 Alpha  occ. eigenvalues --   -0.80044  -0.71386  -0.65818  -0.61817  -0.54834
 Alpha  occ. eigenvalues --   -0.52751  -0.47647  -0.41211  -0.37517  -0.37258
 Alpha  occ. eigenvalues --   -0.36570  -0.34696
 Alpha virt. eigenvalues --    0.02367   0.04374   0.04700   0.05485   0.08582
 Alpha virt. eigenvalues --    0.09565   0.10252   0.11474   0.12638   0.13251
 Alpha virt. eigenvalues --    0.13710   0.14016   0.14173   0.15063   0.15577

 Mulliken charges:
               1
     1  O   -2.620522
     2  S    6.477922
     3  O   -2.620519
     4  C   -4.475813
     5  C    0.735008
     6  C   -2.345580
     7  H    1.253872
     8  H    1.253879
     9  H    1.320688
    10  H    1.021064
 Sum of Mulliken charges =   0.00000

 Dipole moment (field-independent basis, Debye):
    X=             -3.0993    Y=              0.0000    Z=             -0.0801  Tot=              3.1004

 Test job not archived.
 1\1\GINC-SE169\SP\RHF\Aug-CC-pVDZ\C3H4O2S1\OHZDE\06-Apr-2025\0\\#t hf
 aug-cc-pvdz iop(5/13=1,5/36=2,99/5=2) pseudo=read geom=check guess=(re
 ad,tcheck) scf=(maxcycle=1)\\title\\0,1\O,0,1.238707,-1.255661,0.00462
 8\S,0,0.503569,-0.000001,0.014979\O,0,1.238698,1.255665,0.004692\C,0,-
 0.961544,0.00003,-1.12993\C,0,-1.794509,-0.000009,0.132105\C,0,-0.9112
 83,-0.000031,1.127195\H,0,-1.013806,-0.899488,-1.740062\H,0,-1.013804,
 0.899596,-1.73999\H,0,-2.873692,-0.000011,0.186098\H,0,-0.971028,-0.00
 0045,2.203515\\Version=ES64L-G16RevC.01\State=1-A\HF=-664.5392108\RMSD

 Normal termination of Gaussian 16 at Sun Apr  6 08:03:29 2025.
