 Gaussian 16, Revision C.01,

 ----------------------------------------------------------------------
 #t hf aug-cc-pvdz symm=none int=(grid=ultrafine) guess=(read,tcheck) s
 table=(opt,rrhf)
 ----------------------------------------------------------------------
 -----
 title
 -----
 Symbolic Z-matrix:
 Charge =  0 Multiplicity = 1

 SCF Done:  E(RHF) =  -310.260212151     A.U. after   12 cycles

 1\1\GINC-SE169\Stability\RHF\Aug-CC-pVDZ\C6H14O1\OHZDE\06-Apr-2025\0\\
 #t hf aug-cc-pvdz symm=none int=(grid=ultrafine) guess=(read,tcheck) s
 table=(opt,rrhf)\\title\\0,1\C,0,1.757085,-1.091084,-0.81716\C,0,1.865
 711,1.150795,0.344263\C,0,-2.561944,-0.479494,0.222334\C,0,-0.108652,-
 0.438664,0.811498\C,0,1.383699,-0.300756,0.441026\C,0,-1.155311,-0.134
 494,-0.257223\O,0,-1.063482,1.259171,-0.592699\H,0,1.319591,-0.646459,
 -1.712763\H,0,1.420349,-2.128425,-0.757181\H,0,2.839293,-1.101666,-0.9
 56361\H,0,1.631351,1.705127,1.254703\H,0,2.948329,1.182645,0.204223\H,

 Normal termination of Gaussian 16 at Sun Apr  6 08:04:18 2025.
 Gaussian 16:  ES64L-G16RevC.01  3-Jul-2019

 ----------------------------------------------------------------------
 #t hf aug-cc-pvdz iop(5/13=1,5/36=2,99/5=2) pseudo=read geom=check gue
 ss=(read,tcheck) scf=(maxcycle=1)
 ----------------------------------------------------------------------
 -----
 title
 -----
 Structure from the checkpoint file:  "2R-4-methylpentan-2-ol.chk"
 Charge =  0 Multiplicity = 1

                         Standard orientation:
 ---------------------------------------------------------------------
 Center     Atomic      Atomic             Coordinates (Angstroms)
 Number     Number       Type             X           Y           Z
 ---------------------------------------------------------------------
      1          6           0        1.757085   -1.091084   -0.817160
      2          6           0        1.865711    1.150795    0.344263
      3          6           0       -2.561944   -0.479494    0.222334
      4          6           0       -0.108652   -0.438664    0.811498
      5          6           0        1.383699   -0.300756    0.441026
      6          6           0       -1.155311   -0.134494   -0.257223
      7          8           0       -1.063482    1.259171   -0.592699
      8          1           0        1.319591   -0.646459   -1.712763
      9          1           0        1.420349   -2.128425   -0.757181
     10          1           0        2.839293   -1.101666   -0.956361
     11          1           0        1.631351    1.705127    1.254703
     12          1           0        2.948329    1.182645    0.204223
     13          1           0        1.395373    1.671994   -0.487552
     14          1           0       -2.805836    0.079162    1.127243
     15          1           0       -3.304011   -0.233062   -0.540810
     16          1           0       -2.651586   -1.545510    0.436884
     17          1           0       -0.321008    0.193554    1.678818
     18          1           0       -0.280510   -1.470795    1.130737
     19          1           0        1.924875   -0.758063    1.276660
     20          1           0       -0.937758   -0.728497   -1.152861
     21          1           0       -1.754119    1.468806   -1.228574
 ---------------------------------------------------------------------

 SCF Done:  E(RHF) =  -311.805530305     A.U. after    2 cycles

 The electronic state is 1-A.
 Alpha  occ. eigenvalues --  -21.05754 -11.44841 -11.42156 -11.39393 -11.37294
 Alpha  occ. eigenvalues --  -11.36578 -11.33583  -1.70376  -1.25430  -1.12481
 Alpha  occ. eigenvalues --   -0.99599  -0.98827  -0.85480  -0.77613  -0.66510
 Alpha  occ. eigenvalues --   -0.63701  -0.59765  -0.57923  -0.56670  -0.54900
 Alpha  occ. eigenvalues --   -0.52508  -0.50911  -0.49483  -0.48542  -0.42578
 Alpha  occ. eigenvalues --   -0.41822  -0.41464  -0.37731  -0.31260
 Alpha virt. eigenvalues --    0.04043   0.05030   0.05080   0.05137   0.05595
 Alpha virt. eigenvalues --    0.05926   0.06200   0.06618   0.06838   0.08297
 Alpha virt. eigenvalues --    0.08526   0.08646   0.09607   0.10636   0.12381

 Mulliken charges:
               1
     1  C   -4.339384
     2  C   -4.267100
     3  C   -4.047848
     4  C   -2.523014
     5  C   -1.069777
     6  C    1.085953
     7  O   -3.197203
     8  H    1.440839
     9  H    1.258827
    10  H    1.143011
    11  H    1.241664
    12  H    1.152539
    13  H    1.526044
    14  H    1.229033
    15  H    1.097259
    16  H    1.269331
    17  H    1.476918
    18  H    1.419318
    19  H    1.481888
    20  H    1.833477
    21  H    0.788225
 Sum of Mulliken charges =   0.00000

 Dipole moment (field-independent basis, Debye):
    X=             -0.4394    Y=             -0.4077    Z=             -0.2011  Tot=              0.6322

 Test job not archived.
 1\1\GINC-SE169\SP\RHF\Aug-CC-pVDZ\C6H14O1\OHZDE\06-Apr-2025\0\\#t hf a
 ug-cc-pvdz iop(5/13=1,5/36=2,99/5=2) pseudo=read geom=check guess=(rea
 d,tcheck) scf=(maxcycle=1)\\title\\0,1\C,0,1.757085,-1.091084,-0.81716
 \C,0,1.865711,1.150795,0.344263\C,0,-2.561944,-0.479494,0.222334\C,0,-
 0.108652,-0.438664,0.811498\C,0,1.383699,-0.300756,0.441026\C,0,-1.155
 311,-0.134494,-0.257223\O,0,-1.063482,1.259171,-0.592699\H,0,1.319591,
 -0.646459,-1.712763\H,0,1.420349,-2.128425,-0.757181\H,0,2.839293,-1.1
 01666,-0.956361\H,0,1.631351,1.705127,1.254703\H,0,2.948329,1.182645,0

 Normal termination of Gaussian 16 at Sun Apr  6 08:04:58 2025.
