 Gaussian 16, Revision C.01,

 ----------------------------------------------------------------------
 #t hf aug-cc-pvdz symm=none int=(grid=ultrafine) guess=(read,tcheck) s
 table=(opt,rrhf)
 ----------------------------------------------------------------------
 -----
 title
 -----
 Symbolic Z-matrix:
 Charge =  0 Multiplicity = 1

 SCF Done:  E(RHF) =  -489.773927759     A.U. after   12 cycles
 Normal termination of Gaussian 16 at Sun Apr  6 08:03:30 2025.
 Gaussian 16:  ES64L-G16RevC.01  3-Jul-2019

 ----------------------------------------------------------------------
 #t hf aug-cc-pvdz iop(5/13=1,5/36=2,99/5=2) pseudo=read geom=check gue
 ss=(read,tcheck) scf=(maxcycle=1)
 ----------------------------------------------------------------------
 -----
 title
 -----
 Structure from the checkpoint file:  "2S-1-1-1-trifluoro-2-propanol.chk"
 Charge =  0 Multiplicity = 1

                         Standard orientation:
 ---------------------------------------------------------------------
 Center     Atomic      Atomic             Coordinates (Angstroms)
 Number     Number       Type             X           Y           Z
 ---------------------------------------------------------------------
      1          6           0        1.691694   -1.059638    0.022200
      2          6           0        0.834706    0.103985   -0.438962
      3          6           0       -0.626301   -0.051282   -0.007120
      4          8           0        1.377143    1.294553    0.099907
      5          9           0       -1.202071   -1.107944   -0.616961
      6          9           0       -0.772758   -0.215589    1.316667
      7          9           0       -1.341353    1.047142   -0.354298
      8          1           0        1.723765   -1.097280    1.109737
      9          1           0        2.704918   -0.923401   -0.350521
     10          1           0        1.303296   -2.003475   -0.356524
     11          1           0        0.809896    0.144005   -1.533728
     12          1           0        0.886013    2.052862   -0.233600
 ---------------------------------------------------------------------

 SCF Done:  E(RHF) =  -491.651633652     A.U. after    2 cycles

 The electronic state is 1-A.
 Alpha  occ. eigenvalues --  -29.31069 -29.30941 -29.30798 -21.09399 -11.60908
 Alpha  occ. eigenvalues --  -11.47018 -11.38985  -1.74896  -1.41450  -1.13615
 Alpha  occ. eigenvalues --   -0.94277  -0.88226  -0.87447  -0.73188  -0.67899
 Alpha  occ. eigenvalues --   -0.56678  -0.55019  -0.52026  -0.48526  -0.46603
 Alpha  occ. eigenvalues --   -0.44001  -0.42756  -0.37149  -0.36215  -0.35602
 Alpha  occ. eigenvalues --   -0.28654  -0.25570  -0.25126  -0.21511
 Alpha virt. eigenvalues --    0.04190   0.05553   0.05826   0.06565   0.06715
 Alpha virt. eigenvalues --    0.10422   0.10919   0.12132   0.12705   0.14354
 Alpha virt. eigenvalues --    0.15963   0.16276   0.16682   0.17869   0.18651

 Mulliken charges:
               1
     1  C   -3.634403
     2  C   -0.778310
     3  C    0.154413
     4  O   -2.792753
     5  F    0.339773
     6  F    0.384240
     7  F    0.458454
     8  H    1.219760
     9  H    1.092582
    10  H    1.227146
    11  H    1.639472
    12  H    0.689625
 Sum of Mulliken charges =  -0.00000

 Dipole moment (field-independent basis, Debye):
    X=             -1.3280    Y=             -0.1193    Z=              0.0483  Tot=              1.3342

 Test job not archived.
 1\1\GINC-SE106\SP\RHF\Aug-CC-pVDZ\C3H5F3O1\OHZDE\06-Apr-2025\0\\#t hf
 aug-cc-pvdz iop(5/13=1,5/36=2,99/5=2) pseudo=read geom=check guess=(re
 ad,tcheck) scf=(maxcycle=1)\\title\\0,1\C,0,1.691694,-1.059638,0.0222\
 C,0,0.834706,0.103985,-0.438962\C,0,-0.626301,-0.051282,-0.00712\O,0,1
 .377143,1.294553,0.099907\F,0,-1.202071,-1.107944,-0.616961\F,0,-0.772
 758,-0.215589,1.316667\F,0,-1.341353,1.047142,-0.354298\H,0,1.723765,-
 1.09728,1.109737\H,0,2.704918,-0.9234,-0.350521\H,0,1.303296,-2.003475
 ,-0.356524\H,0,0.809896,0.144005,-1.533728\H,0,0.886012,2.052862,-0.23

 Normal termination of Gaussian 16 at Sun Apr  6 08:03:35 2025.
