 Gaussian 16, Revision C.01,

 ----------------------------------------------------------------------
 #t hf aug-cc-pvdz symm=none int=(grid=ultrafine) guess=(read,tcheck) s
 table=(opt,rrhf)
 ----------------------------------------------------------------------
 -----
 title
 -----
 Symbolic Z-matrix:
 Charge =  0 Multiplicity = 1

 SCF Done:  E(RHF) =  -233.022806427     A.U. after   13 cycles
 Normal termination of Gaussian 16 at Sun Apr  6 08:03:43 2025.
 Gaussian 16:  ES64L-G16RevC.01  3-Jul-2019

 ----------------------------------------------------------------------
 #t hf aug-cc-pvdz iop(5/13=1,5/36=2,99/5=2) pseudo=read geom=check gue
 ss=(read,tcheck) scf=(maxcycle=1)
 ----------------------------------------------------------------------
 -----
 title
 -----
 Structure from the checkpoint file:  "2Z-4E-hexa-2-4-diene.chk"
 Charge =  0 Multiplicity = 1

                         Standard orientation:
 ---------------------------------------------------------------------
 Center     Atomic      Atomic             Coordinates (Angstroms)
 Number     Number       Type             X           Y           Z
 ---------------------------------------------------------------------
      1          6           0        0.295502    2.961166    0.000000
      2          1           0        1.366295    2.756811    0.000000
      3          1           0        0.066568    3.574997    0.875789
      4          1           0        0.066568    3.574997   -0.875789
      5          6           0        1.035454   -2.497577    0.000000
      6          1           0        1.764853   -1.690390    0.000000
      7          1           0        1.228827   -3.123576   -0.875540
      8          1           0        1.228827   -3.123576    0.875540
      9          6           0       -0.380018   -2.011080    0.000000
     10          1           0       -1.135032   -2.790309    0.000000
     11          6           0       -0.810657   -0.742182    0.000000
     12          1           0       -1.883957   -0.578533    0.000000
     13          6           0       -0.000000    0.461923    0.000000
     14          1           0        1.078980    0.347754    0.000000
     15          6           0       -0.506126    1.700221    0.000000
     16          1           0       -1.586860    1.816991    0.000000
 ---------------------------------------------------------------------

 SCF Done:  E(RHF) =  -234.200870036     A.U. after    2 cycles

 The electronic state is 1-A'.
 Alpha  occ. eigenvalues --  -11.44263 -11.42169 -11.40046 -11.38868 -11.38409
 Alpha  occ. eigenvalues --  -11.35688  -1.26177  -1.15443  -1.03724  -0.94548
 Alpha  occ. eigenvalues --   -0.80680  -0.75146  -0.64257  -0.60177  -0.56362
 Alpha  occ. eigenvalues --   -0.56046  -0.55910  -0.52119  -0.48932  -0.47373
 Alpha  occ. eigenvalues --   -0.43956  -0.41308  -0.28056
 Alpha virt. eigenvalues --    0.03602   0.04892   0.05615   0.05807   0.06119
 Alpha virt. eigenvalues --    0.06203   0.07007   0.07807   0.07856   0.08558
 Alpha virt. eigenvalues --    0.09892   0.12523   0.13086   0.13385   0.13620

 Mulliken charges:
               1
     1  C   -4.997406
     2  H    1.251754
     3  H    1.066749
     4  H    1.066749
     5  C   -5.002116
     6  H    1.355755
     7  H    1.122110
     8  H    1.122110
     9  C   -1.629545
    10  H    1.333465
    11  C    0.366713
    12  H    1.486064
    13  C    0.539870
    14  H    1.613052
    15  C   -2.145425
    16  H    1.450101
 Sum of Mulliken charges =   0.00000

 Dipole moment (field-independent basis, Debye):
    X=              0.2163    Y=              0.1392    Z=              0.0000  Tot=              0.2573

 Test job not archived.
 1\1\GINC-SE106\SP\RHF\Aug-CC-pVDZ\C6H10\OHZDE\06-Apr-2025\0\\#t hf aug
 -cc-pvdz iop(5/13=1,5/36=2,99/5=2) pseudo=read geom=check guess=(read,
 tcheck) scf=(maxcycle=1)\\title\\0,1\C,0,0.295502,2.961166,0.\H,0,1.36
 6295,2.756811,0.\H,0,0.066568,3.574997,0.875789\H,0,0.066568,3.574997,
 -0.875789\C,0,1.035454,-2.497577,0.\H,0,1.764853,-1.69039,0.\H,0,1.228
 827,-3.123576,-0.87554\H,0,1.228827,-3.123576,0.87554\C,0,-0.380018,-2
 .01108,0.\H,0,-1.135032,-2.790309,0.\C,0,-0.810657,-0.742182,0.\H,0,-1
 .883957,-0.578533,0.\C,0,0.,0.461923,0.\H,0,1.07898,0.347754,0.\C,0,-0

 Normal termination of Gaussian 16 at Sun Apr  6 08:03:50 2025.
