 Gaussian 16, Revision C.01,

 ----------------------------------------------------------------------
 #t hf aug-cc-pvdz symm=none int=(grid=ultrafine) guess=(read,tcheck) s
 table=(opt,rrhf)
 ----------------------------------------------------------------------
 -----
 title
 -----
 Symbolic Z-matrix:
 Charge =  0 Multiplicity = 1

 SCF Done:  E(RHF) =  -233.019921754     A.U. after   12 cycles
 Normal termination of Gaussian 16 at Sun Apr  6 08:03:42 2025.
 Gaussian 16:  ES64L-G16RevC.01  3-Jul-2019

 ----------------------------------------------------------------------
 #t hf aug-cc-pvdz iop(5/13=1,5/36=2,99/5=2) pseudo=read geom=check gue
 ss=(read,tcheck) scf=(maxcycle=1)
 ----------------------------------------------------------------------
 -----
 title
 -----
 Structure from the checkpoint file:  "2Z-4Z-2-4-hexadiene.chk"
 Charge =  0 Multiplicity = 1

                         Standard orientation:
 ---------------------------------------------------------------------
 Center     Atomic      Atomic             Coordinates (Angstroms)
 Number     Number       Type             X           Y           Z
 ---------------------------------------------------------------------
      1          1           0        0.310543    2.728828    0.000000
      2          6           0       -0.313196    1.840812    0.000000
      3          1           0        1.396218    0.676680    0.000000
      4          6           0        0.313196    0.654900    0.000000
      5          1           0       -1.396218   -0.676680    0.000000
      6          6           0       -0.313196   -0.654900    0.000000
      7          1           0       -0.310543   -2.728828    0.000000
      8          6           0        0.313196   -1.840812    0.000000
      9          1           0        2.383856   -1.194467    0.000000
     10          1           0        2.072264   -2.692860    0.875470
     11          1           0        2.072264   -2.692860   -0.875470
     12          6           0        1.786306   -2.103254    0.000000
     13          1           0       -2.383856    1.194467    0.000000
     14          1           0       -2.072264    2.692860    0.875470
     15          1           0       -2.072264    2.692860   -0.875470
     16          6           0       -1.786306    2.103254    0.000000
 ---------------------------------------------------------------------

 SCF Done:  E(RHF) =  -234.198888374     A.U. after    2 cycles

 The electronic state is 1-AG.
 Alpha  occ. eigenvalues --  -11.45356 -11.42104 -11.39616 -11.39196 -11.38572
 Alpha  occ. eigenvalues --  -11.35613  -1.26171  -1.15206  -1.03341  -0.95620
 Alpha  occ. eigenvalues --   -0.81498  -0.72480  -0.66484  -0.60194  -0.56451
 Alpha  occ. eigenvalues --   -0.56383  -0.56096  -0.50601  -0.49338  -0.48146
 Alpha  occ. eigenvalues --   -0.43248  -0.41280  -0.28014
 Alpha virt. eigenvalues --    0.03499   0.05156   0.05292   0.06116   0.06243
 Alpha virt. eigenvalues --    0.06334   0.07136   0.07599   0.08054   0.08628
 Alpha virt. eigenvalues --    0.11205   0.12123   0.13073   0.13307   0.13874

 Mulliken charges:
               1
     1  H    1.308845
     2  C   -2.629001
     3  H    1.606148
     4  C    0.971834
     5  H    1.606148
     6  C    0.971834
     7  H    1.308845
     8  C   -2.629001
     9  H    1.346450
    10  H    1.146514
    11  H    1.146514
    12  C   -4.897303
    13  H    1.346450
    14  H    1.146514
    15  H    1.146514
    16  C   -4.897303
 Sum of Mulliken charges =   0.00000

 Dipole moment (field-independent basis, Debye):
    X=             -0.0000    Y=              0.0000    Z=             -0.0000  Tot=              0.0000

 Test job not archived.
 1\1\GINC-SE107\SP\RHF\Aug-CC-pVDZ\C6H10\OHZDE\06-Apr-2025\0\\#t hf aug
 -cc-pvdz iop(5/13=1,5/36=2,99/5=2) pseudo=read geom=check guess=(read,
 tcheck) scf=(maxcycle=1)\\title\\0,1\H,0,0.310543,2.728828,0.\C,0,-0.3
 13196,1.840812,0.\H,0,1.396218,0.67668,0.\C,0,0.313196,0.6549,0.\H,0,-
 1.396218,-0.67668,0.\C,0,-0.313196,-0.6549,0.\H,0,-0.310543,-2.728828,
 0.\C,0,0.313196,-1.840812,0.\H,0,2.383856,-1.194467,0.\H,0,2.072264,-2
 .69286,0.87547\H,0,2.072264,-2.69286,-0.87547\C,0,1.786306,-2.103254,0
 .\H,0,-2.383856,1.194467,0.\H,0,-2.072264,2.69286,0.87547\H,0,-2.07226

 Normal termination of Gaussian 16 at Sun Apr  6 08:03:49 2025.
