 Gaussian 16, Revision C.01,

 ----------------------------------------------------------------------
 #t hf aug-cc-pvdz symm=none int=(grid=ultrafine) guess=(read,tcheck) s
 table=(opt,rrhf)
 ----------------------------------------------------------------------
 -----
 title
 -----
 Symbolic Z-matrix:
 Charge =  0 Multiplicity = 1

 SCF Done:  E(RHF) =  -599.979840689     A.U. after   16 cycles
 Normal termination of Gaussian 16 at Sun Apr  6 08:04:38 2025.
 Gaussian 16:  ES64L-G16RevC.01  3-Jul-2019

 ----------------------------------------------------------------------
 #t hf aug-cc-pvdz iop(5/13=1,5/36=2,99/5=2) pseudo=read geom=check gue
 ss=(read,tcheck) scf=(maxcycle=1)
 ----------------------------------------------------------------------
 -----
 title
 -----
 Structure from the checkpoint file:  "2Z-hydroxyimino-1-2-oxazol-5-yl-acetic_acid.chk"
 Charge =  0 Multiplicity = 1

                         Standard orientation:
 ---------------------------------------------------------------------
 Center     Atomic      Atomic             Coordinates (Angstroms)
 Number     Number       Type             X           Y           Z
 ---------------------------------------------------------------------
      1          8           0       -1.386694   -0.955842   -0.030927
      2          8           0        1.673838   -1.363612    1.177598
      3          8           0        1.760784   -1.318632   -1.074923
      4          8           0        2.466034    1.540093   -0.013587
      5          7           0        1.079600    1.577817   -0.028311
      6          7           0       -2.776900   -0.886607   -0.040218
      7          6           0       -0.883578    0.294634    0.005329
      8          6           0        0.564807    0.409695    0.011606
      9          6           0        1.394065   -0.855428    0.129539
     10          6           0       -1.901139    1.199961    0.020623
     11          6           0       -3.059097    0.390299   -0.009356
     12          1           0        2.283422   -2.124288   -0.935669
     13          1           0        2.715908    2.470145   -0.038919
     14          1           0       -1.826555    2.270621    0.050855
     15          1           0       -4.093711    0.694019   -0.008296
 ---------------------------------------------------------------------

 SCF Done:  E(RHF) =  -602.524731979     A.U. after    2 cycles

 The electronic state is 1-A.
 Alpha  occ. eigenvalues --  -21.14461 -21.14073 -21.13625 -21.07944 -15.82886
 Alpha  occ. eigenvalues --  -15.79260 -11.57304 -11.53524 -11.48747 -11.47020
 Alpha  occ. eigenvalues --  -11.41859  -1.91895  -1.85579  -1.82407  -1.67994
 Alpha  occ. eigenvalues --   -1.33161  -1.29452  -1.16183  -0.99643  -0.88647
 Alpha  occ. eigenvalues --   -0.83730  -0.77819  -0.72230  -0.66170  -0.65148
 Alpha  occ. eigenvalues --   -0.63899  -0.61923  -0.57856  -0.56604  -0.55228
 Alpha  occ. eigenvalues --   -0.53209  -0.48791  -0.45880  -0.43601  -0.41347
 Alpha  occ. eigenvalues --   -0.40190  -0.36279  -0.35220  -0.32098  -0.30074
 Alpha virt. eigenvalues --    0.03248   0.04556   0.05131   0.05581   0.08929
 Alpha virt. eigenvalues --    0.09152   0.10694   0.11010   0.11373   0.11678
 Alpha virt. eigenvalues --    0.12262   0.12678   0.13080   0.14110   0.14813

 Mulliken charges:
               1
     1  O   -3.361813
     2  O   -3.105406
     3  O   -2.956561
     4  O   -2.390435
     5  N   -1.002021
     6  N   -1.086030
     7  C    7.623565
     8  C   -0.009615
     9  C    6.041097
    10  C   -3.556905
    11  C   -0.581104
    12  H    0.860372
    13  H    0.837962
    14  H    1.246709
    15  H    1.440185
 Sum of Mulliken charges =  -0.00000

 Dipole moment (field-independent basis, Debye):
    X=              1.6450    Y=              1.7098    Z=             -0.9912  Tot=              2.5714

 Test job not archived.
 1\1\GINC-SE107\SP\RHF\Aug-CC-pVDZ\C5H4N2O4\OHZDE\06-Apr-2025\0\\#t hf
 aug-cc-pvdz iop(5/13=1,5/36=2,99/5=2) pseudo=read geom=check guess=(re
 ad,tcheck) scf=(maxcycle=1)\\title\\0,1\O,0,-1.386694,-0.955842,-0.030
 927\O,0,1.673838,-1.363612,1.177598\O,0,1.760784,-1.318632,-1.074923\O
 ,0,2.466034,1.540093,-0.013587\N,0,1.0796,1.577817,-0.028311\N,0,-2.77
 69,-0.886607,-0.040218\C,0,-0.883578,0.294634,0.005329\C,0,0.564807,0.
 409695,0.011606\C,0,1.394065,-0.855428,0.129539\C,0,-1.901139,1.199961
 ,0.020623\C,0,-3.059097,0.390299,-0.009356\H,0,2.283422,-2.124288,-0.9

 Normal termination of Gaussian 16 at Sun Apr  6 08:04:57 2025.
