 Gaussian 16, Revision C.01,

 ----------------------------------------------------------------------
 #t hf aug-cc-pvdz symm=none int=(grid=ultrafine) guess=(read,tcheck) s
 table=(opt,rrhf)
 ----------------------------------------------------------------------
 -----
 title
 -----
 Symbolic Z-matrix:
 Charge =  0 Multiplicity = 1

 SCF Done:  E(RHF) =  -582.807136513     A.U. after   15 cycles
 Normal termination of Gaussian 16 at Sun Apr  6 08:04:16 2025.
 Gaussian 16:  ES64L-G16RevC.01  3-Jul-2019

 ----------------------------------------------------------------------
 #t hf aug-cc-pvdz iop(5/13=1,5/36=2,99/5=2) pseudo=read geom=check gue
 ss=(read,tcheck) scf=(maxcycle=1)
 ----------------------------------------------------------------------
 -----
 title
 -----
 Structure from the checkpoint file:  "3-3--iminobis2-propynoic_acid.chk"
 Charge =  0 Multiplicity = 1

                         Standard orientation:
 ---------------------------------------------------------------------
 Center     Atomic      Atomic             Coordinates (Angstroms)
 Number     Number       Type             X           Y           Z
 ---------------------------------------------------------------------
      1          8           0       -3.552425    1.677314   -0.000076
      2          8           0        3.552425    1.677314   -0.000133
      3          8           0       -4.601741   -0.288643    0.000051
      4          8           0        4.601741   -0.288643   -0.000016
      5          7           0        0.000000   -1.455001    0.000098
      6          6           0       -3.482204    0.481149   -0.000003
      7          6           0        3.482204    0.481149   -0.000058
      8          6           0       -2.240625   -0.251308    0.000033
      9          6           0        2.240624   -0.251308   -0.000006
     10          6           0       -1.181312   -0.822939    0.000062
     11          6           0        1.181312   -0.822939    0.000041
     12          1           0       -4.369566   -1.225617    0.000108
     13          1           0        4.369566   -1.225617    0.000046
     14          1           0        0.000000   -2.465308    0.000146
 ---------------------------------------------------------------------

 SCF Done:  E(RHF) =  -585.259770298     A.U. after    2 cycles

 The electronic state is 1-A.
 Alpha  occ. eigenvalues --  -21.14328 -21.14313 -21.07000 -21.06973 -15.88509
 Alpha  occ. eigenvalues --  -11.58554 -11.57902 -11.51491 -11.51240 -11.46197
 Alpha  occ. eigenvalues --  -11.45279  -1.84236  -1.84125  -1.67289  -1.67253
 Alpha  occ. eigenvalues --   -1.51438  -1.17778  -1.12941  -0.96515  -0.91715
 Alpha  occ. eigenvalues --   -0.81107  -0.80437  -0.74798  -0.74011  -0.63689
 Alpha  occ. eigenvalues --   -0.59121  -0.57116  -0.57005  -0.56885  -0.50627
 Alpha  occ. eigenvalues --   -0.50156  -0.43481  -0.43192  -0.42249  -0.36565
 Alpha  occ. eigenvalues --   -0.35123  -0.32830  -0.32406  -0.32357
 Alpha virt. eigenvalues --    0.00769   0.03642   0.04201   0.06937   0.08030
 Alpha virt. eigenvalues --    0.08989   0.10133   0.10173   0.11059   0.11794
 Alpha virt. eigenvalues --    0.11830   0.11834   0.12718   0.12770   0.13112

 Mulliken charges:
               1
     1  O   -3.092769
     2  O   -3.092769
     3  O   -2.950830
     4  O   -2.950830
     5  N   -3.259574
     6  C    5.945639
     7  C    5.945636
     8  C    0.811836
     9  C    0.811837
    10  C   -0.502780
    11  C   -0.502777
    12  H    1.068399
    13  H    1.068398
    14  H    0.700585
 Sum of Mulliken charges =   0.00000

 Dipole moment (field-independent basis, Debye):
    X=              0.0000    Y=             -5.6016    Z=              0.0003  Tot=              5.6016

 Test job not archived.
 1\1\GINC-SE108\SP\RHF\Aug-CC-pVDZ\C6H3N1O4\OHZDE\06-Apr-2025\0\\#t hf
 aug-cc-pvdz iop(5/13=1,5/36=2,99/5=2) pseudo=read geom=check guess=(re
 ad,tcheck) scf=(maxcycle=1)\\title\\0,1\O,0,3.552425,-1.677314,-0.0000
 76\O,0,-3.552425,-1.677314,-0.000133\O,0,4.601741,0.288643,0.000051\O,
 0,-4.601741,0.288643,-0.000016\N,0,0.,1.455001,0.000098\C,0,3.482204,-
 0.481149,-0.000003\C,0,-3.482204,-0.481149,-0.000058\C,0,2.240625,0.25
 1308,0.000033\C,0,-2.240624,0.251308,-0.000006\C,0,1.181312,0.822939,0
 .000062\C,0,-1.181312,0.822939,0.000041\H,0,4.369566,1.225617,0.000108

 Normal termination of Gaussian 16 at Sun Apr  6 08:04:23 2025.
