 Gaussian 16, Revision C.01,

 ----------------------------------------------------------------------
 #t hf aug-cc-pvdz symm=none int=(grid=ultrafine) guess=(read,tcheck) s
 table=(opt,rrhf)
 ----------------------------------------------------------------------
 -----
 title
 -----
 Symbolic Z-matrix:
 Charge =  0 Multiplicity = 1

 SCF Done:  E(RHF) =  -964.849635478     A.U. after   15 cycles
 Normal termination of Gaussian 16 at Sun Apr  6 08:03:26 2025.
 Gaussian 16:  ES64L-G16RevC.01  3-Jul-2019

 ----------------------------------------------------------------------
 #t hf aug-cc-pvdz iop(5/13=1,5/36=2,99/5=2) pseudo=read geom=check gue
 ss=(read,tcheck) scf=(maxcycle=1)
 ----------------------------------------------------------------------
 -----
 title
 -----
 Structure from the checkpoint file:  "3-3-disulfanylacrylonitrile.chk"
 Charge =  0 Multiplicity = 1

                         Standard orientation:
 ---------------------------------------------------------------------
 Center     Atomic      Atomic             Coordinates (Angstroms)
 Number     Number       Type             X           Y           Z
 ---------------------------------------------------------------------
      1         16           0       -2.060348   -0.589692   -0.009626
      2         16           0       -0.161916    1.601569    0.011242
      3          7           0        3.126547   -0.356597    0.009543
      4          6           0       -0.350403   -0.148815   -0.003521
      5          6           0        0.655072   -1.051986   -0.012853
      6          6           0        2.016548   -0.678636    0.001914
      7          1           0        0.437308   -2.110497   -0.041709
      8          1           0       -1.873141   -1.910659    0.164177
      9          1           0        1.178921    1.603923   -0.128368
 ---------------------------------------------------------------------

 SCF Done:  E(RHF) =  -966.061913157     A.U. after    2 cycles

 The electronic state is 1-A.
 Alpha  occ. eigenvalues --  -75.74232 -75.73694 -15.76774 -13.20181 -13.17301
 Alpha  occ. eigenvalues --  -13.16720 -13.16412 -13.05923 -13.05282 -11.51772
 Alpha  occ. eigenvalues --  -11.46139 -11.43235  -8.08319  -8.07741  -1.36708
 Alpha  occ. eigenvalues --   -1.28673  -1.13621  -1.10295  -0.85202  -0.71983
 Alpha  occ. eigenvalues --   -0.66880  -0.54269  -0.53790  -0.51763  -0.45047
 Alpha  occ. eigenvalues --   -0.44656  -0.44495  -0.43665  -0.27307  -0.26651
 Alpha virt. eigenvalues --    0.01532   0.04106   0.05063   0.06708   0.06863
 Alpha virt. eigenvalues --    0.08583   0.08889   0.10698   0.12345   0.13043
 Alpha virt. eigenvalues --    0.13633   0.13953   0.14745   0.14904   0.15713

 Mulliken charges:
               1
     1  S   -0.749487
     2  S   -0.423834
     3  N   -2.249550
     4  C   -0.735689
     5  C   -1.325082
     6  C    1.330803
     7  H    1.799942
     8  H    1.122669
     9  H    1.230228
 Sum of Mulliken charges =   0.00000

 Dipole moment (field-independent basis, Debye):
    X=             -6.2783    Y=              1.9386    Z=             -0.0226  Tot=              6.5708

 Test job not archived.
 1\1\GINC-SE271\SP\RHF\Aug-CC-pVDZ\C3H3N1S2\OHZDE\06-Apr-2025\0\\#t hf
 aug-cc-pvdz iop(5/13=1,5/36=2,99/5=2) pseudo=read geom=check guess=(re
 ad,tcheck) scf=(maxcycle=1)\\title\\0,1\S,0,-2.060348,-0.589692,-0.009
 626\S,0,-0.161916,1.601569,0.011242\N,0,3.126547,-0.356597,0.009543\C,
 0,-0.350403,-0.148815,-0.003521\C,0,0.655072,-1.051986,-0.012853\C,0,2
 .016548,-0.678636,0.001914\H,0,0.437308,-2.110497,-0.041709\H,0,-1.873
 141,-1.910659,0.164177\H,0,1.178921,1.603923,-0.128368\\Version=ES64L-
 G16RevC.01\State=1-A\HF=-966.0619132\RMSD=1.033e+00\Dipole=-2.4700555,

 Normal termination of Gaussian 16 at Sun Apr  6 08:03:29 2025.
