 Gaussian 16, Revision C.01,

 ----------------------------------------------------------------------
 #t hf aug-cc-pvdz symm=none int=(grid=ultrafine) guess=(read,tcheck) s
 table=(opt,rrhf)
 ----------------------------------------------------------------------
 -----
 title
 -----
 Symbolic Z-matrix:
 Charge =  0 Multiplicity = 1

 SCF Done:  E(RHF) =  -232.995180097     A.U. after   12 cycles
 Normal termination of Gaussian 16 at Sun Apr  6 08:03:41 2025.
 Gaussian 16:  ES64L-G16RevC.01  3-Jul-2019

 ----------------------------------------------------------------------
 #t hf aug-cc-pvdz iop(5/13=1,5/36=2,99/5=2) pseudo=read geom=check gue
 ss=(read,tcheck) scf=(maxcycle=1)
 ----------------------------------------------------------------------
 -----
 title
 -----
 Structure from the checkpoint file:  "3-3-dimethylbutyne.chk"
 Charge =  0 Multiplicity = 1

                         Standard orientation:
 ---------------------------------------------------------------------
 Center     Atomic      Atomic             Coordinates (Angstroms)
 Number     Number       Type             X           Y           Z
 ---------------------------------------------------------------------
      1          6           0       -0.000000    1.171492    0.000000
      2          6           0       -0.000000   -0.297053   -0.000000
      3          6           0        1.456381   -0.805220   -0.000000
      4          6           0       -0.728190   -0.805220    1.261263
      5          6           0       -0.728190   -0.805220   -1.261263
      6          6           0       -0.000000    2.371824    0.000000
      7          1           0       -0.000000    3.433077    0.000000
      8          1           0        1.469839   -1.896499   -0.000000
      9          1           0       -0.734919   -1.896499    1.272918
     10          1           0       -0.734919   -1.896499   -1.272918
     11          1           0        1.990948   -0.454532   -0.882465
     12          1           0        1.990948   -0.454532    0.882465
     13          1           0       -0.231237   -0.454532    2.165444
     14          1           0       -1.759711   -0.454532    1.282979
     15          1           0       -1.759711   -0.454532   -1.282979
     16          1           0       -0.231237   -0.454532   -2.165444
 ---------------------------------------------------------------------

 SCF Done:  E(RHF) =  -234.185713638     A.U. after    2 cycles

 The electronic state is 1-A'.
 Alpha  occ. eigenvalues --  -11.44968 -11.41153 -11.39563 -11.39193 -11.39193
 Alpha  occ. eigenvalues --  -11.35843  -1.30155  -1.06304  -1.00898  -1.00898
 Alpha  occ. eigenvalues --   -0.85386  -0.71286  -0.64535  -0.60823  -0.60823
 Alpha  occ. eigenvalues --   -0.54644  -0.54644  -0.51494  -0.47700  -0.45754
 Alpha  occ. eigenvalues --   -0.45753  -0.35356  -0.35356
 Alpha virt. eigenvalues --    0.03443   0.04974   0.05740   0.05740   0.05870
 Alpha virt. eigenvalues --    0.06360   0.06360   0.07422   0.07422   0.09422
 Alpha virt. eigenvalues --    0.10136   0.12211   0.12211   0.12633   0.14285

 Mulliken charges:
               1
     1  C    6.393879
     2  C   -1.041048
     3  C   -4.047107
     4  C   -4.047108
     5  C   -4.047108
     6  C   -4.964916
     7  H    0.671231
     8  H    1.204099
     9  H    1.204100
    10  H    1.204100
    11  H    1.244980
    12  H    1.244980
    13  H    1.244980
    14  H    1.244980
    15  H    1.244980
    16  H    1.244980
 Sum of Mulliken charges =   0.00000

 Dipole moment (field-independent basis, Debye):
    X=              0.0000    Y=             -0.4952    Z=             -0.0000  Tot=              0.4952

 Test job not archived.
 1\1\GINC-SE388\SP\RHF\Aug-CC-pVDZ\C6H10\OHZDE\06-Apr-2025\0\\#t hf aug
 -cc-pvdz iop(5/13=1,5/36=2,99/5=2) pseudo=read geom=check guess=(read,
 tcheck) scf=(maxcycle=1)\\title\\0,1\C,0,0.,0.,1.171492\C,0,0.,0.,-0.2
 97053\C,0,0.,1.456381,-0.80522\C,0,1.261263,-0.72819,-0.80522\C,0,-1.2
 61263,-0.72819,-0.80522\C,0,0.,0.,2.371824\H,0,0.,0.,3.433077\H,0,0.,1
 .469839,-1.896499\H,0,1.272918,-0.734919,-1.896499\H,0,-1.272918,-0.73
 4919,-1.896499\H,0,-0.882465,1.990948,-0.454532\H,0,0.882465,1.990948,
 -0.454532\H,0,2.165444,-0.231237,-0.454532\H,0,1.282979,-1.759711,-0.4

 Normal termination of Gaussian 16 at Sun Apr  6 08:03:48 2025.
