 Gaussian 16, Revision C.01,

 ----------------------------------------------------------------------
 #t hf aug-cc-pvdz symm=none int=(grid=ultrafine) guess=(read,tcheck) s
 table=(opt,rrhf)
 ----------------------------------------------------------------------
 -----
 title
 -----
 Symbolic Z-matrix:
 Charge =  0 Multiplicity = 1

 SCF Done:  E(RHF) =  -274.423899655     A.U. after   12 cycles
 Normal termination of Gaussian 16 at Sun Apr  6 08:04:33 2025.
 Gaussian 16:  ES64L-G16RevC.01  3-Jul-2019

 ----------------------------------------------------------------------
 #t hf aug-cc-pvdz iop(5/13=1,5/36=2,99/5=2) pseudo=read geom=check gue
 ss=(read,tcheck) scf=(maxcycle=1)
 ----------------------------------------------------------------------
 -----
 title
 -----
 Structure from the checkpoint file:  "3-3-dimethylpentane.chk"
 Charge =  0 Multiplicity = 1

                         Standard orientation:
 ---------------------------------------------------------------------
 Center     Atomic      Atomic             Coordinates (Angstroms)
 Number     Number       Type             X           Y           Z
 ---------------------------------------------------------------------
      1          6           0        0.000000   -0.000000    0.065284
      2          6           0       -0.000119    1.241984   -0.861684
      3          6           0        0.000119   -1.241984   -0.861684
      4          6           0       -0.000000    2.618031   -0.193199
      5          6           0       -0.000000   -2.618031   -0.193199
      6          6           0        1.255287    0.000120    0.952178
      7          6           0       -1.255287   -0.000120    0.952178
      8          1           0        0.872906    1.172573   -1.518050
      9          1           0       -0.873342    1.172588   -1.517788
     10          1           0       -0.872906   -1.172573   -1.518050
     11          1           0        0.873342   -1.172588   -1.517788
     12          1           0       -0.000193    3.402590   -0.951355
     13          1           0        0.000193   -3.402590   -0.951355
     14          1           0       -0.880980    2.772125    0.430603
     15          1           0        0.881256    2.772164    0.430201
     16          1           0        0.880980   -2.772125    0.430603
     17          1           0       -0.881256   -2.772164    0.430201
     18          1           0       -1.284762   -0.876517    1.599898
     19          1           0       -2.165042   -0.000409    0.347245
     20          1           0       -1.285140    0.876465    1.599626
     21          1           0        1.284762    0.876517    1.599898
     22          1           0        2.165042    0.000409    0.347245
     23          1           0        1.285140   -0.876465    1.599626
 ---------------------------------------------------------------------

 SCF Done:  E(RHF) =  -275.891524994     A.U. after    2 cycles

 The electronic state is 1-A.
 Alpha  occ. eigenvalues --  -11.41960 -11.41229 -11.38613 -11.38122 -11.36485
 Alpha  occ. eigenvalues --  -11.36014 -11.33517  -1.30931  -1.11937  -1.06727
 Alpha  occ. eigenvalues --   -1.00056  -0.93719  -0.86421  -0.74964  -0.63676
 Alpha  occ. eigenvalues --   -0.63655  -0.60313  -0.58922  -0.54976  -0.54826
 Alpha  occ. eigenvalues --   -0.52243  -0.51844  -0.51396  -0.47921  -0.46599
 Alpha  occ. eigenvalues --   -0.46381  -0.41035  -0.39659  -0.38030
 Alpha virt. eigenvalues --    0.04050   0.04969   0.05045   0.05217   0.05425
 Alpha virt. eigenvalues --    0.05764   0.05839   0.06446   0.06709   0.08487
 Alpha virt. eigenvalues --    0.08529   0.08571   0.08698   0.09280   0.09704

 Mulliken charges:
               1
     1  C    9.314477
     2  C   -4.007791
     3  C   -4.007791
     4  C   -4.427523
     5  C   -4.427523
     6  C   -6.228548
     7  C   -6.228548
     8  H    1.355171
     9  H    1.355350
    10  H    1.355171
    11  H    1.355350
    12  H    1.005796
    13  H    1.005796
    14  H    1.306987
    15  H    1.307019
    16  H    1.306987
    17  H    1.307019
    18  H    1.321830
    19  H    1.032845
    20  H    1.321626
    21  H    1.321830
    22  H    1.032845
    23  H    1.321626
 Sum of Mulliken charges =   0.00000

 Dipole moment (field-independent basis, Debye):
    X=             -0.0000    Y=              0.0000    Z=             -0.0831  Tot=              0.0831

 Test job not archived.
 1\1\GINC-SE270\SP\RHF\Aug-CC-pVDZ\C7H16\OHZDE\06-Apr-2025\0\\#t hf aug
 -cc-pvdz iop(5/13=1,5/36=2,99/5=2) pseudo=read geom=check guess=(read,
 tcheck) scf=(maxcycle=1)\\title\\0,1\C,0,0.,0.,0.065284\C,0,-0.000119,
 1.241984,-0.861684\C,0,0.000119,-1.241984,-0.861684\C,0,0.,2.618031,-0
 .193199\C,0,0.,-2.618031,-0.193199\C,0,1.255287,0.00012,0.952178\C,0,-
 1.255287,-0.00012,0.952178\H,0,0.872906,1.172573,-1.51805\H,0,-0.87334
 2,1.172588,-1.517788\H,0,-0.872906,-1.172573,-1.51805\H,0,0.873342,-1.
 172588,-1.517788\H,0,-0.000193,3.40259,-0.951355\H,0,0.000193,-3.40259

 Normal termination of Gaussian 16 at Sun Apr  6 08:04:56 2025.
