 Gaussian 16, Revision C.01,

 ----------------------------------------------------------------------
 #t hf aug-cc-pvdz symm=none int=(grid=ultrafine) guess=(read,tcheck) s
 table=(opt,rrhf)
 ----------------------------------------------------------------------
 -----
 title
 -----
 Symbolic Z-matrix:
 Charge =  0 Multiplicity = 1

 SCF Done:  E(RHF) =  -512.681056028     A.U. after   14 cycles
 Normal termination of Gaussian 16 at Sun Apr  6 08:05:11 2025.
 Gaussian 16:  ES64L-G16RevC.01  3-Jul-2019

 ----------------------------------------------------------------------
 #t hf aug-cc-pvdz iop(5/13=1,5/36=2,99/5=2) pseudo=read geom=check gue
 ss=(read,tcheck) scf=(maxcycle=1)
 ----------------------------------------------------------------------
 -----
 title
 -----
 Structure from the checkpoint file:  "3-3-3-trimethoxypropanenitrile.chk"
 Charge =  0 Multiplicity = 1

                         Standard orientation:
 ---------------------------------------------------------------------
 Center     Atomic      Atomic             Coordinates (Angstroms)
 Number     Number       Type             X           Y           Z
 ---------------------------------------------------------------------
      1          6           0        2.151772   -0.572496   -0.560545
      2          6           0       -2.062713   -0.100817   -1.587752
      3          6           0        0.451205    2.241234    0.698532
      4          6           0       -1.313679   -1.261876    1.680440
      5          6           0        0.859422   -0.182791   -1.105501
      6          6           0       -0.223077    0.034236   -0.014933
      7          7           0        3.188160   -0.864297   -0.158479
      8          8           0       -1.377593    0.628217   -0.574436
      9          8           0        0.199911    0.871969    1.008392
     10          8           0       -0.475157   -1.218770    0.519329
     11          1           0       -2.222341   -1.139012   -1.294351
     12          1           0       -1.527238   -0.071217   -2.540553
     13          1           0       -3.024533    0.389798   -1.715392
     14          1           0        1.291753    2.348187    0.008318
     15          1           0        0.717315    2.710667    1.641691
     16          1           0       -0.432534    2.723319    0.283632
     17          1           0       -2.243086   -0.715593    1.516465
     18          1           0       -0.797455   -0.851306    2.545921
     19          1           0       -1.529699   -2.314243    1.843635
     20          1           0        0.519543   -0.961831   -1.786348
     21          1           0        0.976294    0.735039   -1.681386
 ---------------------------------------------------------------------

 SCF Done:  E(RHF) =  -514.978353357     A.U. after    2 cycles

 The electronic state is 1-A.
 Alpha  occ. eigenvalues --  -21.06560 -21.06249 -21.06189 -15.75206 -11.55535
 Alpha  occ. eigenvalues --  -11.46710 -11.42714 -11.42308 -11.41726 -11.41031
 Alpha  occ. eigenvalues --   -1.89576  -1.71989  -1.71345  -1.31146  -1.15932
 Alpha  occ. eigenvalues --   -1.04648  -1.00091  -0.99258  -0.81746  -0.72252
 Alpha  occ. eigenvalues --   -0.69912  -0.68311  -0.64957  -0.63634  -0.61758
 Alpha  occ. eigenvalues --   -0.60115  -0.59550  -0.57713  -0.55446  -0.52878
 Alpha  occ. eigenvalues --   -0.50832  -0.45803  -0.44269  -0.42882  -0.40007
 Alpha  occ. eigenvalues --   -0.37782  -0.33436  -0.32336  -0.31059
 Alpha virt. eigenvalues --    0.03339   0.04183   0.04368   0.04475   0.05263
 Alpha virt. eigenvalues --    0.05562   0.06247   0.06457   0.08083   0.08550
 Alpha virt. eigenvalues --    0.08754   0.11001   0.11408   0.12427   0.12967

 Mulliken charges:
               1
     1  C    1.483621
     2  C   -3.660071
     3  C   -3.567335
     4  C   -3.588914
     5  C   -4.026794
     6  C   11.891493
     7  N   -2.312024
     8  O   -4.220488
     9  O   -4.202353
    10  O   -3.887802
    11  H    1.415611
    12  H    1.444671
    13  H    1.342359
    14  H    1.513384
    15  H    1.324578
    16  H    1.446927
    17  H    1.404599
    18  H    1.422544
    19  H    1.282790
    20  H    1.746266
    21  H    1.746938
 Sum of Mulliken charges =   0.00000

 Dipole moment (field-independent basis, Debye):
    X=             -3.9337    Y=              1.2845    Z=             -0.7232  Tot=              4.2008

 Test job not archived.
 1\1\GINC-SE398\SP\RHF\Aug-CC-pVDZ\C6H11N1O3\OHZDE\06-Apr-2025\0\\#t hf
  aug-cc-pvdz iop(5/13=1,5/36=2,99/5=2) pseudo=read geom=check guess=(r
 ead,tcheck) scf=(maxcycle=1)\\title\\0,1\C,0,2.151772,-0.572496,-0.560
 545\C,0,-2.062713,-0.100817,-1.587752\C,0,0.451205,2.241234,0.698532\C
 ,0,-1.313679,-1.261876,1.68044\C,0,0.859422,-0.182791,-1.105501\C,0,-0
 .223077,0.034236,-0.014933\N,0,3.18816,-0.864297,-0.158479\O,0,-1.3775
 93,0.628217,-0.574436\O,0,0.199911,0.871969,1.008392\O,0,-0.475157,-1.
 21877,0.519329\H,0,-2.222341,-1.139012,-1.294351\H,0,-1.527238,-0.0712

 Normal termination of Gaussian 16 at Sun Apr  6 08:05:26 2025.
