 Gaussian 16, Revision C.01,

 ----------------------------------------------------------------------
 #t hf aug-cc-pvdz symm=none int=(grid=ultrafine) guess=(read,tcheck) s
 table=(opt,rrhf)
 ----------------------------------------------------------------------
 -----
 title
 -----
 Symbolic Z-matrix:
 Charge =  0 Multiplicity = 1

 SCF Done:  E(RHF) =  -1033.70680617     A.U. after   14 cycles

 1\1\GINC-SE422\Stability\RHF\Aug-CC-pVDZ\C3H2Cl2\OHZDE\06-Apr-2025\0\\
 #t hf aug-cc-pvdz symm=none int=(grid=ultrafine) guess=(read,tcheck) s
 table=(opt,rrhf)\\title\\0,1\Cl,0,0.811282,1.486375,-0.113059\Cl,0,0.8
 11397,-1.486324,-0.112983\C,0,-0.023639,0.000009,0.490782\C,0,-1.41426
 6,-0.000051,0.121661\C,0,-2.577535,-0.000087,-0.162983\H,0,0.115063,0.
 00004,1.565162\H,0,-3.607963,-0.000119,-0.419211\\Version=ES64L-G16Rev
 C.01\HF=-1033.7068062\RMSD=4.710e-09\Dipole=-0.7037267,-0.0000089,0.37
 88441\Quadrupole=3.5291438,-3.0698692,-0.4592747,0.0002063,1.1157627,0

 Normal termination of Gaussian 16 at Sun Apr  6 08:03:22 2025.
 Gaussian 16:  ES64L-G16RevC.01  3-Jul-2019

 ----------------------------------------------------------------------
 #t hf aug-cc-pvdz iop(5/13=1,5/36=2,99/5=2) pseudo=read geom=check gue
 ss=(read,tcheck) scf=(maxcycle=1)
 ----------------------------------------------------------------------
 -----
 title
 -----
 Structure from the checkpoint file:  "3-3-dichloropropyne.chk"
 Charge =  0 Multiplicity = 1

                         Standard orientation:
 ---------------------------------------------------------------------
 Center     Atomic      Atomic             Coordinates (Angstroms)
 Number     Number       Type             X           Y           Z
 ---------------------------------------------------------------------
      1         17           0        0.811283    1.486374   -0.113059
      2         17           0        0.811396   -1.486325   -0.112983
      3          6           0       -0.023639    0.000009    0.490782
      4          6           0       -1.414266   -0.000050    0.121661
      5          6           0       -2.577535   -0.000085   -0.162983
      6          1           0        0.115063    0.000040    1.565162
      7          1           0       -3.607963   -0.000117   -0.419211
 ---------------------------------------------------------------------

 SCF Done:  E(RHF) =  -1034.73944851     A.U. after    2 cycles

 The electronic state is 1-A.
 Alpha  occ. eigenvalues --  -99.90874 -99.90869 -11.54614 -11.44470 -11.43263
 Alpha  occ. eigenvalues --  -10.48196 -10.48049  -9.68076  -9.67931  -9.67267
 Alpha  occ. eigenvalues --   -9.67253  -9.67148  -9.67134  -1.41589  -1.29035
 Alpha  occ. eigenvalues --   -1.15063  -1.01016  -0.78885  -0.70881  -0.67853
 Alpha  occ. eigenvalues --   -0.66509  -0.53548  -0.53216  -0.50077  -0.50019
 Alpha  occ. eigenvalues --   -0.40447  -0.40439
 Alpha virt. eigenvalues --    0.01611   0.03700   0.05068   0.06142   0.08906
 Alpha virt. eigenvalues --    0.09373   0.10252   0.10796   0.13209   0.13506
 Alpha virt. eigenvalues --    0.14067   0.14788   0.15413   0.15893   0.17423

 Mulliken charges:
               1
     1  Cl   0.341356
     2  Cl   0.341356
     3  C   -4.328130
     4  C    5.206697
     5  C   -3.853486
     6  H    1.573705
     7  H    0.718503
 Sum of Mulliken charges =  -0.00000

 Dipole moment (field-independent basis, Debye):
    X=             -2.1389    Y=             -0.0000    Z=              0.8281  Tot=              2.2936

 Test job not archived.
 1\1\GINC-SE422\SP\RHF\Aug-CC-pVDZ\C3H2Cl2\OHZDE\06-Apr-2025\0\\#t hf a
 ug-cc-pvdz iop(5/13=1,5/36=2,99/5=2) pseudo=read geom=check guess=(rea
 d,tcheck) scf=(maxcycle=1)\\title\\0,1\Cl,0,0.811282,1.486375,-0.11305
 9\Cl,0,0.811397,-1.486324,-0.112983\C,0,-0.023639,0.000009,0.490782\C,
 0,-1.414266,-0.000051,0.121661\C,0,-2.577535,-0.000087,-0.162983\H,0,0
 .115063,0.00004,1.565162\H,0,-3.607963,-0.000119,-0.419211\\Version=ES
 64L-G16RevC.01\State=1-A\HF=-1034.7394485\RMSD=8.619e-01\Dipole=-0.841
 4887,-0.000014,0.3258101\Quadrupole=3.7670295,-2.5840749,-1.1829546,0.

 Normal termination of Gaussian 16 at Sun Apr  6 08:03:25 2025.
