 Gaussian 16, Revision C.01,

 ----------------------------------------------------------------------
 #t hf aug-cc-pvdz symm=none int=(grid=ultrafine) guess=(read,tcheck) s
 table=(opt,rrhf)
 ----------------------------------------------------------------------
 -----
 title
 -----
 Symbolic Z-matrix:
 Charge =  0 Multiplicity = 1

 SCF Done:  E(RHF) =  -413.707110001     A.U. after   13 cycles
 Normal termination of Gaussian 16 at Sun Apr  6 08:03:25 2025.
 Gaussian 16:  ES64L-G16RevC.01  3-Jul-2019

 ----------------------------------------------------------------------
 #t hf aug-cc-pvdz iop(5/13=1,5/36=2,99/5=2) pseudo=read geom=check gue
 ss=(read,tcheck) scf=(maxcycle=1)
 ----------------------------------------------------------------------
 -----
 title
 -----
 Structure from the checkpoint file:  "3-3-3-trifluoropropene.chk"
 Charge =  0 Multiplicity = 1

                         Standard orientation:
 ---------------------------------------------------------------------
 Center     Atomic      Atomic             Coordinates (Angstroms)
 Number     Number       Type             X           Y           Z
 ---------------------------------------------------------------------
      1          6           0        0.296563   -2.092194    0.000000
      2          1           0        1.369761   -1.964827    0.000000
      3          1           0       -0.086440   -3.102651    0.000000
      4          6           0       -0.524953   -1.056203    0.000000
      5          1           0       -1.601322   -1.166159    0.000000
      6          6           0       -0.061543    0.365426    0.000000
      7          9           0        1.278529    0.488309    0.000000
      8          9           0       -0.524953    1.029816    1.084366
      9          9           0       -0.524953    1.029816   -1.084366
 ---------------------------------------------------------------------

 SCF Done:  E(RHF) =  -415.261763586     A.U. after    2 cycles

 The electronic state is 1-A'.
 Alpha  occ. eigenvalues --  -29.30745 -29.30256 -29.30216 -11.60711 -11.44841
 Alpha  occ. eigenvalues --  -11.41042  -1.43195  -1.15426  -0.91668  -0.87228
 Alpha  occ. eigenvalues --   -0.86182  -0.71934  -0.62072  -0.56189  -0.47324
 Alpha  occ. eigenvalues --   -0.43795  -0.43067  -0.41652  -0.35811  -0.34144
 Alpha  occ. eigenvalues --   -0.30340  -0.25185  -0.24480  -0.20938
 Alpha virt. eigenvalues --    0.03627   0.05669   0.05998   0.09849   0.10477
 Alpha virt. eigenvalues --    0.11896   0.12958   0.13407   0.14367   0.14411
 Alpha virt. eigenvalues --    0.15371   0.16877   0.19239   0.20135   0.20990

 Mulliken charges:
               1
     1  C   -2.997001
     2  H    1.461669
     3  H    1.329875
     4  C   -1.995021
     5  H    1.258618
     6  C   -0.361331
     7  F    0.599638
     8  F    0.351777
     9  F    0.351777
 Sum of Mulliken charges =  -0.00000

 Dipole moment (field-independent basis, Debye):
    X=              0.3993    Y=              0.8776    Z=             -0.0000  Tot=              0.9641

 Test job not archived.
 1\1\GINC-SE108\SP\RHF\Aug-CC-pVDZ\C3H3F3\OHZDE\06-Apr-2025\0\\#t hf au
 g-cc-pvdz iop(5/13=1,5/36=2,99/5=2) pseudo=read geom=check guess=(read
 ,tcheck) scf=(maxcycle=1)\\title\\0,1\C,0,0.296563,-2.092194,0.\H,0,1.
 369761,-1.964827,0.\H,0,-0.08644,-3.102651,0.\C,0,-0.524953,-1.056203,
 0.\H,0,-1.601322,-1.166159,0.\C,0,-0.061543,0.365426,0.\F,0,1.278529,0
 .488309,0.\F,0,-0.524953,1.029816,1.084366\F,0,-0.524953,1.029816,-1.0
 84366\\Version=ES64L-G16RevC.01\State=1-A'\HF=-415.2617636\RMSD=4.203e
 -01\Dipole=0.1570976,0.3452641,0.\Quadrupole=0.7634676,1.0571408,-1.82

 Normal termination of Gaussian 16 at Sun Apr  6 08:03:28 2025.
