 Gaussian 16, Revision C.01,

 ----------------------------------------------------------------------
 #t hf aug-cc-pvdz symm=none int=(grid=ultrafine) guess=(read,tcheck) s
 table=(opt,rrhf)
 ----------------------------------------------------------------------
 -----
 title
 -----
 Symbolic Z-matrix:
 Charge =  0 Multiplicity = 1

 SCF Done:  E(RHF) =  -309.101409897     A.U. after   14 cycles

 1\1\GINC-SE388\Stability\RHF\Aug-CC-pVDZ\C6H12O1\OHZDE\06-Apr-2025\0\\
 #t hf aug-cc-pvdz symm=none int=(grid=ultrafine) guess=(read,tcheck) s
 table=(opt,rrhf)\\title\\0,1\C,0,0.906853,0.321148,-0.017128\C,0,1.943
 934,-0.786999,-0.005884\C,0,-0.933612,-0.544883,1.418768\C,0,-0.861053
 ,-1.193432,-1.015538\C,0,-1.437212,1.161991,-0.352359\C,0,-0.585568,-0
 .063766,-0.006852\O,0,1.259489,1.479477,-0.029986\H,0,2.897115,-0.3776
 09,0.318312\H,0,1.660429,-1.625395,0.628697\H,0,2.062196,-1.175511,-1.
 020006\H,0,-0.366445,-1.430877,1.70481\H,0,-0.740904,0.236991,2.154158

 Normal termination of Gaussian 16 at Sun Apr  6 08:04:09 2025.
 Gaussian 16:  ES64L-G16RevC.01  3-Jul-2019

 ----------------------------------------------------------------------
 #t hf aug-cc-pvdz iop(5/13=1,5/36=2,99/5=2) pseudo=read geom=check gue
 ss=(read,tcheck) scf=(maxcycle=1)
 ----------------------------------------------------------------------
 -----
 title
 -----
 Structure from the checkpoint file:  "3-3-dimethyl-2-butanone.chk"
 Charge =  0 Multiplicity = 1

                         Standard orientation:
 ---------------------------------------------------------------------
 Center     Atomic      Atomic             Coordinates (Angstroms)
 Number     Number       Type             X           Y           Z
 ---------------------------------------------------------------------
      1          6           0        0.906853    0.321148   -0.017128
      2          6           0        1.943934   -0.786999   -0.005884
      3          6           0       -0.933612   -0.544883    1.418768
      4          6           0       -0.861053   -1.193432   -1.015538
      5          6           0       -1.437212    1.161991   -0.352359
      6          6           0       -0.585568   -0.063766   -0.006852
      7          8           0        1.259489    1.479477   -0.029986
      8          1           0        2.897115   -0.377609    0.318312
      9          1           0        1.660428   -1.625395    0.628697
     10          1           0        2.062196   -1.175511   -1.020006
     11          1           0       -0.366445   -1.430877    1.704810
     12          1           0       -0.740904    0.236991    2.154158
     13          1           0       -1.993325   -0.800365    1.469308
     14          1           0       -0.315822   -2.105697   -0.774352
     15          1           0       -0.592539   -0.894537   -2.030268
     16          1           0       -1.924863   -1.435702   -1.013178
     17          1           0       -1.207435    1.532654   -1.351356
     18          1           0       -1.258629    1.976552    0.346678
     19          1           0       -2.495732    0.899321   -0.318958
 ---------------------------------------------------------------------

 SCF Done:  E(RHF) =  -310.615067773     A.U. after    2 cycles

 The electronic state is 1-A.
 Alpha  occ. eigenvalues --  -21.04297 -11.49639 -11.42284 -11.39923 -11.39273
 Alpha  occ. eigenvalues --  -11.38753 -11.35827  -1.70403  -1.28234  -1.09334
 Alpha  occ. eigenvalues --   -1.01792  -1.00476  -0.87864  -0.71199  -0.65106
 Alpha  occ. eigenvalues --   -0.62175  -0.61553  -0.59026  -0.56349  -0.55173
 Alpha  occ. eigenvalues --   -0.54173  -0.51780  -0.50925  -0.45836  -0.45077
 Alpha  occ. eigenvalues --   -0.42768  -0.39426  -0.27003
 Alpha virt. eigenvalues --    0.03560   0.05027   0.05189   0.05253   0.05432
 Alpha virt. eigenvalues --    0.05530   0.06320   0.07060   0.07691   0.08867
 Alpha virt. eigenvalues --    0.09045   0.09236   0.11052   0.12475   0.13106

 Mulliken charges:
               1
     1  C    4.801340
     2  C   -4.681834
     3  C   -4.778202
     4  C   -4.311736
     5  C   -4.431890
     6  C    2.037641
     7  O   -3.745639
     8  H    1.166104
     9  H    1.468666
    10  H    1.216690
    11  H    1.357293
    12  H    1.263254
    13  H    1.208176
    14  H    1.416684
    15  H    1.207793
    16  H    1.100952
    17  H    1.211479
    18  H    1.323510
    19  H    1.169720
 Sum of Mulliken charges =   0.00000

 Dipole moment (field-independent basis, Debye):
    X=             -0.5924    Y=             -1.2907    Z=              0.0459  Tot=              1.4209

 Test job not archived.
 1\1\GINC-SE388\SP\RHF\Aug-CC-pVDZ\C6H12O1\OHZDE\06-Apr-2025\0\\#t hf a
 ug-cc-pvdz iop(5/13=1,5/36=2,99/5=2) pseudo=read geom=check guess=(rea
 d,tcheck) scf=(maxcycle=1)\\title\\0,1\C,0,0.906853,0.321148,-0.017128
 \C,0,1.943934,-0.786999,-0.005884\C,0,-0.933612,-0.544883,1.418768\C,0
 ,-0.861053,-1.193432,-1.015538\C,0,-1.437212,1.161991,-0.352359\C,0,-0
 .585568,-0.063766,-0.006852\O,0,1.259489,1.479477,-0.029986\H,0,2.8971
 15,-0.377609,0.318312\H,0,1.660429,-1.625395,0.628697\H,0,2.062196,-1.
 175511,-1.020006\H,0,-0.366445,-1.430877,1.70481\H,0,-0.740904,0.23699

 Normal termination of Gaussian 16 at Sun Apr  6 08:04:15 2025.
