 Gaussian 16, Revision C.01,

 ----------------------------------------------------------------------
 #t hf aug-cc-pvdz symm=none int=(grid=ultrafine) guess=(read,tcheck) s
 table=(opt,rrhf)
 ----------------------------------------------------------------------
 -----
 title
 -----
 Symbolic Z-matrix:
 Charge =  0 Multiplicity = 1

 SCF Done:  E(RHF) =  -270.016802251     A.U. after   12 cycles

 1\1\GINC-SE269\Stability\RHF\Aug-CC-pVDZ\C5H10O1\OHZDE\06-Apr-2025\0\\
 #t hf aug-cc-pvdz symm=none int=(grid=ultrafine) guess=(read,tcheck) s
 table=(opt,rrhf)\\title\\0,1\C,0,-1.264788,1.284808,0.\H,0,-1.28355,1.
 930106,0.88113\H,0,-1.28355,1.930106,-0.88113\H,0,-2.179327,0.690156,0
 .\C,0,1.255285,1.225783,0.\H,0,2.138334,0.585269,0.\H,0,1.305127,1.868
 005,-0.8821\H,0,1.305127,1.868005,0.8821\C,0,-0.026045,0.399811,0.\C,0
 ,-0.026045,-0.75163,1.036255\C,0,-0.026045,-0.75163,-1.036255\H,0,0.81
 7961,-0.777877,1.729654\H,0,0.817961,-0.777877,-1.729654\H,0,-0.958286

 Normal termination of Gaussian 16 at Sun Apr  6 08:03:43 2025.
 Gaussian 16:  ES64L-G16RevC.01  3-Jul-2019

 ----------------------------------------------------------------------
 #t hf aug-cc-pvdz iop(5/13=1,5/36=2,99/5=2) pseudo=read geom=check gue
 ss=(read,tcheck) scf=(maxcycle=1)
 ----------------------------------------------------------------------
 -----
 title
 -----
 Structure from the checkpoint file:  "3-3-dimethyloxetane.chk"
 Charge =  0 Multiplicity = 1

                         Standard orientation:
 ---------------------------------------------------------------------
 Center     Atomic      Atomic             Coordinates (Angstroms)
 Number     Number       Type             X           Y           Z
 ---------------------------------------------------------------------
      1          6           0       -1.264788    1.284808    0.000000
      2          1           0       -1.283550    1.930106    0.881130
      3          1           0       -1.283550    1.930106   -0.881130
      4          1           0       -2.179327    0.690156    0.000000
      5          6           0        1.255285    1.225783    0.000000
      6          1           0        2.138334    0.585269    0.000000
      7          1           0        1.305127    1.868005   -0.882100
      8          1           0        1.305127    1.868005    0.882100
      9          6           0       -0.026045    0.399811    0.000000
     10          6           0       -0.026045   -0.751630    1.036255
     11          6           0       -0.026045   -0.751630   -1.036255
     12          1           0        0.817961   -0.777877    1.729654
     13          1           0        0.817961   -0.777877   -1.729654
     14          1           0       -0.958286   -0.870369    1.595908
     15          1           0       -0.958286   -0.870369   -1.595908
     16          8           0        0.100540   -1.752252    0.000000
 ---------------------------------------------------------------------

 SCF Done:  E(RHF) =  -271.319670599     A.U. after    2 cycles

 The electronic state is 1-A'.
 Alpha  occ. eigenvalues --  -21.02752 -11.44607 -11.43533 -11.39378 -11.38929
 Alpha  occ. eigenvalues --  -11.35577  -1.75293  -1.23166  -1.01349  -0.99058
 Alpha  occ. eigenvalues --   -0.95368  -0.77106  -0.66581  -0.63452  -0.61562
 Alpha  occ. eigenvalues --   -0.57743  -0.54545  -0.53330  -0.52690  -0.48335
 Alpha  occ. eigenvalues --   -0.44512  -0.39992  -0.33650  -0.28586
 Alpha virt. eigenvalues --    0.03634   0.05099   0.05262   0.05472   0.05585
 Alpha virt. eigenvalues --    0.05940   0.06640   0.06806   0.09161   0.09356
 Alpha virt. eigenvalues --    0.10315   0.12254   0.13071   0.13522   0.14362

 Mulliken charges:
               1
     1  C   -4.259681
     2  H    1.184047
     3  H    1.184047
     4  H    1.335141
     5  C   -4.172985
     6  H    1.317413
     7  H    1.165314
     8  H    1.165314
     9  C   -0.540838
    10  C   -0.844711
    11  C   -0.844711
    12  H    1.513067
    13  H    1.513067
    14  H    1.497643
    15  H    1.497643
    16  O   -2.709767
 Sum of Mulliken charges =   0.00000

 Dipole moment (field-independent basis, Debye):
    X=             -0.0674    Y=              0.9821    Z=             -0.0000  Tot=              0.9844

 Test job not archived.
 1\1\GINC-SE269\SP\RHF\Aug-CC-pVDZ\C5H10O1\OHZDE\06-Apr-2025\0\\#t hf a
 ug-cc-pvdz iop(5/13=1,5/36=2,99/5=2) pseudo=read geom=check guess=(rea
 d,tcheck) scf=(maxcycle=1)\\title\\0,1\C,0,-1.264788,1.284808,0.\H,0,-
 1.28355,1.930106,0.88113\H,0,-1.28355,1.930106,-0.88113\H,0,-2.179327,
 0.690156,0.\C,0,1.255285,1.225783,0.\H,0,2.138334,0.585269,0.\H,0,1.30
 5127,1.868005,-0.8821\H,0,1.305127,1.868005,0.8821\C,0,-0.026045,0.399
 811,0.\C,0,-0.026045,-0.75163,1.036255\C,0,-0.026045,-0.75163,-1.03625
 5\H,0,0.817961,-0.777877,1.729654\H,0,0.817961,-0.777877,-1.729654\H,0

 Normal termination of Gaussian 16 at Sun Apr  6 08:03:48 2025.
