 Gaussian 16, Revision C.01,

 ----------------------------------------------------------------------
 #t hf aug-cc-pvdz symm=none int=(grid=ultrafine) guess=(read,tcheck) s
 table=(opt,rrhf)
 ----------------------------------------------------------------------
 -----
 title
 -----
 Symbolic Z-matrix:
 Charge =  0 Multiplicity = 1

 SCF Done:  E(RHF) =  -324.807151375     A.U. after   15 cycles
 Normal termination of Gaussian 16 at Sun Apr  6 08:04:51 2025.
 Gaussian 16:  ES64L-G16RevC.01  3-Jul-2019

 ----------------------------------------------------------------------
 #t hf aug-cc-pvdz iop(5/13=1,5/36=2,99/5=2) pseudo=read geom=check gue
 ss=(read,tcheck) scf=(maxcycle=1)
 ----------------------------------------------------------------------
 -----
 title
 -----
 Structure from the checkpoint file:  "3-4-dimethylpyridine.chk"
 Charge =  0 Multiplicity = 1

                         Standard orientation:
 ---------------------------------------------------------------------
 Center     Atomic      Atomic             Coordinates (Angstroms)
 Number     Number       Type             X           Y           Z
 ---------------------------------------------------------------------
      1          6           0        0.121338   -1.552985    0.000000
      2          6           0       -1.266480   -1.587989    0.000000
      3          6           0       -1.384777    0.677563    0.000000
      4          6           0        0.784658   -0.329802    0.000000
      5          6           0        0.000000    0.833406    0.000000
      6          6           0        2.286145   -0.262994    0.000000
      7          6           0        0.610891    2.207110    0.000000
      8          7           0       -2.022279   -0.492366    0.000000
      9          1           0        0.683596   -2.478145    0.000000
     10          1           0       -1.790838   -2.537250    0.000000
     11          1           0       -2.015999    1.561189    0.000000
     12          1           0        2.660028    0.271394    0.876276
     13          1           0        2.724758   -1.259274    0.000000
     14          1           0        2.660028    0.271394   -0.876276
     15          1           0        1.242218    2.367833   -0.877127
     16          1           0       -0.160709    2.975727    0.000000
     17          1           0        1.242218    2.367833    0.877127
 ---------------------------------------------------------------------

 SCF Done:  E(RHF) =  -326.384756919     A.U. after    2 cycles

 The electronic state is 1-A'.
 Alpha  occ. eigenvalues --  -15.72773 -11.48468 -11.44185 -11.43758 -11.41650
 Alpha  occ. eigenvalues --  -11.40459 -11.39063 -11.36540  -1.44841  -1.24084
 Alpha  occ. eigenvalues --   -1.14500  -1.04769  -0.99968  -0.87023  -0.83317
 Alpha  occ. eigenvalues --   -0.68828  -0.64274  -0.62933  -0.60551  -0.56661
 Alpha  occ. eigenvalues --   -0.56019  -0.54387  -0.52857  -0.51556  -0.50674
 Alpha  occ. eigenvalues --   -0.44243  -0.34822  -0.34551  -0.32526
 Alpha virt. eigenvalues --    0.03200   0.04541   0.05198   0.05817   0.06109
 Alpha virt. eigenvalues --    0.06400   0.06784   0.07374   0.08703   0.09368
 Alpha virt. eigenvalues --    0.11246   0.11874   0.12061   0.12985   0.13239

 Mulliken charges:
               1
     1  C   -2.253160
     2  C   -1.349135
     3  C   -2.396718
     4  C    4.087601
     5  C    4.062497
     6  C   -5.348279
     7  C   -5.072283
     8  N   -3.693103
     9  H    1.596755
    10  H    1.511577
    11  H    1.634136
    12  H    1.079090
    13  H    1.425951
    14  H    1.079090
    15  H    1.105619
    16  H    1.424744
    17  H    1.105619
 Sum of Mulliken charges =  -0.00000

 Dipole moment (field-independent basis, Debye):
    X=              2.4316    Y=              0.4134    Z=              0.0000  Tot=              2.4665

 Test job not archived.
 1\1\GINC-SE108\SP\RHF\Aug-CC-pVDZ\C7H9N1\OHZDE\06-Apr-2025\0\\#t hf au
 g-cc-pvdz iop(5/13=1,5/36=2,99/5=2) pseudo=read geom=check guess=(read
 ,tcheck) scf=(maxcycle=1)\\title\\0,1\C,0,0.121338,-1.552985,0.\C,0,-1
 .26648,-1.587989,0.\C,0,-1.384777,0.677563,0.\C,0,0.784658,-0.329802,0
 .\C,0,0.,0.833406,0.\C,0,2.286145,-0.262994,0.\C,0,0.610891,2.20711,0.
 \N,0,-2.022279,-0.492366,0.\H,0,0.683596,-2.478145,0.\H,0,-1.790838,-2
 .53725,0.\H,0,-2.015999,1.561189,0.\H,0,2.660028,0.271394,0.876276\H,0
 ,2.724758,-1.259274,0.\H,0,2.660028,0.271394,-0.876276\H,0,1.242218,2.

 Normal termination of Gaussian 16 at Sun Apr  6 08:05:20 2025.
