 Gaussian 16, Revision C.01,

 ----------------------------------------------------------------------
 #t hf aug-cc-pvdz symm=none int=(grid=ultrafine) guess=(read,tcheck) s
 table=(opt,rrhf)
 ----------------------------------------------------------------------
 -----
 title
 -----
 Symbolic Z-matrix:
 Charge =  0 Multiplicity = 1

 SCF Done:  E(RHF) =  -426.358450734     A.U. after   13 cycles
 Normal termination of Gaussian 16 at Sun Apr  6 08:03:26 2025.
 Gaussian 16:  ES64L-G16RevC.01  3-Jul-2019

 ----------------------------------------------------------------------
 #t hf aug-cc-pvdz iop(5/13=1,5/36=2,99/5=2) pseudo=read geom=check gue
 ss=(read,tcheck) scf=(maxcycle=1)
 ----------------------------------------------------------------------
 -----
 title
 -----
 Structure from the checkpoint file:  "3-4-difluorofuran.chk"
 Charge =  0 Multiplicity = 1

                         Standard orientation:
 ---------------------------------------------------------------------
 Center     Atomic      Atomic             Coordinates (Angstroms)
 Number     Number       Type             X           Y           Z
 ---------------------------------------------------------------------
      1          9           0        1.398463    1.484940   -0.000003
      2          9           0        1.398463   -1.484940   -0.000003
      3          8           0       -1.779157    0.000000    0.000004
      4          6           0        0.314030    0.712057   -0.000000
      5          6           0        0.314030   -0.712057   -0.000000
      6          6           0       -0.981873    1.104503    0.000002
      7          6           0       -0.981873   -1.104503    0.000002
      8          1           0       -1.462488    2.064029    0.000004
      9          1           0       -1.462488   -2.064029    0.000003
 ---------------------------------------------------------------------

 SCF Done:  E(RHF) =  -428.033290954     A.U. after    2 cycles

 The electronic state is 1-A.
 Alpha  occ. eigenvalues --  -29.31173 -29.31098 -21.13941 -11.53638 -11.47549
 Alpha  occ. eigenvalues --  -11.45910 -11.42607  -1.87150  -1.30773  -1.14210
 Alpha  occ. eigenvalues --   -0.93870  -0.90734  -0.83424  -0.64869  -0.64057
 Alpha  occ. eigenvalues --   -0.63846  -0.58639  -0.49006  -0.46171  -0.44984
 Alpha  occ. eigenvalues --   -0.41537  -0.40246  -0.31375  -0.27402  -0.26618
 Alpha  occ. eigenvalues --   -0.21959
 Alpha virt. eigenvalues --    0.03741   0.05390   0.09785   0.10007   0.10378
 Alpha virt. eigenvalues --    0.10687   0.11990   0.12320   0.12781   0.13703
 Alpha virt. eigenvalues --    0.14487   0.14972   0.15789   0.16612   0.17114

 Mulliken charges:
               1
     1  F    1.054694
     2  F    1.054694
     3  O   -3.659757
     4  C   -0.706846
     5  C   -0.706846
     6  C   -0.042504
     7  C   -0.042504
     8  H    1.524535
     9  H    1.524535
 Sum of Mulliken charges =  -0.00000

 Dipole moment (field-independent basis, Debye):
    X=              2.8158    Y=              0.0000    Z=             -0.0000  Tot=              2.8158

 Test job not archived.
 1\1\GINC-SE344\SP\RHF\Aug-CC-pVDZ\C4H2F2O1\OHZDE\06-Apr-2025\0\\#t hf
 aug-cc-pvdz iop(5/13=1,5/36=2,99/5=2) pseudo=read geom=check guess=(re
 ad,tcheck) scf=(maxcycle=1)\\title\\0,1\F,0,1.398463,1.48494,-0.000003
 \F,0,1.398463,-1.48494,-0.000003\O,0,-1.779157,0.,0.000004\C,0,0.31403
 ,0.712057,0.\C,0,0.31403,-0.712057,0.\C,0,-0.981873,1.104503,0.000002\
 C,0,-0.981873,-1.104503,0.000002\H,0,-1.462488,2.064029,0.000004\H,0,-
 1.462488,-2.064029,0.000003\\Version=ES64L-G16RevC.01\State=1-A\HF=-42
 8.033291\RMSD=7.367e-01\Dipole=1.1078291,0.,-0.0000027\Quadrupole=0.32

 Normal termination of Gaussian 16 at Sun Apr  6 08:03:29 2025.
