 Gaussian 16, Revision C.01,

 ----------------------------------------------------------------------
 #t hf aug-cc-pvdz symm=none int=(grid=ultrafine) guess=(read,tcheck) s
 table=(opt,rrhf)
 ----------------------------------------------------------------------
 -----
 title
 -----
 Symbolic Z-matrix:
 Charge =  0 Multiplicity = 1

 SCF Done:  E(RHF) =  -1180.51759384     A.U. after   16 cycles
 Normal termination of Gaussian 16 at Sun Apr  6 08:03:32 2025.
 Gaussian 16:  ES64L-G16RevC.01  3-Jul-2019

 ----------------------------------------------------------------------
 #t hf aug-cc-pvdz iop(5/13=1,5/36=2,99/5=2) pseudo=read geom=check gue
 ss=(read,tcheck) scf=(maxcycle=1)
 ----------------------------------------------------------------------
 -----
 title
 -----
 Structure from the checkpoint file:  "3-4-dichloropyridazine.chk"
 Charge =  0 Multiplicity = 1

                         Standard orientation:
 ---------------------------------------------------------------------
 Center     Atomic      Atomic             Coordinates (Angstroms)
 Number     Number       Type             X           Y           Z
 ---------------------------------------------------------------------
      1         17           0       -1.455409   -1.648364    0.000000
      2         17           0       -1.486903    1.583880    0.000000
      3          7           0        1.107307    1.406825   -0.000000
      4          7           0        2.295689    0.818349   -0.000000
      5          6           0       -0.000224   -0.713003    0.000000
      6          6           0        1.231764   -1.327063   -0.000000
      7          6           0       -0.000000    0.689684   -0.000000
      8          6           0        2.356394   -0.507545   -0.000000
      9          1           0        1.317692   -2.403602   -0.000000
     10          1           0        3.353030   -0.928841   -0.000000
 ---------------------------------------------------------------------

 SCF Done:  E(RHF) =  -1182.19927104     A.U. after    2 cycles

 The electronic state is 1-A'.
 Alpha  occ. eigenvalues --  -99.93048 -99.91530 -15.80292 -15.79613 -11.54082
 Alpha  occ. eigenvalues --  -11.50859 -11.48815 -11.43560 -10.50478 -10.48974
 Alpha  occ. eigenvalues --   -9.70523  -9.69525  -9.69365  -9.68951  -9.68000
 Alpha  occ. eigenvalues --   -9.67844  -1.59762  -1.40274  -1.35748  -1.22790
 Alpha  occ. eigenvalues --   -1.18781  -0.96722  -0.93643  -0.76116  -0.71506
 Alpha  occ. eigenvalues --   -0.69825  -0.65288  -0.62489  -0.60257  -0.57532
 Alpha  occ. eigenvalues --   -0.54818  -0.54786  -0.52742  -0.45795  -0.41018
 Alpha  occ. eigenvalues --   -0.39073  -0.37632
 Alpha virt. eigenvalues --    0.02668   0.05078   0.05722   0.06467   0.07380
 Alpha virt. eigenvalues --    0.07759   0.07833   0.10595   0.11021   0.11611
 Alpha virt. eigenvalues --    0.12130   0.13100   0.13235   0.13671   0.14298

 Mulliken charges:
               1
     1  Cl  -0.394409
     2  Cl  -0.233480
     3  N   -2.621435
     4  N   -1.353869
     5  C    2.704008
     6  C    0.840583
     7  C   -1.352940
     8  C   -0.826348
     9  H    1.755872
    10  H    1.482018
 Sum of Mulliken charges =  -0.00000

 Dipole moment (field-independent basis, Debye):
    X=              1.5308    Y=             -3.0726    Z=              0.0000  Tot=              3.4328

 Test job not archived.
 1\1\GINC-SE276\SP\RHF\Aug-CC-pVDZ\C4H2Cl2N2\OHZDE\06-Apr-2025\0\\#t hf
  aug-cc-pvdz iop(5/13=1,5/36=2,99/5=2) pseudo=read geom=check guess=(r
 ead,tcheck) scf=(maxcycle=1)\\title\\0,1\Cl,0,-1.455409,-1.648364,0.\C
 l,0,-1.486903,1.58388,0.\N,0,1.107307,1.406825,0.\N,0,2.295689,0.81834
 9,0.\C,0,-0.000224,-0.713003,0.\C,0,1.231764,-1.327063,0.\C,0,0.,0.689
 684,0.\C,0,2.356394,-0.507545,0.\H,0,1.317692,-2.403602,0.\H,0,3.35303
 ,-0.928842,0.\\Version=ES64L-G16RevC.01\State=1-A'\HF=-1182.199271\RMS
 D=1.562e+00\Dipole=0.6022564,-1.2088398,0.\Quadrupole=1.8939429,-0.773

 Normal termination of Gaussian 16 at Sun Apr  6 08:03:37 2025.
