 Gaussian 16, Revision C.01,

 ----------------------------------------------------------------------
 #t hf aug-cc-pvdz symm=none int=(grid=ultrafine) guess=(read,tcheck) s
 table=(opt,rrhf)
 ----------------------------------------------------------------------
 -----
 title
 -----
 Symbolic Z-matrix:
 Charge =  0 Multiplicity = 1

 SCF Done:  E(RHF) =  -766.125419804     A.U. after   15 cycles
 Normal termination of Gaussian 16 at Sun Apr  6 08:03:29 2025.
 Gaussian 16:  ES64L-G16RevC.01  3-Jul-2019

 ----------------------------------------------------------------------
 #t hf aug-cc-pvdz iop(5/13=1,5/36=2,99/5=2) pseudo=read geom=check gue
 ss=(read,tcheck) scf=(maxcycle=1)
 ----------------------------------------------------------------------
 -----
 title
 -----
 Structure from the checkpoint file:  "3-4-difluoro-2-3-dihydro-1-3-thiazole.chk"
 Charge =  0 Multiplicity = 1

                         Standard orientation:
 ---------------------------------------------------------------------
 Center     Atomic      Atomic             Coordinates (Angstroms)
 Number     Number       Type             X           Y           Z
 ---------------------------------------------------------------------
      1         16           0       -1.754466   -0.335189   -0.197249
      2          9           0        1.013789    1.522561   -0.771068
      3          9           0        2.045030   -1.036519    0.178958
      4          7           0        0.632941    0.772412    0.482854
      5          6           0        0.799133   -0.571033    0.149039
      6          6           0       -0.780143    1.004087    0.668274
      7          6           0       -0.280485   -1.267924   -0.221740
      8          1           0       -0.988442    0.907291    1.731910
      9          1           0       -1.050908    1.989954    0.309837
     10          1           0       -0.280179   -2.306271   -0.510189
 ---------------------------------------------------------------------

 SCF Done:  E(RHF) =  -767.808419803     A.U. after    2 cycles

 The electronic state is 1-A.
 Alpha  occ. eigenvalues --  -75.71883 -29.31098 -29.25723 -15.84407 -13.15825
 Alpha  occ. eigenvalues --  -13.14222 -13.05159 -11.51761 -11.45625 -11.44155
 Alpha  occ. eigenvalues --   -8.06081  -1.55128  -1.23139  -1.18322  -0.94914
 Alpha  occ. eigenvalues --   -0.90584  -0.81886  -0.73320  -0.64353  -0.61019
 Alpha  occ. eigenvalues --   -0.56907  -0.51304  -0.49209  -0.42229  -0.39403
 Alpha  occ. eigenvalues --   -0.35818  -0.33978  -0.29720  -0.25922  -0.23067
 Alpha  occ. eigenvalues --   -0.19299
 Alpha virt. eigenvalues --    0.03519   0.04000   0.05699   0.06849   0.09628
 Alpha virt. eigenvalues --    0.10632   0.11629   0.11962   0.12724   0.13231
 Alpha virt. eigenvalues --    0.14143   0.14471   0.15488   0.16260   0.17336

 Mulliken charges:
               1
     1  S    1.118663
     2  F   -0.357390
     3  F    0.861388
     4  N   -1.270795
     5  C    1.410608
     6  C   -3.020306
     7  C   -2.895787
     8  H    1.466875
     9  H    1.402317
    10  H    1.284426
 Sum of Mulliken charges =  -0.00000

 Dipole moment (field-independent basis, Debye):
    X=              1.2059    Y=              0.1953    Z=             -1.1423  Tot=              1.6725

 Test job not archived.
 1\1\GINC-SE276\SP\RHF\Aug-CC-pVDZ\C3H3F2N1S1\OHZDE\06-Apr-2025\0\\#t h
 f aug-cc-pvdz iop(5/13=1,5/36=2,99/5=2) pseudo=read geom=check guess=(
 read,tcheck) scf=(maxcycle=1)\\title\\0,1\S,0,-1.754466,-0.335189,-0.1
 97249\F,0,1.013789,1.522561,-0.771068\F,0,2.04503,-1.036519,0.178958\N
 ,0,0.632941,0.772412,0.482854\C,0,0.799133,-0.571033,0.149039\C,0,-0.7
 80143,1.004087,0.668274\C,0,-0.280485,-1.267924,-0.22174\H,0,-0.988442
 ,0.907291,1.73191\H,0,-1.050908,1.989954,0.309837\H,0,-0.280179,-2.306
 271,-0.510189\\Version=ES64L-G16RevC.01\State=1-A\HF=-767.8084198\RMSD

 Normal termination of Gaussian 16 at Sun Apr  6 08:03:32 2025.
