 Gaussian 16, Revision C.01,

 ----------------------------------------------------------------------
 #t hf aug-cc-pvdz symm=none int=(grid=ultrafine) guess=(read,tcheck) s
 table=(opt,rrhf)
 ----------------------------------------------------------------------
 -----
 title
 -----
 Symbolic Z-matrix:
 Charge =  0 Multiplicity = 1

 SCF Done:  E(RHF) =  -284.883255128     A.U. after   13 cycles
 Normal termination of Gaussian 16 at Sun Apr  6 08:04:12 2025.
 Gaussian 16:  ES64L-G16RevC.01  3-Jul-2019

 ----------------------------------------------------------------------
 #t hf aug-cc-pvdz iop(5/13=1,5/36=2,99/5=2) pseudo=read geom=check gue
 ss=(read,tcheck) scf=(maxcycle=1)
 ----------------------------------------------------------------------
 -----
 title
 -----
 Structure from the checkpoint file:  "3-4-dihydro-2H-pyrrol-2-ol.chk"
 Charge =  0 Multiplicity = 1

                         Standard orientation:
 ---------------------------------------------------------------------
 Center     Atomic      Atomic             Coordinates (Angstroms)
 Number     Number       Type             X           Y           Z
 ---------------------------------------------------------------------
      1          8           0        1.940466    0.100077   -0.356377
      2          1           0        2.421588   -0.726471   -0.237956
      3          7           0        0.023471   -1.215094    0.138296
      4          6           0       -1.181592   -0.930797   -0.131038
      5          1           0       -1.898279   -1.715924   -0.357940
      6          6           0        0.758775    0.029689    0.415101
      7          1           0        1.011317    0.022646    1.482130
      8          6           0       -1.554766    0.529531   -0.103113
      9          1           0       -2.214713    0.732484    0.745109
     10          1           0       -2.099834    0.828700   -0.999730
     11          6           0       -0.174244    1.197650    0.045596
     12          1           0       -0.160808    1.988315    0.792056
     13          1           0        0.163676    1.618849   -0.900003
 ---------------------------------------------------------------------

 SCF Done:  E(RHF) =  -286.199398809     A.U. after    2 cycles

 The electronic state is 1-A.
 Alpha  occ. eigenvalues --  -21.06511 -15.72570 -11.48892 -11.43818 -11.40767
 Alpha  occ. eigenvalues --  -11.36427  -1.72120  -1.41725  -1.13642  -1.02879
 Alpha  occ. eigenvalues --   -0.85045  -0.78157  -0.69515  -0.66717  -0.60439
 Alpha  occ. eigenvalues --   -0.57182  -0.50856  -0.48279  -0.47097  -0.44026
 Alpha  occ. eigenvalues --   -0.38006  -0.36349  -0.31721
 Alpha virt. eigenvalues --    0.03694   0.05348   0.05646   0.05843   0.06305
 Alpha virt. eigenvalues --    0.06651   0.06894   0.10835   0.11107   0.12821
 Alpha virt. eigenvalues --    0.12906   0.13957   0.14399   0.14921   0.15409

 Mulliken charges:
               1
     1  O   -2.998267
     2  H    0.672136
     3  N   -3.028737
     4  C    0.964146
     5  H    1.590247
     6  C    1.544360
     7  H    1.777675
     8  C   -3.078529
     9  H    1.350110
    10  H    1.305196
    11  C   -2.751593
    12  H    1.294641
    13  H    1.358614
 Sum of Mulliken charges =   0.00000

 Dipole moment (field-independent basis, Debye):
    X=             -1.3826    Y=              0.8898    Z=              0.1814  Tot=              1.6541

 Test job not archived.
 1\1\GINC-SE104\SP\RHF\Aug-CC-pVDZ\C4H7N1O1\OHZDE\06-Apr-2025\0\\#t hf
 aug-cc-pvdz iop(5/13=1,5/36=2,99/5=2) pseudo=read geom=check guess=(re
 ad,tcheck) scf=(maxcycle=1)\\title\\0,1\O,0,1.940466,0.100077,-0.35637
 7\H,0,2.421588,-0.726471,-0.237956\N,0,0.023471,-1.215094,0.138296\C,0
 ,-1.181592,-0.930797,-0.131038\H,0,-1.898279,-1.715924,-0.35794\C,0,0.
 758775,0.029689,0.415101\H,0,1.011317,0.022646,1.48213\C,0,-1.554766,0
 .529531,-0.103113\H,0,-2.214713,0.732484,0.745109\H,0,-2.099834,0.8287
 ,-0.99973\C,0,-0.174244,1.19765,0.045596\H,0,-0.160808,1.988315,0.7920

 Normal termination of Gaussian 16 at Sun Apr  6 08:04:16 2025.
