 Gaussian 16, Revision C.01,

 ----------------------------------------------------------------------
 #t hf aug-cc-pvdz symm=none int=(grid=ultrafine) guess=(read,tcheck) s
 table=(opt,rrhf)
 ----------------------------------------------------------------------
 -----
 title
 -----
 Symbolic Z-matrix:
 Charge =  0 Multiplicity = 1

 SCF Done:  E(RHF) =  -268.867099192     A.U. after   13 cycles
 Normal termination of Gaussian 16 at Sun Apr  6 08:04:08 2025.
 Gaussian 16:  ES64L-G16RevC.01  3-Jul-2019

 ----------------------------------------------------------------------
 #t hf aug-cc-pvdz iop(5/13=1,5/36=2,99/5=2) pseudo=read geom=check gue
 ss=(read,tcheck) scf=(maxcycle=1)
 ----------------------------------------------------------------------
 -----
 title
 -----
 Structure from the checkpoint file:  "3-4-dihydro-2H-pyran.chk"
 Charge =  0 Multiplicity = 1

                         Standard orientation:
 ---------------------------------------------------------------------
 Center     Atomic      Atomic             Coordinates (Angstroms)
 Number     Number       Type             X           Y           Z
 ---------------------------------------------------------------------
      1          1           0        1.698238    1.800485   -0.192826
      2          6           0        0.918237    1.060294   -0.079962
      3          1           0       -0.642305    2.415460    0.088334
      4          6           0       -0.370105    1.369715    0.059818
      5          1           0       -2.282342    0.596748   -0.513812
      6          1           0       -1.850400    0.242473    1.140159
      7          6           0       -1.442186    0.317252    0.126593
      8          1           0       -0.784776   -1.061303   -1.405706
      9          1           0       -1.516006   -1.859353   -0.019166
     10          6           0       -0.868229   -1.033211   -0.317152
     11          1           0        0.970892   -2.166720   -0.038422
     12          1           0        0.456412   -1.234431    1.379263
     13          6           0        0.514350   -1.233647    0.285501
     14          8           0        1.429736   -0.201972   -0.110826
 ---------------------------------------------------------------------

 SCF Done:  E(RHF) =  -270.137462889     A.U. after    2 cycles

 The electronic state is 1-A.
 Alpha  occ. eigenvalues --  -21.06039 -11.44911 -11.43773 -11.41781 -11.37786
 Alpha  occ. eigenvalues --  -11.35433  -1.77532  -1.22882  -1.11532  -0.93471
 Alpha  occ. eigenvalues --   -0.88921  -0.73949  -0.69881  -0.62999  -0.58523
 Alpha  occ. eigenvalues --   -0.56557  -0.55060  -0.50934  -0.50101  -0.43832
 Alpha  occ. eigenvalues --   -0.41910  -0.36550  -0.25817
 Alpha virt. eigenvalues --    0.03621   0.05155   0.05430   0.05897   0.06114
 Alpha virt. eigenvalues --    0.06257   0.06655   0.06931   0.11836   0.12203
 Alpha virt. eigenvalues --    0.13351   0.13734   0.13992   0.14625   0.15109

 Mulliken charges:
               1
     1  H    1.607463
     2  C    0.886200
     3  H    1.377618
     4  C   -0.771638
     5  H    1.247315
     6  H    1.262124
     7  C   -3.032926
     8  H    1.354647
     9  H    1.282789
    10  C   -2.930957
    11  H    1.293199
    12  H    1.564459
    13  C   -1.575360
    14  O   -3.564934
 Sum of Mulliken charges =  -0.00000

 Dipole moment (field-independent basis, Debye):
    X=             -0.3441    Y=             -0.7030    Z=              0.0479  Tot=              0.7841

 Test job not archived.
 1\1\GINC-SE042\SP\RHF\Aug-CC-pVDZ\C5H8O1\OHZDE\06-Apr-2025\0\\#t hf au
 g-cc-pvdz iop(5/13=1,5/36=2,99/5=2) pseudo=read geom=check guess=(read
 ,tcheck) scf=(maxcycle=1)\\title\\0,1\H,0,1.698238,1.800485,-0.192826\
 C,0,0.918237,1.060294,-0.079962\H,0,-0.642305,2.41546,0.088334\C,0,-0.
 370105,1.369715,0.059818\H,0,-2.282342,0.596748,-0.513812\H,0,-1.8504,
 0.242473,1.140159\C,0,-1.442186,0.317252,0.126593\H,0,-0.784776,-1.061
 303,-1.405706\H,0,-1.516006,-1.859353,-0.019166\C,0,-0.868229,-1.03321
 1,-0.317152\H,0,0.970892,-2.16672,-0.038422\H,0,0.456412,-1.234431,1.3

 Normal termination of Gaussian 16 at Sun Apr  6 08:04:12 2025.
