 Gaussian 16, Revision C.01,

 ----------------------------------------------------------------------
 #t hf aug-cc-pvdz symm=none int=(grid=ultrafine) guess=(read,tcheck) s
 table=(opt,rrhf)
 ----------------------------------------------------------------------
 -----
 title
 -----
 Symbolic Z-matrix:
 Charge =  0 Multiplicity = 1

 SCF Done:  E(RHF) =  -383.681563978     A.U. after   15 cycles

 1\1\GINC-SE106\Stability\RHF\Aug-CC-pVDZ\C8H10O1\OHZDE\06-Apr-2025\0\\
 #t hf aug-cc-pvdz symm=none int=(grid=ultrafine) guess=(read,tcheck) s
 table=(opt,rrhf)\\title\\0,1\C,0,1.129792,-1.107674,0.\C,0,-0.086067,-
 1.782624,0.\C,0,-1.216225,0.338498,0.\C,0,1.202373,0.281815,0.\C,0,0.,
 1.01365,0.\C,0,-1.265989,-1.051728,0.\C,0,2.538691,0.976753,0.\C,0,0.0
 14913,2.519608,0.\O,0,-2.504718,-1.638916,0.\H,0,2.046577,-1.683971,0.
 \H,0,-0.110692,-2.865937,0.\H,0,-2.147731,0.888906,0.\H,0,2.663768,1.6
 16923,0.876838\H,0,3.353135,0.253692,0.\H,0,2.663768,1.616923,-0.87683

 Normal termination of Gaussian 16 at Sun Apr  6 08:05:11 2025.
 Gaussian 16:  ES64L-G16RevC.01  3-Jul-2019

 ----------------------------------------------------------------------
 #t hf aug-cc-pvdz iop(5/13=1,5/36=2,99/5=2) pseudo=read geom=check gue
 ss=(read,tcheck) scf=(maxcycle=1)
 ----------------------------------------------------------------------
 -----
 title
 -----
 Structure from the checkpoint file:  "3-4-dimethylphenol.chk"
 Charge =  0 Multiplicity = 1

                         Standard orientation:
 ---------------------------------------------------------------------
 Center     Atomic      Atomic             Coordinates (Angstroms)
 Number     Number       Type             X           Y           Z
 ---------------------------------------------------------------------
      1          6           0        1.129792   -1.107674    0.000000
      2          6           0       -0.086067   -1.782624    0.000000
      3          6           0       -1.216225    0.338498    0.000000
      4          6           0        1.202373    0.281815    0.000000
      5          6           0        0.000000    1.013650    0.000000
      6          6           0       -1.265989   -1.051728    0.000000
      7          6           0        2.538691    0.976753    0.000000
      8          6           0        0.014913    2.519608    0.000000
      9          8           0       -2.504718   -1.638916    0.000000
     10          1           0        2.046577   -1.683971    0.000000
     11          1           0       -0.110692   -2.865937    0.000000
     12          1           0       -2.147731    0.888906    0.000000
     13          1           0        2.663768    1.616923    0.876838
     14          1           0        3.353135    0.253692    0.000000
     15          1           0        2.663768    1.616923   -0.876838
     16          1           0       -0.996299    2.922450    0.000000
     17          1           0        0.534083    2.914310    0.876468
     18          1           0        0.534083    2.914310   -0.876468
     19          1           0       -2.407882   -2.596061    0.000000
 ---------------------------------------------------------------------

 SCF Done:  E(RHF) =  -385.506497272     A.U. after    2 cycles

 The electronic state is 1-A'.
 Alpha  occ. eigenvalues --  -21.09697 -11.51531 -11.45914 -11.43585 -11.42329
 Alpha  occ. eigenvalues --  -11.40063 -11.39365 -11.37794 -11.35405  -1.74953
 Alpha  occ. eigenvalues --   -1.34311  -1.14029  -1.12193  -1.01486  -0.96436
 Alpha  occ. eigenvalues --   -0.85604  -0.81272  -0.67635  -0.64707  -0.62910
 Alpha  occ. eigenvalues --   -0.59340  -0.58507  -0.55503  -0.54834  -0.53281
 Alpha  occ. eigenvalues --   -0.52160  -0.51762  -0.45491  -0.42590  -0.40780
 Alpha  occ. eigenvalues --   -0.40690  -0.32167  -0.25946
 Alpha virt. eigenvalues --    0.03408   0.04703   0.05023   0.05734   0.06588
 Alpha virt. eigenvalues --    0.06650   0.07015   0.07158   0.07617   0.09569
 Alpha virt. eigenvalues --    0.09890   0.11626   0.11907   0.13021   0.13554

 Mulliken charges:
               1
     1  C    0.011359
     2  C   -6.538627
     3  C   -3.647254
     4  C    3.129918
     5  C    4.138422
     6  C    5.686952
     7  C   -5.535884
     8  C   -5.818253
     9  O   -4.594624
    10  H    1.728253
    11  H    1.704991
    12  H    2.046300
    13  H    0.998720
    14  H    1.355947
    15  H    0.998720
    16  H    1.302097
    17  H    1.005134
    18  H    1.005134
    19  H    1.022692
 Sum of Mulliken charges =  -0.00000

 Dipole moment (field-independent basis, Debye):
    X=              0.2293    Y=             -0.2342    Z=              0.0000  Tot=              0.3277

 Test job not archived.
 1\1\GINC-SE106\SP\RHF\Aug-CC-pVDZ\C8H10O1\OHZDE\06-Apr-2025\0\\#t hf a
 ug-cc-pvdz iop(5/13=1,5/36=2,99/5=2) pseudo=read geom=check guess=(rea
 d,tcheck) scf=(maxcycle=1)\\title\\0,1\C,0,1.129792,-1.107674,0.\C,0,-
 0.086067,-1.782624,0.\C,0,-1.216225,0.338498,0.\C,0,1.202373,0.281815,
 0.\C,0,0.,1.01365,0.\C,0,-1.265989,-1.051728,0.\C,0,2.538691,0.976753,
 0.\C,0,0.014913,2.519608,0.\O,0,-2.504718,-1.638916,0.\H,0,2.046577,-1
 .683971,0.\H,0,-0.110692,-2.865937,0.\H,0,-2.147731,0.888906,0.\H,0,2.
 663768,1.616923,0.876838\H,0,3.353135,0.253692,0.\H,0,2.663768,1.61692

 Normal termination of Gaussian 16 at Sun Apr  6 08:05:22 2025.
