 Gaussian 16, Revision C.01,

 ----------------------------------------------------------------------
 #t hf aug-cc-pvdz symm=none int=(grid=ultrafine) guess=(read,tcheck) s
 table=(opt,rrhf)
 ----------------------------------------------------------------------
 -----
 title
 -----
 Symbolic Z-matrix:
 Charge =  0 Multiplicity = 1

 SCF Done:  E(RHF) =  -324.806105066     A.U. after   14 cycles
 Normal termination of Gaussian 16 at Sun Apr  6 08:04:44 2025.
 Gaussian 16:  ES64L-G16RevC.01  3-Jul-2019

 ----------------------------------------------------------------------
 #t hf aug-cc-pvdz iop(5/13=1,5/36=2,99/5=2) pseudo=read geom=check gue
 ss=(read,tcheck) scf=(maxcycle=1)
 ----------------------------------------------------------------------
 -----
 title
 -----
 Structure from the checkpoint file:  "3-5-dimethylpyridine.chk"
 Charge =  0 Multiplicity = 1

                         Standard orientation:
 ---------------------------------------------------------------------
 Center     Atomic      Atomic             Coordinates (Angstroms)
 Number     Number       Type             X           Y           Z
 ---------------------------------------------------------------------
      1          6           0       -0.000000   -0.000000   -0.952610
      2          6           0        0.000001    1.139799    1.130184
      3          6           0       -0.000001   -1.139799    1.130184
      4          6           0       -0.000000    1.209041   -0.263066
      5          6           0       -0.000000   -1.209041   -0.263066
      6          6           0       -0.000008    2.530903   -0.981213
      7          6           0        0.000008   -2.530903   -0.981213
      8          7           0        0.000000    0.000000    1.817942
      9          1           0       -0.000000   -0.000000   -2.037504
     10          1           0        0.000003    2.053289    1.716116
     11          1           0       -0.000003   -2.053289    1.716116
     12          1           0        0.000077    3.361966   -0.277021
     13          1           0        0.878860    2.634607   -1.620442
     14          1           0       -0.878973    2.634672   -1.620300
     15          1           0        0.878973   -2.634672   -1.620300
     16          1           0       -0.000077   -3.361966   -0.277021
     17          1           0       -0.878860   -2.634607   -1.620442
 ---------------------------------------------------------------------

 SCF Done:  E(RHF) =  -326.382093383     A.U. after    2 cycles

 The electronic state is 1-A.
 Alpha  occ. eigenvalues --  -15.73120 -11.46848 -11.44606 -11.43175 -11.42431
 Alpha  occ. eigenvalues --  -11.39756 -11.39202 -11.36743  -1.44865  -1.22132
 Alpha  occ. eigenvalues --   -1.17609  -1.01797  -1.00686  -0.87443  -0.83033
 Alpha  occ. eigenvalues --   -0.71164  -0.63786  -0.59273  -0.58988  -0.57370
 Alpha  occ. eigenvalues --   -0.56156  -0.54997  -0.53760  -0.51318  -0.50850
 Alpha  occ. eigenvalues --   -0.44200  -0.35311  -0.34371  -0.31976
 Alpha virt. eigenvalues --    0.03188   0.04587   0.05371   0.05802   0.05925
 Alpha virt. eigenvalues --    0.06364   0.06392   0.07411   0.07721   0.09474
 Alpha virt. eigenvalues --    0.10189   0.12550   0.12565   0.12681   0.12725

 Mulliken charges:
               1
     1  C   -2.685965
     2  C   -2.164807
     3  C   -2.164807
     4  C    4.487958
     5  C    4.487958
     6  C   -5.271459
     7  C   -5.271459
     8  N   -3.702530
     9  H    1.924750
    10  H    1.622827
    11  H    1.622827
    12  H    1.360428
    13  H    1.098465
    14  H    1.098460
    15  H    1.098460
    16  H    1.360428
    17  H    1.098465
 Sum of Mulliken charges =   0.00000

 Dipole moment (field-independent basis, Debye):
    X=              0.0000    Y=              0.0000    Z=             -2.2513  Tot=              2.2513

 Test job not archived.
 1\1\GINC-SE212\SP\RHF\Aug-CC-pVDZ\C7H9N1\OHZDE\06-Apr-2025\0\\#t hf au
 g-cc-pvdz iop(5/13=1,5/36=2,99/5=2) pseudo=read geom=check guess=(read
 ,tcheck) scf=(maxcycle=1)\\title\\0,1\C,0,0.,0.,-0.95261\C,0,0.000001,
 1.139799,1.130184\C,0,-0.000001,-1.139799,1.130184\C,0,0.,1.209041,-0.
 263066\C,0,0.,-1.209041,-0.263066\C,0,-0.000008,2.530903,-0.981213\C,0
 ,0.000008,-2.530903,-0.981213\N,0,0.,0.,1.817942\H,0,0.,0.,-2.037504\H
 ,0,0.000003,2.053289,1.716116\H,0,-0.000003,-2.053289,1.716116\H,0,0.0
 00077,3.361966,-0.277021\H,0,0.87886,2.634607,-1.620442\H,0,-0.878973,

 Normal termination of Gaussian 16 at Sun Apr  6 08:05:19 2025.
