 Gaussian 16, Revision C.01,

 ----------------------------------------------------------------------
 #t hf aug-cc-pvdz symm=none int=(grid=ultrafine) guess=(read,tcheck) s
 table=(opt,rrhf)
 ----------------------------------------------------------------------
 -----
 title
 -----
 Symbolic Z-matrix:
 Charge =  0 Multiplicity = 1

 SCF Done:  E(RHF) =  -363.852621995     A.U. after   15 cycles

 1\1\GINC-SE165\Stability\RHF\Aug-CC-pVDZ\C8H11N1\OHZDE\06-Apr-2025\0\\
 #t hf aug-cc-pvdz symm=none int=(grid=ultrafine) guess=(read,tcheck) s
 table=(opt,rrhf)\\title\\0,1\C,0,2.517544,-1.43663,-0.005275\C,0,1.212
 17,-0.683611,0.014104\C,0,-0.002777,-1.367699,0.003328\C,0,-1.215431,-
 0.678269,-0.013052\C,0,-2.523027,-1.427228,0.01334\C,0,-1.202251,0.712
 541,-0.023179\C,0,0.003078,1.420199,-0.008027\C,0,1.204894,0.707957,0.
 012682\N,0,0.006024,2.814868,-0.071872\H,0,2.865912,-1.586339,-1.03047
 6\H,0,2.415107,-2.420997,0.45101\H,0,3.299264,-0.894762,0.52751\H,0,-0

 Normal termination of Gaussian 16 at Sun Apr  6 08:05:15 2025.
 Gaussian 16:  ES64L-G16RevC.01  3-Jul-2019

 ----------------------------------------------------------------------
 #t hf aug-cc-pvdz iop(5/13=1,5/36=2,99/5=2) pseudo=read geom=check gue
 ss=(read,tcheck) scf=(maxcycle=1)
 ----------------------------------------------------------------------
 -----
 title
 -----
 Structure from the checkpoint file:  "3-5-dimethylaniline.chk"
 Charge =  0 Multiplicity = 1

                         Standard orientation:
 ---------------------------------------------------------------------
 Center     Atomic      Atomic             Coordinates (Angstroms)
 Number     Number       Type             X           Y           Z
 ---------------------------------------------------------------------
      1          6           0        2.517547   -1.436625   -0.005275
      2          6           0        1.212171   -0.683608    0.014104
      3          6           0       -0.002774   -1.367699    0.003328
      4          6           0       -1.215430   -0.678272   -0.013052
      5          6           0       -2.523024   -1.427233    0.013340
      6          6           0       -1.202253    0.712538   -0.023179
      7          6           0        0.003075    1.420199   -0.008027
      8          6           0        1.204892    0.707960    0.012682
      9          7           0        0.006018    2.814868   -0.071872
     10          1           0        2.865915   -1.586333   -1.030476
     11          1           0        2.415112   -2.420992    0.451010
     12          1           0        3.299266   -0.894755    0.527510
     13          1           0       -0.005112   -2.450862    0.008225
     14          1           0       -3.318319   -0.859429   -0.469576
     15          1           0       -2.839475   -1.624375    1.040910
     16          1           0       -2.438847   -2.390056   -0.490594
     17          1           0       -2.138290    1.258867   -0.046205
     18          1           0        2.143576    1.250292    0.019305
     19          1           0        0.839812    3.263376    0.270906
     20          1           0       -0.830996    3.266632    0.258566
 ---------------------------------------------------------------------

 SCF Done:  E(RHF) =  -365.639552121     A.U. after    2 cycles

 The electronic state is 1-A.
 Alpha  occ. eigenvalues --  -15.75248 -11.50113 -11.44558 -11.43979 -11.40440
 Alpha  occ. eigenvalues --  -11.39974 -11.38153 -11.38020 -11.34121  -1.41019
 Alpha  occ. eigenvalues --   -1.28099  -1.15940  -1.07052  -0.99209  -0.98403
 Alpha  occ. eigenvalues --   -0.82897  -0.81436  -0.68307  -0.66950  -0.63007
 Alpha  occ. eigenvalues --   -0.59168  -0.57744  -0.56126  -0.55432  -0.53983
 Alpha  occ. eigenvalues --   -0.53357  -0.50641  -0.47710  -0.43542  -0.41334
 Alpha  occ. eigenvalues --   -0.40636  -0.30803  -0.26570
 Alpha virt. eigenvalues --    0.03473   0.04725   0.04790   0.05687   0.05961
 Alpha virt. eigenvalues --    0.06356   0.06897   0.07296   0.07674   0.08961
 Alpha virt. eigenvalues --    0.09713   0.10249   0.11990   0.12345   0.12999

 Mulliken charges:
               1
     1  C   -5.494783
     2  C    3.584983
     3  C   -2.313604
     4  C    3.674171
     5  C   -5.493758
     6  C   -2.479643
     7  C    1.388998
     8  C   -2.475481
     9  N   -4.047461
    10  H    1.064644
    11  H    1.141621
    12  H    1.099189
    13  H    2.018422
    14  H    1.114858
    15  H    1.063801
    16  H    1.119466
    17  H    1.909967
    18  H    1.880774
    19  H    0.625998
    20  H    0.617836
 Sum of Mulliken charges =  -0.00000

 Dipole moment (field-independent basis, Debye):
    X=             -0.0044    Y=              0.8862    Z=              0.7516  Tot=              1.1621

 Test job not archived.
 1\1\GINC-SE165\SP\RHF\Aug-CC-pVDZ\C8H11N1\OHZDE\06-Apr-2025\0\\#t hf a
 ug-cc-pvdz iop(5/13=1,5/36=2,99/5=2) pseudo=read geom=check guess=(rea
 d,tcheck) scf=(maxcycle=1)\\title\\0,1\C,0,2.517544,-1.43663,-0.005275
 \C,0,1.21217,-0.683611,0.014104\C,0,-0.002777,-1.367699,0.003328\C,0,-
 1.215431,-0.678269,-0.013052\C,0,-2.523027,-1.427228,0.01334\C,0,-1.20
 2251,0.712541,-0.023179\C,0,0.003078,1.420199,-0.008027\C,0,1.204894,0
 .707957,0.012682\N,0,0.006024,2.814868,-0.071872\H,0,2.865912,-1.58633
 9,-1.030476\H,0,2.415107,-2.420997,0.45101\H,0,3.299264,-0.894762,0.52

 Normal termination of Gaussian 16 at Sun Apr  6 08:05:25 2025.
