 Gaussian 16, Revision C.01,

 ----------------------------------------------------------------------
 #t hf aug-cc-pvdz symm=none int=(grid=ultrafine) guess=(read,tcheck) s
 table=(opt,rrhf)
 ----------------------------------------------------------------------
 -----
 title
 -----
 Symbolic Z-matrix:
 Charge =  0 Multiplicity = 1

 SCF Done:  E(RHF) =  -1203.61535533     A.U. after   15 cycles
 Normal termination of Gaussian 16 at Sun Apr  6 08:04:47 2025.
 Gaussian 16:  ES64L-G16RevC.01  3-Jul-2019

 ----------------------------------------------------------------------
 #t hf aug-cc-pvdz iop(5/13=1,5/36=2,99/5=2) pseudo=read geom=check gue
 ss=(read,tcheck) scf=(maxcycle=1)
 ----------------------------------------------------------------------
 -----
 title
 -----
 Structure from the checkpoint file:  "3-5-dichloroaniline.chk"
 Charge =  0 Multiplicity = 1

                         Standard orientation:
 ---------------------------------------------------------------------
 Center     Atomic      Atomic             Coordinates (Angstroms)
 Number     Number       Type             X           Y           Z
 ---------------------------------------------------------------------
      1          6           0       -0.002879    1.733711    0.000000
      2          6           0       -0.000835    1.024148    1.207301
      3          6           0        0.003546   -0.359322    1.183235
      4          6           0        0.006022   -1.085093   -0.000000
      5          6           0        0.003546   -0.359322   -1.183235
      6          6           0       -0.000835    1.024148   -1.207301
      7          7           0        0.050317    3.119086    0.000000
      8          1           0        0.002441    1.548698    2.151914
      9         17           0        0.003546   -1.229071    2.704581
     10          1           0        0.008856   -2.162499   -0.000000
     11         17           0        0.003546   -1.229071   -2.704581
     12          1           0        0.002441    1.548698   -2.151914
     13          1           0       -0.268948    3.575143   -0.838380
     14          1           0       -0.268948    3.575143    0.838380
 ---------------------------------------------------------------------

 SCF Done:  E(RHF) =  -1205.45585104     A.U. after    2 cycles

 The electronic state is 1-A'.
 Alpha  occ. eigenvalues --  -99.90018 -99.90009 -15.77821 -11.53250 -11.48495
 Alpha  occ. eigenvalues --  -11.48297 -11.44210 -11.43708 -11.39768 -10.47380
 Alpha  occ. eigenvalues --  -10.47371  -9.67405  -9.67377  -9.66537  -9.66485
 Alpha  occ. eigenvalues --   -9.66331  -9.66317  -1.46229  -1.36366  -1.34482
 Alpha  occ. eigenvalues --   -1.22438  -1.09156  -1.07997  -0.88631  -0.88132
 Alpha  occ. eigenvalues --   -0.73315  -0.70687  -0.69444  -0.62277  -0.61323
 Alpha  occ. eigenvalues --   -0.60543  -0.59753  -0.55898  -0.54264  -0.52453
 Alpha  occ. eigenvalues --   -0.49242  -0.48493  -0.47886  -0.43717  -0.34935
 Alpha  occ. eigenvalues --   -0.29733
 Alpha virt. eigenvalues --    0.02993   0.04791   0.04948   0.05833   0.07008
 Alpha virt. eigenvalues --    0.07484   0.08488   0.09282   0.10184   0.10878
 Alpha virt. eigenvalues --    0.11884   0.12049   0.12851   0.13321   0.13614

 Mulliken charges:
               1
     1  C    2.663785
     2  C   -1.222142
     3  C   -0.508531
     4  C   -0.166160
     5  C   -0.508531
     6  C   -1.222142
     7  N   -3.951149
     8  H    1.775320
     9  Cl  -0.811277
    10  H    1.696614
    11  Cl  -0.811277
    12  H    1.775320
    13  H    0.645084
    14  H    0.645084
 Sum of Mulliken charges =   0.00000

 Dipole moment (field-independent basis, Debye):
    X=             -0.7330    Y=              3.7120    Z=             -0.0000  Tot=              3.7836

 Test job not archived.
 1\1\GINC-SE136\SP\RHF\Aug-CC-pVDZ\C6H5Cl2N1\OHZDE\06-Apr-2025\0\\#t hf
  aug-cc-pvdz iop(5/13=1,5/36=2,99/5=2) pseudo=read geom=check guess=(r
 ead,tcheck) scf=(maxcycle=1)\\title\\0,1\C,0,-0.002611,-1.733711,0.\C,
 0,-0.002408,-1.024146,1.207301\C,0,-0.002408,0.359331,1.183235\C,0,-0.
 002586,1.085107,0.\C,0,-0.002408,0.359331,-1.183235\C,0,-0.002408,-1.0
 24146,-1.207301\N,0,-0.060193,-3.118911,0.\H,0,-0.007345,-1.548683,2.1
 51914\Cl,0,0.000346,1.229076,2.704581\H,0,-0.002009,2.162516,0.\Cl,0,0
 .000346,1.229076,-2.704581\H,0,-0.007345,-1.548683,-2.151914\H,0,0.257

 Normal termination of Gaussian 16 at Sun Apr  6 08:04:56 2025.
