 Gaussian 16, Revision C.01,

 ----------------------------------------------------------------------
 #t hf aug-cc-pvdz symm=none int=(grid=ultrafine) guess=(read,tcheck) s
 table=(opt,rrhf)
 ----------------------------------------------------------------------
 -----
 title
 -----
 Symbolic Z-matrix:
 Charge =  0 Multiplicity = 1

 SCF Done:  E(RHF) =  -631.954288072     A.U. after   15 cycles
 Normal termination of Gaussian 16 at Sun Apr  6 08:04:59 2025.
 Gaussian 16:  ES64L-G16RevC.01  3-Jul-2019

 ----------------------------------------------------------------------
 #t hf aug-cc-pvdz iop(5/13=1,5/36=2,99/5=2) pseudo=read geom=check gue
 ss=(read,tcheck) scf=(maxcycle=1)
 ----------------------------------------------------------------------
 -----
 title
 -----
 Structure from the checkpoint file:  "3-5-difluoronitrobenzene.chk"
 Charge =  0 Multiplicity = 1

                         Standard orientation:
 ---------------------------------------------------------------------
 Center     Atomic      Atomic             Coordinates (Angstroms)
 Number     Number       Type             X           Y           Z
 ---------------------------------------------------------------------
      1          9           0        0.000000    2.343179   -1.982060
      2          9           0       -0.000000   -2.343179   -1.982060
      3          8           0        0.000003   -1.083137    2.779892
      4          8           0       -0.000003    1.083137    2.779892
      5          7           0        0.000000   -0.000000    2.217668
      6          6           0        0.000000   -0.000000    0.737023
      7          6           0        0.000000    1.183547   -1.305000
      8          6           0       -0.000000   -1.183547   -1.305000
      9          6           0       -0.000000   -1.219150    0.077114
     10          6           0        0.000000    1.219150    0.077114
     11          6           0       -0.000000    0.000000   -2.024499
     12          1           0       -0.000000   -2.150455    0.619296
     13          1           0        0.000000    2.150455    0.619296
     14          1           0       -0.000000    0.000000   -3.103967
 ---------------------------------------------------------------------

 SCF Done:  E(RHF) =  -634.534602299     A.U. after    2 cycles

 The electronic state is 1-A.
 Alpha  occ. eigenvalues --  -29.32030 -29.32009 -21.11225 -21.11111 -16.01898
 Alpha  occ. eigenvalues --  -11.58697 -11.54093 -11.52330 -11.47325 -11.46319
 Alpha  occ. eigenvalues --  -11.44624  -2.01834  -1.70955  -1.44292  -1.23441
 Alpha  occ. eigenvalues --   -1.23241  -1.04496  -0.99607  -0.94437  -0.80219
 Alpha  occ. eigenvalues --   -0.74069  -0.70676  -0.70658  -0.70176  -0.69735
 Alpha  occ. eigenvalues --   -0.61647  -0.60833  -0.56553  -0.54083  -0.50482
 Alpha  occ. eigenvalues --   -0.43721  -0.43156  -0.40988  -0.37797  -0.33259
 Alpha  occ. eigenvalues --   -0.33105  -0.32236  -0.28735  -0.28384  -0.26037
 Alpha virt. eigenvalues --    0.03636   0.05165   0.05766   0.06786   0.09009
 Alpha virt. eigenvalues --    0.10148   0.10380   0.10616   0.11644   0.12264
 Alpha virt. eigenvalues --    0.12430   0.13186   0.13797   0.13806   0.14415

 Mulliken charges:
               1
     1  F    0.752793
     2  F    0.752793
     3  O   -3.026924
     4  O   -3.026924
     5  N    3.554487
     6  C    2.558310
     7  C    4.701735
     8  C    4.701735
     9  C   -4.790053
    10  C   -4.790053
    11  C   -6.669096
    12  H    1.752985
    13  H    1.752985
    14  H    1.775228
 Sum of Mulliken charges =   0.00000

 Dipole moment (field-independent basis, Debye):
    X=             -0.0000    Y=             -0.0000    Z=             -4.9152  Tot=              4.9152

 Test job not archived.
 1\1\GINC-SE155\SP\RHF\Aug-CC-pVDZ\C6H3F2N1O2\OHZDE\06-Apr-2025\0\\#t h
 f aug-cc-pvdz iop(5/13=1,5/36=2,99/5=2) pseudo=read geom=check guess=(
 read,tcheck) scf=(maxcycle=1)\\title\\0,1\F,0,0.,2.343179,-1.98206\F,0
 ,0.,-2.343179,-1.98206\O,0,0.000003,-1.083137,2.779892\O,0,-0.000003,1
 .083137,2.779892\N,0,0.,0.,2.217668\C,0,0.,0.,0.737023\C,0,0.,1.183547
 ,-1.305\C,0,0.,-1.183547,-1.305\C,0,0.,-1.21915,0.077114\C,0,0.,1.2191
 5,0.077114\C,0,0.,0.,-2.024499\H,0,0.,-2.150455,0.619296\H,0,0.,2.1504
 55,0.619296\H,0,0.,0.,-3.103967\\Version=ES64L-G16RevC.01\State=1-A\HF

 Normal termination of Gaussian 16 at Sun Apr  6 08:05:19 2025.
