 Gaussian 16, Revision C.01,

 ----------------------------------------------------------------------
 #t hf aug-cc-pvdz symm=none int=(grid=ultrafine) guess=(read,tcheck) s
 table=(opt,rrhf)
 ----------------------------------------------------------------------
 -----
 title
 -----
 Symbolic Z-matrix:
 Charge =  0 Multiplicity = 1

 SCF Done:  E(RHF) =  -383.684003248     A.U. after   15 cycles

 1\1\GINC-SE200\Stability\RHF\Aug-CC-pVDZ\C8H10O1\OHZDE\06-Apr-2025\0\\
 #t hf aug-cc-pvdz symm=none int=(grid=ultrafine) guess=(read,tcheck) s
 table=(opt,rrhf)\\title\\0,1\C,0,0.135051,-1.341137,-0.005889\C,0,-1.2
 64169,0.607942,0.005249\C,0,1.13957,0.84094,-0.006939\C,0,-1.138604,-0
 .78321,0.00133\C,0,1.282088,-0.540466,-0.008323\C,0,-0.131706,1.410882
 ,0.000566\C,0,-2.369752,-1.651925,0.000466\C,0,2.650233,-1.171347,0.00
 6646\O,0,-0.202773,2.77877,0.000841\H,0,0.240904,-2.419111,-0.011504\H
 ,0,-2.248573,1.063933,0.008732\H,0,2.003339,1.491882,-0.01272\H,0,-2.9

 Normal termination of Gaussian 16 at Sun Apr  6 08:05:16 2025.
 Gaussian 16:  ES64L-G16RevC.01  3-Jul-2019

 ----------------------------------------------------------------------
 #t hf aug-cc-pvdz iop(5/13=1,5/36=2,99/5=2) pseudo=read geom=check gue
 ss=(read,tcheck) scf=(maxcycle=1)
 ----------------------------------------------------------------------
 -----
 title
 -----
 Structure from the checkpoint file:  "3-5-dimethylphenol.chk"
 Charge =  0 Multiplicity = 1

                         Standard orientation:
 ---------------------------------------------------------------------
 Center     Atomic      Atomic             Coordinates (Angstroms)
 Number     Number       Type             X           Y           Z
 ---------------------------------------------------------------------
      1          6           0        0.135051   -1.341137   -0.005889
      2          6           0       -1.264169    0.607941    0.005249
      3          6           0        1.139570    0.840940   -0.006939
      4          6           0       -1.138604   -0.783210    0.001330
      5          6           0        1.282088   -0.540466   -0.008323
      6          6           0       -0.131706    1.410882    0.000566
      7          6           0       -2.369751   -1.651926    0.000466
      8          6           0        2.650233   -1.171346    0.006646
      9          8           0       -0.202774    2.778770    0.000841
     10          1           0        0.240905   -2.419111   -0.011504
     11          1           0       -2.248573    1.063932    0.008732
     12          1           0        2.003339    1.491882   -0.012720
     13          1           0       -2.995986   -1.450771    0.871977
     14          1           0       -2.981562   -1.469037   -0.885355
     15          1           0       -2.107932   -2.708819    0.013301
     16          1           0        3.426357   -0.446249   -0.234263
     17          1           0        2.878025   -1.585951    0.991583
     18          1           0        2.715993   -1.990402   -0.710787
     19          1           0       -1.124646    3.054300    0.003665
 ---------------------------------------------------------------------

 SCF Done:  E(RHF) =  -385.507073647     A.U. after    2 cycles

 The electronic state is 1-A.
 Alpha  occ. eigenvalues --  -21.09854 -11.51115 -11.45569 -11.44633 -11.40787
 Alpha  occ. eigenvalues --  -11.40597 -11.38809 -11.38490 -11.35067  -1.75167
 Alpha  occ. eigenvalues --   -1.34088  -1.16592  -1.09334  -0.99912  -0.99344
 Alpha  occ. eigenvalues --   -0.83439  -0.81928  -0.69143  -0.65593  -0.61526
 Alpha  occ. eigenvalues --   -0.58383  -0.56642  -0.56192  -0.55059  -0.54189
 Alpha  occ. eigenvalues --   -0.52417  -0.51601  -0.46217  -0.42801  -0.40816
 Alpha  occ. eigenvalues --   -0.40351  -0.31462  -0.26583
 Alpha virt. eigenvalues --    0.03319   0.04500   0.05233   0.05609   0.05951
 Alpha virt. eigenvalues --    0.06620   0.07094   0.07227   0.07576   0.09262
 Alpha virt. eigenvalues --    0.09671   0.11941   0.12050   0.12264   0.13040

 Mulliken charges:
               1
     1  C   -2.062218
     2  C   -4.514955
     3  C   -3.327813
     4  C    3.141571
     5  C    3.808312
     6  C    5.316241
     7  C   -5.681023
     8  C   -5.702068
     9  O   -4.539908
    10  H    1.974291
    11  H    1.913411
    12  H    1.967044
    13  H    1.004470
    14  H    1.017134
    15  H    1.346201
    16  H    1.245144
    17  H    1.045266
    18  H    1.048278
    19  H    1.000624
 Sum of Mulliken charges =   0.00000

 Dipole moment (field-independent basis, Debye):
    X=             -0.5862    Y=              0.0016    Z=              0.0224  Tot=              0.5867

 Test job not archived.
 1\1\GINC-SE200\SP\RHF\Aug-CC-pVDZ\C8H10O1\OHZDE\06-Apr-2025\0\\#t hf a
 ug-cc-pvdz iop(5/13=1,5/36=2,99/5=2) pseudo=read geom=check guess=(rea
 d,tcheck) scf=(maxcycle=1)\\title\\0,1\C,0,0.135051,-1.341137,-0.00588
 9\C,0,-1.264169,0.607942,0.005249\C,0,1.13957,0.84094,-0.006939\C,0,-1
 .138604,-0.78321,0.00133\C,0,1.282088,-0.540466,-0.008323\C,0,-0.13170
 6,1.410882,0.000566\C,0,-2.369752,-1.651925,0.000466\C,0,2.650233,-1.1
 71347,0.006646\O,0,-0.202773,2.77877,0.000841\H,0,0.240904,-2.419111,-
 0.011504\H,0,-2.248573,1.063933,0.008732\H,0,2.003339,1.491882,-0.0127

 Normal termination of Gaussian 16 at Sun Apr  6 08:05:26 2025.
