 Gaussian 16, Revision C.01,

 ----------------------------------------------------------------------
 #t hf aug-cc-pvdz symm=none int=(grid=ultrafine) guess=(read,tcheck) s
 table=(opt,rrhf)
 ----------------------------------------------------------------------
 -----
 title
 -----
 Symbolic Z-matrix:
 Charge =  0 Multiplicity = 1

 SCF Done:  E(RHF) =  -536.179497216     A.U. after   16 cycles
 Normal termination of Gaussian 16 at Sun Apr  6 08:04:20 2025.
 Gaussian 16:  ES64L-G16RevC.01  3-Jul-2019

 ----------------------------------------------------------------------
 #t hf aug-cc-pvdz iop(5/13=1,5/36=2,99/5=2) pseudo=read geom=check gue
 ss=(read,tcheck) scf=(maxcycle=1)
 ----------------------------------------------------------------------
 -----
 title
 -----
 Structure from the checkpoint file:  "3-5-difluoro-2-pyridinecarbonitrile.chk"
 Charge =  0 Multiplicity = 1

                         Standard orientation:
 ---------------------------------------------------------------------
 Center     Atomic      Atomic             Coordinates (Angstroms)
 Number     Number       Type             X           Y           Z
 ---------------------------------------------------------------------
      1          9           0       -1.107399    1.972598   -0.000008
      2          9           0        3.142849   -0.010796    0.000001
      3          7           0       -0.115794   -1.478474    0.000005
      4          7           0       -3.450688   -0.659364    0.000001
      5          6           0       -0.881069   -0.381590    0.000001
      6          6           0       -0.318666    0.896498   -0.000003
      7          6           0        1.807176   -0.095422    0.000001
      8          6           0        1.053220    1.060726   -0.000003
      9          6           0        1.201271   -1.347746    0.000005
     10          6           0       -2.305482   -0.546687    0.000001
     11          1           0        1.504868    2.041454   -0.000006
     12          1           0        1.802744   -2.247483    0.000009
 ---------------------------------------------------------------------

 SCF Done:  E(RHF) =  -538.363505545     A.U. after    2 cycles

 The electronic state is 1-A.
 Alpha  occ. eigenvalues --  -29.33474 -29.33337 -15.80379 -15.78011 -11.58378
 Alpha  occ. eigenvalues --  -11.55090 -11.51136 -11.47757 -11.46137 -11.44962
 Alpha  occ. eigenvalues --   -1.53403  -1.32584  -1.30110  -1.24666  -1.04736
 Alpha  occ. eigenvalues --   -1.00849  -0.86565  -0.82037  -0.72464  -0.72292
 Alpha  occ. eigenvalues --   -0.65081  -0.63801  -0.60557  -0.53701  -0.53099
 Alpha  occ. eigenvalues --   -0.49446  -0.47150  -0.46625  -0.44545  -0.42646
 Alpha  occ. eigenvalues --   -0.41905  -0.32187  -0.30201  -0.30021  -0.27023
 Alpha virt. eigenvalues --    0.03269   0.04940   0.07208   0.07702   0.08985
 Alpha virt. eigenvalues --    0.09592   0.09752   0.10239   0.11253   0.11690
 Alpha virt. eigenvalues --    0.12087   0.12274   0.12374   0.13101   0.13272

 Mulliken charges:
               1
     1  F    1.105133
     2  F    0.907802
     3  N   -4.155359
     4  N   -2.226916
     5  C    0.885286
     6  C    2.577181
     7  C    2.219013
     8  C   -3.821360
     9  C   -1.213594
    10  C    0.252544
    11  H    1.796341
    12  H    1.673929
 Sum of Mulliken charges =   0.00000

 Dipole moment (field-independent basis, Debye):
    X=              5.5751    Y=              4.0621    Z=             -0.0000  Tot=              6.8981

 Test job not archived.
 1\1\GINC-SE150\SP\RHF\Aug-CC-pVDZ\C6H2F2N2\OHZDE\06-Apr-2025\0\\#t hf
 aug-cc-pvdz iop(5/13=1,5/36=2,99/5=2) pseudo=read geom=check guess=(re
 ad,tcheck) scf=(maxcycle=1)\\title\\0,1\F,0,-1.107399,1.972598,-0.0000
 08\F,0,3.142849,-0.010796,0.000001\N,0,-0.115794,-1.478474,0.000005\N,
 0,-3.450688,-0.659364,0.000001\C,0,-0.881069,-0.38159,0.000001\C,0,-0.
 318666,0.896498,-0.000003\C,0,1.807176,-0.095422,0.000001\C,0,1.05322,
 1.060726,-0.000003\C,0,1.201271,-1.347746,0.000005\C,0,-2.305482,-0.54
 6687,0.000001\H,0,1.504868,2.041454,-0.000006\H,0,1.802744,-2.247483,0

 Normal termination of Gaussian 16 at Sun Apr  6 08:04:57 2025.
