 Gaussian 16, Revision C.01,

 ----------------------------------------------------------------------
 #t hf aug-cc-pvdz symm=none int=(grid=ultrafine) guess=(read,tcheck) s
 table=(opt,rrhf)
 ----------------------------------------------------------------------
 -----
 title
 -----
 Symbolic Z-matrix:
 Charge =  0 Multiplicity = 1

 SCF Done:  E(RHF) =  -1056.53129289     A.U. after   15 cycles
 Normal termination of Gaussian 16 at Sun Apr  6 08:04:10 2025.
 Gaussian 16:  ES64L-G16RevC.01  3-Jul-2019

 ----------------------------------------------------------------------
 #t hf aug-cc-pvdz iop(5/13=1,5/36=2,99/5=2) pseudo=read geom=check gue
 ss=(read,tcheck) scf=(maxcycle=1)
 ----------------------------------------------------------------------
 -----
 title
 -----
 Structure from the checkpoint file:  "3-7lambda4-dithia-6-8-diazabicyclo3-3-0octa-1-4-6-7-tetraene.chk"
 Charge =  0 Multiplicity = 1

                         Standard orientation:
 ---------------------------------------------------------------------
 Center     Atomic      Atomic             Coordinates (Angstroms)
 Number     Number       Type             X           Y           Z
 ---------------------------------------------------------------------
      1         16           0        0.000000   -0.000000    2.365328
      2         16           0        0.000000    0.000000   -2.307684
      3          7           0        0.000000    1.264006   -1.291328
      4          7           0       -0.000000   -1.264006   -1.291328
      5          6           0        0.000000    0.729665   -0.053183
      6          6           0       -0.000000   -0.729665   -0.053183
      7          6           0        0.000000    1.267958    1.226307
      8          6           0       -0.000000   -1.267958    1.226307
      9          1           0        0.000000    2.296156    1.539395
     10          1           0       -0.000000   -2.296156    1.539395
 ---------------------------------------------------------------------

 SCF Done:  E(RHF) =  -1058.17011966     A.U. after    2 cycles

 The electronic state is 1-A1.
 Alpha  occ. eigenvalues --  -75.79071 -75.75476 -15.77986 -15.77928 -13.29442
 Alpha  occ. eigenvalues --  -13.26938 -13.20846 -13.19831 -13.10101 -13.06778
 Alpha  occ. eigenvalues --  -11.49438 -11.45655 -11.43688 -11.40460  -8.13545
 Alpha  occ. eigenvalues --   -8.09892  -1.58010  -1.34908  -1.30639  -1.11811
 Alpha  occ. eigenvalues --   -1.04840  -0.90283  -0.83976  -0.77068  -0.66861
 Alpha  occ. eigenvalues --   -0.61625  -0.59404  -0.50472  -0.49458  -0.45485
 Alpha  occ. eigenvalues --   -0.44953  -0.42084  -0.40908  -0.36740  -0.28977
 Alpha  occ. eigenvalues --   -0.26377
 Alpha virt. eigenvalues --    0.03160   0.04304   0.05091   0.06499   0.07111
 Alpha virt. eigenvalues --    0.08318   0.09493   0.09921   0.12071   0.13210
 Alpha virt. eigenvalues --    0.13542   0.13630   0.14459   0.14486   0.15192

 Mulliken charges:
               1
     1  S    2.781839
     2  S    2.829559
     3  N   -3.476635
     4  N   -3.476635
     5  C    2.004750
     6  C    2.004750
     7  C   -2.701490
     8  C   -2.701490
     9  H    1.367676
    10  H    1.367676
 Sum of Mulliken charges =   0.00000

 Dipole moment (field-independent basis, Debye):
    X=              0.0000    Y=             -0.0000    Z=              1.2438  Tot=              1.2438

 Test job not archived.
 1\1\GINC-SE223\SP\RHF\Aug-CC-pVDZ\C4H2N2S2\OHZDE\06-Apr-2025\0\\#t hf
 aug-cc-pvdz iop(5/13=1,5/36=2,99/5=2) pseudo=read geom=check guess=(re
 ad,tcheck) scf=(maxcycle=1)\\title\\0,1\S,0,0.,0.,2.365328\S,0,0.,0.,-
 2.307684\N,0,0.,1.264006,-1.291328\N,0,0.,-1.264006,-1.291328\C,0,0.,0
 .729665,-0.053183\C,0,0.,-0.729665,-0.053183\C,0,0.,1.267958,1.226307\
 C,0,0.,-1.267958,1.226307\H,0,0.,2.296156,1.539395\H,0,0.,-2.296156,1.
 539395\\Version=ES64L-G16RevC.01\State=1-A1\HF=-1058.1701197\RMSD=1.23
 7e+00\Dipole=0.,0.,0.4893632\Quadrupole=-5.695705,-5.4567341,11.152439

 Normal termination of Gaussian 16 at Sun Apr  6 08:04:15 2025.
