 Gaussian 16, Revision C.01,

 ----------------------------------------------------------------------
 #t hf aug-cc-pvdz symm=none int=(grid=ultrafine) guess=(read,tcheck) s
 table=(opt,rrhf)
 ----------------------------------------------------------------------
 -----
 title
 -----
 Symbolic Z-matrix:
 Charge =  0 Multiplicity = 1

 SCF Done:  E(RHF) =  -319.513714952     A.U. after   15 cycles
 Normal termination of Gaussian 16 at Sun Apr  6 08:03:59 2025.
 Gaussian 16:  ES64L-G16RevC.01  3-Jul-2019

 ----------------------------------------------------------------------
 #t hf aug-cc-pvdz iop(5/13=1,5/36=2,99/5=2) pseudo=read geom=check gue
 ss=(read,tcheck) scf=(maxcycle=1)
 ----------------------------------------------------------------------
 -----
 title
 -----
 Structure from the checkpoint file:  "3-amino-2-propynoic_acid.chk"
 Charge =  0 Multiplicity = 1

                         Standard orientation:
 ---------------------------------------------------------------------
 Center     Atomic      Atomic             Coordinates (Angstroms)
 Number     Number       Type             X           Y           Z
 ---------------------------------------------------------------------
      1          8           0        1.772604   -1.164175    0.005094
      2          8           0        1.810770    1.063763    0.003743
      3          7           0       -2.805856    0.007250   -0.044985
      4          6           0        1.155229   -0.132919    0.000440
      5          6           0       -0.273472   -0.038262   -0.008028
      6          6           0       -1.481370   -0.002709   -0.003032
      7          1           0        1.173225    1.788219   -0.008235
      8          1           0       -3.302718   -0.848895    0.140583
      9          1           0       -3.298834    0.856562    0.175579
 ---------------------------------------------------------------------

 SCF Done:  E(RHF) =  -320.882672310     A.U. after    2 cycles

 The electronic state is 1-A.
 Alpha  occ. eigenvalues --  -21.12205 -21.04665 -15.82721 -11.55572 -11.47729
 Alpha  occ. eigenvalues --  -11.41631  -1.81963  -1.65004  -1.40976  -1.11407
 Alpha  occ. eigenvalues --   -0.90760  -0.75900  -0.73392  -0.71054  -0.57950
 Alpha  occ. eigenvalues --   -0.54849  -0.51778  -0.48303  -0.39444  -0.34954
 Alpha  occ. eigenvalues --   -0.31411  -0.30505
 Alpha virt. eigenvalues --    0.01884   0.04666   0.04891   0.08942   0.10782
 Alpha virt. eigenvalues --    0.11352   0.12418   0.13114   0.13624   0.14426
 Alpha virt. eigenvalues --    0.15160   0.15397   0.17275   0.18137   0.19385

 Mulliken charges:
               1
     1  O   -2.955754
     2  O   -2.819930
     3  N   -3.504830
     4  C    5.397644
     5  C    1.159374
     6  C    0.379628
     7  H    1.051749
     8  H    0.633878
     9  H    0.658242
 Sum of Mulliken charges =  -0.00000

 Dipole moment (field-independent basis, Debye):
    X=             -4.4162    Y=              1.6768    Z=              0.5160  Tot=              4.7519

 Test job not archived.
 1\1\GINC-SE046\SP\RHF\Aug-CC-pVDZ\C3H3N1O2\OHZDE\06-Apr-2025\0\\#t hf
 aug-cc-pvdz iop(5/13=1,5/36=2,99/5=2) pseudo=read geom=check guess=(re
 ad,tcheck) scf=(maxcycle=1)\\title\\0,1\O,0,1.772604,-1.164175,0.00509
 4\O,0,1.81077,1.063763,0.003743\N,0,-2.805856,0.00725,-0.044985\C,0,1.
 155229,-0.132919,0.00044\C,0,-0.273472,-0.038262,-0.008028\C,0,-1.4813
 7,-0.002709,-0.003032\H,0,1.173225,1.788219,-0.008235\H,0,-3.302718,-0
 .848895,0.140583\H,0,-3.298834,0.856562,0.175579\\Version=ES64L-G16Rev
 C.01\State=1-A\HF=-320.8826723\RMSD=8.027e-01\Dipole=-1.7374791,0.6596

 Normal termination of Gaussian 16 at Sun Apr  6 08:04:02 2025.
