 Gaussian 16, Revision C.01,

 ----------------------------------------------------------------------
 #t hf aug-cc-pvdz symm=none int=(grid=ultrafine) guess=(read,tcheck) s
 table=(opt,rrhf)
 ----------------------------------------------------------------------
 -----
 title
 -----
 Symbolic Z-matrix:
 Charge =  0 Multiplicity = 1

 SCF Done:  E(RHF) =  -467.513362469     A.U. after   15 cycles
 Normal termination of Gaussian 16 at Sun Apr  6 08:04:38 2025.
 Gaussian 16:  ES64L-G16RevC.01  3-Jul-2019

 ----------------------------------------------------------------------
 #t hf aug-cc-pvdz iop(5/13=1,5/36=2,99/5=2) pseudo=read geom=check gue
 ss=(read,tcheck) scf=(maxcycle=1)
 ----------------------------------------------------------------------
 -----
 title
 -----
 Structure from the checkpoint file:  "3-amino-3-cyano-2-iminopropanoic_acid.chk"
 Charge =  0 Multiplicity = 1

                         Standard orientation:
 ---------------------------------------------------------------------
 Center     Atomic      Atomic             Coordinates (Angstroms)
 Number     Number       Type             X           Y           Z
 ---------------------------------------------------------------------
      1          8           0       -1.415386    1.150290    1.034869
      2          8           0       -2.526884   -0.061738   -0.504591
      3          7           0       -0.329637   -1.734260   -0.686231
      4          7           0        2.142867   -1.152163    0.543205
      5          7           0        1.836613    1.901711   -0.939641
      6          6           0       -0.259663   -0.639128   -0.066281
      7          6           0       -1.442454    0.263798    0.223360
      8          6           0        1.089974   -0.157905    0.501868
      9          6           0        1.523271    1.007131   -0.290019
     10          1           0       -3.243142    0.541726   -0.256306
     11          1           0       -1.276668   -1.925711   -1.010760
     12          1           0        2.219932   -1.620473   -0.352294
     13          1           0        1.916260   -1.862476    1.227909
     14          1           0        0.906095    0.208124    1.514324
 ---------------------------------------------------------------------

 SCF Done:  E(RHF) =  -469.540739825     A.U. after    2 cycles

 The electronic state is 1-A.
 Alpha  occ. eigenvalues --  -21.16077 -21.09754 -15.79537 -15.76609 -15.76323
 Alpha  occ. eigenvalues --  -11.57143 -11.52783 -11.48416 -11.43486  -1.86919
 Alpha  occ. eigenvalues --   -1.69841  -1.44718  -1.34561  -1.29194  -1.09060
 Alpha  occ. eigenvalues --   -0.96866  -0.82876  -0.75494  -0.71183  -0.65234
 Alpha  occ. eigenvalues --   -0.63660  -0.62668  -0.60219  -0.58074  -0.53144
 Alpha  occ. eigenvalues --   -0.51540  -0.46284  -0.45493  -0.44325  -0.43568
 Alpha  occ. eigenvalues --   -0.38907  -0.37589  -0.32759
 Alpha virt. eigenvalues --    0.02989   0.04855   0.05282   0.06120   0.06914
 Alpha virt. eigenvalues --    0.08087   0.08704   0.10277   0.10413   0.11511
 Alpha virt. eigenvalues --    0.12417   0.12824   0.12924   0.14117   0.14696

 Mulliken charges:
               1
     1  O   -3.199417
     2  O   -3.370368
     3  N   -3.365239
     4  N   -2.880928
     5  N   -2.594527
     6  C    1.325905
     7  C    6.638726
     8  C    0.301719
     9  C    2.431516
    10  H    1.068130
    11  H    0.803762
    12  H    0.556987
    13  H    0.565158
    14  H    1.718575
 Sum of Mulliken charges =  -0.00000

 Dipole moment (field-independent basis, Debye):
    X=             -3.3715    Y=             -2.8606    Z=              1.1570  Tot=              4.5705

 Test job not archived.
 1\1\GINC-SE208\SP\RHF\Aug-CC-pVDZ\C4H5N3O2\OHZDE\06-Apr-2025\0\\#t hf
 aug-cc-pvdz iop(5/13=1,5/36=2,99/5=2) pseudo=read geom=check guess=(re
 ad,tcheck) scf=(maxcycle=1)\\title\\0,1\O,0,-1.415386,1.15029,1.034869
 \O,0,-2.526884,-0.061738,-0.504591\N,0,-0.329637,-1.73426,-0.686231\N,
 0,2.142867,-1.152163,0.543205\N,0,1.836613,1.901711,-0.939641\C,0,-0.2
 59663,-0.639128,-0.066281\C,0,-1.442454,0.263798,0.22336\C,0,1.089974,
 -0.157905,0.501868\C,0,1.523271,1.007131,-0.290019\H,0,-3.243142,0.541
 726,-0.256306\H,0,-1.276668,-1.925711,-1.01076\H,0,2.219932,-1.620473,

 Normal termination of Gaussian 16 at Sun Apr  6 08:04:56 2025.
