 Gaussian 16, Revision C.01,

 ----------------------------------------------------------------------
 #t hf aug-cc-pvdz symm=none int=(grid=ultrafine) guess=(read,tcheck) s
 table=(opt,rrhf)
 ----------------------------------------------------------------------
 -----
 title
 -----
 Symbolic Z-matrix:
 Charge =  0 Multiplicity = 1

 SCF Done:  E(RHF) =  -265.060475679     A.U. after   14 cycles
 Normal termination of Gaussian 16 at Sun Apr  6 08:04:17 2025.
 Gaussian 16:  ES64L-G16RevC.01  3-Jul-2019

 ----------------------------------------------------------------------
 #t hf aug-cc-pvdz iop(5/13=1,5/36=2,99/5=2) pseudo=read geom=check gue
 ss=(read,tcheck) scf=(maxcycle=1)
 ----------------------------------------------------------------------
 -----
 title
 -----
 Structure from the checkpoint file:  "3-aminobutyronitrile.chk"
 Charge =  0 Multiplicity = 1

                         Standard orientation:
 ---------------------------------------------------------------------
 Center     Atomic      Atomic             Coordinates (Angstroms)
 Number     Number       Type             X           Y           Z
 ---------------------------------------------------------------------
      1          7           0        2.719618    0.153377   -0.188334
      2          6           0        1.682004   -0.289004    0.037142
      3          6           0        0.346430   -0.814715    0.299669
      4          6           0       -0.763293    0.051501   -0.329333
      5          6           0       -2.127718   -0.576818   -0.072382
      6          7           0       -0.717065    1.384780    0.269645
      7          1           0        0.293437   -1.831487   -0.093339
      8          1           0        0.196590   -0.861421    1.380188
      9          1           0       -0.587244    0.069181   -1.413475
     10          1           0       -2.916735    0.027258   -0.522652
     11          1           0       -2.188243   -1.576132   -0.504413
     12          1           0       -2.323569   -0.642517    0.998642
     13          1           0        0.153061    1.858327    0.055880
     14          1           0       -1.469698    1.963912   -0.080591
 ---------------------------------------------------------------------

 SCF Done:  E(RHF) =  -266.335280527     A.U. after    2 cycles

 The electronic state is 1-A.
 Alpha  occ. eigenvalues --  -15.75599 -15.74016 -11.47488 -11.44474 -11.42406
 Alpha  occ. eigenvalues --  -11.38222  -1.39220  -1.29951  -1.14933  -1.06031
 Alpha  occ. eigenvalues --   -0.86264  -0.71324  -0.68827  -0.67126  -0.59571
 Alpha  occ. eigenvalues --   -0.57282  -0.53379  -0.52128  -0.50450  -0.48063
 Alpha  occ. eigenvalues --   -0.43132  -0.42097  -0.36733
 Alpha virt. eigenvalues --    0.03334   0.05097   0.05233   0.05462   0.05813
 Alpha virt. eigenvalues --    0.06570   0.07260   0.08437   0.10113   0.11328
 Alpha virt. eigenvalues --    0.12271   0.13329   0.14223   0.14496   0.14791

 Mulliken charges:
               1
     1  N   -2.389592
     2  C    2.157966
     3  C   -2.786430
     4  C   -0.304577
     5  C   -3.572377
     6  N   -2.730931
     7  H    1.489828
     8  H    1.544470
     9  H    1.824123
    10  H    1.125508
    11  H    1.216736
    12  H    1.229646
    13  H    0.612372
    14  H    0.583256
 Sum of Mulliken charges =  -0.00000

 Dipole moment (field-independent basis, Debye):
    X=             -3.4811    Y=             -0.7298    Z=             -0.4411  Tot=              3.5840

 Test job not archived.
 1\1\GINC-SE209\SP\RHF\Aug-CC-pVDZ\C4H8N2\OHZDE\06-Apr-2025\0\\#t hf au
 g-cc-pvdz iop(5/13=1,5/36=2,99/5=2) pseudo=read geom=check guess=(read
 ,tcheck) scf=(maxcycle=1)\\title\\0,1\N,0,2.719618,0.153377,-0.188334\
 C,0,1.682004,-0.289004,0.037142\C,0,0.34643,-0.814715,0.299669\C,0,-0.
 763293,0.051501,-0.329333\C,0,-2.127718,-0.576818,-0.072382\N,0,-0.717
 065,1.38478,0.269645\H,0,0.293437,-1.831487,-0.093339\H,0,0.19659,-0.8
 61421,1.380188\H,0,-0.587244,0.069181,-1.413475\H,0,-2.916735,0.027258
 ,-0.522652\H,0,-2.188243,-1.576132,-0.504413\H,0,-2.323569,-0.642517,0

 Normal termination of Gaussian 16 at Sun Apr  6 08:04:53 2025.
