 Gaussian 16, Revision C.01,

 ----------------------------------------------------------------------
 #t hf aug-cc-pvdz symm=none int=(grid=ultrafine) guess=(read,tcheck) s
 table=(opt,rrhf)
 ----------------------------------------------------------------------
 -----
 title
 -----
 Symbolic Z-matrix:
 Charge =  0 Multiplicity = 1

 SCF Done:  E(RHF) =  -519.655797858     A.U. after   14 cycles
 Normal termination of Gaussian 16 at Sun Apr  6 08:04:18 2025.
 Gaussian 16:  ES64L-G16RevC.01  3-Jul-2019

 ----------------------------------------------------------------------
 #t hf aug-cc-pvdz iop(5/13=1,5/36=2,99/5=2) pseudo=read geom=check gue
 ss=(read,tcheck) scf=(maxcycle=1)
 ----------------------------------------------------------------------
 -----
 title
 -----
 Structure from the checkpoint file:  "3-amino-2-2-difluoropropanoic_acid.chk"
 Charge =  0 Multiplicity = 1

                         Standard orientation:
 ---------------------------------------------------------------------
 Center     Atomic      Atomic             Coordinates (Angstroms)
 Number     Number       Type             X           Y           Z
 ---------------------------------------------------------------------
      1          9           0        0.465018    1.425630    0.535618
      2          9           0        0.389467   -0.599318    1.371080
      3          8           0       -1.954835    0.979221   -0.552404
      4          8           0       -1.763085   -1.212817   -0.059693
      5          7           0        2.517481   -0.276918   -0.574374
      6          6           0        0.176013    0.131313    0.230920
      7          6           0       -1.311942    0.050048   -0.156467
      8          6           0        1.107414   -0.362137   -0.884322
      9          1           0       -2.687110   -1.216711   -0.352628
     10          1           0        2.799763    0.676454   -0.387399
     11          1           0        2.755145   -0.838551    0.232905
     12          1           0        0.841761   -1.396806   -1.101889
     13          1           0        0.892172    0.230650   -1.774659
 ---------------------------------------------------------------------

 SCF Done:  E(RHF) =  -521.720252505     A.U. after    2 cycles

 The electronic state is 1-A.
 Alpha  occ. eigenvalues --  -29.29652 -29.29467 -21.15153 -21.08720 -15.75168
 Alpha  occ. eigenvalues --  -11.58166 -11.54253 -11.43545  -1.85890  -1.68974
 Alpha  occ. eigenvalues --   -1.40773  -1.27523  -0.98955  -0.91171  -0.84201
 Alpha  occ. eigenvalues --   -0.70366  -0.70151  -0.67854  -0.62738  -0.58278
 Alpha  occ. eigenvalues --   -0.55616  -0.54597  -0.51150  -0.44680  -0.40125
 Alpha  occ. eigenvalues --   -0.39188  -0.36658  -0.35854  -0.31266  -0.29438
 Alpha  occ. eigenvalues --   -0.26438  -0.22277
 Alpha virt. eigenvalues --    0.03930   0.05265   0.05712   0.06029   0.07632
 Alpha virt. eigenvalues --    0.09932   0.10386   0.11276   0.11850   0.13488
 Alpha virt. eigenvalues --    0.14240   0.14978   0.15446   0.16799   0.17475

 Mulliken charges:
               1
     1  F    0.281785
     2  F    0.172249
     3  O   -3.078606
     4  O   -2.928330
     5  N   -2.132919
     6  C    0.882779
     7  C    4.723556
     8  C   -2.582221
     9  H    0.838517
    10  H    0.560657
    11  H    0.567378
    12  H    1.343743
    13  H    1.351411
 Sum of Mulliken charges =  -0.00000

 Dipole moment (field-independent basis, Debye):
    X=              0.5681    Y=             -0.2446    Z=              2.1414  Tot=              2.2289

 Test job not archived.
 1\1\GINC-SE046\SP\RHF\Aug-CC-pVDZ\C3H5F2N1O2\OHZDE\06-Apr-2025\0\\#t h
 f aug-cc-pvdz iop(5/13=1,5/36=2,99/5=2) pseudo=read geom=check guess=(
 read,tcheck) scf=(maxcycle=1)\\title\\0,1\F,0,0.465018,1.42563,0.53561
 8\F,0,0.389467,-0.599318,1.37108\O,0,-1.954835,0.979221,-0.552404\O,0,
 -1.763085,-1.212817,-0.059693\N,0,2.517481,-0.276918,-0.574374\C,0,0.1
 76013,0.131313,0.23092\C,0,-1.311942,0.050048,-0.156467\C,0,1.107414,-
 0.362137,-0.884322\H,0,-2.68711,-1.216711,-0.352628\H,0,2.799763,0.676
 454,-0.387399\H,0,2.755145,-0.838551,0.232905\H,0,0.841761,-1.396806,-

 Normal termination of Gaussian 16 at Sun Apr  6 08:04:54 2025.
