 Gaussian 16, Revision C.01,

 ----------------------------------------------------------------------
 #t hf aug-cc-pvdz symm=none int=(grid=ultrafine) guess=(read,tcheck) s
 table=(opt,rrhf)
 ----------------------------------------------------------------------
 -----
 title
 -----
 Symbolic Z-matrix:
 Charge =  0 Multiplicity = 1

 SCF Done:  E(RHF) =  -226.017144338     A.U. after   14 cycles
 Normal termination of Gaussian 16 at Sun Apr  6 08:03:59 2025.
 Gaussian 16:  ES64L-G16RevC.01  3-Jul-2019

 ----------------------------------------------------------------------
 #t hf aug-cc-pvdz iop(5/13=1,5/36=2,99/5=2) pseudo=read geom=check gue
 ss=(read,tcheck) scf=(maxcycle=1)
 ----------------------------------------------------------------------
 -----
 title
 -----
 Structure from the checkpoint file:  "3-aminopropionitrile.chk"
 Charge =  0 Multiplicity = 1

                         Standard orientation:
 ---------------------------------------------------------------------
 Center     Atomic      Atomic             Coordinates (Angstroms)
 Number     Number       Type             X           Y           Z
 ---------------------------------------------------------------------
      1          1           0        2.562959   -0.097562    0.819589
      2          1           0        2.562959   -0.097562   -0.819589
      3          7           0        2.216312   -0.578879    0.000000
      4          1           0        0.469894   -1.278430    0.874317
      5          1           0        0.469894   -1.278430   -0.874317
      6          6           0        0.770226   -0.700586    0.000000
      7          1           0        0.275992    1.231576    0.878759
      8          1           0        0.275992    1.231576   -0.878759
      9          6           0        0.000000    0.644465    0.000000
     10          7           0       -2.581961    0.274773    0.000000
     11          6           0       -1.446584    0.459050    0.000000
 ---------------------------------------------------------------------

 SCF Done:  E(RHF) =  -227.085378583     A.U. after    2 cycles

 The electronic state is 1-A'.
 Alpha  occ. eigenvalues --  -15.75807 -15.75133 -11.47063 -11.43593 -11.40842
 Alpha  occ. eigenvalues --   -1.37643  -1.30129  -1.13666  -0.92743  -0.70932
 Alpha  occ. eigenvalues --   -0.70893  -0.62414  -0.60423  -0.55481  -0.51941
 Alpha  occ. eigenvalues --   -0.51065  -0.44380  -0.43301  -0.35960
 Alpha virt. eigenvalues --    0.02920   0.04945   0.05132   0.05853   0.05985
 Alpha virt. eigenvalues --    0.07704   0.09673   0.10220   0.12106   0.12984
 Alpha virt. eigenvalues --    0.13485   0.14363   0.15197   0.16551   0.17886

 Mulliken charges:
               1
     1  H    0.571460
     2  H    0.571460
     3  N   -2.441633
     4  H    1.462226
     5  H    1.462226
     6  C   -1.586550
     7  H    1.483886
     8  H    1.483886
     9  C   -3.226411
    10  N   -2.471220
    11  C    2.690669
 Sum of Mulliken charges =  -0.00000

 Dipole moment (field-independent basis, Debye):
    X=              3.5463    Y=              1.0766    Z=              0.0000  Tot=              3.7061

 Test job not archived.
 1\1\GINC-SE011\SP\RHF\Aug-CC-pVDZ\C3H6N2\OHZDE\06-Apr-2025\0\\#t hf au
 g-cc-pvdz iop(5/13=1,5/36=2,99/5=2) pseudo=read geom=check guess=(read
 ,tcheck) scf=(maxcycle=1)\\title\\0,1\H,0,2.562959,-0.097562,0.819589\
 H,0,2.562959,-0.097562,-0.819589\N,0,2.216312,-0.578879,0.\H,0,0.46989
 4,-1.27843,0.874317\H,0,0.469894,-1.27843,-0.874317\C,0,0.770226,-0.70
 0586,0.\H,0,0.275992,1.231576,0.878759\H,0,0.275992,1.231576,-0.878759
 \C,0,0.,0.644465,0.\N,0,-2.581961,0.274773,0.\C,0,-1.446584,0.45905,0.
 \\Version=ES64L-G16RevC.01\State=1-A'\HF=-227.0853786\RMSD=2.683e-01\D

 Normal termination of Gaussian 16 at Sun Apr  6 08:04:02 2025.
