 Gaussian 16, Revision C.01,

 ----------------------------------------------------------------------
 #t hf aug-cc-pvdz symm=none int=(grid=ultrafine) guess=(read,tcheck) s
 table=(opt,rrhf)
 ----------------------------------------------------------------------
 -----
 title
 -----
 Symbolic Z-matrix:
 Charge =  0 Multiplicity = 1

 SCF Done:  E(RHF) =  -506.461745590     A.U. after   16 cycles
 Normal termination of Gaussian 16 at Sun Apr  6 08:05:14 2025.
 Gaussian 16:  ES64L-G16RevC.01  3-Jul-2019

 ----------------------------------------------------------------------
 #t hf aug-cc-pvdz iop(5/13=1,5/36=2,99/5=2) pseudo=read geom=check gue
 ss=(read,tcheck) scf=(maxcycle=1)
 ----------------------------------------------------------------------
 -----
 title
 -----
 Structure from the checkpoint file:  "3-azidotetrahydropyran-4-one.chk"
 Charge =  0 Multiplicity = 1

                         Standard orientation:
 ---------------------------------------------------------------------
 Center     Atomic      Atomic             Coordinates (Angstroms)
 Number     Number       Type             X           Y           Z
 ---------------------------------------------------------------------
      1          8           0       -2.132717   -1.095340    0.252518
      2          8           0        0.610471    1.752049   -0.467087
      3          7           0        1.491407   -0.901688   -0.337217
      4          7           0        2.510476   -0.318967    0.031214
      5          7           0        3.520422    0.108687    0.290218
      6          6           0        0.232239   -0.500781    0.281776
      7          6           0       -1.595681    1.278882    0.363472
      8          6           0       -0.861691   -1.447344   -0.252856
      9          6           0       -0.161431    0.954486    0.005105
     10          6           0       -2.543735    0.195754   -0.169896
     11          1           0        0.271704   -0.619788    1.372356
     12          1           0       -1.844528    2.263920   -0.029043
     13          1           0       -1.679931    1.309068    1.453493
     14          1           0       -0.657202   -2.466746    0.065853
     15          1           0       -0.850944   -1.418392   -1.349027
     16          1           0       -3.551721    0.340673    0.213185
     17          1           0       -2.583755    0.235389   -1.265368
 ---------------------------------------------------------------------

 SCF Done:  E(RHF) =  -508.732245190     A.U. after    2 cycles

 The electronic state is 1-A.
 Alpha  occ. eigenvalues --  -21.07043 -21.06764 -15.96644 -15.85302 -15.77123
 Alpha  occ. eigenvalues --  -11.52107 -11.50730 -11.46431 -11.43131 -11.40216
 Alpha  occ. eigenvalues --   -1.79116  -1.72373  -1.67631  -1.38935  -1.19402
 Alpha  occ. eigenvalues --   -1.15061  -0.95846  -0.91570  -0.80577  -0.75014
 Alpha  occ. eigenvalues --   -0.69835  -0.68685  -0.67070  -0.65138  -0.63826
 Alpha  occ. eigenvalues --   -0.61482  -0.60197  -0.57044  -0.53133  -0.50468
 Alpha  occ. eigenvalues --   -0.49744  -0.44127  -0.41251  -0.39010  -0.35611
 Alpha  occ. eigenvalues --   -0.31556  -0.29228
 Alpha virt. eigenvalues --    0.03612   0.04620   0.04786   0.05168   0.06195
 Alpha virt. eigenvalues --    0.06493   0.08473   0.09645   0.10076   0.10582
 Alpha virt. eigenvalues --    0.11768   0.12286   0.12332   0.13012   0.13571

 Mulliken charges:
               1
     1  O   -3.036935
     2  O   -3.663248
     3  N   -2.087828
     4  N    2.440891
     5  N   -1.849621
     6  C   -1.344039
     7  C   -3.546336
     8  C   -0.862921
     9  C    5.413078
    10  C   -1.541675
    11  H    1.704872
    12  H    1.368017
    13  H    1.386927
    14  H    1.273073
    15  H    1.536478
    16  H    1.221747
    17  H    1.587519
 Sum of Mulliken charges =  -0.00000

 Dipole moment (field-independent basis, Debye):
    X=             -2.5342    Y=             -0.2560    Z=              0.6324  Tot=              2.6244

 Test job not archived.
 1\1\GINC-SE084\SP\RHF\Aug-CC-pVDZ\C5H7N3O2\OHZDE\06-Apr-2025\0\\#t hf
 aug-cc-pvdz iop(5/13=1,5/36=2,99/5=2) pseudo=read geom=check guess=(re
 ad,tcheck) scf=(maxcycle=1)\\title\\0,1\O,0,-2.132717,-1.09534,0.25251
 8\O,0,0.610471,1.752049,-0.467087\N,0,1.491407,-0.901688,-0.337217\N,0
 ,2.510476,-0.318967,0.031214\N,0,3.520422,0.108687,0.290218\C,0,0.2322
 39,-0.500781,0.281776\C,0,-1.595681,1.278882,0.363472\C,0,-0.861691,-1
 .447344,-0.252856\C,0,-0.161431,0.954486,0.005105\C,0,-2.543735,0.1957
 54,-0.169896\H,0,0.271704,-0.619788,1.372356\H,0,-1.844528,2.26392,-0.

 Normal termination of Gaussian 16 at Sun Apr  6 08:05:23 2025.
