 Gaussian 16, Revision C.01,

 ----------------------------------------------------------------------
 #t hf aug-cc-pvdz symm=none int=(grid=ultrafine) guess=(read,tcheck) s
 table=(opt,rrhf)
 ----------------------------------------------------------------------
 -----
 title
 -----
 Symbolic Z-matrix:
 Charge =  0 Multiplicity = 1

 SCF Done:  E(RHF) =  -378.652866102     A.U. after   15 cycles
 Normal termination of Gaussian 16 at Sun Apr  6 08:04:06 2025.
 Gaussian 16:  ES64L-G16RevC.01  3-Jul-2019

 ----------------------------------------------------------------------
 #t hf aug-cc-pvdz iop(5/13=1,5/36=2,99/5=2) pseudo=read geom=check gue
 ss=(read,tcheck) scf=(maxcycle=1)
 ----------------------------------------------------------------------
 -----
 title
 -----
 Structure from the checkpoint file:  "3-azido-2-fluoro-1-propene.chk"
 Charge =  0 Multiplicity = 1

                         Standard orientation:
 ---------------------------------------------------------------------
 Center     Atomic      Atomic             Coordinates (Angstroms)
 Number     Number       Type             X           Y           Z
 ---------------------------------------------------------------------
      1          9           0       -1.641036   -0.642024   -0.961587
      2          7           0        1.087050   -0.943365    0.151427
      3          7           0        1.749753    0.051367   -0.134059
      4          7           0        2.441943    0.885774   -0.448358
      5          6           0       -0.170884   -0.683104    0.894190
      6          6           0       -1.185976    0.068769    0.096722
      7          6           0       -1.642697    1.288657    0.320483
      8          1           0       -0.554963   -1.669771    1.144246
      9          1           0        0.032320   -0.144959    1.821789
     10          1           0       -2.385849    1.733728   -0.323978
     11          1           0       -1.276059    1.856850    1.160784
 ---------------------------------------------------------------------

 SCF Done:  E(RHF) =  -380.284839437     A.U. after    2 cycles

 The electronic state is 1-A.
 Alpha  occ. eigenvalues --  -29.28612 -15.96879 -15.85657 -15.77632 -11.50585
 Alpha  occ. eigenvalues --  -11.44780 -11.40210  -1.68496  -1.39858  -1.25911
 Alpha  occ. eigenvalues --   -1.05366  -0.91775  -0.77041  -0.70729  -0.69608
 Alpha  occ. eigenvalues --   -0.67731  -0.63289  -0.62600  -0.57584  -0.55343
 Alpha  occ. eigenvalues --   -0.47695  -0.40819  -0.39521  -0.34914  -0.27647
 Alpha  occ. eigenvalues --   -0.25339
 Alpha virt. eigenvalues --    0.03645   0.05363   0.05799   0.06190   0.09527
 Alpha virt. eigenvalues --    0.10061   0.10745   0.11631   0.12444   0.13027
 Alpha virt. eigenvalues --    0.14267   0.14519   0.15521   0.15880   0.16500

 Mulliken charges:
               1
     1  F    0.610286
     2  N   -1.520650
     3  N    2.565457
     4  N   -1.657770
     5  C   -3.158442
     6  C    1.028297
     7  C   -3.616806
     8  H    1.462929
     9  H    1.390327
    10  H    1.523067
    11  H    1.373307
 Sum of Mulliken charges =  -0.00000

 Dipole moment (field-independent basis, Debye):
    X=             -1.7822    Y=             -1.3659    Z=             -0.4932  Tot=              2.2989

 Test job not archived.
 1\1\GINC-SE012\SP\RHF\Aug-CC-pVDZ\C3H4F1N3\OHZDE\06-Apr-2025\0\\#t hf
 aug-cc-pvdz iop(5/13=1,5/36=2,99/5=2) pseudo=read geom=check guess=(re
 ad,tcheck) scf=(maxcycle=1)\\title\\0,1\F,0,-1.641036,-0.642024,-0.961
 587\N,0,1.08705,-0.943365,0.151427\N,0,1.749753,0.051367,-0.134059\N,0
 ,2.441943,0.885774,-0.448358\C,0,-0.170884,-0.683104,0.89419\C,0,-1.18
 5976,0.068769,0.096722\C,0,-1.642697,1.288657,0.320483\H,0,-0.554963,-
 1.669771,1.144246\H,0,0.03232,-0.144959,1.821789\H,0,-2.385849,1.73372
 8,-0.323978\H,0,-1.276059,1.85685,1.160784\\Version=ES64L-G16RevC.01\S

 Normal termination of Gaussian 16 at Sun Apr  6 08:04:11 2025.
