 Gaussian 16, Revision C.01,

 ----------------------------------------------------------------------
 #t hf aug-cc-pvdz symm=none int=(grid=ultrafine) guess=(read,tcheck) s
 table=(opt,rrhf)
 ----------------------------------------------------------------------
 -----
 title
 -----
 Symbolic Z-matrix:
 Charge =  0 Multiplicity = 1

 SCF Done:  E(RHF) =  -278.571326885     A.U. after   16 cycles
 Normal termination of Gaussian 16 at Sun Apr  6 08:03:55 2025.
 Gaussian 16:  ES64L-G16RevC.01  3-Jul-2019

 ----------------------------------------------------------------------
 #t hf aug-cc-pvdz iop(5/13=1,5/36=2,99/5=2) pseudo=read geom=check gue
 ss=(read,tcheck) scf=(maxcycle=1)
 ----------------------------------------------------------------------
 -----
 title
 -----
 Structure from the checkpoint file:  "3-azidoprop-1-yne.chk"
 Charge =  0 Multiplicity = 1

                         Standard orientation:
 ---------------------------------------------------------------------
 Center     Atomic      Atomic             Coordinates (Angstroms)
 Number     Number       Type             X           Y           Z
 ---------------------------------------------------------------------
      1          7           0       -0.530767   -0.509584   -0.000040
      2          7           0       -1.711032   -0.172686    0.000014
      3          7           0       -2.824957    0.016559    0.000057
      4          6           0        0.434644    0.619527    0.000002
      5          6           0        1.797538    0.114494   -0.000012
      6          6           0        2.931476   -0.269581   -0.000026
      7          1           0        0.275495    1.245353    0.883766
      8          1           0        0.275500    1.245412   -0.883722
      9          1           0        3.934346   -0.617438   -0.000035
 ---------------------------------------------------------------------

 SCF Done:  E(RHF) =  -279.853481097     A.U. after    2 cycles

 The electronic state is 1-A.
 Alpha  occ. eigenvalues --  -15.97111 -15.85765 -15.78004 -11.49176 -11.42087
 Alpha  occ. eigenvalues --  -11.40934  -1.68677  -1.39258  -1.16850  -1.02484
 Alpha  occ. eigenvalues --   -0.76837  -0.75374  -0.70190  -0.68386  -0.64675
 Alpha  occ. eigenvalues --   -0.61745  -0.59040  -0.42528  -0.38783  -0.38111
 Alpha  occ. eigenvalues --   -0.34866
 Alpha virt. eigenvalues --    0.03114   0.04923   0.06228   0.08641   0.09453
 Alpha virt. eigenvalues --    0.11222   0.11813   0.11866   0.12239   0.13366
 Alpha virt. eigenvalues --    0.13872   0.14995   0.15100   0.16013   0.17906

 Mulliken charges:
               1
     1  N   -1.568513
     2  N    2.452549
     3  N   -1.499928
     4  C   -3.186892
     5  C    4.623423
     6  C   -4.131211
     7  H    1.275722
     8  H    1.275712
     9  H    0.759137
 Sum of Mulliken charges =   0.00000

 Dipole moment (field-independent basis, Debye):
    X=              1.1289    Y=              1.0458    Z=              0.0000  Tot=              1.5389

 Test job not archived.
 1\1\GINC-SE014\SP\RHF\Aug-CC-pVDZ\C3H3N3\OHZDE\06-Apr-2025\0\\#t hf au
 g-cc-pvdz iop(5/13=1,5/36=2,99/5=2) pseudo=read geom=check guess=(read
 ,tcheck) scf=(maxcycle=1)\\title\\0,1\N,0,-0.530767,-0.509584,-0.00004
 \N,0,-1.711032,-0.172686,0.000014\N,0,-2.824957,0.016559,0.000057\C,0,
 0.434644,0.619527,0.000002\C,0,1.797538,0.114494,-0.000012\C,0,2.93147
 6,-0.269581,-0.000026\H,0,0.275495,1.245353,0.883766\H,0,0.2755,1.2454
 12,-0.883722\H,0,3.934346,-0.617438,-0.000035\\Version=ES64L-G16RevC.0
 1\State=1-A\HF=-279.8534811\RMSD=8.961e-01\Dipole=0.4441601,0.4114494,

 Normal termination of Gaussian 16 at Sun Apr  6 08:03:58 2025.
