 Gaussian 16, Revision C.01,

 ----------------------------------------------------------------------
 #t hf aug-cc-pvdz symm=none int=(grid=ultrafine) guess=(read,tcheck) s
 table=(opt,rrhf)
 ----------------------------------------------------------------------
 -----
 title
 -----
 Symbolic Z-matrix:
 Charge =  0 Multiplicity = 1

 SCF Done:  E(RHF) =  -429.551014518     A.U. after   16 cycles
 Normal termination of Gaussian 16 at Sun Apr  6 08:04:28 2025.
 Gaussian 16:  ES64L-G16RevC.01  3-Jul-2019

 ----------------------------------------------------------------------
 #t hf aug-cc-pvdz iop(5/13=1,5/36=2,99/5=2) pseudo=read geom=check gue
 ss=(read,tcheck) scf=(maxcycle=1)
 ----------------------------------------------------------------------
 -----
 title
 -----
 Structure from the checkpoint file:  "3-azido-2-hydroxypropanal.chk"
 Charge =  0 Multiplicity = 1

                         Standard orientation:
 ---------------------------------------------------------------------
 Center     Atomic      Atomic             Coordinates (Angstroms)
 Number     Number       Type             X           Y           Z
 ---------------------------------------------------------------------
      1          8           0       -0.600225   -0.593424    1.360417
      2          8           0       -2.161412   -0.986180   -0.769034
      3          7           0        1.130210    0.592913   -0.768875
      4          7           0        1.938772   -0.211377   -0.307642
      5          7           0        2.733579   -0.958359   -0.022308
      6          6           0       -0.951945    0.534649    0.607097
      7          6           0        0.297309    1.321982    0.196777
      8          6           0       -1.791724    0.146454   -0.592557
      9          1           0       -1.576131    1.219785    1.205469
     10          1           0        0.000108    2.247521   -0.295100
     11          1           0        0.858777    1.579106    1.096908
     12          1           0       -2.066282    0.961562   -1.285775
     13          1           0       -1.063155   -1.351900    0.971304
 ---------------------------------------------------------------------

 SCF Done:  E(RHF) =  -431.440606485     A.U. after    2 cycles

 The electronic state is 1-A.
 Alpha  occ. eigenvalues --  -21.08908 -21.08387 -15.96766 -15.85446 -15.77443
 Alpha  occ. eigenvalues --  -11.51397 -11.49214 -11.42917  -1.77420  -1.70519
 Alpha  occ. eigenvalues --   -1.67990  -1.38629  -1.15688  -0.99043  -0.83673
 Alpha  occ. eigenvalues --   -0.75743  -0.71276  -0.69344  -0.68517  -0.64003
 Alpha  occ. eigenvalues --   -0.63277  -0.59990  -0.55277  -0.50942  -0.46008
 Alpha  occ. eigenvalues --   -0.43452  -0.40813  -0.36496  -0.33353  -0.32170
 Alpha virt. eigenvalues --    0.03455   0.05007   0.05096   0.05772   0.07320
 Alpha virt. eigenvalues --    0.09435   0.09590   0.10569   0.11086   0.12504
 Alpha virt. eigenvalues --    0.13140   0.13417   0.14181   0.14677   0.15163

 Mulliken charges:
               1
     1  O   -3.145155
     2  O   -2.706274
     3  N   -1.701638
     4  N    2.405119
     5  N   -1.686455
     6  C    0.724076
     7  C   -2.074970
     8  C    1.490140
     9  H    1.518702
    10  H    1.486085
    11  H    1.438657
    12  H    1.480554
    13  H    0.771157
 Sum of Mulliken charges =  -0.00000

 Dipole moment (field-independent basis, Debye):
    X=             -1.0187    Y=              1.6857    Z=              0.6008  Tot=              2.0592

 Test job not archived.
 1\1\GINC-SE013\SP\RHF\Aug-CC-pVDZ\C3H5N3O2\OHZDE\06-Apr-2025\0\\#t hf
 aug-cc-pvdz iop(5/13=1,5/36=2,99/5=2) pseudo=read geom=check guess=(re
 ad,tcheck) scf=(maxcycle=1)\\title\\0,1\O,0,-0.600225,-0.593424,1.3604
 17\O,0,-2.161412,-0.98618,-0.769034\N,0,1.13021,0.592913,-0.768875\N,0
 ,1.938772,-0.211377,-0.307642\N,0,2.733579,-0.958359,-0.022308\C,0,-0.
 951945,0.534649,0.607097\C,0,0.297309,1.321982,0.196777\C,0,-1.791724,
 0.146454,-0.592557\H,0,-1.576131,1.219785,1.205469\H,0,0.000108,2.2475
 21,-0.2951\H,0,0.858777,1.579106,1.096908\H,0,-2.066282,0.961562,-1.28

 Normal termination of Gaussian 16 at Sun Apr  6 08:04:54 2025.
