 Gaussian 16, Revision C.01,

 ----------------------------------------------------------------------
 #t hf aug-cc-pvdz symm=none int=(grid=ultrafine) guess=(read,tcheck) s
 table=(opt,rrhf)
 ----------------------------------------------------------------------
 -----
 title
 -----
 Symbolic Z-matrix:
 Charge =  0 Multiplicity = 1

 SCF Done:  E(RHF) =  -229.825240753     A.U. after   14 cycles
 Normal termination of Gaussian 16 at Sun Apr  6 08:03:59 2025.
 Gaussian 16:  ES64L-G16RevC.01  3-Jul-2019

 ----------------------------------------------------------------------
 #t hf aug-cc-pvdz iop(5/13=1,5/36=2,99/5=2) pseudo=read geom=check gue
 ss=(read,tcheck) scf=(maxcycle=1)
 ----------------------------------------------------------------------
 -----
 title
 -----
 Structure from the checkpoint file:  "3-butenal.chk"
 Charge =  0 Multiplicity = 1

                         Standard orientation:
 ---------------------------------------------------------------------
 Center     Atomic      Atomic             Coordinates (Angstroms)
 Number     Number       Type             X           Y           Z
 ---------------------------------------------------------------------
      1          6           0       -2.171508   -0.232104   -0.260028
      2          1           0       -2.449028    0.531540   -0.977091
      3          1           0       -2.897472   -1.011714   -0.074136
      4          6           0       -0.999134   -0.216949    0.359116
      5          1           0       -0.751263   -1.006444    1.058838
      6          6           0        0.047693    0.833307    0.160729
      7          1           0       -0.219239    1.524237   -0.645289
      8          1           0        0.146644    1.464630    1.055798
      9          6           0        1.439026    0.311691   -0.117058
     10          1           0        2.190418    1.104526   -0.313882
     11          8           0        1.760435   -0.847806   -0.120099
 ---------------------------------------------------------------------

 SCF Done:  E(RHF) =  -230.881218334     A.U. after    2 cycles

 The electronic state is 1-A.
 Alpha  occ. eigenvalues --  -21.06649 -11.48998 -11.43135 -11.40494 -11.37542
 Alpha  occ. eigenvalues --   -1.71346  -1.22734  -1.05208  -0.85190  -0.77514
 Alpha  occ. eigenvalues --   -0.66423  -0.64133  -0.59721  -0.53583  -0.51285
 Alpha  occ. eigenvalues --   -0.47477  -0.43085  -0.35742  -0.29710
 Alpha virt. eigenvalues --    0.03481   0.05023   0.05531   0.05853   0.06388
 Alpha virt. eigenvalues --    0.07228   0.10151   0.11076   0.12058   0.12333
 Alpha virt. eigenvalues --    0.12946   0.14338   0.14527   0.15226   0.16285

 Mulliken charges:
               1
     1  C   -2.995962
     2  H    1.413872
     3  H    1.342089
     4  C   -0.156723
     5  H    1.411725
     6  C   -3.893268
     7  H    1.474136
     8  H    1.396582
     9  C    1.294742
    10  H    1.414024
    11  O   -2.701217
 Sum of Mulliken charges =   0.00000

 Dipole moment (field-independent basis, Debye):
    X=             -0.5383    Y=              1.0708    Z=              0.1410  Tot=              1.2068

 Test job not archived.
 1\1\GINC-SE086\SP\RHF\Aug-CC-pVDZ\C4H6O1\OHZDE\06-Apr-2025\0\\#t hf au
 g-cc-pvdz iop(5/13=1,5/36=2,99/5=2) pseudo=read geom=check guess=(read
 ,tcheck) scf=(maxcycle=1)\\title\\0,1\C,0,-2.171508,-0.232104,-0.26002
 8\H,0,-2.449028,0.53154,-0.977091\H,0,-2.897472,-1.011714,-0.074136\C,
 0,-0.999134,-0.216949,0.359116\H,0,-0.751263,-1.006444,1.058838\C,0,0.
 047693,0.833307,0.160729\H,0,-0.219239,1.524237,-0.645289\H,0,0.146644
 ,1.46463,1.055798\C,0,1.439026,0.311691,-0.117058\H,0,2.190418,1.10452
 6,-0.313882\O,0,1.760435,-0.847806,-0.120099\\Version=ES64L-G16RevC.01

 Normal termination of Gaussian 16 at Sun Apr  6 08:04:02 2025.
