 Gaussian 16, Revision C.01,

 ----------------------------------------------------------------------
 #t hf aug-cc-pvdz symm=none int=(grid=ultrafine) guess=(read,tcheck) s
 table=(opt,rrhf)
 ----------------------------------------------------------------------
 -----
 title
 -----
 Symbolic Z-matrix:
 Charge =  0 Multiplicity = 1

 SCF Done:  E(RHF) =  -1160.01208068     A.U. after   14 cycles
 Normal termination of Gaussian 16 at Sun Apr  6 08:04:12 2025.
 Gaussian 16:  ES64L-G16RevC.01  3-Jul-2019

 ----------------------------------------------------------------------
 #t hf aug-cc-pvdz iop(5/13=1,5/36=2,99/5=2) pseudo=read geom=check gue
 ss=(read,tcheck) scf=(maxcycle=1)
 ----------------------------------------------------------------------
 -----
 title
 -----
 Structure from the checkpoint file:  "3-chloro-4-sulfanyl-25H-furanone.chk"
 Charge =  0 Multiplicity = 1

                         Standard orientation:
 ---------------------------------------------------------------------
 Center     Atomic      Atomic             Coordinates (Angstroms)
 Number     Number       Type             X           Y           Z
 ---------------------------------------------------------------------
      1         17           0       -0.294091    2.071082   -0.000003
      2         16           0        2.440221   -0.174158    0.000001
      3          8           0       -1.231701   -1.742984    0.000002
      4          8           0       -2.709242   -0.031226   -0.000000
      5          6           0       -0.315568    0.356447   -0.000000
      6          6           0        0.729367   -0.479618    0.000001
      7          6           0       -1.577506   -0.412007   -0.000000
      8          6           0        0.190783   -1.883495    0.000003
      9          1           0        2.338062    1.169453   -0.000000
     10          1           0        0.491516   -2.442798    0.888008
     11          1           0        0.491516   -2.442801   -0.888000
 ---------------------------------------------------------------------

 SCF Done:  E(RHF) =  -1161.77762110     A.U. after    2 cycles

 The electronic state is 1-A.
 Alpha  occ. eigenvalues --  -99.92498 -75.74807 -21.10892 -21.06174 -13.24484
 Alpha  occ. eigenvalues --  -13.18638 -13.06582 -11.54521 -11.51263 -11.48484
 Alpha  occ. eigenvalues --  -11.44862 -10.49900  -9.70004  -9.69026  -9.68799
 Alpha  occ. eigenvalues --   -8.08894  -1.86618  -1.68433  -1.39723  -1.26982
 Alpha  occ. eigenvalues --   -1.12515  -1.06092  -0.84665  -0.80124  -0.69796
 Alpha  occ. eigenvalues --   -0.68686  -0.63831  -0.59783  -0.56987  -0.53395
 Alpha  occ. eigenvalues --   -0.53319  -0.51087  -0.46415  -0.44029  -0.43798
 Alpha  occ. eigenvalues --   -0.33092  -0.30863  -0.27760
 Alpha virt. eigenvalues --    0.01987   0.03850   0.05389   0.06022   0.07357
 Alpha virt. eigenvalues --    0.08316   0.08412   0.09334   0.11041   0.11585
 Alpha virt. eigenvalues --    0.12222   0.12493   0.13439   0.13928   0.14527

 Mulliken charges:
               1
     1  Cl  -0.417249
     2  S    0.217094
     3  O   -3.022423
     4  O   -3.180212
     5  C   -2.362278
     6  C    3.197606
     7  C    3.922160
     8  C   -1.957707
     9  H    1.106097
    10  H    1.248457
    11  H    1.248457
 Sum of Mulliken charges =   0.00000

 Dipole moment (field-independent basis, Debye):
    X=              4.9704    Y=             -3.0013    Z=              0.0000  Tot=              5.8062

 Test job not archived.
 1\1\GINC-SE169\SP\RHF\Aug-CC-pVDZ\C4H3Cl1O2S1\OHZDE\06-Apr-2025\0\\#t
 hf aug-cc-pvdz iop(5/13=1,5/36=2,99/5=2) pseudo=read geom=check guess=
 (read,tcheck) scf=(maxcycle=1)\\title\\0,1\Cl,0,-0.29409,2.071082,-0.0
 00003\S,0,2.440221,-0.174159,0.000001\O,0,-1.231702,-1.742984,0.000002
 \O,0,-2.709242,-0.031225,0.\C,0,-0.315568,0.356447,0.\C,0,0.729367,-0.
 479618,0.000001\C,0,-1.577506,-0.412007,0.\C,0,0.190782,-1.883495,0.00
 0003\H,0,2.338062,1.169452,0.\H,0,0.491515,-2.442798,0.888008\H,0,0.49
 1515,-2.442801,-0.888\\Version=ES64L-G16RevC.01\State=1-A\HF=-1161.777

 Normal termination of Gaussian 16 at Sun Apr  6 08:04:18 2025.
