 Gaussian 16, Revision C.01,

 ----------------------------------------------------------------------
 #t hf aug-cc-pvdz symm=none int=(grid=ultrafine) guess=(read,tcheck) s
 table=(opt,rrhf)
 ----------------------------------------------------------------------
 -----
 title
 -----
 Symbolic Z-matrix:
 Charge =  0 Multiplicity = 1

 SCF Done:  E(RHF) =  -744.916160163     A.U. after   14 cycles
 Normal termination of Gaussian 16 at Sun Apr  6 08:04:32 2025.
 Gaussian 16:  ES64L-G16RevC.01  3-Jul-2019

 ----------------------------------------------------------------------
 #t hf aug-cc-pvdz iop(5/13=1,5/36=2,99/5=2) pseudo=read geom=check gue
 ss=(read,tcheck) scf=(maxcycle=1)
 ----------------------------------------------------------------------
 -----
 title
 -----
 Structure from the checkpoint file:  "3-chloro-1-3-oxazinane.chk"
 Charge =  0 Multiplicity = 1

                         Standard orientation:
 ---------------------------------------------------------------------
 Center     Atomic      Atomic             Coordinates (Angstroms)
 Number     Number       Type             X           Y           Z
 ---------------------------------------------------------------------
      1         17           0        2.255385    0.055886   -0.086072
      2          8           0       -1.387172   -1.150321    0.406249
      3          7           0        0.508488    0.064813   -0.326125
      4          6           0       -1.587319    1.218175   -0.062742
      5          6           0       -0.127098    1.153328    0.423310
      6          6           0       -2.077147   -0.196737   -0.403529
      7          6           0       -0.016309   -1.252187    0.102890
      8          1           0       -1.663879    1.854374   -0.945176
      9          1           0       -2.199448    1.662233    0.722962
     10          1           0        0.401358    2.076079    0.198723
     11          1           0       -0.078803    0.986178    1.505841
     12          1           0       -1.918611   -0.422066   -1.462420
     13          1           0       -3.133523   -0.327195   -0.179940
     14          1           0        0.473099   -1.609500    1.013006
     15          1           0        0.163451   -1.956766   -0.716465
 ---------------------------------------------------------------------

 SCF Done:  E(RHF) =  -746.497841683     A.U. after    2 cycles

 The electronic state is 1-A.
 Alpha  occ. eigenvalues --  -99.90180 -21.05451 -15.76755 -11.48960 -11.43615
 Alpha  occ. eigenvalues --  -11.42869 -11.37432 -10.47342  -9.67327  -9.66488
 Alpha  occ. eigenvalues --   -9.66297  -1.77976  -1.46076  -1.23521  -1.16002
 Alpha  occ. eigenvalues --   -0.97805  -0.94586  -0.79456  -0.71435  -0.70875
 Alpha  occ. eigenvalues --   -0.65903  -0.60195  -0.58269  -0.57130  -0.54928
 Alpha  occ. eigenvalues --   -0.52071  -0.50390  -0.48562  -0.44914  -0.40175
 Alpha  occ. eigenvalues --   -0.34969  -0.30700
 Alpha virt. eigenvalues --    0.03796   0.05403   0.05533   0.05697   0.05825
 Alpha virt. eigenvalues --    0.06174   0.06605   0.06958   0.08850   0.09774
 Alpha virt. eigenvalues --    0.10739   0.13165   0.13238   0.14094   0.14834

 Mulliken charges:
               1
     1  Cl   0.303911
     2  O   -2.952193
     3  N   -1.645566
     4  C   -2.563649
     5  C   -2.212470
     6  C   -1.566350
     7  C   -0.853737
     8  H    1.355986
     9  H    1.344076
    10  H    1.373968
    11  H    1.444545
    12  H    1.578298
    13  H    1.253953
    14  H    1.586991
    15  H    1.552238
 Sum of Mulliken charges =   0.00000

 Dipole moment (field-independent basis, Debye):
    X=             -2.5979    Y=              0.4458    Z=              0.2559  Tot=              2.6482

 Test job not archived.
 1\1\GINC-SE085\SP\RHF\Aug-CC-pVDZ\C4H8Cl1N1O1\OHZDE\06-Apr-2025\0\\#t
 hf aug-cc-pvdz iop(5/13=1,5/36=2,99/5=2) pseudo=read geom=check guess=
 (read,tcheck) scf=(maxcycle=1)\\title\\0,1\Cl,0,2.255385,0.055886,-0.0
 86072\O,0,-1.387172,-1.150321,0.406249\N,0,0.508488,0.064813,-0.326125
 \C,0,-1.587319,1.218175,-0.062742\C,0,-0.127098,1.153328,0.42331\C,0,-
 2.077147,-0.196737,-0.403529\C,0,-0.016309,-1.252187,0.10289\H,0,-1.66
 3879,1.854374,-0.945176\H,0,-2.199448,1.662233,0.722962\H,0,0.401358,2
 .076079,0.198723\H,0,-0.078803,0.986178,1.505841\H,0,-1.918611,-0.4220

 Normal termination of Gaussian 16 at Sun Apr  6 08:04:55 2025.
