 Gaussian 16, Revision C.01,

 ----------------------------------------------------------------------
 #t hf aug-cc-pvdz symm=none int=(grid=ultrafine) guess=(read,tcheck) s
 table=(opt,rrhf)
 ----------------------------------------------------------------------
 -----
 title
 -----
 Symbolic Z-matrix:
 Charge =  0 Multiplicity = 1

 SCF Done:  E(RHF) =  -764.524094832     A.U. after   15 cycles
 Normal termination of Gaussian 16 at Sun Apr  6 08:04:30 2025.
 Gaussian 16:  ES64L-G16RevC.01  3-Jul-2019

 ----------------------------------------------------------------------
 #t hf aug-cc-pvdz iop(5/13=1,5/36=2,99/5=2) pseudo=read geom=check gue
 ss=(read,tcheck) scf=(maxcycle=1)
 ----------------------------------------------------------------------
 -----
 title
 -----
 Structure from the checkpoint file:  "3-chlorophenol.chk"
 Charge =  0 Multiplicity = 1

                         Standard orientation:
 ---------------------------------------------------------------------
 Center     Atomic      Atomic             Coordinates (Angstroms)
 Number     Number       Type             X           Y           Z
 ---------------------------------------------------------------------
      1          6           0        1.869828   -0.647799   -0.000000
      2          6           0        1.019117   -1.742447   -0.000000
      3          6           0        1.374486    0.652998    0.000000
      4          6           0       -0.877502   -0.243979    0.000000
      5          6           0       -0.358346   -1.536330   -0.000000
      6          6           0       -0.000000    0.831402    0.000000
      7          8           0       -1.160637   -2.640733   -0.000000
      8         17           0       -0.660272    2.455830    0.000000
      9          1           0        2.939624   -0.806173   -0.000000
     10          1           0        1.400483   -2.753177   -0.000000
     11          1           0        2.036335    1.505248    0.000000
     12          1           0       -1.945745   -0.074236    0.000000
     13          1           0       -2.086473   -2.377981   -0.000000
 ---------------------------------------------------------------------

 SCF Done:  E(RHF) =  -766.169218976     A.U. after    2 cycles

 The electronic state is 1-A'.
 Alpha  occ. eigenvalues --  -99.89769 -21.11480 -11.53219 -11.47910 -11.45503
 Alpha  occ. eigenvalues --  -11.42796 -11.42028 -11.38433 -10.47126  -9.67156
 Alpha  occ. eigenvalues --   -9.66258  -9.66083  -1.76967  -1.39621  -1.27243
 Alpha  occ. eigenvalues --   -1.10334  -1.07955  -0.89340  -0.86166  -0.72852
 Alpha  occ. eigenvalues --   -0.68928  -0.65088  -0.60510  -0.59329  -0.58383
 Alpha  occ. eigenvalues --   -0.52962  -0.52952  -0.50293  -0.46836  -0.43476
 Alpha  occ. eigenvalues --   -0.43391  -0.34630  -0.28505
 Alpha virt. eigenvalues --    0.03073   0.05254   0.05338   0.05797   0.06730
 Alpha virt. eigenvalues --    0.08098   0.09342   0.10333   0.11747   0.11785
 Alpha virt. eigenvalues --    0.12597   0.13353   0.13428   0.14068   0.14475

 Mulliken charges:
               1
     1  C    0.741601
     2  C   -3.729840
     3  C   -2.027377
     4  C   -2.873560
     5  C    6.189989
     6  C   -0.715816
     7  O   -4.384092
     8  Cl  -0.816021
     9  H    1.461588
    10  H    1.703203
    11  H    1.673273
    12  H    1.729394
    13  H    1.047657
 Sum of Mulliken charges =  -0.00000

 Dipole moment (field-independent basis, Debye):
    X=              0.1874    Y=             -2.2160    Z=             -0.0000  Tot=              2.2239

 Test job not archived.
 1\1\GINC-SE168\SP\RHF\Aug-CC-pVDZ\C6H5Cl1O1\OHZDE\06-Apr-2025\0\\#t hf
  aug-cc-pvdz iop(5/13=1,5/36=2,99/5=2) pseudo=read geom=check guess=(r
 ead,tcheck) scf=(maxcycle=1)\\title\\0,1\C,0,1.869828,-0.647799,0.\C,0
 ,1.019117,-1.742447,0.\C,0,1.374486,0.652998,0.\C,0,-0.877502,-0.24397
 9,0.\C,0,-0.358346,-1.53633,0.\C,0,0.,0.831402,0.\O,0,-1.160637,-2.640
 733,0.\Cl,0,-0.660272,2.45583,0.\H,0,2.939624,-0.806173,0.\H,0,1.40048
 3,-2.753177,0.\H,0,2.036335,1.505248,0.\H,0,-1.945745,-0.074236,0.\H,0
 ,-2.086473,-2.377981,0.\\Version=ES64L-G16RevC.01\State=1-A'\HF=-766.1

 Normal termination of Gaussian 16 at Sun Apr  6 08:04:55 2025.
