 Gaussian 16, Revision C.01,

 ----------------------------------------------------------------------
 #t hf aug-cc-pvdz symm=none int=(grid=ultrafine) guess=(read,tcheck) s
 table=(opt,rrhf)
 ----------------------------------------------------------------------
 -----
 title
 -----
 Symbolic Z-matrix:
 Charge =  0 Multiplicity = 1

 SCF Done:  E(RHF) =  -744.693952068     A.U. after   15 cycles
 Normal termination of Gaussian 16 at Sun Apr  6 08:04:28 2025.
 Gaussian 16:  ES64L-G16RevC.01  3-Jul-2019

 ----------------------------------------------------------------------
 #t hf aug-cc-pvdz iop(5/13=1,5/36=2,99/5=2) pseudo=read geom=check gue
 ss=(read,tcheck) scf=(maxcycle=1)
 ----------------------------------------------------------------------
 -----
 title
 -----
 Structure from the checkpoint file:  "3-chloroaniline.chk"
 Charge =  0 Multiplicity = 1

                         Standard orientation:
 ---------------------------------------------------------------------
 Center     Atomic      Atomic             Coordinates (Angstroms)
 Number     Number       Type             X           Y           Z
 ---------------------------------------------------------------------
      1          6           0       -0.725688    1.839957    0.003904
      2          6           0       -1.772672    0.931790   -0.002269
      3          6           0        0.599144    1.416167    0.004591
      4          6           0       -0.184148   -0.880797   -0.007062
      5          6           0       -1.513782   -0.444159   -0.007235
      6          6           0        0.841141    0.050127   -0.000913
      7          7           0       -2.554624   -1.364322   -0.068662
      8         17           0        2.499376   -0.526961    0.002399
      9          1           0       -0.942366    2.899755    0.008952
     10          1           0       -2.796213    1.283658   -0.007912
     11          1           0        1.416937    2.119885    0.009926
     12          1           0        0.045646   -1.937052   -0.016153
     13          1           0       -3.451270   -1.039482    0.252768
     14          1           0       -2.343722   -2.296693    0.246175
 ---------------------------------------------------------------------

 SCF Done:  E(RHF) =  -746.301834735     A.U. after    2 cycles

 The electronic state is 1-A.
 Alpha  occ. eigenvalues --  -99.88997 -15.76757 -11.52094 -11.46881 -11.44805
 Alpha  occ. eigenvalues --  -11.41931 -11.41451 -11.37415 -10.46354  -9.66380
 Alpha  occ. eigenvalues --   -9.65496  -9.65314  -1.43615  -1.34562  -1.24110
 Alpha  occ. eigenvalues --   -1.09117  -1.06163  -0.88107  -0.85985  -0.72107
 Alpha  occ. eigenvalues --   -0.68816  -0.67778  -0.59822  -0.59586  -0.58275
 Alpha  occ. eigenvalues --   -0.57325  -0.52095  -0.49629  -0.47442  -0.45865
 Alpha  occ. eigenvalues --   -0.43209  -0.33903  -0.28408
 Alpha virt. eigenvalues --    0.03218   0.04610   0.05025   0.05945   0.06456
 Alpha virt. eigenvalues --    0.08169   0.08753   0.09978   0.10920   0.11927
 Alpha virt. eigenvalues --    0.12244   0.12890   0.13403   0.13683   0.14169

 Mulliken charges:
               1
     1  C    0.618087
     2  C   -3.106439
     3  C   -2.268488
     4  C   -0.979107
     5  C    3.095038
     6  C   -0.380491
     7  N   -4.017592
     8  Cl  -0.847178
     9  H    1.482411
    10  H    1.662069
    11  H    1.678010
    12  H    1.778637
    13  H    0.628748
    14  H    0.656294
 Sum of Mulliken charges =  -0.00000

 Dipole moment (field-independent basis, Debye):
    X=             -3.3196    Y=             -0.0340    Z=              0.7204  Tot=              3.3970

 Test job not archived.
 1\1\GINC-SE170\SP\RHF\Aug-CC-pVDZ\C6H6Cl1N1\OHZDE\06-Apr-2025\0\\#t hf
  aug-cc-pvdz iop(5/13=1,5/36=2,99/5=2) pseudo=read geom=check guess=(r
 ead,tcheck) scf=(maxcycle=1)\\title\\0,1\C,0,-0.725688,1.839957,0.0039
 04\C,0,-1.772672,0.93179,-0.002269\C,0,0.599144,1.416167,0.004591\C,0,
 -0.184148,-0.880797,-0.007062\C,0,-1.513782,-0.444159,-0.007235\C,0,0.
 841141,0.050127,-0.000913\N,0,-2.554624,-1.364322,-0.068662\Cl,0,2.499
 376,-0.526961,0.002399\H,0,-0.942366,2.899755,0.008952\H,0,-2.796213,1
 .283658,-0.007912\H,0,1.416937,2.119885,0.009926\H,0,0.045646,-1.93705

 Normal termination of Gaussian 16 at Sun Apr  6 08:04:55 2025.
