 Gaussian 16, Revision C.01,

 ----------------------------------------------------------------------
 #t hf aug-cc-pvdz symm=none int=(grid=ultrafine) guess=(read,tcheck) s
 table=(opt,rrhf)
 ----------------------------------------------------------------------
 -----
 title
 -----
 Symbolic Z-matrix:
 Charge =  0 Multiplicity = 1

 SCF Done:  E(RHF) =  -1140.16071406     A.U. after   16 cycles
 Normal termination of Gaussian 16 at Sun Apr  6 08:04:16 2025.
 Gaussian 16:  ES64L-G16RevC.01  3-Jul-2019

 ----------------------------------------------------------------------
 #t hf aug-cc-pvdz iop(5/13=1,5/36=2,99/5=2) pseudo=read geom=check gue
 ss=(read,tcheck) scf=(maxcycle=1)
 ----------------------------------------------------------------------
 -----
 title
 -----
 Structure from the checkpoint file:  "3-chloro-2-isothiocyanatopropanal.chk"
 Charge =  0 Multiplicity = 1

                         Standard orientation:
 ---------------------------------------------------------------------
 Center     Atomic      Atomic             Coordinates (Angstroms)
 Number     Number       Type             X           Y           Z
 ---------------------------------------------------------------------
      1         17           0       -3.091891   -0.553378   -0.200574
      2         16           0        3.632310   -0.266570   -0.128147
      3          8           0       -0.699111    2.368642   -0.205516
      4          7           0        0.897212   -0.474689    0.245548
      5          6           0       -0.405066   -0.025285   -0.173044
      6          6           0       -1.436255   -1.039052    0.315660
      7          6           0       -0.633145    1.364267    0.442426
      8          6           0        2.069088   -0.345652    0.048062
      9          1           0       -0.443611    0.071906   -1.258723
     10          1           0       -1.234330   -2.019402   -0.103642
     11          1           0       -1.437139   -1.102639    1.400744
     12          1           0       -0.695064    1.370700    1.548388
 ---------------------------------------------------------------------

 SCF Done:  E(RHF) =  -1141.88537518     A.U. after    2 cycles

 The electronic state is 1-A.
 Alpha  occ. eigenvalues --  -99.90633 -75.70835 -21.09722 -15.80489 -13.24616
 Alpha  occ. eigenvalues --  -13.02358 -13.02194 -11.56903 -11.52720 -11.50554
 Alpha  occ. eigenvalues --  -11.46230 -10.47901  -9.67831  -9.67114  -9.67010
 Alpha  occ. eigenvalues --   -8.05116  -1.74296  -1.47690  -1.35512  -1.21504
 Alpha  occ. eigenvalues --   -1.12540  -0.98806  -0.87785  -0.78065  -0.70078
 Alpha  occ. eigenvalues --   -0.67209  -0.61914  -0.61362  -0.58333  -0.55451
 Alpha  occ. eigenvalues --   -0.53767  -0.52471  -0.50213  -0.49085  -0.46600
 Alpha  occ. eigenvalues --   -0.33152  -0.28803  -0.26711
 Alpha virt. eigenvalues --    0.02491   0.04669   0.05265   0.05858   0.06269
 Alpha virt. eigenvalues --    0.06792   0.08496   0.08709   0.09874   0.10616
 Alpha virt. eigenvalues --    0.10708   0.11625   0.12332   0.12946   0.13708

 Mulliken charges:
               1
     1  Cl   0.074686
     2  S    1.650019
     3  O   -2.785108
     4  N   -3.374066
     5  C   -1.494364
     6  C   -3.776189
     7  C    2.260571
     8  C    1.101073
     9  H    1.683177
    10  H    1.533260
    11  H    1.629863
    12  H    1.497080
 Sum of Mulliken charges =  -0.00000

 Dipole moment (field-independent basis, Debye):
    X=              3.4387    Y=             -0.8239    Z=              0.0343  Tot=              3.5362

 Test job not archived.
 1\1\GINC-SE167\SP\RHF\Aug-CC-pVDZ\C4H4Cl1N1O1S1\OHZDE\06-Apr-2025\0\\#
 t hf aug-cc-pvdz iop(5/13=1,5/36=2,99/5=2) pseudo=read geom=check gues
 s=(read,tcheck) scf=(maxcycle=1)\\title\\0,1\Cl,0,-3.091891,-0.553378,
 -0.200574\S,0,3.63231,-0.26657,-0.128147\O,0,-0.699111,2.368642,-0.205
 516\N,0,0.897212,-0.474689,0.245548\C,0,-0.405066,-0.025285,-0.173044\
 C,0,-1.436255,-1.039052,0.31566\C,0,-0.633145,1.364267,0.442426\C,0,2.
 069088,-0.345652,0.048062\H,0,-0.443611,0.071906,-1.258723\H,0,-1.2343
 3,-2.019402,-0.103642\H,0,-1.437139,-1.102639,1.400744\H,0,-0.695064,1

 Normal termination of Gaussian 16 at Sun Apr  6 08:04:23 2025.
