 Gaussian 16, Revision C.01,

 ----------------------------------------------------------------------
 #t hf aug-cc-pvdz symm=none int=(grid=ultrafine) guess=(read,tcheck) s
 table=(opt,rrhf)
 ----------------------------------------------------------------------
 -----
 title
 -----
 Symbolic Z-matrix:
 Charge =  0 Multiplicity = 1

 SCF Done:  E(RHF) =  -1081.28280474     A.U. after   15 cycles
 Normal termination of Gaussian 16 at Sun Apr  6 08:04:07 2025.
 Gaussian 16:  ES64L-G16RevC.01  3-Jul-2019

 ----------------------------------------------------------------------
 #t hf aug-cc-pvdz iop(5/13=1,5/36=2,99/5=2) pseudo=read geom=check gue
 ss=(read,tcheck) scf=(maxcycle=1)
 ----------------------------------------------------------------------
 -----
 title
 -----
 Structure from the checkpoint file:  "3-chloromethyl-1-2-5-thiadiazole.chk"
 Charge =  0 Multiplicity = 1

                         Standard orientation:
 ---------------------------------------------------------------------
 Center     Atomic      Atomic             Coordinates (Angstroms)
 Number     Number       Type             X           Y           Z
 ---------------------------------------------------------------------
      1         17           0        2.634618    0.089972   -0.472541
      2         16           0       -2.226941   -0.407927   -0.293740
      3          7           0       -0.782002   -1.097257    0.085205
      4          7           0       -1.805293    1.168792   -0.048337
      5          6           0        0.046472   -0.123793    0.406185
      6          6           0       -0.547869    1.172036    0.326492
      7          6           0        1.448200   -0.422078    0.812171
      8          1           0       -0.047158    2.105902    0.539835
      9          1           0        1.735384    0.120694    1.707773
     10          1           0        1.584567   -1.487017    0.958257
 ---------------------------------------------------------------------

 SCF Done:  E(RHF) =  -1082.77746554     A.U. after    2 cycles

 The electronic state is 1-A.
 Alpha  occ. eigenvalues --  -99.89484 -75.76381 -15.79118 -15.79030 -13.24482
 Alpha  occ. eigenvalues --  -13.23879 -13.07709 -11.49731 -11.47592 -11.42968
 Alpha  occ. eigenvalues --  -10.46697  -9.66599  -9.65892  -9.65821  -8.11018
 Alpha  occ. eigenvalues --   -1.57562  -1.34994  -1.30565  -1.16636  -1.02698
 Alpha  occ. eigenvalues --   -0.87309  -0.81178  -0.71073  -0.66039  -0.64340
 Alpha  occ. eigenvalues --   -0.58368  -0.57248  -0.50458  -0.49942  -0.47834
 Alpha  occ. eigenvalues --   -0.42194  -0.41252  -0.40763  -0.29409
 Alpha virt. eigenvalues --    0.02734   0.05084   0.06049   0.06275   0.07078
 Alpha virt. eigenvalues --    0.08481   0.08752   0.09409   0.10409   0.11882
 Alpha virt. eigenvalues --    0.12346   0.13720   0.14481   0.15287   0.15668

 Mulliken charges:
               1
     1  Cl   0.137967
     2  S    2.409101
     3  N   -3.519282
     4  N   -3.009092
     5  C    3.802223
     6  C   -0.373666
     7  C   -3.848199
     8  H    1.442010
     9  H    1.463530
    10  H    1.495410
 Sum of Mulliken charges =  -0.00000

 Dipole moment (field-independent basis, Debye):
    X=             -2.6379    Y=             -1.0459    Z=              0.9958  Tot=              3.0073

 Test job not archived.
 1\1\GINC-SE168\SP\RHF\Aug-CC-pVDZ\C3H3Cl1N2S1\OHZDE\06-Apr-2025\0\\#t
 hf aug-cc-pvdz iop(5/13=1,5/36=2,99/5=2) pseudo=read geom=check guess=
 (read,tcheck) scf=(maxcycle=1)\\title\\0,1\Cl,0,2.634618,0.089972,-0.4
 72541\S,0,-2.226941,-0.407927,-0.29374\N,0,-0.782002,-1.097257,0.08520
 5\N,0,-1.805293,1.168792,-0.048337\C,0,0.046472,-0.123793,0.406185\C,0
 ,-0.547869,1.172036,0.326492\C,0,1.4482,-0.422078,0.812171\H,0,-0.0471
 58,2.105902,0.539835\H,0,1.735384,0.120694,1.707773\H,0,1.584567,-1.48
 7017,0.958257\\Version=ES64L-G16RevC.01\State=1-A\HF=-1082.7774655\RMS

 Normal termination of Gaussian 16 at Sun Apr  6 08:04:12 2025.
