 Gaussian 16, Revision C.01,

 ----------------------------------------------------------------------
 #t hf aug-cc-pvdz symm=none int=(grid=ultrafine) guess=(read,tcheck) s
 table=(opt,rrhf)
 ----------------------------------------------------------------------
 -----
 title
 -----
 Symbolic Z-matrix:
 Charge =  0 Multiplicity = 1

 SCF Done:  E(RHF) =  -576.011544457     A.U. after   13 cycles

 1\1\GINC-SE085\Stability\RHF\Aug-CC-pVDZ\C3H5Cl1\OHZDE\06-Apr-2025\0\\
 #t hf aug-cc-pvdz symm=none int=(grid=ultrafine) guess=(read,tcheck) s
 table=(opt,rrhf)\\title\\0,1\C,0,2.222154,-0.206522,-0.305896\C,0,1.13
 535,-0.117984,0.450291\C,0,-0.025341,0.749869,0.122211\Cl,0,-1.546037,
 -0.242264,-0.108197\H,0,3.058152,-0.830798,-0.022178\H,0,2.314549,0.34
 4401,-1.233886\H,0,1.060566,-0.687381,1.369728\H,0,-0.264925,1.439219,
 0.927711\H,0,0.121308,1.30088,-0.801666\\Version=ES64L-G16RevC.01\HF=-
 576.0115445\RMSD=4.865e-09\Dipole=0.8165442,0.4387547,0.1082731\Quadru

 Normal termination of Gaussian 16 at Sun Apr  6 08:03:56 2025.
 Gaussian 16:  ES64L-G16RevC.01  3-Jul-2019

 ----------------------------------------------------------------------
 #t hf aug-cc-pvdz iop(5/13=1,5/36=2,99/5=2) pseudo=read geom=check gue
 ss=(read,tcheck) scf=(maxcycle=1)
 ----------------------------------------------------------------------
 -----
 title
 -----
 Structure from the checkpoint file:  "3-chloro-1-propene.chk"
 Charge =  0 Multiplicity = 1

                         Standard orientation:
 ---------------------------------------------------------------------
 Center     Atomic      Atomic             Coordinates (Angstroms)
 Number     Number       Type             X           Y           Z
 ---------------------------------------------------------------------
      1          6           0        2.222154   -0.206522   -0.305896
      2          6           0        1.135350   -0.117984    0.450291
      3          6           0       -0.025341    0.749869    0.122211
      4         17           0       -1.546037   -0.242264   -0.108197
      5          1           0        3.058152   -0.830798   -0.022178
      6          1           0        2.314549    0.344401   -1.233886
      7          1           0        1.060566   -0.687381    1.369728
      8          1           0       -0.264925    1.439219    0.927711
      9          1           0        0.121308    1.300880   -0.801666
 ---------------------------------------------------------------------

 SCF Done:  E(RHF) =  -576.840109821     A.U. after    2 cycles

 The electronic state is 1-A.
 Alpha  occ. eigenvalues --  -99.87530 -11.45762 -11.42285 -11.38691 -10.44745
 Alpha  occ. eigenvalues --   -9.64618  -9.63914  -9.63875  -1.33478  -1.17823
 Alpha  occ. eigenvalues --   -0.99120  -0.81528  -0.67977  -0.62301  -0.61199
 Alpha  occ. eigenvalues --   -0.55333  -0.52261  -0.47526  -0.46270  -0.36933
 Alpha virt. eigenvalues --    0.03081   0.05366   0.05919   0.06130   0.06670
 Alpha virt. eigenvalues --    0.07119   0.09998   0.11889   0.12545   0.13534
 Alpha virt. eigenvalues --    0.14743   0.15701   0.16151   0.17138   0.17336

 Mulliken charges:
               1
     1  C   -2.905198
     2  C    0.200026
     3  C   -4.596807
     4  Cl   0.093349
     5  H    1.374315
     6  H    1.434530
     7  H    1.352783
     8  H    1.492985
     9  H    1.554019
 Sum of Mulliken charges =   0.00000

 Dipole moment (field-independent basis, Debye):
    X=              2.2891    Y=              1.0739    Z=              0.2804  Tot=              2.5440

 Test job not archived.
 1\1\GINC-SE085\SP\RHF\Aug-CC-pVDZ\C3H5Cl1\OHZDE\06-Apr-2025\0\\#t hf a
 ug-cc-pvdz iop(5/13=1,5/36=2,99/5=2) pseudo=read geom=check guess=(rea
 d,tcheck) scf=(maxcycle=1)\\title\\0,1\C,0,2.222154,-0.206522,-0.30589
 6\C,0,1.13535,-0.117984,0.450291\C,0,-0.025341,0.749869,0.122211\Cl,0,
 -1.546037,-0.242264,-0.108197\H,0,3.058152,-0.830798,-0.022178\H,0,2.3
 14549,0.344401,-1.233886\H,0,1.060566,-0.687381,1.369728\H,0,-0.264925
 ,1.439219,0.927711\H,0,0.121308,1.30088,-0.801666\\Version=ES64L-G16Re
 vC.01\State=1-A\HF=-576.8401098\RMSD=3.894e-01\Dipole=0.9005976,0.4225

 Normal termination of Gaussian 16 at Sun Apr  6 08:03:59 2025.
