 Gaussian 16, Revision C.01,

 ----------------------------------------------------------------------
 #t hf aug-cc-pvdz symm=none int=(grid=ultrafine) guess=(read,tcheck) s
 table=(opt,rrhf)
 ----------------------------------------------------------------------
 -----
 title
 -----
 Symbolic Z-matrix:
 Charge =  0 Multiplicity = 1

 SCF Done:  E(RHF) =  -705.644976464     A.U. after   15 cycles
 Normal termination of Gaussian 16 at Sun Apr  6 08:03:59 2025.
 Gaussian 16:  ES64L-G16RevC.01  3-Jul-2019

 ----------------------------------------------------------------------
 #t hf aug-cc-pvdz iop(5/13=1,5/36=2,99/5=2) pseudo=read geom=check gue
 ss=(read,tcheck) scf=(maxcycle=1)
 ----------------------------------------------------------------------
 -----
 title
 -----
 Structure from the checkpoint file:  "3-chloropyridine.chk"
 Charge =  0 Multiplicity = 1

                         Standard orientation:
 ---------------------------------------------------------------------
 Center     Atomic      Atomic             Coordinates (Angstroms)
 Number     Number       Type             X           Y           Z
 ---------------------------------------------------------------------
      1          6           0        1.207137   -1.555590    0.000000
      2          6           0        1.220086   -0.167956    0.000000
      3          6           0       -0.016035   -2.214360    0.000000
      4          6           0       -1.179306   -0.248424   -0.000000
      5          6           0        0.000000    0.488855   -0.000000
      6          7           0       -1.187738   -1.578485    0.000000
      7         17           0       -0.068149    2.235327   -0.000000
      8          1           0        2.132085   -2.115420    0.000000
      9          1           0        2.145085    0.390219    0.000000
     10          1           0       -0.058137   -3.297055    0.000000
     11          1           0       -2.137626    0.255941   -0.000000
 ---------------------------------------------------------------------

 SCF Done:  E(RHF) =  -707.041825588     A.U. after    2 cycles

 The electronic state is 1-A'.
 Alpha  occ. eigenvalues --  -99.90447 -15.75346 -11.49822 -11.46725 -11.45176
 Alpha  occ. eigenvalues --  -11.44098 -11.39894 -10.47816  -9.67840  -9.66918
 Alpha  occ. eigenvalues --   -9.66756  -1.47759  -1.34294  -1.19045  -1.11233
 Alpha  occ. eigenvalues --   -0.91689  -0.89461  -0.74920  -0.67534  -0.64361
 Alpha  occ. eigenvalues --   -0.61113  -0.59376  -0.57339  -0.52601  -0.52580
 Alpha  occ. eigenvalues --   -0.49177  -0.38390  -0.37400  -0.35153
 Alpha virt. eigenvalues --    0.02977   0.05158   0.05484   0.06026   0.07559
 Alpha virt. eigenvalues --    0.08920   0.09406   0.09977   0.11581   0.11644
 Alpha virt. eigenvalues --    0.12637   0.13023   0.13825   0.14244   0.14322

 Mulliken charges:
               1
     1  C   -0.519750
     2  C    0.693568
     3  C   -1.117332
     4  C   -0.800427
     5  C   -0.389778
     6  N   -3.516891
     7  Cl  -0.656889
     8  H    1.384333
     9  H    1.757493
    10  H    1.526980
    11  H    1.638692
 Sum of Mulliken charges =   0.00000

 Dipole moment (field-independent basis, Debye):
    X=              1.7445    Y=             -1.3893    Z=              0.0000  Tot=              2.2301

 Test job not archived.
 1\1\GINC-SE412\SP\RHF\Aug-CC-pVDZ\C5H4Cl1N1\OHZDE\06-Apr-2025\0\\#t hf
  aug-cc-pvdz iop(5/13=1,5/36=2,99/5=2) pseudo=read geom=check guess=(r
 ead,tcheck) scf=(maxcycle=1)\\title\\0,1\C,0,1.207137,-1.55559,0.\C,0,
 1.220086,-0.167956,0.\C,0,-0.016035,-2.21436,0.\C,0,-1.179306,-0.24842
 4,0.\C,0,0.,0.488855,0.\N,0,-1.187738,-1.578485,0.\Cl,0,-0.068149,2.23
 5327,0.\H,0,2.132085,-2.11542,0.\H,0,2.145085,0.390219,0.\H,0,-0.05813
 7,-3.297055,0.\H,0,-2.137626,0.255941,0.\\Version=ES64L-G16RevC.01\Sta
 te=1-A'\HF=-707.0418256\RMSD=1.613e+00\Dipole=0.6863444,-0.5466012,0.\

 Normal termination of Gaussian 16 at Sun Apr  6 08:04:04 2025.
