 Gaussian 16, Revision C.01,

 ----------------------------------------------------------------------
 #t hf aug-cc-pvdz symm=none int=(grid=ultrafine) guess=(read,tcheck) s
 table=(opt,rrhf)
 ----------------------------------------------------------------------
 -----
 title
 -----
 Symbolic Z-matrix:
 Charge =  0 Multiplicity = 1

 SCF Done:  E(RHF) =  -336.354921393     A.U. after   16 cycles
 Normal termination of Gaussian 16 at Sun Apr  6 08:04:01 2025.
 Gaussian 16:  ES64L-G16RevC.01  3-Jul-2019

 ----------------------------------------------------------------------
 #t hf aug-cc-pvdz iop(5/13=1,5/36=2,99/5=2) pseudo=read geom=check gue
 ss=(read,tcheck) scf=(maxcycle=1)
 ----------------------------------------------------------------------
 -----
 title
 -----
 Structure from the checkpoint file:  "3-cyanoisoxazole.chk"
 Charge =  0 Multiplicity = 1

                         Standard orientation:
 ---------------------------------------------------------------------
 Center     Atomic      Atomic             Coordinates (Angstroms)
 Number     Number       Type             X           Y           Z
 ---------------------------------------------------------------------
      1          8           0       -1.681498   -0.743311    0.000016
      2          7           0       -0.355469   -1.123275    0.000007
      3          7           0        2.897391    0.029139   -0.000024
      4          6           0        0.323220    0.004011   -0.000002
      5          6           0       -0.528654    1.144183    0.000000
      6          6           0       -1.764853    0.597636    0.000012
      7          6           0        1.747751   -0.010163   -0.000014
      8          1           0       -0.247836    2.180702   -0.000006
      9          1           0       -2.758422    1.010746    0.000018
 ---------------------------------------------------------------------

 SCF Done:  E(RHF) =  -337.826712659     A.U. after    2 cycles

 The electronic state is 1-A.
 Alpha  occ. eigenvalues --  -21.16784 -15.82430 -15.79139 -11.53468 -11.50734
 Alpha  occ. eigenvalues --  -11.46281 -11.43740  -1.94175  -1.37229  -1.28944
 Alpha  occ. eigenvalues --   -1.19608  -0.94117  -0.87883  -0.79250  -0.65251
 Alpha  occ. eigenvalues --   -0.63888  -0.60853  -0.54393  -0.50501  -0.49010
 Alpha  occ. eigenvalues --   -0.47544  -0.44605  -0.39097  -0.36962
 Alpha virt. eigenvalues --    0.02568   0.04537   0.08089   0.09318   0.09333
 Alpha virt. eigenvalues --    0.09591   0.10362   0.11924   0.12187   0.12453
 Alpha virt. eigenvalues --    0.13303   0.13764   0.13854   0.14450   0.16125

 Mulliken charges:
               1
     1  O   -2.879250
     2  N   -1.115202
     3  N   -2.585210
     4  C    4.023108
     5  C   -2.662910
     6  C    0.836945
     7  C    1.827276
     8  H    1.167234
     9  H    1.388009
 Sum of Mulliken charges =  -0.00000

 Dipole moment (field-independent basis, Debye):
    X=             -4.0572    Y=              1.9990    Z=              0.0000  Tot=              4.5229

 Test job not archived.
 1\1\GINC-SE422\SP\RHF\Aug-CC-pVDZ\C4H2N2O1\OHZDE\06-Apr-2025\0\\#t hf
 aug-cc-pvdz iop(5/13=1,5/36=2,99/5=2) pseudo=read geom=check guess=(re
 ad,tcheck) scf=(maxcycle=1)\\title\\0,1\O,0,-1.681498,-0.743311,0.0000
 16\N,0,-0.355469,-1.123275,0.000007\N,0,2.897391,0.029139,-0.000024\C,
 0,0.32322,0.004011,-0.000002\C,0,-0.528654,1.144183,0.\C,0,-1.764853,0
 .597636,0.000012\C,0,1.747751,-0.010163,-0.000014\H,0,-0.247836,2.1807
 02,-0.000006\H,0,-2.758422,1.010746,0.000018\\Version=ES64L-G16RevC.01
 \State=1-A\HF=-337.8267127\RMSD=1.260e+00\Dipole=-1.5962246,0.7864609,

 Normal termination of Gaussian 16 at Sun Apr  6 08:04:04 2025.
