 Gaussian 16, Revision C.01,

 ----------------------------------------------------------------------
 #t hf aug-cc-pvdz symm=none int=(grid=ultrafine) guess=(read,tcheck) s
 table=(opt,rrhf)
 ----------------------------------------------------------------------
 -----
 title
 -----
 Symbolic Z-matrix:
 Charge =  0 Multiplicity = 1

 SCF Done:  E(RHF) =  -423.607547054     A.U. after   15 cycles
 Normal termination of Gaussian 16 at Sun Apr  6 08:04:04 2025.
 Gaussian 16:  ES64L-G16RevC.01  3-Jul-2019

 ----------------------------------------------------------------------
 #t hf aug-cc-pvdz iop(5/13=1,5/36=2,99/5=2) pseudo=read geom=check gue
 ss=(read,tcheck) scf=(maxcycle=1)
 ----------------------------------------------------------------------
 -----
 title
 -----
 Structure from the checkpoint file:  "3-difluoroaminopropanenitrile.chk"
 Charge =  0 Multiplicity = 1

                         Standard orientation:
 ---------------------------------------------------------------------
 Center     Atomic      Atomic             Coordinates (Angstroms)
 Number     Number       Type             X           Y           Z
 ---------------------------------------------------------------------
      1          9           0        2.284114   -0.947156   -0.058625
      2          9           0        1.675956    1.135447   -0.349163
      3          7           0        1.368083   -0.002087    0.430483
      4          7           0       -3.383243   -0.343586   -0.277416
      5          6           0        0.067845   -0.461845   -0.080232
      6          6           0       -1.014437    0.516543    0.390152
      7          6           0       -2.342864    0.043335    0.020269
      8          1           0       -0.078651   -1.445718    0.361181
      9          1           0        0.101207   -0.548538   -1.166096
     10          1           0       -0.967408    0.631463    1.474281
     11          1           0       -0.852917    1.499687   -0.051863
 ---------------------------------------------------------------------

 SCF Done:  E(RHF) =  -425.312729789     A.U. after    2 cycles

 The electronic state is 1-A.
 Alpha  occ. eigenvalues --  -29.31284 -29.31034 -15.91255 -15.77807 -11.50517
 Alpha  occ. eigenvalues --  -11.46526 -11.43750  -1.56309  -1.33871  -1.19851
 Alpha  occ. eigenvalues --   -0.99727  -0.85918  -0.77541  -0.71671  -0.67284
 Alpha  occ. eigenvalues --   -0.64749  -0.58717  -0.54715  -0.53220  -0.46075
 Alpha  occ. eigenvalues --   -0.45393  -0.44788  -0.41254  -0.32973  -0.30710
 Alpha  occ. eigenvalues --   -0.24585  -0.22622
 Alpha virt. eigenvalues --    0.03349   0.05616   0.05822   0.06029   0.09419
 Alpha virt. eigenvalues --    0.09827   0.10976   0.12427   0.12787   0.13729
 Alpha virt. eigenvalues --    0.14799   0.16311   0.16576   0.17427   0.17893

 Mulliken charges:
               1
     1  F   -0.179860
     2  F   -0.110234
     3  N   -0.247837
     4  N   -2.504191
     5  C   -2.741624
     6  C   -2.692027
     7  C    2.583137
     8  H    1.522410
     9  H    1.540152
    10  H    1.407695
    11  H    1.422381
 Sum of Mulliken charges =  -0.00000

 Dipole moment (field-independent basis, Debye):
    X=              3.7969    Y=              1.0515    Z=             -0.4973  Tot=              3.9711

 Test job not archived.
 1\1\GINC-SE249\SP\RHF\Aug-CC-pVDZ\C3H4F2N2\OHZDE\06-Apr-2025\0\\#t hf
 aug-cc-pvdz iop(5/13=1,5/36=2,99/5=2) pseudo=read geom=check guess=(re
 ad,tcheck) scf=(maxcycle=1)\\title\\0,1\F,0,2.284114,-0.947156,-0.0586
 25\F,0,1.675956,1.135447,-0.349163\N,0,1.368083,-0.002087,0.430483\N,0
 ,-3.383243,-0.343586,-0.277416\C,0,0.067845,-0.461845,-0.080232\C,0,-1
 .014437,0.516543,0.390152\C,0,-2.342864,0.043335,0.020269\H,0,-0.07865
 1,-1.445718,0.361181\H,0,0.101207,-0.548538,-1.166096\H,0,-0.967408,0.
 631463,1.474281\H,0,-0.852917,1.499687,-0.051863\\Version=ES64L-G16Rev

 Normal termination of Gaussian 16 at Sun Apr  6 08:04:08 2025.
