 Gaussian 16, Revision C.01,

 ----------------------------------------------------------------------
 #t hf aug-cc-pvdz symm=none int=(grid=ultrafine) guess=(read,tcheck) s
 table=(opt,rrhf)
 ----------------------------------------------------------------------
 -----
 title
 -----
 Symbolic Z-matrix:
 Charge =  0 Multiplicity = 1

 SCF Done:  E(RHF) =  -278.645641562     A.U. after   17 cycles
 Normal termination of Gaussian 16 at Sun Apr  6 08:03:59 2025.
 Gaussian 16:  ES64L-G16RevC.01  3-Jul-2019

 ----------------------------------------------------------------------
 #t hf aug-cc-pvdz iop(5/13=1,5/36=2,99/5=2) pseudo=read geom=check gue
 ss=(read,tcheck) scf=(maxcycle=1)
 ----------------------------------------------------------------------
 -----
 title
 -----
 Structure from the checkpoint file:  "3-diazopropanenitrile.chk"
 Charge =  0 Multiplicity = 1

                         Standard orientation:
 ---------------------------------------------------------------------
 Center     Atomic      Atomic             Coordinates (Angstroms)
 Number     Number       Type             X           Y           Z
 ---------------------------------------------------------------------
      1          7           0       -1.616715   -0.101498    0.115335
      2          7           0       -2.512940   -0.696208   -0.240366
      3          7           0        2.592445   -0.787850    0.164792
      4          6           0       -0.601166    0.598614    0.503988
      5          6           0        0.580873    0.787284   -0.409301
      6          6           0        1.711258   -0.097097   -0.096653
      7          1           0       -0.609112    0.927289    1.529719
      8          1           0        0.289318    0.620071   -1.447202
      9          1           0        0.934469    1.818720   -0.349050
 ---------------------------------------------------------------------

 SCF Done:  E(RHF) =  -279.901823848     A.U. after    2 cycles

 The electronic state is 1-A.
 Alpha  occ. eigenvalues --  -15.93796 -15.85793 -15.76456 -11.49324 -11.44688
 Alpha  occ. eigenvalues --  -11.42895  -1.62274  -1.33190  -1.23275  -1.08421
 Alpha  occ. eigenvalues --   -0.78254  -0.73077  -0.68723  -0.64450  -0.63772
 Alpha  occ. eigenvalues --   -0.61158  -0.54396  -0.52077  -0.44126  -0.44008
 Alpha  occ. eigenvalues --   -0.32128
 Alpha virt. eigenvalues --    0.02642   0.05175   0.05759   0.08187   0.09233
 Alpha virt. eigenvalues --    0.09658   0.10687   0.11143   0.11637   0.11867
 Alpha virt. eigenvalues --    0.13013   0.13959   0.14894   0.16218   0.17705

 Mulliken charges:
               1
     1  N    0.245946
     2  N   -1.583179
     3  N   -2.386361
     4  C    0.326926
     5  C   -3.047472
     6  C    2.309302
     7  H    1.357681
     8  H    1.361790
     9  H    1.415367
 Sum of Mulliken charges =   0.00000

 Dipole moment (field-independent basis, Debye):
    X=             -1.8859    Y=              2.4699    Z=             -0.3188  Tot=              3.1239

 Test job not archived.
 1\1\GINC-SE249\SP\RHF\Aug-CC-pVDZ\C3H3N3\OHZDE\06-Apr-2025\0\\#t hf au
 g-cc-pvdz iop(5/13=1,5/36=2,99/5=2) pseudo=read geom=check guess=(read
 ,tcheck) scf=(maxcycle=1)\\title\\0,1\N,0,-1.616715,-0.101498,0.115335
 \N,0,-2.51294,-0.696208,-0.240366\N,0,2.592445,-0.78785,0.164792\C,0,-
 0.601166,0.598614,0.503988\C,0,0.580873,0.787284,-0.409301\C,0,1.71125
 8,-0.097097,-0.096653\H,0,-0.609112,0.927289,1.529719\H,0,0.289318,0.6
 20071,-1.447202\H,0,0.934469,1.81872,-0.34905\\Version=ES64L-G16RevC.0
 1\State=1-A\HF=-279.9018238\RMSD=2.465e-01\Dipole=-0.741984,0.9717241,

 Normal termination of Gaussian 16 at Sun Apr  6 08:04:02 2025.
