 Gaussian 16, Revision C.01,

 ----------------------------------------------------------------------
 #t hf aug-cc-pvdz symm=none int=(grid=ultrafine) guess=(read,tcheck) s
 table=(opt,rrhf)
 ----------------------------------------------------------------------
 -----
 title
 -----
 Symbolic Z-matrix:
 Charge =  0 Multiplicity = 1

 SCF Done:  E(RHF) =  -461.607795183     A.U. after   14 cycles
 Normal termination of Gaussian 16 at Sun Apr  6 08:04:11 2025.
 Gaussian 16:  ES64L-G16RevC.01  3-Jul-2019

 ----------------------------------------------------------------------
 #t hf aug-cc-pvdz iop(5/13=1,5/36=2,99/5=2) pseudo=read geom=check gue
 ss=(read,tcheck) scf=(maxcycle=1)
 ----------------------------------------------------------------------
 -----
 title
 -----
 Structure from the checkpoint file:  "3-difluoromethyl-1H-pyrazole.chk"
 Charge =  0 Multiplicity = 1

                         Standard orientation:
 ---------------------------------------------------------------------
 Center     Atomic      Atomic             Coordinates (Angstroms)
 Number     Number       Type             X           Y           Z
 ---------------------------------------------------------------------
      1          9           0        1.978702    0.162047    1.097252
      2          9           0        1.978699    0.162110   -1.097247
      3          7           0       -0.935444   -1.145511   -0.000034
      4          7           0       -2.145699   -0.572385   -0.000016
      5          6           0       -0.086571   -0.124026   -0.000003
      6          6           0        1.374341   -0.401214   -0.000013
      7          6           0       -0.758309    1.116762    0.000036
      8          6           0       -2.090320    0.782498    0.000026
      9          1           0       -2.962960   -1.156749   -0.000033
     10          1           0        1.588333   -1.468840   -0.000044
     11          1           0       -0.328803    2.101756    0.000066
     12          1           0       -2.980019    1.387567    0.000046
 ---------------------------------------------------------------------

 SCF Done:  E(RHF) =  -463.491824287     A.U. after    2 cycles

 The electronic state is 1-A.
 Alpha  occ. eigenvalues --  -29.27381 -29.27345 -15.82833 -15.77203 -11.53853
 Alpha  occ. eigenvalues --  -11.48132 -11.45180 -11.38923  -1.63017  -1.31971
 Alpha  occ. eigenvalues --   -1.17595  -1.14717  -0.86945  -0.84130  -0.78868
 Alpha  occ. eigenvalues --   -0.77167  -0.72278  -0.62544  -0.61893  -0.57158
 Alpha  occ. eigenvalues --   -0.54959  -0.43846  -0.42488  -0.39466  -0.35552
 Alpha  occ. eigenvalues --   -0.34179  -0.30556  -0.27198  -0.26138  -0.20499
 Alpha virt. eigenvalues --    0.03142   0.04946   0.05674   0.06176   0.10163
 Alpha virt. eigenvalues --    0.10771   0.10789   0.12290   0.13018   0.13059
 Alpha virt. eigenvalues --    0.13861   0.14230   0.15800   0.16211   0.16245

 Mulliken charges:
               1
     1  F    0.195971
     2  F    0.195971
     3  N   -2.883848
     4  N   -1.897902
     5  C    4.809694
     6  C   -1.659142
     7  C   -3.324126
     8  C   -0.402238
     9  H    0.854757
    10  H    1.649960
    11  H    1.166222
    12  H    1.294682
 Sum of Mulliken charges =  -0.00000

 Dipole moment (field-independent basis, Debye):
    X=             -1.3322    Y=              1.7876    Z=              0.0001  Tot=              2.2294

 Test job not archived.
 1\1\GINC-SE270\SP\RHF\Aug-CC-pVDZ\C4H4F2N2\OHZDE\06-Apr-2025\0\\#t hf
 aug-cc-pvdz iop(5/13=1,5/36=2,99/5=2) pseudo=read geom=check guess=(re
 ad,tcheck) scf=(maxcycle=1)\\title\\0,1\F,0,1.978702,0.162047,1.097252
 \F,0,1.978699,0.16211,-1.097247\N,0,-0.935444,-1.145511,-0.000034\N,0,
 -2.145699,-0.572385,-0.000016\C,0,-0.086571,-0.124026,-0.000003\C,0,1.
 374341,-0.401214,-0.000013\C,0,-0.758309,1.116762,0.000036\C,0,-2.0903
 2,0.782498,0.000026\H,0,-2.96296,-1.156749,-0.000033\H,0,1.588333,-1.4
 6884,-0.000044\H,0,-0.328803,2.101756,0.000066\H,0,-2.980019,1.387567,

 Normal termination of Gaussian 16 at Sun Apr  6 08:04:16 2025.
