 Gaussian 16, Revision C.01,

 ----------------------------------------------------------------------
 #t hf aug-cc-pvdz symm=none int=(grid=ultrafine) guess=(read,tcheck) s
 table=(opt,rrhf)
 ----------------------------------------------------------------------
 -----
 title
 -----
 Symbolic Z-matrix:
 Charge =  0 Multiplicity = 1

 SCF Done:  E(RHF) =  -714.034173701     A.U. after   16 cycles
 Normal termination of Gaussian 16 at Sun Apr  6 08:04:08 2025.
 Gaussian 16:  ES64L-G16RevC.01  3-Jul-2019

 ----------------------------------------------------------------------
 #t hf aug-cc-pvdz iop(5/13=1,5/36=2,99/5=2) pseudo=read geom=check gue
 ss=(read,tcheck) scf=(maxcycle=1)
 ----------------------------------------------------------------------
 -----
 title
 -----
 Structure from the checkpoint file:  "3-ethynylsulfanyl-1H-1-2-4-triazole.chk"
 Charge =  0 Multiplicity = 1

                         Standard orientation:
 ---------------------------------------------------------------------
 Center     Atomic      Atomic             Coordinates (Angstroms)
 Number     Number       Type             X           Y           Z
 ---------------------------------------------------------------------
      1         16           0       -1.131399   -1.070775   -0.000017
      2          7           0        1.538046   -1.000510   -0.000058
      3          7           0        0.653008    1.084197    0.000038
      4          7           0        2.510851   -0.057395   -0.000035
      5          6           0        0.445498   -0.256528   -0.000012
      6          6           0        1.967699    1.170963    0.000021
      7          6           0       -2.199076    0.233648    0.000030
      8          6           0       -3.054062    1.079168    0.000059
      9          1           0        3.478056   -0.332882   -0.000061
     10          1           0        2.546140    2.079525    0.000047
     11          1           0       -3.795499    1.838204    0.000079
 ---------------------------------------------------------------------

 SCF Done:  E(RHF) =  -715.683574069     A.U. after    2 cycles

 The electronic state is 1-A.
 Alpha  occ. eigenvalues --  -75.73284 -15.83704 -15.76746 -15.74482 -13.21738
 Alpha  occ. eigenvalues --  -13.17190 -13.05156 -11.47087 -11.44609 -11.42127
 Alpha  occ. eigenvalues --  -11.40841  -8.07590  -1.67170  -1.33534  -1.26925
 Alpha  occ. eigenvalues --   -1.17967  -1.04572  -0.89915  -0.81918  -0.77758
 Alpha  occ. eigenvalues --   -0.72541  -0.65871  -0.61617  -0.56396  -0.49629
 Alpha  occ. eigenvalues --   -0.45225  -0.45223  -0.40506  -0.40333  -0.38144
 Alpha  occ. eigenvalues --   -0.36590  -0.22752
 Alpha virt. eigenvalues --    0.02831   0.04136   0.05077   0.07594   0.09180
 Alpha virt. eigenvalues --    0.09782   0.09981   0.10208   0.11724   0.12122
 Alpha virt. eigenvalues --    0.14005   0.14040   0.14044   0.14798   0.15358

 Mulliken charges:
               1
     1  S    1.935224
     2  N   -2.179830
     3  N   -3.099735
     4  N   -1.534995
     5  C    2.374159
     6  C    1.224385
     7  C    2.046054
     8  C   -3.991312
     9  H    0.899072
    10  H    1.515372
    11  H    0.811606
 Sum of Mulliken charges =   0.00000

 Dipole moment (field-independent basis, Debye):
    X=              2.9178    Y=             -0.2664    Z=             -0.0001  Tot=              2.9299

 Test job not archived.
 1\1\GINC-SE454\SP\RHF\Aug-CC-pVDZ\C4H3N3S1\OHZDE\06-Apr-2025\0\\#t hf
 aug-cc-pvdz iop(5/13=1,5/36=2,99/5=2) pseudo=read geom=check guess=(re
 ad,tcheck) scf=(maxcycle=1)\\title\\0,1\S,0,-1.131399,-1.070775,-0.000
 017\N,0,1.538046,-1.00051,-0.000058\N,0,0.653008,1.084197,0.000038\N,0
 ,2.510851,-0.057395,-0.000035\C,0,0.445498,-0.256528,-0.000012\C,0,1.9
 67699,1.170963,0.000021\C,0,-2.199076,0.233648,0.00003\C,0,-3.054062,1
 .079168,0.000059\H,0,3.478056,-0.332882,-0.000061\H,0,2.54614,2.079525
 ,0.000047\H,0,-3.795499,1.838204,0.000079\\Version=ES64L-G16RevC.01\St

 Normal termination of Gaussian 16 at Sun Apr  6 08:04:14 2025.
