 Gaussian 16, Revision C.01,

 ----------------------------------------------------------------------
 #t hf aug-cc-pvdz symm=none int=(grid=ultrafine) guess=(read,tcheck) s
 table=(opt,rrhf)
 ----------------------------------------------------------------------
 -----
 title
 -----
 Symbolic Z-matrix:
 Charge =  0 Multiplicity = 1

 SCF Done:  E(RHF) =  -324.803893341     A.U. after   14 cycles
 Normal termination of Gaussian 16 at Sun Apr  6 08:04:50 2025.
 Gaussian 16:  ES64L-G16RevC.01  3-Jul-2019

 ----------------------------------------------------------------------
 #t hf aug-cc-pvdz iop(5/13=1,5/36=2,99/5=2) pseudo=read geom=check gue
 ss=(read,tcheck) scf=(maxcycle=1)
 ----------------------------------------------------------------------
 -----
 title
 -----
 Structure from the checkpoint file:  "3-ethylpyridine.chk"
 Charge =  0 Multiplicity = 1

                         Standard orientation:
 ---------------------------------------------------------------------
 Center     Atomic      Atomic             Coordinates (Angstroms)
 Number     Number       Type             X           Y           Z
 ---------------------------------------------------------------------
      1          6           0        1.635229    1.169984    0.080429
      2          6           0        0.276934    1.186693   -0.201516
      3          6           0        2.267258   -0.057658    0.237114
      4          6           0        0.324908   -1.186647   -0.148460
      5          6           0       -0.416052   -0.015986   -0.320449
      6          6           0       -2.745423    0.061771    0.682967
      7          6           0       -1.897892   -0.062347   -0.591011
      8          7           0        1.628799   -1.222087    0.123692
      9          1           0        2.197669    2.088931    0.173539
     10          1           0       -0.242156    2.128401   -0.334054
     11          1           0        3.327219   -0.108700    0.457919
     12          1           0       -0.166546   -2.150313   -0.242291
     13          1           0       -2.523086   -0.747211    1.379701
     14          1           0       -3.809451    0.022818    0.446195
     15          1           0       -2.548064    1.004033    1.195978
     16          1           0       -2.164854    0.740982   -1.281320
     17          1           0       -2.142103   -0.999187   -1.095962
 ---------------------------------------------------------------------

 SCF Done:  E(RHF) =  -326.381141506     A.U. after    2 cycles

 The electronic state is 1-A.
 Alpha  occ. eigenvalues --  -15.73369 -11.48088 -11.44734 -11.43112 -11.42383
 Alpha  occ. eigenvalues --  -11.40802 -11.37826 -11.36578  -1.44867  -1.23602
 Alpha  occ. eigenvalues --   -1.15050  -1.07700  -0.92528  -0.88930  -0.83786
 Alpha  occ. eigenvalues --   -0.72025  -0.64563  -0.63575  -0.59470  -0.57643
 Alpha  occ. eigenvalues --   -0.55160  -0.54624  -0.52158  -0.49555  -0.48720
 Alpha  occ. eigenvalues --   -0.44207  -0.36203  -0.34883  -0.32687
 Alpha virt. eigenvalues --    0.03348   0.04725   0.05321   0.05640   0.05914
 Alpha virt. eigenvalues --    0.06192   0.06463   0.07202   0.07990   0.10108
 Alpha virt. eigenvalues --    0.11262   0.11410   0.12002   0.12509   0.13076

 Mulliken charges:
               1
     1  C   -1.448513
     2  C   -1.377836
     3  C   -1.219426
     4  C   -1.761684
     5  C    4.501258
     6  C   -3.827090
     7  C   -3.900717
     8  N   -3.720528
     9  H    1.376522
    10  H    1.762038
    11  H    1.522244
    12  H    1.581683
    13  H    1.403565
    14  H    1.162781
    15  H    1.380369
    16  H    1.277919
    17  H    1.287414
 Sum of Mulliken charges =   0.00000

 Dipole moment (field-independent basis, Debye):
    X=             -1.2565    Y=              1.6350    Z=             -0.2790  Tot=              2.0809

 Test job not archived.
 1\1\GINC-SE271\SP\RHF\Aug-CC-pVDZ\C7H9N1\OHZDE\06-Apr-2025\0\\#t hf au
 g-cc-pvdz iop(5/13=1,5/36=2,99/5=2) pseudo=read geom=check guess=(read
 ,tcheck) scf=(maxcycle=1)\\title\\0,1\C,0,1.635229,1.169984,0.080429\C
 ,0,0.276934,1.186693,-0.201516\C,0,2.267258,-0.057658,0.237114\C,0,0.3
 24908,-1.186647,-0.14846\C,0,-0.416052,-0.015986,-0.320449\C,0,-2.7454
 23,0.061771,0.682967\C,0,-1.897892,-0.062347,-0.591011\N,0,1.628799,-1
 .222087,0.123692\H,0,2.197669,2.088931,0.173539\H,0,-0.242156,2.128401
 ,-0.334054\H,0,3.327219,-0.1087,0.457919\H,0,-0.166546,-2.150313,-0.24

 Normal termination of Gaussian 16 at Sun Apr  6 08:04:56 2025.
