 Gaussian 16, Revision C.01,

 ----------------------------------------------------------------------
 #t hf aug-cc-pvdz symm=none int=(grid=ultrafine) guess=(read,tcheck) s
 table=(opt,rrhf)
 ----------------------------------------------------------------------
 -----
 title
 -----
 Symbolic Z-matrix:
 Charge =  0 Multiplicity = 1

 SCF Done:  E(RHF) =  -488.305269249     A.U. after   15 cycles
 Normal termination of Gaussian 16 at Sun Apr  6 08:04:39 2025.
 Gaussian 16:  ES64L-G16RevC.01  3-Jul-2019

 ----------------------------------------------------------------------
 #t hf aug-cc-pvdz iop(5/13=1,5/36=2,99/5=2) pseudo=read geom=check gue
 ss=(read,tcheck) scf=(maxcycle=1)
 ----------------------------------------------------------------------
 -----
 title
 -----
 Structure from the checkpoint file:  "3-ethynoxy-1-hydroxy-1-methyl-urea.chk"
 Charge =  0 Multiplicity = 1

                         Standard orientation:
 ---------------------------------------------------------------------
 Center     Atomic      Atomic             Coordinates (Angstroms)
 Number     Number       Type             X           Y           Z
 ---------------------------------------------------------------------
      1          8           0        1.731880    0.108377   -0.831919
      2          8           0       -0.233133   -1.544013   -0.196714
      3          8           0       -2.691735   -0.847458    0.265518
      4          7           0       -1.675720    0.124252    0.257316
      5          7           0        0.522172    0.666970   -0.284536
      6          6           0       -0.460475   -0.351147   -0.115603
      7          6           0       -2.198971    1.462610    0.154511
      8          6           0        2.699348    0.095191    0.044841
      9          6           0        3.640521    0.058237    0.782977
     10          1           0       -2.181394   -1.673843    0.154736
     11          1           0        0.256709    1.383325   -0.950263
     12          1           0       -2.597488    1.677053   -0.841848
     13          1           0       -2.998686    1.573387    0.884085
     14          1           0       -1.411630    2.169530    0.406162
     15          1           0        4.468689    0.007404    1.442234
 ---------------------------------------------------------------------

 SCF Done:  E(RHF) =  -490.407276755     A.U. after    2 cycles

 The electronic state is 1-A.
 Alpha  occ. eigenvalues --  -21.15554 -21.11293 -21.05202 -15.83690 -15.80401
 Alpha  occ. eigenvalues --  -11.53679 -11.45701 -11.43451 -11.40185  -1.89044
 Alpha  occ. eigenvalues --   -1.83117  -1.70993  -1.37704  -1.25617  -1.07286
 Alpha  occ. eigenvalues --   -1.03821  -0.82619  -0.77687  -0.74387  -0.69794
 Alpha  occ. eigenvalues --   -0.66942  -0.64669  -0.64152  -0.56589  -0.55619
 Alpha  occ. eigenvalues --   -0.53714  -0.50743  -0.47914  -0.45248  -0.38176
 Alpha  occ. eigenvalues --   -0.36617  -0.32841  -0.30834  -0.27813
 Alpha virt. eigenvalues --    0.02791   0.04393   0.05060   0.05643   0.06495
 Alpha virt. eigenvalues --    0.06997   0.09569   0.10070   0.11535   0.11640
 Alpha virt. eigenvalues --    0.12578   0.13173   0.13302   0.13715   0.14395

 Mulliken charges:
               1
     1  O   -3.153416
     2  O   -2.809612
     3  O   -2.712368
     4  N   -0.091536
     5  N   -0.506072
     6  C    5.075702
     7  C   -3.434793
     8  C    2.483608
     9  C   -1.314364
    10  H    0.916128
    11  H    0.672774
    12  H    1.442261
    13  H    1.376776
    14  H    1.399947
    15  H    0.654965
 Sum of Mulliken charges =   0.00000

 Dipole moment (field-independent basis, Debye):
    X=             -1.6104    Y=              2.2644    Z=             -0.4730  Tot=              2.8186

 Test job not archived.
 1\1\GINC-SE343\SP\RHF\Aug-CC-pVDZ\C4H6N2O3\OHZDE\06-Apr-2025\0\\#t hf
 aug-cc-pvdz iop(5/13=1,5/36=2,99/5=2) pseudo=read geom=check guess=(re
 ad,tcheck) scf=(maxcycle=1)\\title\\0,1\O,0,1.73188,0.108377,-0.831919
 \O,0,-0.233133,-1.544013,-0.196714\O,0,-2.691735,-0.847458,0.265518\N,
 0,-1.67572,0.124252,0.257316\N,0,0.522172,0.66697,-0.284536\C,0,-0.460
 475,-0.351147,-0.115603\C,0,-2.198971,1.46261,0.154511\C,0,2.699348,0.
 095191,0.044841\C,0,3.640521,0.058237,0.782977\H,0,-2.181394,-1.673843
 ,0.154736\H,0,0.256709,1.383325,-0.950263\H,0,-2.597488,1.677053,-0.84

 Normal termination of Gaussian 16 at Sun Apr  6 08:05:19 2025.
