 Gaussian 16, Revision C.01,

 ----------------------------------------------------------------------
 #t hf aug-cc-pvdz symm=none int=(grid=ultrafine) guess=(read,tcheck) s
 table=(opt,rrhf)
 ----------------------------------------------------------------------
 -----
 title
 -----
 Symbolic Z-matrix:
 Charge =  0 Multiplicity = 1

 SCF Done:  E(RHF) =  -592.689061645     A.U. after   13 cycles

 1\1\GINC-SE343\Stability\RHF\Aug-CC-pVDZ\C5H10S1\OHZDE\06-Apr-2025\0\\
 #t hf aug-cc-pvdz symm=none int=(grid=ultrafine) guess=(read,tcheck) s
 table=(opt,rrhf)\\title\\0,1\H,0,-3.802515,-1.239154,0.\H,0,-2.689478,
 0.229953,0.\C,0,-2.794898,-0.846771,0.\H,0,-1.915495,-2.733395,0.\C,0,
 -1.747715,-1.660126,0.\H,0,0.189038,-1.709801,0.877836\H,0,0.189038,-1
 .709801,-0.877836\C,0,-0.299553,-1.277902,0.\S,0,0.,0.525942,0.\H,0,2.
 174574,-0.032527,0.883368\H,0,2.174574,-0.032527,-0.883368\C,0,1.83148
 5,0.507447,0.\H,0,3.459524,1.92213,0.\H,0,2.036376,2.479514,-0.882479\

 Normal termination of Gaussian 16 at Sun Apr  6 08:04:20 2025.
 Gaussian 16:  ES64L-G16RevC.01  3-Jul-2019

 ----------------------------------------------------------------------
 #t hf aug-cc-pvdz iop(5/13=1,5/36=2,99/5=2) pseudo=read geom=check gue
 ss=(read,tcheck) scf=(maxcycle=1)
 ----------------------------------------------------------------------
 -----
 title
 -----
 Structure from the checkpoint file:  "3-ethylthio-1-propene.chk"
 Charge =  0 Multiplicity = 1

                         Standard orientation:
 ---------------------------------------------------------------------
 Center     Atomic      Atomic             Coordinates (Angstroms)
 Number     Number       Type             X           Y           Z
 ---------------------------------------------------------------------
      1          1           0       -3.802515   -1.239154    0.000000
      2          1           0       -2.689478    0.229953    0.000000
      3          6           0       -2.794898   -0.846771    0.000000
      4          1           0       -1.915495   -2.733395    0.000000
      5          6           0       -1.747715   -1.660126    0.000000
      6          1           0        0.189038   -1.709801    0.877836
      7          1           0        0.189038   -1.709801   -0.877836
      8          6           0       -0.299553   -1.277902    0.000000
      9         16           0        0.000000    0.525942    0.000000
     10          1           0        2.174574   -0.032527    0.883368
     11          1           0        2.174574   -0.032527   -0.883368
     12          6           0        1.831485    0.507447    0.000000
     13          1           0        3.459524    1.922130    0.000000
     14          1           0        2.036376    2.479514   -0.882479
     15          1           0        2.036376    2.479514    0.882479
     16          6           0        2.368679    1.932523    0.000000
 ---------------------------------------------------------------------

 SCF Done:  E(RHF) =  -593.919189626     A.U. after    2 cycles

 The electronic state is 1-A'.
 Alpha  occ. eigenvalues --  -75.66631 -13.11253 -13.07819 -12.99935 -11.43472
 Alpha  occ. eigenvalues --  -11.41398 -11.40389 -11.37390 -11.36875  -8.00728
 Alpha  occ. eigenvalues --   -1.27387  -1.17702  -1.05440  -0.95627  -0.85796
 Alpha  occ. eigenvalues --   -0.77165  -0.65302  -0.63496  -0.59736  -0.58977
 Alpha  occ. eigenvalues --   -0.54991  -0.51998  -0.50022  -0.49331  -0.40533
 Alpha  occ. eigenvalues --   -0.35319  -0.34935  -0.21929
 Alpha virt. eigenvalues --    0.03669   0.03696   0.04855   0.05593   0.05932
 Alpha virt. eigenvalues --    0.06434   0.07260   0.07266   0.08123   0.08428
 Alpha virt. eigenvalues --    0.10212   0.11957   0.12724   0.13085   0.14253

 Mulliken charges:
               1
     1  H    1.367215
     2  H    1.694703
     3  C   -3.418768
     4  H    1.107457
     5  C    0.025368
     6  H    1.506493
     7  H    1.506493
     8  C   -4.265881
     9  S    1.694375
    10  H    1.514667
    11  H    1.514667
    12  C   -4.117628
    13  H    1.040252
    14  H    1.331747
    15  H    1.331747
    16  C   -3.832906
 Sum of Mulliken charges =   0.00000

 Dipole moment (field-independent basis, Debye):
    X=              0.2807    Y=              0.1134    Z=             -0.0000  Tot=              0.3027

 Test job not archived.
 1\1\GINC-SE343\SP\RHF\Aug-CC-pVDZ\C5H10S1\OHZDE\06-Apr-2025\0\\#t hf a
 ug-cc-pvdz iop(5/13=1,5/36=2,99/5=2) pseudo=read geom=check guess=(rea
 d,tcheck) scf=(maxcycle=1)\\title\\0,1\H,0,-3.802515,-1.239154,0.\H,0,
 -2.689478,0.229953,0.\C,0,-2.794898,-0.846771,0.\H,0,-1.915495,-2.7333
 95,0.\C,0,-1.747715,-1.660126,0.\H,0,0.189038,-1.709801,0.877836\H,0,0
 .189038,-1.709801,-0.877836\C,0,-0.299553,-1.277902,0.\S,0,0.,0.525942
 ,0.\H,0,2.174574,-0.032527,0.883368\H,0,2.174574,-0.032527,-0.883368\C
 ,0,1.831485,0.507447,0.\H,0,3.459524,1.92213,0.\H,0,2.036376,2.479514,

 Normal termination of Gaussian 16 at Sun Apr  6 08:04:53 2025.
