 Gaussian 16, Revision C.01,

 ----------------------------------------------------------------------
 #t hf aug-cc-pvdz symm=none int=(grid=ultrafine) guess=(read,tcheck) s
 table=(opt,rrhf)
 ----------------------------------------------------------------------
 -----
 title
 -----
 Symbolic Z-matrix:
 Charge =  0 Multiplicity = 1

 SCF Done:  E(RHF) =  -383.681417361     A.U. after   15 cycles

 1\1\GINC-SE271\Stability\RHF\Aug-CC-pVDZ\C8H10O1\OHZDE\06-Apr-2025\0\\
 #t hf aug-cc-pvdz symm=none int=(grid=ultrafine) guess=(read,tcheck) s
 table=(opt,rrhf)\\title\\0,1\C,0,-0.901148,1.795527,0.122367\C,0,0.418
 569,1.454846,-0.142196\C,0,-1.883647,0.815844,0.20091\C,0,-0.208669,-0
 .860797,-0.25698\C,0,0.778487,0.11851,-0.333408\C,0,-1.530238,-0.51657
 2,0.009051\C,0,2.984093,-0.57757,0.712281\C,0,2.217039,-0.266854,-0.58
 0918\O,0,-2.444462,-1.534667,0.066317\H,0,-1.173015,2.83292,0.265293\H
 ,0,1.172655,2.228454,-0.206139\H,0,-2.913718,1.08375,0.403866\H,0,0.03

 Normal termination of Gaussian 16 at Sun Apr  6 08:05:07 2025.
 Gaussian 16:  ES64L-G16RevC.01  3-Jul-2019

 ----------------------------------------------------------------------
 #t hf aug-cc-pvdz iop(5/13=1,5/36=2,99/5=2) pseudo=read geom=check gue
 ss=(read,tcheck) scf=(maxcycle=1)
 ----------------------------------------------------------------------
 -----
 title
 -----
 Structure from the checkpoint file:  "3-ethylphenol.chk"
 Charge =  0 Multiplicity = 1

                         Standard orientation:
 ---------------------------------------------------------------------
 Center     Atomic      Atomic             Coordinates (Angstroms)
 Number     Number       Type             X           Y           Z
 ---------------------------------------------------------------------
      1          6           0       -0.901148    1.795527    0.122367
      2          6           0        0.418569    1.454846   -0.142196
      3          6           0       -1.883647    0.815844    0.200910
      4          6           0       -0.208669   -0.860797   -0.256980
      5          6           0        0.778487    0.118510   -0.333408
      6          6           0       -1.530238   -0.516572    0.009051
      7          6           0        2.984093   -0.577570    0.712281
      8          6           0        2.217039   -0.266854   -0.580918
      9          8           0       -2.444462   -1.534667    0.066317
     10          1           0       -1.173015    2.832920    0.265293
     11          1           0        1.172655    2.228454   -0.206139
     12          1           0       -2.913718    1.083750    0.403866
     13          1           0        0.034043   -1.904816   -0.407043
     14          1           0        2.994645    0.286561    1.377704
     15          1           0        4.017795   -0.850368    0.494569
     16          1           0        2.521714   -1.405294    1.251253
     17          1           0        2.251433   -1.139150   -1.236927
     18          1           0        2.720909    0.543479   -1.111640
     19          1           0       -3.317676   -1.175798    0.251885
 ---------------------------------------------------------------------

 SCF Done:  E(RHF) =  -385.506006181     A.U. after    2 cycles

 The electronic state is 1-A.
 Alpha  occ. eigenvalues --  -21.10020 -11.52080 -11.46067 -11.43501 -11.41124
 Alpha  occ. eigenvalues --  -11.40450 -11.39884 -11.36759 -11.35424  -1.75339
 Alpha  occ. eigenvalues --   -1.33707  -1.17637  -1.07626  -1.05241  -0.91509
 Alpha  occ. eigenvalues --   -0.85518  -0.82290  -0.69947  -0.65886  -0.63010
 Alpha  occ. eigenvalues --   -0.60531  -0.58826  -0.55879  -0.54514  -0.51950
 Alpha  occ. eigenvalues --   -0.49994  -0.49476  -0.46041  -0.42435  -0.41597
 Alpha  occ. eigenvalues --   -0.41084  -0.32261  -0.26780
 Alpha virt. eigenvalues --    0.03426   0.04814   0.05157   0.05548   0.06266
 Alpha virt. eigenvalues --    0.06395   0.06723   0.07068   0.07988   0.08364
 Alpha virt. eigenvalues --    0.09803   0.11434   0.12668   0.12792   0.13201

 Mulliken charges:
               1
     1  C   -0.584993
     2  C   -2.796329
     3  C   -5.675094
     4  C   -2.962865
     5  C    4.588471
     6  C    5.989274
     7  C   -3.854971
     8  C   -4.368278
     9  O   -4.571854
    10  H    1.456739
    11  H    1.799846
    12  H    1.702229
    13  H    1.913279
    14  H    1.410214
    15  H    1.149791
    16  H    1.394521
    17  H    1.158882
    18  H    1.230553
    19  H    1.020586
 Sum of Mulliken charges =   0.00000

 Dipole moment (field-independent basis, Debye):
    X=             -0.3940    Y=              0.1079    Z=              0.0727  Tot=              0.4150

 Test job not archived.
 1\1\GINC-SE271\SP\RHF\Aug-CC-pVDZ\C8H10O1\OHZDE\06-Apr-2025\0\\#t hf a
 ug-cc-pvdz iop(5/13=1,5/36=2,99/5=2) pseudo=read geom=check guess=(rea
 d,tcheck) scf=(maxcycle=1)\\title\\0,1\C,0,-0.901148,1.795527,0.122367
 \C,0,0.418569,1.454846,-0.142196\C,0,-1.883647,0.815844,0.20091\C,0,-0
 .208669,-0.860797,-0.25698\C,0,0.778487,0.11851,-0.333408\C,0,-1.53023
 8,-0.516572,0.009051\C,0,2.984093,-0.57757,0.712281\C,0,2.217039,-0.26
 6854,-0.580918\O,0,-2.444462,-1.534667,0.066317\H,0,-1.173015,2.83292,
 0.265293\H,0,1.172655,2.228454,-0.206139\H,0,-2.913718,1.08375,0.40386

 Normal termination of Gaussian 16 at Sun Apr  6 08:05:22 2025.
