 Gaussian 16, Revision C.01,

 ----------------------------------------------------------------------
 #t hf aug-cc-pvdz symm=none int=(grid=ultrafine) guess=(read,tcheck) s
 table=(opt,rrhf)
 ----------------------------------------------------------------------
 -----
 title
 -----
 Symbolic Z-matrix:
 Charge =  0 Multiplicity = 1

 SCF Done:  E(RHF) =  -549.074313137     A.U. after   17 cycles
 Normal termination of Gaussian 16 at Sun Apr  6 08:04:39 2025.
 Gaussian 16:  ES64L-G16RevC.01  3-Jul-2019

 ----------------------------------------------------------------------
 #t hf aug-cc-pvdz iop(5/13=1,5/36=2,99/5=2) pseudo=read geom=check gue
 ss=(read,tcheck) scf=(maxcycle=1)
 ----------------------------------------------------------------------
 -----
 title
 -----
 Structure from the checkpoint file:  "3-fluoro-2-nitropyridine.chk"
 Charge =  0 Multiplicity = 1

                         Standard orientation:
 ---------------------------------------------------------------------
 Center     Atomic      Atomic             Coordinates (Angstroms)
 Number     Number       Type             X           Y           Z
 ---------------------------------------------------------------------
      1          9           0        0.201937    2.092857   -0.235362
      2          8           0        2.218016   -1.126868   -0.702067
      3          8           0        2.244199    0.459327    0.785864
      4          7           0       -0.418686   -1.425726    0.129866
      5          7           0        1.685363   -0.319981    0.031773
      6          6           0        0.196563   -0.271665    0.023108
      7          6           0       -0.463634    0.946200   -0.091353
      8          6           0       -1.846644    0.947840   -0.089972
      9          6           0       -2.503225   -0.267010    0.041067
     10          6           0       -1.749398   -1.430562    0.150722
     11          1           0       -2.376584    1.884122   -0.192026
     12          1           0       -3.582748   -0.311349    0.052145
     13          1           0       -2.224534   -2.397029    0.254856
 ---------------------------------------------------------------------

 SCF Done:  E(RHF) =  -551.381538472     A.U. after    2 cycles

 The electronic state is 1-A.
 Alpha  occ. eigenvalues --  -29.32519 -21.10683 -21.10279 -16.00987 -15.79480
 Alpha  occ. eigenvalues --  -11.57221 -11.51392 -11.49972 -11.47617 -11.43274
 Alpha  occ. eigenvalues --   -2.00901  -1.70309  -1.51788  -1.28399  -1.22609
 Alpha  occ. eigenvalues --   -1.06470  -0.98301  -0.89459  -0.80673  -0.74088
 Alpha  occ. eigenvalues --   -0.71389  -0.68671  -0.67168  -0.62232  -0.60801
 Alpha  occ. eigenvalues --   -0.59506  -0.56463  -0.48463  -0.44902  -0.41634
 Alpha  occ. eigenvalues --   -0.40807  -0.37139  -0.32763  -0.31771  -0.28400
 Alpha  occ. eigenvalues --   -0.27141
 Alpha virt. eigenvalues --    0.02511   0.04538   0.04728   0.07313   0.08689
 Alpha virt. eigenvalues --    0.08896   0.09874   0.11019   0.11878   0.12323
 Alpha virt. eigenvalues --    0.12602   0.13015   0.13686   0.13739   0.14201

 Mulliken charges:
               1
     1  F    1.103822
     2  O   -2.794599
     3  O   -2.590091
     4  N   -3.336740
     5  N    3.261853
     6  C    0.418965
     7  C    1.467908
     8  C   -0.756730
     9  C   -0.522951
    10  C   -0.852763
    11  H    1.619935
    12  H    1.408107
    13  H    1.573283
 Sum of Mulliken charges =   0.00000

 Dipole moment (field-independent basis, Debye):
    X=             -2.8124    Y=              3.4911    Z=             -0.3416  Tot=              4.4960

 Test job not archived.
 1\1\GINC-SE453\SP\RHF\Aug-CC-pVDZ\C5H3F1N2O2\OHZDE\06-Apr-2025\0\\#t h
 f aug-cc-pvdz iop(5/13=1,5/36=2,99/5=2) pseudo=read geom=check guess=(
 read,tcheck) scf=(maxcycle=1)\\title\\0,1\F,0,0.201937,2.092857,-0.235
 362\O,0,2.218016,-1.126868,-0.702067\O,0,2.244199,0.459327,0.785864\N,
 0,-0.418686,-1.425726,0.129866\N,0,1.685363,-0.319981,0.031773\C,0,0.1
 96563,-0.271665,0.023108\C,0,-0.463634,0.9462,-0.091353\C,0,-1.846644,
 0.94784,-0.089972\C,0,-2.503225,-0.26701,0.041067\C,0,-1.749398,-1.430
 562,0.150722\H,0,-2.376584,1.884122,-0.192026\H,0,-3.582748,-0.311349,

 Normal termination of Gaussian 16 at Sun Apr  6 08:05:19 2025.
