 Gaussian 16, Revision C.01,

 ----------------------------------------------------------------------
 #t hf aug-cc-pvdz symm=none int=(grid=ultrafine) guess=(read,tcheck) s
 table=(opt,rrhf)
 ----------------------------------------------------------------------
 -----
 title
 -----
 Symbolic Z-matrix:
 Charge =  0 Multiplicity = 1

 SCF Done:  E(RHF) =  -214.733593976     A.U. after   13 cycles
 Normal termination of Gaussian 16 at Sun Apr  6 08:03:54 2025.
 Gaussian 16:  ES64L-G16RevC.01  3-Jul-2019

 ----------------------------------------------------------------------
 #t hf aug-cc-pvdz iop(5/13=1,5/36=2,99/5=2) pseudo=read geom=check gue
 ss=(read,tcheck) scf=(maxcycle=1)
 ----------------------------------------------------------------------
 -----
 title
 -----
 Structure from the checkpoint file:  "3-fluoro-propyne.chk"
 Charge =  0 Multiplicity = 1

                         Standard orientation:
 ---------------------------------------------------------------------
 Center     Atomic      Atomic             Coordinates (Angstroms)
 Number     Number       Type             X           Y           Z
 ---------------------------------------------------------------------
      1          9           0       -1.495654   -0.534690    0.000025
      2          6           0        0.759246    0.134886   -0.000021
      3          6           0       -0.629994    0.562044    0.000074
      4          6           0        1.910455   -0.197047   -0.000106
      5          1           0        2.928597   -0.497755   -0.000166
      6          1           0       -0.852940    1.155263    0.888657
      7          1           0       -0.853016    1.155403   -0.888397
 ---------------------------------------------------------------------

 SCF Done:  E(RHF) =  -215.625795460     A.U. after    2 cycles

 The electronic state is 1-A.
 Alpha  occ. eigenvalues --  -29.26205 -11.49924 -11.42506 -11.40947  -1.24422
 Alpha  occ. eigenvalues --   -1.05491  -0.77523  -0.69579  -0.66656  -0.65119
 Alpha  occ. eigenvalues --   -0.40824  -0.38949  -0.36040  -0.26077  -0.25782
 Alpha virt. eigenvalues --    0.03307   0.04863   0.06060   0.08752   0.11795
 Alpha virt. eigenvalues --    0.11976   0.12503   0.13293   0.15470   0.15837
 Alpha virt. eigenvalues --    0.16018   0.17597   0.17702   0.21773   0.23599

 Mulliken charges:
               1
     1  F    0.291574
     2  C    3.871398
     3  C   -3.109473
     4  C   -4.218724
     5  H    0.829934
     6  H    1.167649
     7  H    1.167643
 Sum of Mulliken charges =  -0.00000

 Dipole moment (field-independent basis, Debye):
    X=             -0.7658    Y=             -0.5727    Z=              0.0000  Tot=              0.9563

 Test job not archived.
 1\1\GINC-SE453\SP\RHF\Aug-CC-pVDZ\C3H3F1\OHZDE\06-Apr-2025\0\\#t hf au
 g-cc-pvdz iop(5/13=1,5/36=2,99/5=2) pseudo=read geom=check guess=(read
 ,tcheck) scf=(maxcycle=1)\\title\\0,1\F,0,-1.495654,-0.53469,0.000025\
 C,0,0.759246,0.134886,-0.000021\C,0,-0.629994,0.562044,0.000074\C,0,1.
 910455,-0.197047,-0.000106\H,0,2.928597,-0.497755,-0.000166\H,0,-0.852
 94,1.155263,0.888657\H,0,-0.853016,1.155403,-0.888397\\Version=ES64L-G
 16RevC.01\State=1-A\HF=-215.6257955\RMSD=1.007e+00\Dipole=-0.3013028,-
 0.2253179,0.0000002\Quadrupole=2.9565694,-1.4688424,-1.4877271,-1.0732

 Normal termination of Gaussian 16 at Sun Apr  6 08:03:57 2025.
