 Gaussian 16, Revision C.01,

 ----------------------------------------------------------------------
 #t hf aug-cc-pvdz symm=none int=(grid=ultrafine) guess=(read,tcheck) s
 table=(opt,rrhf)
 ----------------------------------------------------------------------
 -----
 title
 -----
 Symbolic Z-matrix:
 Charge =  0 Multiplicity = 1

 SCF Done:  E(RHF) =  -233.003150096     A.U. after   13 cycles
 Normal termination of Gaussian 16 at Sun Apr  6 08:04:17 2025.
 Gaussian 16:  ES64L-G16RevC.01  3-Jul-2019

 ----------------------------------------------------------------------
 #t hf aug-cc-pvdz iop(5/13=1,5/36=2,99/5=2) pseudo=read geom=check gue
 ss=(read,tcheck) scf=(maxcycle=1)
 ----------------------------------------------------------------------
 -----
 title
 -----
 Structure from the checkpoint file:  "3-hexyne.chk"
 Charge =  0 Multiplicity = 1

                         Standard orientation:
 ---------------------------------------------------------------------
 Center     Atomic      Atomic             Coordinates (Angstroms)
 Number     Number       Type             X           Y           Z
 ---------------------------------------------------------------------
      1          6           0       -0.218611   -2.656740    0.856457
      2          6           0        0.218611    2.656740    0.856457
      3          6           0        0.001222    2.061425   -0.542357
      4          6           0       -0.001222   -2.061425   -0.542357
      5          6           0        0.001222   -0.601199   -0.556308
      6          6           0       -0.001222    0.601199   -0.556308
      7          1           0       -0.212880   -3.746339    0.811070
      8          1           0        0.212880    3.746339    0.811070
      9          1           0        1.174145    2.335610    1.270132
     10          1           0       -0.567645    2.337886    1.540172
     11          1           0        0.567645   -2.337886    1.540172
     12          1           0       -1.174145   -2.335610    1.270132
     13          1           0        0.780734    2.424674   -1.217851
     14          1           0       -0.945635    2.426023   -0.950275
     15          1           0        0.945635   -2.426023   -0.950275
     16          1           0       -0.780734   -2.424674   -1.217851
 ---------------------------------------------------------------------

 SCF Done:  E(RHF) =  -234.189102953     A.U. after    2 cycles

 The electronic state is 1-A.
 Alpha  occ. eigenvalues --  -11.46002 -11.43452 -11.38717 -11.38132 -11.37546
 Alpha  occ. eigenvalues --  -11.36054  -1.23804  -1.17482  -1.02294  -0.92785
 Alpha  occ. eigenvalues --   -0.87573  -0.66649  -0.62649  -0.61575  -0.61276
 Alpha  occ. eigenvalues --   -0.52925  -0.52449  -0.50410  -0.49957  -0.49174
 Alpha  occ. eigenvalues --   -0.48586  -0.33654  -0.33443
 Alpha virt. eigenvalues --    0.03508   0.04803   0.05657   0.05934   0.06119
 Alpha virt. eigenvalues --    0.06293   0.06509   0.07050   0.07690   0.07971
 Alpha virt. eigenvalues --    0.10868   0.12101   0.12429   0.12885   0.13432

 Mulliken charges:
               1
     1  C   -3.965955
     2  C   -3.965955
     3  C   -4.586895
     4  C   -4.586895
     5  C    3.010608
     6  C    3.010608
     7  H    1.136698
     8  H    1.136698
     9  H    1.289177
    10  H    1.301820
    11  H    1.301820
    12  H    1.289177
    13  H    0.899337
    14  H    0.915212
    15  H    0.915212
    16  H    0.899337
 Sum of Mulliken charges =  -0.00000

 Dipole moment (field-independent basis, Debye):
    X=              0.0000    Y=             -0.0000    Z=              0.0216  Tot=              0.0216

 Test job not archived.
 1\1\GINC-SE276\SP\RHF\Aug-CC-pVDZ\C6H10\OHZDE\06-Apr-2025\0\\#t hf aug
 -cc-pvdz iop(5/13=1,5/36=2,99/5=2) pseudo=read geom=check guess=(read,
 tcheck) scf=(maxcycle=1)\\title\\0,1\C,0,-0.218611,-2.65674,0.856457\C
 ,0,0.218611,2.65674,0.856457\C,0,0.001222,2.061425,-0.542357\C,0,-0.00
 1222,-2.061425,-0.542357\C,0,0.001222,-0.601199,-0.556308\C,0,-0.00122
 2,0.601199,-0.556308\H,0,-0.21288,-3.746339,0.81107\H,0,0.21288,3.7463
 39,0.81107\H,0,1.174145,2.33561,1.270132\H,0,-0.567645,2.337886,1.5401
 72\H,0,0.567645,-2.337886,1.540172\H,0,-1.174145,-2.33561,1.270132\H,0

 Normal termination of Gaussian 16 at Sun Apr  6 08:04:52 2025.
