 Gaussian 16, Revision C.01,

 ----------------------------------------------------------------------
 #t hf aug-cc-pvdz symm=none int=(grid=ultrafine) guess=(read,tcheck) s
 table=(opt,rrhf)
 ----------------------------------------------------------------------
 -----
 title
 -----
 Symbolic Z-matrix:
 Charge =  0 Multiplicity = 1

 SCF Done:  E(RHF) =  -310.263254276     A.U. after   12 cycles

 1\1\GINC-SE275\Stability\RHF\Aug-CC-pVDZ\C6H14O1\OHZDE\06-Apr-2025\0\\
 #t hf aug-cc-pvdz symm=none int=(grid=ultrafine) guess=(read,tcheck) s
 table=(opt,rrhf)\\title\\0,1\C,0,-3.258638,-0.287523,0.090842\C,0,2.74
 971,-0.958717,-0.125572\C,0,-1.803228,-0.542577,-0.299578\C,0,1.324767
 ,-0.757447,0.38739\C,0,-0.859239,0.560574,0.183682\C,0,0.597669,0.4138
 2,-0.263537\O,0,1.346525,1.592486,0.069305\H,0,-3.369799,-0.222411,1.1
 74974\H,0,-3.623837,0.649674,-0.334114\H,0,-3.910731,-1.087613,-0.2617
 28\H,0,3.360328,-0.076592,0.059161\H,0,3.223088,-1.809507,0.366235\H,0

 Normal termination of Gaussian 16 at Sun Apr  6 08:04:49 2025.
 Gaussian 16:  ES64L-G16RevC.01  3-Jul-2019

 ----------------------------------------------------------------------
 #t hf aug-cc-pvdz iop(5/13=1,5/36=2,99/5=2) pseudo=read geom=check gue
 ss=(read,tcheck) scf=(maxcycle=1)
 ----------------------------------------------------------------------
 -----
 title
 -----
 Structure from the checkpoint file:  "3-hexanol.chk"
 Charge =  0 Multiplicity = 1

                         Standard orientation:
 ---------------------------------------------------------------------
 Center     Atomic      Atomic             Coordinates (Angstroms)
 Number     Number       Type             X           Y           Z
 ---------------------------------------------------------------------
      1          6           0       -3.258638   -0.287524    0.090842
      2          6           0        2.749710   -0.958717   -0.125572
      3          6           0       -1.803228   -0.542577   -0.299578
      4          6           0        1.324767   -0.757447    0.387390
      5          6           0       -0.859239    0.560574    0.183682
      6          6           0        0.597669    0.413820   -0.263537
      7          8           0        1.346525    1.592486    0.069305
      8          1           0       -3.369799   -0.222412    1.174974
      9          1           0       -3.623837    0.649673   -0.334114
     10          1           0       -3.910731   -1.087614   -0.261728
     11          1           0        3.360328   -0.076592    0.059161
     12          1           0        3.223088   -1.809507    0.366235
     13          1           0        2.756534   -1.152346   -1.200530
     14          1           0       -1.487941   -1.506260    0.106282
     15          1           0       -1.729119   -0.630970   -1.387734
     16          1           0        1.337132   -0.587285    1.467729
     17          1           0        0.744175   -1.665979    0.216421
     18          1           0       -1.230746    1.521745   -0.190767
     19          1           0       -0.885745    0.627798    1.275431
     20          1           0        0.618632    0.275514   -1.354253
     21          1           0        0.919582    2.355577   -0.330907
 ---------------------------------------------------------------------

 SCF Done:  E(RHF) =  -311.807256277     A.U. after    2 cycles

 The electronic state is 1-A.
 Alpha  occ. eigenvalues --  -21.05653 -11.45302 -11.42198 -11.40050 -11.37954
 Alpha  occ. eigenvalues --  -11.35717 -11.34144  -1.70360  -1.24199  -1.15276
 Alpha  occ. eigenvalues --   -1.03456  -0.92771  -0.85470  -0.80570  -0.67239
 Alpha  occ. eigenvalues --   -0.63689  -0.61435  -0.57261  -0.56076  -0.54925
 Alpha  occ. eigenvalues --   -0.51805  -0.49868  -0.47764  -0.47204  -0.46145
 Alpha  occ. eigenvalues --   -0.45492  -0.42262  -0.37586  -0.30514
 Alpha virt. eigenvalues --    0.04185   0.04721   0.04980   0.05531   0.05676
 Alpha virt. eigenvalues --    0.05910   0.06276   0.06767   0.07074   0.07762
 Alpha virt. eigenvalues --    0.08255   0.08400   0.10312   0.10507   0.12238

 Mulliken charges:
               1
     1  C   -4.003775
     2  C   -4.037488
     3  C   -2.968292
     4  C   -3.147042
     5  C   -2.818523
     6  C    0.875962
     7  O   -3.092547
     8  H    1.298244
     9  H    1.343685
    10  H    1.086737
    11  H    1.411398
    12  H    1.078564
    13  H    1.315331
    14  H    1.609741
    15  H    1.399908
    16  H    1.441283
    17  H    1.703555
    18  H    1.418037
    19  H    1.458289
    20  H    1.920424
    21  H    0.706509
 Sum of Mulliken charges =  -0.00000

 Dipole moment (field-independent basis, Debye):
    X=             -0.6212    Y=             -0.1404    Z=             -0.3358  Tot=              0.7200

 Test job not archived.
 1\1\GINC-SE275\SP\RHF\Aug-CC-pVDZ\C6H14O1\OHZDE\06-Apr-2025\0\\#t hf a
 ug-cc-pvdz iop(5/13=1,5/36=2,99/5=2) pseudo=read geom=check guess=(rea
 d,tcheck) scf=(maxcycle=1)\\title\\0,1\C,0,-3.258638,-0.287523,0.09084
 2\C,0,2.74971,-0.958717,-0.125572\C,0,-1.803228,-0.542577,-0.299578\C,
 0,1.324767,-0.757447,0.38739\C,0,-0.859239,0.560574,0.183682\C,0,0.597
 669,0.41382,-0.263537\O,0,1.346525,1.592486,0.069305\H,0,-3.369799,-0.
 222411,1.174974\H,0,-3.623837,0.649674,-0.334114\H,0,-3.910731,-1.0876
 13,-0.261728\H,0,3.360328,-0.076592,0.059161\H,0,3.223088,-1.809507,0.

 Normal termination of Gaussian 16 at Sun Apr  6 08:04:58 2025.
