 Gaussian 16, Revision C.01,

 ----------------------------------------------------------------------
 #t hf aug-cc-pvdz symm=none int=(grid=ultrafine) guess=(read,tcheck) s
 table=(opt,rrhf)
 ----------------------------------------------------------------------
 -----
 title
 -----
 Symbolic Z-matrix:
 Charge =  0 Multiplicity = 1

 SCF Done:  E(RHF) =  -234.204870229     A.U. after   13 cycles
 Normal termination of Gaussian 16 at Sun Apr  6 08:04:25 2025.
 Gaussian 16:  ES64L-G16RevC.01  3-Jul-2019

 ----------------------------------------------------------------------
 #t hf aug-cc-pvdz iop(5/13=1,5/36=2,99/5=2) pseudo=read geom=check gue
 ss=(read,tcheck) scf=(maxcycle=1)
 ----------------------------------------------------------------------
 -----
 title
 -----
 Structure from the checkpoint file:  "3-hexene.chk"
 Charge =  0 Multiplicity = 1

                         Standard orientation:
 ---------------------------------------------------------------------
 Center     Atomic      Atomic             Coordinates (Angstroms)
 Number     Number       Type             X           Y           Z
 ---------------------------------------------------------------------
      1          6           0        0.392949    0.006753   -0.314271
      2          6           0        1.845922   -0.344618   -0.447971
      3          6           0        2.755670    0.526135    0.427735
      4          6           0       -2.464073    0.895132   -0.087612
      5          6           0       -2.023839   -0.525165    0.253168
      6          6           0       -0.559417   -0.825207    0.095654
      7          1           0        0.134394    1.030172   -0.571721
      8          1           0        2.150834   -0.225520   -1.493272
      9          1           0        1.992029   -1.398584   -0.200685
     10          1           0        2.631761    1.584844    0.191968
     11          1           0        2.523122    0.393155    1.485148
     12          1           0        3.806004    0.272696    0.276534
     13          1           0       -1.961620    1.631077    0.541868
     14          1           0       -2.247135    1.142851   -1.127808
     15          1           0       -3.538045    1.008319    0.062785
     16          1           0       -2.588225   -1.237015   -0.359875
     17          1           0       -2.312564   -0.756467    1.284752
     18          1           0       -0.273824   -1.843703    0.350091
 ---------------------------------------------------------------------

 SCF Done:  E(RHF) =  -235.422171412     A.U. after    2 cycles

 The electronic state is 1-A.
 Alpha  occ. eigenvalues --  -11.44192 -11.41529 -11.39942 -11.37465 -11.36206
 Alpha  occ. eigenvalues --  -11.34588  -1.26156  -1.15616  -1.03414  -0.92592
 Alpha  occ. eigenvalues --   -0.85431  -0.75625  -0.63101  -0.60998  -0.60679
 Alpha  occ. eigenvalues --   -0.57539  -0.53780  -0.50740  -0.49346  -0.48212
 Alpha  occ. eigenvalues --   -0.47005  -0.44862  -0.42013  -0.32406
 Alpha virt. eigenvalues --    0.03927   0.05109   0.05559   0.05778   0.05809
 Alpha virt. eigenvalues --    0.06227   0.06515   0.06786   0.06840   0.07865
 Alpha virt. eigenvalues --    0.08423   0.09985   0.12165   0.12673   0.13133

 Mulliken charges:
               1
     1  C    0.288487
     2  C   -4.208283
     3  C   -3.761161
     4  C   -4.103223
     5  C   -3.596949
     6  C   -0.206076
     7  H    1.580684
     8  H    1.193194
     9  H    1.417921
    10  H    1.294665
    11  H    1.315772
    12  H    1.172474
    13  H    1.378393
    14  H    1.384559
    15  H    1.041641
    16  H    1.221776
    17  H    1.234073
    18  H    1.352052
 Sum of Mulliken charges =   0.00000

 Dipole moment (field-independent basis, Debye):
    X=             -0.1225    Y=             -0.1030    Z=             -0.0317  Tot=              0.1631

 Test job not archived.
 1\1\GINC-SE275\SP\RHF\Aug-CC-pVDZ\C6H12\OHZDE\06-Apr-2025\0\\#t hf aug
 -cc-pvdz iop(5/13=1,5/36=2,99/5=2) pseudo=read geom=check guess=(read,
 tcheck) scf=(maxcycle=1)\\title\\0,1\C,0,0.392949,0.006753,-0.314271\C
 ,0,1.845922,-0.344618,-0.447971\C,0,2.75567,0.526135,0.427735\C,0,-2.4
 64073,0.895132,-0.087612\C,0,-2.023839,-0.525165,0.253168\C,0,-0.55941
 7,-0.825207,0.095654\H,0,0.134394,1.030172,-0.571721\H,0,2.150834,-0.2
 2552,-1.493272\H,0,1.992029,-1.398584,-0.200685\H,0,2.631761,1.584844,
 0.191968\H,0,2.523122,0.393155,1.485148\H,0,3.806004,0.272696,0.276534

 Normal termination of Gaussian 16 at Sun Apr  6 08:04:55 2025.
