 Gaussian 16, Revision C.01,

 ----------------------------------------------------------------------
 #t hf aug-cc-pvdz symm=none int=(grid=ultrafine) guess=(read,tcheck) s
 table=(opt,rrhf)
 ----------------------------------------------------------------------
 -----
 title
 -----
 Symbolic Z-matrix:
 Charge =  0 Multiplicity = 1

 SCF Done:  E(RHF) =  -580.089435933     A.U. after   16 cycles
 Normal termination of Gaussian 16 at Sun Apr  6 08:05:19 2025.
 Gaussian 16:  ES64L-G16RevC.01  3-Jul-2019

 ----------------------------------------------------------------------
 #t hf aug-cc-pvdz iop(5/13=1,5/36=2,99/5=2) pseudo=read geom=check gue
 ss=(read,tcheck) scf=(maxcycle=1)
 ----------------------------------------------------------------------
 -----
 title
 -----
 Structure from the checkpoint file:  "3-hydroxy-4a-7a-dihydrofuro2-3-d1-2-3triazin-43H-one.chk"
 Charge =  0 Multiplicity = 1

                         Standard orientation:
 ---------------------------------------------------------------------
 Center     Atomic      Atomic             Coordinates (Angstroms)
 Number     Number       Type             X           Y           Z
 ---------------------------------------------------------------------
      1          8           0       -2.290204   -0.882999   -0.151424
      2          8           0        1.444926    1.959948    0.003154
      3          8           0        2.919242   -0.207425   -0.239915
      4          7           0       -0.081213   -1.807611    0.272914
      5          7           0        1.538222   -0.300125   -0.183639
      6          7           0        1.139137   -1.556445    0.277999
      7          6           0       -0.561361    0.592228    0.420127
      8          6           0       -0.879772   -0.732796   -0.252028
      9          6           0       -1.815431    1.347987    0.067672
     10          6           0        0.851036    0.905794    0.038355
     11          6           0       -2.746502    0.420002   -0.163318
     12          1           0       -0.516052    0.455732    1.514116
     13          1           0       -0.629924   -0.648724   -1.323073
     14          1           0       -1.972359    2.408820    0.151036
     15          1           0       -3.804155    0.525826   -0.340190
     16          1           0        3.069933    0.752129   -0.132165
 ---------------------------------------------------------------------

 SCF Done:  E(RHF) =  -582.594448766     A.U. after    2 cycles

 The electronic state is 1-A.
 Alpha  occ. eigenvalues --  -21.12920 -21.10827 -21.08701 -15.86430 -15.83633
 Alpha  occ. eigenvalues --  -15.81754 -11.57129 -11.54443 -11.49324 -11.46980
 Alpha  occ. eigenvalues --  -11.42132  -1.88040  -1.83770  -1.73811  -1.61828
 Alpha  occ. eigenvalues --   -1.30464  -1.25835  -1.15134  -0.97619  -0.95057
 Alpha  occ. eigenvalues --   -0.83785  -0.79488  -0.77436  -0.71762  -0.67708
 Alpha  occ. eigenvalues --   -0.65319  -0.61823  -0.59979  -0.57242  -0.55535
 Alpha  occ. eigenvalues --   -0.51505  -0.50016  -0.49033  -0.47346  -0.45115
 Alpha  occ. eigenvalues --   -0.42775  -0.38740  -0.33268  -0.30603  -0.29348
 Alpha virt. eigenvalues --    0.03257   0.04779   0.04994   0.06425   0.06753
 Alpha virt. eigenvalues --    0.08923   0.09451   0.10358   0.10545   0.11127
 Alpha virt. eigenvalues --    0.11323   0.12474   0.13025   0.13679   0.14057

 Mulliken charges:
               1
     1  O   -3.931927
     2  O   -3.518240
     3  O   -2.679768
     4  N   -1.140433
     5  N    0.585424
     6  N   -0.438007
     7  C   -2.512358
     8  C    2.048850
     9  C   -1.376554
    10  C    5.413879
    11  C    0.874022
    12  H    1.397764
    13  H    1.734245
    14  H    1.222196
    15  H    1.511128
    16  H    0.809780
 Sum of Mulliken charges =   0.00000

 Dipole moment (field-independent basis, Debye):
    X=             -1.6451    Y=              1.5267    Z=             -0.1935  Tot=              2.2527

 Test job not archived.
 1\1\GINC-SE254\SP\RHF\Aug-CC-pVDZ\C5H5N3O3\OHZDE\06-Apr-2025\0\\#t hf
 aug-cc-pvdz iop(5/13=1,5/36=2,99/5=2) pseudo=read geom=check guess=(re
 ad,tcheck) scf=(maxcycle=1)\\title\\0,1\O,0,-2.290204,-0.882999,-0.151
 424\O,0,1.444926,1.959948,0.003154\O,0,2.919242,-0.207425,-0.239915\N,
 0,-0.081213,-1.807611,0.272914\N,0,1.538222,-0.300125,-0.183639\N,0,1.
 139137,-1.556445,0.277999\C,0,-0.561361,0.592228,0.420127\C,0,-0.87977
 2,-0.732796,-0.252028\C,0,-1.815431,1.347987,0.067672\C,0,0.851036,0.9
 05794,0.038355\C,0,-2.746502,0.420002,-0.163318\H,0,-0.516052,0.455732

 Normal termination of Gaussian 16 at Sun Apr  6 08:05:27 2025.
