 Gaussian 16, Revision C.01,

 ----------------------------------------------------------------------
 #t hf aug-cc-pvdz symm=none int=(grid=ultrafine) guess=(read,tcheck) s
 table=(opt,rrhf)
 ----------------------------------------------------------------------
 -----
 title
 -----
 Symbolic Z-matrix:
 Charge =  0 Multiplicity = 1

 SCF Done:  E(RHF) =  -733.947959510     A.U. after   16 cycles
 Normal termination of Gaussian 16 at Sun Apr  6 08:04:12 2025.
 Gaussian 16:  ES64L-G16RevC.01  3-Jul-2019

 ----------------------------------------------------------------------
 #t hf aug-cc-pvdz iop(5/13=1,5/36=2,99/5=2) pseudo=read geom=check gue
 ss=(read,tcheck) scf=(maxcycle=1)
 ----------------------------------------------------------------------
 -----
 title
 -----
 Structure from the checkpoint file:  "3-hydroxy-1-2-thiazole-4-carbonitrile.chk"
 Charge =  0 Multiplicity = 1

                         Standard orientation:
 ---------------------------------------------------------------------
 Center     Atomic      Atomic             Coordinates (Angstroms)
 Number     Number       Type             X           Y           Z
 ---------------------------------------------------------------------
      1         16           0       -1.919398   -0.623306   -0.000004
      2          8           0        0.684500    2.053364    0.000006
      3          7           0       -1.349126    0.945938    0.000001
      4          7           0        3.124988   -0.766794    0.000002
      5          6           0        0.587079   -0.360579    0.000000
      6          6           0       -0.044852    0.929530    0.000002
      7          6           0       -0.373055   -1.340201   -0.000004
      8          6           0        1.987770   -0.580577    0.000001
      9          1           0        0.082922    2.809754    0.000007
     10          1           0       -0.221242   -2.406813   -0.000007
 ---------------------------------------------------------------------

 SCF Done:  E(RHF) =  -735.639192018     A.U. after    2 cycles

 The electronic state is 1-A.
 Alpha  occ. eigenvalues --  -75.76578 -21.14389 -15.77314 -15.77117 -13.24352
 Alpha  occ. eigenvalues --  -13.21522 -13.07974 -11.54784 -11.50929 -11.46679
 Alpha  occ. eigenvalues --  -11.44639  -8.11064  -1.81309  -1.49713  -1.32458
 Alpha  occ. eigenvalues --   -1.20427  -1.12882  -0.90600  -0.86543  -0.76666
 Alpha  occ. eigenvalues --   -0.64718  -0.63111  -0.59953  -0.54871  -0.50269
 Alpha  occ. eigenvalues --   -0.49720  -0.48228  -0.44629  -0.42193  -0.41017
 Alpha  occ. eigenvalues --   -0.37506  -0.27159
 Alpha virt. eigenvalues --    0.02527   0.04399   0.06218   0.07527   0.07566
 Alpha virt. eigenvalues --    0.08543   0.10370   0.10512   0.12097   0.12678
 Alpha virt. eigenvalues --    0.12812   0.13719   0.13956   0.14069   0.15313

 Mulliken charges:
               1
     1  S    2.016479
     2  O   -3.621976
     3  N   -3.026533
     4  N   -2.419017
     5  C    2.681459
     6  C    3.799025
     7  C   -3.702395
     8  C    1.989769
     9  H    0.897703
    10  H    1.385488
 Sum of Mulliken charges =   0.00000

 Dipole moment (field-independent basis, Debye):
    X=             -5.1275    Y=             -0.3924    Z=             -0.0000  Tot=              5.1425

 Test job not archived.
 1\1\GINC-SE276\SP\RHF\Aug-CC-pVDZ\C4H2N2O1S1\OHZDE\06-Apr-2025\0\\#t h
 f aug-cc-pvdz iop(5/13=1,5/36=2,99/5=2) pseudo=read geom=check guess=(
 read,tcheck) scf=(maxcycle=1)\\title\\0,1\S,0,-1.919398,-0.623306,-0.0
 00004\O,0,0.6845,2.053364,0.000006\N,0,-1.349126,0.945938,0.000001\N,0
 ,3.124988,-0.766794,0.000002\C,0,0.587079,-0.360579,0.\C,0,-0.044852,0
 .92953,0.000002\C,0,-0.373055,-1.340201,-0.000004\C,0,1.98777,-0.58057
 7,0.000001\H,0,0.082922,2.809754,0.000007\H,0,-0.221242,-2.406813,-0.0
 00007\\Version=ES64L-G16RevC.01\State=1-A\HF=-735.639192\RMSD=1.141e+0

 Normal termination of Gaussian 16 at Sun Apr  6 08:04:16 2025.
