 Gaussian 16, Revision C.01,

 ----------------------------------------------------------------------
 #t hf aug-cc-pvdz symm=none int=(grid=ultrafine) guess=(read,tcheck) s
 table=(opt,rrhf)
 ----------------------------------------------------------------------
 -----
 title
 -----
 Symbolic Z-matrix:
 Charge =  0 Multiplicity = 1

 SCF Done:  E(RHF) =  -418.345941327     A.U. after   16 cycles
 Normal termination of Gaussian 16 at Sun Apr  6 08:04:41 2025.
 Gaussian 16:  ES64L-G16RevC.01  3-Jul-2019

 ----------------------------------------------------------------------
 #t hf aug-cc-pvdz iop(5/13=1,5/36=2,99/5=2) pseudo=read geom=check gue
 ss=(read,tcheck) scf=(maxcycle=1)
 ----------------------------------------------------------------------
 -----
 title
 -----
 Structure from the checkpoint file:  "3-hydroxybenzaldehyde.chk"
 Charge =  0 Multiplicity = 1

                         Standard orientation:
 ---------------------------------------------------------------------
 Center     Atomic      Atomic             Coordinates (Angstroms)
 Number     Number       Type             X           Y           Z
 ---------------------------------------------------------------------
      1          6           0        1.664907   -0.863089    0.000000
      2          6           0        1.344951    0.483532   -0.000000
      3          6           0        0.661934   -1.830509    0.000000
      4          6           0       -1.007329   -0.096986   -0.000000
      5          6           0       -0.000000    0.864343   -0.000000
      6          6           0       -0.676595   -1.448300    0.000000
      7          6           0       -0.383063    2.293828   -0.000000
      8          8           0        0.394376    3.219298   -0.000000
      9          8           0       -1.703952   -2.348067    0.000000
     10          1           0        2.700183   -1.175867    0.000000
     11          1           0        2.108986    1.247054   -0.000000
     12          1           0        0.922410   -2.882429    0.000000
     13          1           0       -2.049997    0.193551   -0.000000
     14          1           0       -1.476268    2.476862   -0.000000
     15          1           0       -1.357530   -3.245935    0.000000
 ---------------------------------------------------------------------

 SCF Done:  E(RHF) =  -420.211970425     A.U. after    2 cycles

 The electronic state is 1-A'.
 Alpha  occ. eigenvalues --  -21.11722 -21.06247 -11.53610 -11.48820 -11.47092
 Alpha  occ. eigenvalues --  -11.44947 -11.43079 -11.42466 -11.38259  -1.77221
 Alpha  occ. eigenvalues --   -1.70913  -1.34185  -1.13711  -1.09067  -0.94647
 Alpha  occ. eigenvalues --   -0.88134  -0.81139  -0.72428  -0.69400  -0.63251
 Alpha  occ. eigenvalues --   -0.61410  -0.58923  -0.56356  -0.53897  -0.49906
 Alpha  occ. eigenvalues --   -0.48665  -0.46914  -0.43307  -0.42359  -0.33960
 Alpha  occ. eigenvalues --   -0.29767  -0.28468
 Alpha virt. eigenvalues --    0.02931   0.04494   0.05281   0.05963   0.06973
 Alpha virt. eigenvalues --    0.07325   0.08384   0.09431   0.10322   0.11329
 Alpha virt. eigenvalues --    0.12265   0.12393   0.13024   0.13359   0.13893

 Mulliken charges:
               1
     1  C   -0.089126
     2  C   -3.066253
     3  C   -5.774976
     4  C   -2.125763
     5  C    4.634594
     6  C    5.914580
     7  C   -0.694167
     8  O   -3.221781
     9  O   -4.595080
    10  H    1.454046
    11  H    1.760547
    12  H    1.650818
    13  H    1.864246
    14  H    1.266867
    15  H    1.021447
 Sum of Mulliken charges =  -0.00000

 Dipole moment (field-independent basis, Debye):
    X=             -0.0734    Y=             -2.5167    Z=             -0.0000  Tot=              2.5177

 Test job not archived.
 1\1\GINC-SE254\SP\RHF\Aug-CC-pVDZ\C7H6O2\OHZDE\06-Apr-2025\0\\#t hf au
 g-cc-pvdz iop(5/13=1,5/36=2,99/5=2) pseudo=read geom=check guess=(read
 ,tcheck) scf=(maxcycle=1)\\title\\0,1\C,0,1.664907,-0.863089,0.\C,0,1.
 344951,0.483532,0.\C,0,0.661934,-1.830509,0.\C,0,-1.007329,-0.096986,0
 .\C,0,0.,0.864343,0.\C,0,-0.676595,-1.4483,0.\C,0,-0.383063,2.293828,0
 .\O,0,0.394376,3.219298,0.\O,0,-1.703952,-2.348067,0.\H,0,2.700183,-1.
 175867,0.\H,0,2.108986,1.247054,0.\H,0,0.922411,-2.882429,0.\H,0,-2.04
 9997,0.193551,0.\H,0,-1.476268,2.476862,0.\H,0,-1.357529,-3.245935,0.\

 Normal termination of Gaussian 16 at Sun Apr  6 08:04:57 2025.
