 Gaussian 16, Revision C.01,

 ----------------------------------------------------------------------
 #t hf aug-cc-pvdz symm=none int=(grid=ultrafine) guess=(read,tcheck) s
 table=(opt,rrhf)
 ----------------------------------------------------------------------
 -----
 title
 -----
 Symbolic Z-matrix:
 Charge =  0 Multiplicity = 1

 SCF Done:  E(RHF) =  -434.587640422     A.U. after   14 cycles
 Normal termination of Gaussian 16 at Sun Apr  6 08:04:34 2025.
 Gaussian 16:  ES64L-G16RevC.01  3-Jul-2019

 ----------------------------------------------------------------------
 #t hf aug-cc-pvdz iop(5/13=1,5/36=2,99/5=2) pseudo=read geom=check gue
 ss=(read,tcheck) scf=(maxcycle=1)
 ----------------------------------------------------------------------
 -----
 title
 -----
 Structure from the checkpoint file:  "3-hydroxy-1-3-oxazinan-4-one.chk"
 Charge =  0 Multiplicity = 1

                         Standard orientation:
 ---------------------------------------------------------------------
 Center     Atomic      Atomic             Coordinates (Angstroms)
 Number     Number       Type             X           Y           Z
 ---------------------------------------------------------------------
      1          6           0       -0.625254    0.796229   -0.069321
      2          6           0        0.748082    1.424367   -0.171862
      3          6           0        1.831447    0.472172    0.325884
      4          6           0        0.493068   -1.432208    0.084495
      5          7           0       -0.642039   -0.552571   -0.197890
      6          8           0       -1.673211    1.417918    0.082626
      7          8           0        1.681886   -0.808195   -0.288855
      8          8           0       -1.868778   -1.171591    0.063455
      9          1           0        0.927139    1.687106   -1.216193
     10          1           0        0.732773    2.348662    0.404513
     11          1           0        2.826636    0.822193    0.062253
     12          1           0        1.780973    0.363978    1.416043
     13          1           0        0.486076   -1.691814    1.152629
     14          1           0        0.385932   -2.336757   -0.510335
     15          1           0       -2.448486   -0.393789    0.203331
 ---------------------------------------------------------------------

 SCF Done:  E(RHF) =  -436.479758640     A.U. after    2 cycles

 The electronic state is 1-A.
 Alpha  occ. eigenvalues --  -21.10663 -21.07771 -21.04011 -15.78958 -11.52269
 Alpha  occ. eigenvalues --  -11.48906 -11.45785 -11.40873  -1.84819  -1.78185
 Alpha  occ. eigenvalues --   -1.69317  -1.30084  -1.18614  -0.99389  -0.93639
 Alpha  occ. eigenvalues --   -0.77331  -0.71439  -0.67879  -0.67436  -0.65299
 Alpha  occ. eigenvalues --   -0.60864  -0.58634  -0.52424  -0.51308  -0.50354
 Alpha  occ. eigenvalues --   -0.45672  -0.41133  -0.39263  -0.33417  -0.30497
 Alpha  occ. eigenvalues --   -0.27319
 Alpha virt. eigenvalues --    0.03464   0.04844   0.05233   0.05471   0.06201
 Alpha virt. eigenvalues --    0.06997   0.07079   0.10155   0.10409   0.11536
 Alpha virt. eigenvalues --    0.12620   0.13314   0.13422   0.14304   0.14645

 Mulliken charges:
               1
     1  C    5.006465
     2  C   -2.808105
     3  C   -1.615675
     4  C   -0.783213
     5  N   -0.310515
     6  O   -3.437857
     7  O   -2.964621
     8  O   -2.785685
     9  H    1.407223
    10  H    1.312805
    11  H    1.216507
    12  H    1.519167
    13  H    1.749841
    14  H    1.593972
    15  H    0.899690
 Sum of Mulliken charges =  -0.00000

 Dipole moment (field-independent basis, Debye):
    X=              2.0378    Y=             -0.6597    Z=              0.4145  Tot=              2.1816

 Test job not archived.
 1\1\GINC-SE255\SP\RHF\Aug-CC-pVDZ\C4H7N1O3\OHZDE\06-Apr-2025\0\\#t hf
 aug-cc-pvdz iop(5/13=1,5/36=2,99/5=2) pseudo=read geom=check guess=(re
 ad,tcheck) scf=(maxcycle=1)\\title\\0,1\C,0,-0.625254,0.796229,-0.0693
 21\C,0,0.748082,1.424367,-0.171862\C,0,1.831447,0.472172,0.325884\C,0,
 0.493068,-1.432208,0.084495\N,0,-0.642039,-0.552571,-0.19789\O,0,-1.67
 3211,1.417918,0.082626\O,0,1.681886,-0.808195,-0.288855\O,0,-1.868778,
 -1.171591,0.063455\H,0,0.927139,1.687106,-1.216193\H,0,0.732774,2.3486
 62,0.404513\H,0,2.826636,0.822192,0.062253\H,0,1.780973,0.363978,1.416

 Normal termination of Gaussian 16 at Sun Apr  6 08:04:55 2025.
