 Gaussian 16, Revision C.01,

 ----------------------------------------------------------------------
 #t hf aug-cc-pvdz symm=none int=(grid=ultrafine) guess=(read,tcheck) s
 table=(opt,rrhf)
 ----------------------------------------------------------------------
 -----
 title
 -----
 Symbolic Z-matrix:
 Charge =  0 Multiplicity = 1

 SCF Done:  E(RHF) =  -1039.67997996     A.U. after   15 cycles
 Normal termination of Gaussian 16 at Sun Apr  6 08:04:08 2025.
 Gaussian 16:  ES64L-G16RevC.01  3-Jul-2019

 ----------------------------------------------------------------------
 #t hf aug-cc-pvdz iop(5/13=1,5/36=2,99/5=2) pseudo=read geom=check gue
 ss=(read,tcheck) scf=(maxcycle=1)
 ----------------------------------------------------------------------
 -----
 title
 -----
 Structure from the checkpoint file:  "3-hydroxy-1-3-thiazole-23H-thione.chk"
 Charge =  0 Multiplicity = 1

                         Standard orientation:
 ---------------------------------------------------------------------
 Center     Atomic      Atomic             Coordinates (Angstroms)
 Number     Number       Type             X           Y           Z
 ---------------------------------------------------------------------
      1         16           0        1.022965   -1.331872    0.000004
      2         16           0       -2.014356   -0.693644   -0.000004
      3          8           0       -0.819041    2.032145   -0.000005
      4          7           0        0.058506    0.978276   -0.000000
      5          6           0        1.414989    1.194251    0.000002
      6          6           0       -0.395063   -0.296584   -0.000000
      7          6           0        2.103807    0.039075    0.000005
      8          1           0        1.783115    2.205430    0.000001
      9          1           0        3.171199   -0.084468    0.000008
     10          1           0       -1.691668    1.561773   -0.000006
 ---------------------------------------------------------------------

 SCF Done:  E(RHF) =  -1041.21010608     A.U. after    2 cycles

 The electronic state is 1-A.
 Alpha  occ. eigenvalues --  -75.74960 -75.65243 -21.13962 -15.85805 -13.20047
 Alpha  occ. eigenvalues --  -13.18202 -13.13905 -13.06643 -13.02258 -12.96410
 Alpha  occ. eigenvalues --  -11.51352 -11.49422 -11.44024  -8.09361  -7.99362
 Alpha  occ. eigenvalues --   -1.86910  -1.46957  -1.19996  -1.19409  -1.04068
 Alpha  occ. eigenvalues --   -0.88815  -0.78993  -0.73456  -0.66274  -0.64031
 Alpha  occ. eigenvalues --   -0.59562  -0.51579  -0.46411  -0.45788  -0.41975
 Alpha  occ. eigenvalues --   -0.39910  -0.30209  -0.23606  -0.21005
 Alpha virt. eigenvalues --    0.02182   0.04394   0.05672   0.07137   0.08257
 Alpha virt. eigenvalues --    0.08684   0.08881   0.10132   0.10561   0.12118
 Alpha virt. eigenvalues --    0.12417   0.14162   0.15233   0.15379   0.15935

 Mulliken charges:
               1
     1  S    1.733549
     2  S    0.934919
     3  O   -3.171454
     4  N   -0.299081
     5  C    0.365628
     6  C   -1.004717
     7  C   -2.219256
     8  H    1.469001
     9  H    1.165651
    10  H    1.025761
 Sum of Mulliken charges =   0.00000

 Dipole moment (field-independent basis, Debye):
    X=              2.3693    Y=             -0.5496    Z=              0.0000  Tot=              2.4322

 Test job not archived.
 1\1\GINC-SE253\SP\RHF\Aug-CC-pVDZ\C3H3N1O1S2\OHZDE\06-Apr-2025\0\\#t h
 f aug-cc-pvdz iop(5/13=1,5/36=2,99/5=2) pseudo=read geom=check guess=(
 read,tcheck) scf=(maxcycle=1)\\title\\0,1\S,0,1.022965,-1.331872,0.000
 004\S,0,-2.014356,-0.693644,-0.000004\O,0,-0.819041,2.032145,-0.000005
 \N,0,0.058506,0.978276,0.\C,0,1.414989,1.194251,0.000002\C,0,-0.395063
 ,-0.296584,0.\C,0,2.103807,0.039075,0.000005\H,0,1.783115,2.20543,0.00
 0001\H,0,3.171199,-0.084468,0.000008\H,0,-1.691668,1.561773,-0.000006\
 \Version=ES64L-G16RevC.01\State=1-A\HF=-1041.2101061\RMSD=5.649e-01\Di

 Normal termination of Gaussian 16 at Sun Apr  6 08:04:13 2025.
