 Gaussian 16, Revision C.01,

 ----------------------------------------------------------------------
 #t hf aug-cc-pvdz symm=none int=(grid=ultrafine) guess=(read,tcheck) s
 table=(opt,rrhf)
 ----------------------------------------------------------------------
 -----
 title
 -----
 Symbolic Z-matrix:
 Charge =  0 Multiplicity = 1

 SCF Done:  E(RHF) =  -339.331857622     A.U. after   16 cycles
 Normal termination of Gaussian 16 at Sun Apr  6 08:04:00 2025.
 Gaussian 16:  ES64L-G16RevC.01  3-Jul-2019

 ----------------------------------------------------------------------
 #t hf aug-cc-pvdz iop(5/13=1,5/36=2,99/5=2) pseudo=read geom=check gue
 ss=(read,tcheck) scf=(maxcycle=1)
 ----------------------------------------------------------------------
 -----
 title
 -----
 Structure from the checkpoint file:  "3-hydroxy-2-propynoic_acid.chk"
 Charge =  0 Multiplicity = 1

                         Standard orientation:
 ---------------------------------------------------------------------
 Center     Atomic      Atomic             Coordinates (Angstroms)
 Number     Number       Type             X           Y           Z
 ---------------------------------------------------------------------
      1          8           0       -1.742727   -1.171659   -0.000001
      2          8           0       -1.798817    1.053904    0.000000
      3          8           0        2.791456    0.110796    0.000000
      4          6           0       -1.139153   -0.134860    0.000000
      5          6           0        0.298037   -0.026971    0.000000
      6          6           0        1.499219    0.000183    0.000000
      7          1           0       -1.166265    1.783255    0.000000
      8          1           0        3.218346   -0.757686    0.000000
 ---------------------------------------------------------------------

 SCF Done:  E(RHF) =  -340.736548298     A.U. after    2 cycles

 The electronic state is 1-A.
 Alpha  occ. eigenvalues --  -21.19216 -21.13098 -21.05907 -11.56381 -11.50385
 Alpha  occ. eigenvalues --  -11.42839  -1.84016  -1.82159  -1.66108  -1.13723
 Alpha  occ. eigenvalues --   -0.91604  -0.77148  -0.72639  -0.60949  -0.59378
 Alpha  occ. eigenvalues --   -0.55074  -0.53399  -0.49168  -0.38660  -0.35824
 Alpha  occ. eigenvalues --   -0.32605  -0.31576
 Alpha virt. eigenvalues --    0.01961   0.04835   0.08433   0.09813   0.11055
 Alpha virt. eigenvalues --    0.11056   0.12562   0.13209   0.13244   0.14444
 Alpha virt. eigenvalues --    0.15454   0.16689   0.17657   0.17978   0.20499

 Mulliken charges:
               1
     1  O   -2.934216
     2  O   -2.781567
     3  O   -3.489778
     4  C    5.013517
     5  C    0.659592
     6  C    1.646668
     7  H    1.049520
     8  H    0.836264
 Sum of Mulliken charges =  -0.00000

 Dipole moment (field-independent basis, Debye):
    X=              3.3434    Y=              0.8376    Z=              0.0000  Tot=              3.4467

 Test job not archived.
 1\1\GINC-SE253\SP\RHF\Aug-CC-pVDZ\C3H2O3\OHZDE\06-Apr-2025\0\\#t hf au
 g-cc-pvdz iop(5/13=1,5/36=2,99/5=2) pseudo=read geom=check guess=(read
 ,tcheck) scf=(maxcycle=1)\\title\\0,1\O,0,-1.742727,-1.171659,-0.00000
 1\O,0,-1.798817,1.053904,0.\O,0,2.791456,0.110796,0.\C,0,-1.139153,-0.
 13486,0.\C,0,0.298037,-0.026971,0.\C,0,1.499219,0.000183,0.\H,0,-1.166
 265,1.783255,0.\H,0,3.218346,-0.757686,0.\\Version=ES64L-G16RevC.01\St
 ate=1-A\HF=-340.7365483\RMSD=7.343e-01\Dipole=1.3154066,0.3295209,0.00
 00002\Quadrupole=2.1789131,-0.1011206,-2.0777925,-4.257669,-0.0000005,

 Normal termination of Gaussian 16 at Sun Apr  6 08:04:03 2025.
