 Gaussian 16, Revision C.01,

 ----------------------------------------------------------------------
 #t hf aug-cc-pvdz symm=none int=(grid=ultrafine) guess=(read,tcheck) s
 table=(opt,rrhf)
 ----------------------------------------------------------------------
 -----
 title
 -----
 Symbolic Z-matrix:
 Charge =  0 Multiplicity = 1

 SCF Done:  E(RHF) =  -223.635695792     A.U. after   15 cycles
 Normal termination of Gaussian 16 at Sun Apr  6 08:03:56 2025.
 Gaussian 16:  ES64L-G16RevC.01  3-Jul-2019

 ----------------------------------------------------------------------
 #t hf aug-cc-pvdz iop(5/13=1,5/36=2,99/5=2) pseudo=read geom=check gue
 ss=(read,tcheck) scf=(maxcycle=1)
 ----------------------------------------------------------------------
 -----
 title
 -----
 Structure from the checkpoint file:  "3-iminoacrylonitrile.chk"
 Charge =  0 Multiplicity = 1

                         Standard orientation:
 ---------------------------------------------------------------------
 Center     Atomic      Atomic             Coordinates (Angstroms)
 Number     Number       Type             X           Y           Z
 ---------------------------------------------------------------------
      1          7           0        2.167803   -0.419703   -0.124405
      2          7           0       -2.312485   -0.509274   -0.000062
      3          6           0       -0.068587    0.741058    0.011284
      4          6           0        1.098133    0.121401    0.008582
      5          6           0       -1.296379    0.036975    0.003444
      6          1           0       -0.082728    1.822552    0.039789
      7          1           0        2.696506   -0.716315    0.691622
 ---------------------------------------------------------------------

 SCF Done:  E(RHF) =  -224.631112553     A.U. after    2 cycles

 The electronic state is 1-A.
 Alpha  occ. eigenvalues --  -15.82415 -15.76124 -11.53392 -11.46807 -11.43566
 Alpha  occ. eigenvalues --   -1.41919  -1.31422  -1.15380  -0.84758  -0.74188
 Alpha  occ. eigenvalues --   -0.69742  -0.58434  -0.53375  -0.49088  -0.48739
 Alpha  occ. eigenvalues --   -0.44471  -0.33933
 Alpha virt. eigenvalues --    0.02112   0.04520   0.08901   0.09134   0.10614
 Alpha virt. eigenvalues --    0.11417   0.11726   0.11892   0.12678   0.12985
 Alpha virt. eigenvalues --    0.14368   0.14538   0.15252   0.15765   0.19079

 Mulliken charges:
               1
     1  N   -2.863810
     2  N   -2.339416
     3  C   -0.632618
     4  C    1.834160
     5  C    1.737778
     6  H    1.448813
     7  H    0.815094
 Sum of Mulliken charges =  -0.00000

 Dipole moment (field-independent basis, Debye):
    X=              3.9164    Y=              1.2624    Z=              1.2421  Tot=              4.2983

 Test job not archived.
 1\1\GINC-SE366\SP\RHF\Aug-CC-pVDZ\C3H2N2\OHZDE\06-Apr-2025\0\\#t hf au
 g-cc-pvdz iop(5/13=1,5/36=2,99/5=2) pseudo=read geom=check guess=(read
 ,tcheck) scf=(maxcycle=1)\\title\\0,1\N,0,2.167803,-0.419703,-0.124405
 \N,0,-2.312485,-0.509274,-0.000062\C,0,-0.068587,0.741058,0.011284\C,0
 ,1.098133,0.121401,0.008582\C,0,-1.296379,0.036975,0.003444\H,0,-0.082
 728,1.822552,0.039789\H,0,2.696506,-0.716315,0.691622\\Version=ES64L-G
 16RevC.01\State=1-A\HF=-224.6311126\RMSD=4.237e-01\Dipole=1.5408423,0.
 4966832,0.4886748\Quadrupole=-2.3256417,2.1818622,0.1437795,-2.6690314

 Normal termination of Gaussian 16 at Sun Apr  6 08:03:59 2025.
