 Gaussian 16, Revision C.01,

 ----------------------------------------------------------------------
 #t hf aug-cc-pvdz symm=none int=(grid=ultrafine) guess=(read,tcheck) s
 table=(opt,rrhf)
 ----------------------------------------------------------------------
 -----
 title
 -----
 Symbolic Z-matrix:
 Charge =  0 Multiplicity = 1

 SCF Done:  E(RHF) =  -319.538718155     A.U. after   15 cycles
 Normal termination of Gaussian 16 at Sun Apr  6 08:03:59 2025.
 Gaussian 16:  ES64L-G16RevC.01  3-Jul-2019

 ----------------------------------------------------------------------
 #t hf aug-cc-pvdz iop(5/13=1,5/36=2,99/5=2) pseudo=read geom=check gue
 ss=(read,tcheck) scf=(maxcycle=1)
 ----------------------------------------------------------------------
 -----
 title
 -----
 Structure from the checkpoint file:  "3-imino-2-propenoicacid.chk"
 Charge =  0 Multiplicity = 1

                         Standard orientation:
 ---------------------------------------------------------------------
 Center     Atomic      Atomic             Coordinates (Angstroms)
 Number     Number       Type             X           Y           Z
 ---------------------------------------------------------------------
      1          8           0        0.832747    1.359187    0.006513
      2          8           0        2.144989   -0.432647   -0.013277
      3          7           0       -2.578092    0.122693   -0.135032
      4          6           0        0.917327    0.160721    0.006423
      5          6           0       -0.225737   -0.768608    0.030257
      6          6           0       -1.459445   -0.297235    0.010407
      7          1           0        2.070121   -1.393038   -0.029288
      8          1           0       -3.142970    0.393415    0.664093
      9          1           0       -0.095256   -1.840812    0.082007
 ---------------------------------------------------------------------

 SCF Done:  E(RHF) =  -320.901669996     A.U. after    2 cycles

 The electronic state is 1-A.
 Alpha  occ. eigenvalues --  -21.12554 -21.04342 -15.81510 -11.53909 -11.52653
 Alpha  occ. eigenvalues --  -11.42673  -1.82209  -1.65188  -1.40365  -1.15420
 Alpha  occ. eigenvalues --   -0.86832  -0.78030  -0.70812  -0.68940  -0.58880
 Alpha  occ. eigenvalues --   -0.53869  -0.52104  -0.49383  -0.45532  -0.36097
 Alpha  occ. eigenvalues --   -0.32144  -0.30601
 Alpha virt. eigenvalues --    0.02372   0.04452   0.05541   0.09761   0.10386
 Alpha virt. eigenvalues --    0.11047   0.11428   0.11969   0.12476   0.12888
 Alpha virt. eigenvalues --    0.13447   0.14186   0.14363   0.16636   0.17248

 Mulliken charges:
               1
     1  O   -2.926986
     2  O   -3.043875
     3  N   -2.904669
     4  C    4.848954
     5  C   -1.503084
     6  C    2.151249
     7  H    1.081996
     8  H    0.818698
     9  H    1.477718
 Sum of Mulliken charges =   0.00000

 Dipole moment (field-independent basis, Debye):
    X=             -1.5581    Y=             -2.1665    Z=              1.2069  Tot=              2.9288

 Test job not archived.
 1\1\GINC-SE365\SP\RHF\Aug-CC-pVDZ\C3H3N1O2\OHZDE\06-Apr-2025\0\\#t hf
 aug-cc-pvdz iop(5/13=1,5/36=2,99/5=2) pseudo=read geom=check guess=(re
 ad,tcheck) scf=(maxcycle=1)\\title\\0,1\O,0,0.832747,1.359187,0.006513
 \O,0,2.144989,-0.432647,-0.013277\N,0,-2.578092,0.122693,-0.135032\C,0
 ,0.917327,0.160721,0.006423\C,0,-0.225737,-0.768608,0.030257\C,0,-1.45
 9445,-0.297235,0.010407\H,0,2.070121,-1.393038,-0.029288\H,0,-3.14297,
 0.393415,0.664093\H,0,-0.095256,-1.840812,0.082007\\Version=ES64L-G16R
 evC.01\State=1-A\HF=-320.90167\RMSD=4.485e-01\Dipole=-0.6129913,-0.852

 Normal termination of Gaussian 16 at Sun Apr  6 08:04:03 2025.
