 Gaussian 16, Revision C.01,

 ----------------------------------------------------------------------
 #t hf aug-cc-pvdz symm=none int=(grid=ultrafine) guess=(read,tcheck) s
 table=(opt,rrhf)
 ----------------------------------------------------------------------
 -----
 title
 -----
 Symbolic Z-matrix:
 Charge =  0 Multiplicity = 1

 SCF Done:  E(RHF) =  -243.444584425     A.U. after   16 cycles
 Normal termination of Gaussian 16 at Sun Apr  6 08:03:55 2025.
 Gaussian 16:  ES64L-G16RevC.01  3-Jul-2019

 ----------------------------------------------------------------------
 #t hf aug-cc-pvdz iop(5/13=1,5/36=2,99/5=2) pseudo=read geom=check gue
 ss=(read,tcheck) scf=(maxcycle=1)
 ----------------------------------------------------------------------
 -----
 title
 -----
 Structure from the checkpoint file:  "3-imino-1-allenone.chk"
 Charge =  0 Multiplicity = 1

                         Standard orientation:
 ---------------------------------------------------------------------
 Center     Atomic      Atomic             Coordinates (Angstroms)
 Number     Number       Type             X           Y           Z
 ---------------------------------------------------------------------
      1          8           0        2.465982    0.020631   -0.000235
      2          7           0       -2.444823   -0.094872   -0.000289
      3          6           0        0.032526   -0.028629    0.000643
      4          6           0        1.301270   -0.000338   -0.000035
      5          6           0       -1.244363    0.008532    0.000055
      6          1           0       -3.150699    0.621669   -0.000074
 ---------------------------------------------------------------------

 SCF Done:  E(RHF) =  -244.489329554     A.U. after    2 cycles

 The electronic state is 1-A.
 Alpha  occ. eigenvalues --  -21.13816 -15.80211 -11.57938 -11.55330 -11.41433
 Alpha  occ. eigenvalues --   -1.77484  -1.39702  -1.14815  -0.91681  -0.75986
 Alpha  occ. eigenvalues --   -0.61572  -0.59086  -0.58744  -0.52044  -0.51077
 Alpha  occ. eigenvalues --   -0.32454  -0.30009
 Alpha virt. eigenvalues --    0.02940   0.05994   0.08867   0.09890   0.10372
 Alpha virt. eigenvalues --    0.10550   0.12357   0.12548   0.13238   0.13615
 Alpha virt. eigenvalues --    0.16511   0.18289   0.19043   0.20717   0.21308

 Mulliken charges:
               1
     1  O   -2.808546
     2  N   -3.532557
     3  C    1.383191
     4  C    1.708774
     5  C    2.470356
     6  H    0.778781
 Sum of Mulliken charges =  -0.00000

 Dipole moment (field-independent basis, Debye):
    X=             -0.0770    Y=              1.2203    Z=             -0.0012  Tot=              1.2227

 Test job not archived.
 1\1\GINC-SE365\SP\RHF\Aug-CC-pVDZ\C3H1N1O1\OHZDE\06-Apr-2025\0\\#t hf
 aug-cc-pvdz iop(5/13=1,5/36=2,99/5=2) pseudo=read geom=check guess=(re
 ad,tcheck) scf=(maxcycle=1)\\title\\0,1\O,0,2.465982,0.020631,-0.00023
 5\N,0,-2.444823,-0.094872,-0.000289\C,0,0.032526,-0.028629,0.000643\C,
 0,1.30127,-0.000338,-0.000035\C,0,-1.244363,0.008532,0.000055\H,0,-3.1
 50699,0.621669,-0.000074\\Version=ES64L-G16RevC.01\State=1-A\HF=-244.4
 893296\RMSD=9.480e-01\Dipole=-0.0303047,0.4800967,-0.000486\Quadrupole
 =3.0662188,-1.1176857,-1.9485331,-3.0359045,-0.0012792,0.000017\PG=C01

 Normal termination of Gaussian 16 at Sun Apr  6 08:03:56 2025.
