 Gaussian 16, Revision C.01,

 ----------------------------------------------------------------------
 #t hf aug-cc-pvdz symm=none int=(grid=ultrafine) guess=(read,tcheck) s
 table=(opt,rrhf)
 ----------------------------------------------------------------------
 -----
 title
 -----
 Symbolic Z-matrix:
 Charge =  0 Multiplicity = 1

 SCF Done:  E(RHF) =  -605.136636751     A.U. after   15 cycles
 Normal termination of Gaussian 16 at Sun Apr  6 08:03:59 2025.
 Gaussian 16:  ES64L-G16RevC.01  3-Jul-2019

 ----------------------------------------------------------------------
 #t hf aug-cc-pvdz iop(5/13=1,5/36=2,99/5=2) pseudo=read geom=check gue
 ss=(read,tcheck) scf=(maxcycle=1)
 ----------------------------------------------------------------------
 -----
 title
 -----
 Structure from the checkpoint file:  "3-isothiocyanato-1-propyne.chk"
 Charge =  0 Multiplicity = 1

                         Standard orientation:
 ---------------------------------------------------------------------
 Center     Atomic      Atomic             Coordinates (Angstroms)
 Number     Number       Type             X           Y           Z
 ---------------------------------------------------------------------
      1         16           0        2.304780    0.469076    0.000055
      2          7           0       -0.000276   -1.064889   -0.000264
      3          6           0       -1.440161   -1.078448    0.000154
      4          6           0       -2.045252    0.250085    0.000038
      5          6           0        0.961067   -0.361593   -0.000087
      6          6           0       -2.535008    1.342919   -0.000048
      7          1           0       -1.775353   -1.640578   -0.874688
      8          1           0       -1.774829   -1.640184    0.875452
      9          1           0       -2.968251    2.311985   -0.000143
 ---------------------------------------------------------------------

 SCF Done:  E(RHF) =  -606.315415989     A.U. after    2 cycles

 The electronic state is 1-A.
 Alpha  occ. eigenvalues --  -75.68941 -15.78961 -13.21326 -13.00383 -13.00209
 Alpha  occ. eigenvalues --  -11.53924 -11.50806 -11.43191 -11.42021  -8.03219
 Alpha  occ. eigenvalues --   -1.44942  -1.20476  -1.12794  -1.03120  -0.78882
 Alpha  occ. eigenvalues --   -0.71670  -0.67168  -0.66270  -0.55740  -0.51634
 Alpha  occ. eigenvalues --   -0.51280  -0.39967  -0.39142  -0.27316  -0.25380
 Alpha virt. eigenvalues --    0.02050   0.04632   0.05925   0.06331   0.08534
 Alpha virt. eigenvalues --    0.08732   0.10113   0.10982   0.11495   0.12315
 Alpha virt. eigenvalues --    0.12571   0.12642   0.13731   0.14385   0.15184

 Mulliken charges:
               1
     1  S    1.498759
     2  N   -2.815659
     3  C   -3.187779
     4  C    4.615551
     5  C    0.755191
     6  C   -4.324381
     7  H    1.316514
     8  H    1.316569
     9  H    0.825235
 Sum of Mulliken charges =  -0.00000

 Dipole moment (field-independent basis, Debye):
    X=              0.1462    Y=              1.2594    Z=              0.0007  Tot=              1.2678

 Test job not archived.
 1\1\GINC-SE366\SP\RHF\Aug-CC-pVDZ\C4H3N1S1\OHZDE\06-Apr-2025\0\\#t hf
 aug-cc-pvdz iop(5/13=1,5/36=2,99/5=2) pseudo=read geom=check guess=(re
 ad,tcheck) scf=(maxcycle=1)\\title\\0,1\S,0,2.30478,0.469076,0.000055\
 N,0,-0.000276,-1.064889,-0.000264\C,0,-1.440161,-1.078448,0.000154\C,0
 ,-2.045252,0.250085,0.000038\C,0,0.961067,-0.361593,-0.000087\C,0,-2.5
 35008,1.342919,-0.000048\H,0,-1.775353,-1.640578,-0.874688\H,0,-1.7748
 29,-1.640184,0.875452\H,0,-2.968251,2.311985,-0.000143\\Version=ES64L-
 G16RevC.01\State=1-A\HF=-606.315416\RMSD=8.407e-01\Dipole=0.0575017,0.

 Normal termination of Gaussian 16 at Sun Apr  6 08:04:03 2025.
