 Gaussian 16, Revision C.01,

 ----------------------------------------------------------------------
 #t hf aug-cc-pvdz symm=none int=(grid=ultrafine) guess=(read,tcheck) s
 table=(opt,rrhf)
 ----------------------------------------------------------------------
 -----
 title
 -----
 Symbolic Z-matrix:
 Charge =  0 Multiplicity = 1

 SCF Done:  E(RHF) =  -660.246624162     A.U. after   15 cycles
 Normal termination of Gaussian 16 at Sun Apr  6 08:04:04 2025.
 Gaussian 16:  ES64L-G16RevC.01  3-Jul-2019

 ----------------------------------------------------------------------
 #t hf aug-cc-pvdz iop(5/13=1,5/36=2,99/5=2) pseudo=read geom=check gue
 ss=(read,tcheck) scf=(maxcycle=1)
 ----------------------------------------------------------------------
 -----
 title
 -----
 Structure from the checkpoint file:  "3-isothiocyanatopropanenitrile.chk"
 Charge =  0 Multiplicity = 1

                         Standard orientation:
 ---------------------------------------------------------------------
 Center     Atomic      Atomic             Coordinates (Angstroms)
 Number     Number       Type             X           Y           Z
 ---------------------------------------------------------------------
      1         16           0        3.337777   -0.078999   -0.008241
      2          7           0        0.585203    0.215569    0.016899
      3          7           0       -4.172513   -0.426062   -0.009011
      4          6           0       -0.703901   -0.405684    0.011919
      5          6           0       -1.805058    0.666399   -0.001765
      6          6           0       -3.134377    0.067327   -0.005912
      7          6           0        1.762573    0.040262    0.005120
      8          1           0       -0.797866   -1.046210   -0.866960
      9          1           0       -0.809327   -1.034429    0.897962
     10          1           0       -1.695465    1.298430   -0.884021
     11          1           0       -1.706021    1.309821    0.873498
 ---------------------------------------------------------------------

 SCF Done:  E(RHF) =  -661.668527730     A.U. after    2 cycles

 The electronic state is 1-A.
 Alpha  occ. eigenvalues --  -75.70025 -15.80105 -15.77576 -13.23689 -13.01471
 Alpha  occ. eigenvalues --  -13.01265 -11.55874 -11.50655 -11.47095 -11.43682
 Alpha  occ. eigenvalues --   -8.04298  -1.46563  -1.33480  -1.22352  -1.14249
 Alpha  occ. eigenvalues --   -0.99942  -0.77528  -0.71547  -0.68805  -0.62907
 Alpha  occ. eigenvalues --   -0.60504  -0.56481  -0.53576  -0.51682  -0.51616
 Alpha  occ. eigenvalues --   -0.44963  -0.44555  -0.28380  -0.26541
 Alpha virt. eigenvalues --    0.01992   0.04743   0.05497   0.05880   0.06036
 Alpha virt. eigenvalues --    0.07799   0.08817   0.09311   0.10415   0.10491
 Alpha virt. eigenvalues --    0.11063   0.11806   0.12784   0.13580   0.15165

 Mulliken charges:
               1
     1  S    1.640676
     2  N   -3.454180
     3  N   -2.399360
     4  C   -2.655405
     5  C   -2.892035
     6  C    2.239975
     7  C    1.320796
     8  H    1.579837
     9  H    1.571630
    10  H    1.521544
    11  H    1.526521
 Sum of Mulliken charges =  -0.00000

 Dipole moment (field-independent basis, Debye):
    X=              4.1711    Y=              0.3879    Z=             -0.0169  Tot=              4.1891

 Test job not archived.
 1\1\GINC-SE408\SP\RHF\Aug-CC-pVDZ\C4H4N2S1\OHZDE\06-Apr-2025\0\\#t hf
 aug-cc-pvdz iop(5/13=1,5/36=2,99/5=2) pseudo=read geom=check guess=(re
 ad,tcheck) scf=(maxcycle=1)\\title\\0,1\S,0,3.337777,-0.078999,-0.0082
 41\N,0,0.585203,0.215569,0.016899\N,0,-4.172513,-0.426062,-0.009011\C,
 0,-0.703901,-0.405684,0.011919\C,0,-1.805058,0.666399,-0.001765\C,0,-3
 .134377,0.067327,-0.005912\C,0,1.762573,0.040262,0.00512\H,0,-0.797866
 ,-1.04621,-0.86696\H,0,-0.809327,-1.034429,0.897962\H,0,-1.695465,1.29
 843,-0.884021\H,0,-1.706021,1.309821,0.873498\\Version=ES64L-G16RevC.0

 Normal termination of Gaussian 16 at Sun Apr  6 08:04:08 2025.
