 Gaussian 16, Revision C.01,

 ----------------------------------------------------------------------
 #t hf aug-cc-pvdz symm=none int=(grid=ultrafine) guess=(read,tcheck) s
 table=(opt,rrhf)
 ----------------------------------------------------------------------
 -----
 title
 -----
 Symbolic Z-matrix:
 Charge =  0 Multiplicity = 1

 SCF Done:  E(RHF) =  -270.065343138     A.U. after   14 cycles

 1\1\GINC-SE291\Stability\RHF\Aug-CC-pVDZ\C5H10O1\OHZDE\06-Apr-2025\0\\
 #t hf aug-cc-pvdz symm=none int=(grid=ultrafine) guess=(read,tcheck) s
 table=(opt,rrhf)\\title\\0,1\C,0,0.753389,-0.242774,-0.066189\C,0,1.95
 0166,0.504928,0.480694\C,0,-1.111331,1.335203,-0.553983\C,0,-1.623252,
 -0.9268,0.469523\C,0,-0.624754,0.227078,0.399162\O,0,0.883709,-1.16136
 8,-0.844108\H,0,1.79544,1.584352,0.445517\H,0,2.847365,0.235724,-0.070
 49\H,0,2.082848,0.238822,1.5328\H,0,-1.24058,0.938427,-1.561561\H,0,-2
 .07193,1.724975,-0.21589\H,0,-0.41227,2.170887,-0.605134\H,0,-1.294846

 Normal termination of Gaussian 16 at Sun Apr  6 08:04:20 2025.
 Gaussian 16:  ES64L-G16RevC.01  3-Jul-2019

 ----------------------------------------------------------------------
 #t hf aug-cc-pvdz iop(5/13=1,5/36=2,99/5=2) pseudo=read geom=check gue
 ss=(read,tcheck) scf=(maxcycle=1)
 ----------------------------------------------------------------------
 -----
 title
 -----
 Structure from the checkpoint file:  "3-methyl-2-butanone.chk"
 Charge =  0 Multiplicity = 1

                         Standard orientation:
 ---------------------------------------------------------------------
 Center     Atomic      Atomic             Coordinates (Angstroms)
 Number     Number       Type             X           Y           Z
 ---------------------------------------------------------------------
      1          6           0        0.753389   -0.242774   -0.066189
      2          6           0        1.950166    0.504928    0.480694
      3          6           0       -1.111331    1.335203   -0.553983
      4          6           0       -1.623252   -0.926800    0.469523
      5          6           0       -0.624754    0.227078    0.399162
      6          8           0        0.883709   -1.161368   -0.844108
      7          1           0        1.795440    1.584352    0.445517
      8          1           0        2.847365    0.235723   -0.070490
      9          1           0        2.082848    0.238822    1.532800
     10          1           0       -1.240580    0.938427   -1.561561
     11          1           0       -2.071930    1.724976   -0.215890
     12          1           0       -0.412270    2.170887   -0.605134
     13          1           0       -1.294846   -1.694619    1.170584
     14          1           0       -1.735386   -1.397169   -0.506315
     15          1           0       -2.599221   -0.564363    0.794752
     16          1           0       -0.506399    0.668094    1.393352
 ---------------------------------------------------------------------

 SCF Done:  E(RHF) =  -271.368550839     A.U. after    2 cycles

 The electronic state is 1-A.
 Alpha  occ. eigenvalues --  -21.04398 -11.49108 -11.42014 -11.39008 -11.38925
 Alpha  occ. eigenvalues --  -11.36152  -1.70286  -1.24350  -1.09252  -1.00805
 Alpha  occ. eigenvalues --   -0.89623  -0.72868  -0.65546  -0.62045  -0.60363
 Alpha  occ. eigenvalues --   -0.57445  -0.55328  -0.54099  -0.51735  -0.47274
 Alpha  occ. eigenvalues --   -0.45998  -0.44969  -0.39693  -0.27456
 Alpha virt. eigenvalues --    0.03478   0.05033   0.05334   0.05534   0.05811
 Alpha virt. eigenvalues --    0.05995   0.06719   0.07294   0.07987   0.09076
 Alpha virt. eigenvalues --    0.11096   0.12684   0.13201   0.13723   0.14650

 Mulliken charges:
               1
     1  C    4.953269
     2  C   -4.564965
     3  C   -3.924122
     4  C   -3.668765
     5  C   -2.635404
     6  O   -3.553780
     7  H    1.317671
     8  H    1.279846
     9  H    1.221749
    10  H    1.338910
    11  H    1.260606
    12  H    1.335100
    13  H    1.202347
    14  H    1.425777
    15  H    1.163534
    16  H    1.848229
 Sum of Mulliken charges =   0.00000

 Dipole moment (field-independent basis, Debye):
    X=             -0.3285    Y=              1.1058    Z=              0.8874  Tot=              1.4554

 Test job not archived.
 1\1\GINC-SE291\SP\RHF\Aug-CC-pVDZ\C5H10O1\OHZDE\06-Apr-2025\0\\#t hf a
 ug-cc-pvdz iop(5/13=1,5/36=2,99/5=2) pseudo=read geom=check guess=(rea
 d,tcheck) scf=(maxcycle=1)\\title\\0,1\C,0,0.753389,-0.242774,-0.06618
 9\C,0,1.950166,0.504928,0.480694\C,0,-1.111331,1.335203,-0.553983\C,0,
 -1.623252,-0.9268,0.469523\C,0,-0.624754,0.227078,0.399162\O,0,0.88370
 9,-1.161368,-0.844108\H,0,1.79544,1.584352,0.445517\H,0,2.847365,0.235
 724,-0.07049\H,0,2.082848,0.238822,1.5328\H,0,-1.24058,0.938427,-1.561
 561\H,0,-2.07193,1.724975,-0.21589\H,0,-0.41227,2.170887,-0.605134\H,0

 Normal termination of Gaussian 16 at Sun Apr  6 08:04:54 2025.
