 Gaussian 16, Revision C.01,

 ----------------------------------------------------------------------
 #t hf aug-cc-pvdz symm=none int=(grid=ultrafine) guess=(read,tcheck) s
 table=(opt,rrhf)
 ----------------------------------------------------------------------
 -----
 title
 -----
 Symbolic Z-matrix:
 Charge =  0 Multiplicity = 1

 SCF Done:  E(RHF) =  -274.427955845     A.U. after   11 cycles
 Normal termination of Gaussian 16 at Sun Apr  6 08:05:04 2025.
 Gaussian 16:  ES64L-G16RevC.01  3-Jul-2019

 ----------------------------------------------------------------------
 #t hf aug-cc-pvdz iop(5/13=1,5/36=2,99/5=2) pseudo=read geom=check gue
 ss=(read,tcheck) scf=(maxcycle=1)
 ----------------------------------------------------------------------
 -----
 title
 -----
 Structure from the checkpoint file:  "3-methylhexane.chk"
 Charge =  0 Multiplicity = 1

                         Standard orientation:
 ---------------------------------------------------------------------
 Center     Atomic      Atomic             Coordinates (Angstroms)
 Number     Number       Type             X           Y           Z
 ---------------------------------------------------------------------
      1          6           0       -3.327207   -0.419023    0.041928
      2          6           0        3.090721   -0.451140   -0.274255
      3          6           0       -0.788431   -0.412239    0.253951
      4          6           0        0.571113    0.141230   -0.203853
      5          6           0        1.708576   -0.763650    0.299514
      6          6           0       -2.017419    0.251736   -0.371051
      7          1           0        3.827406   -1.178545    0.069812
      8          1           0       -4.188029    0.070172   -0.416159
      9          1           0       -3.463898   -0.383764    1.124825
     10          1           0       -3.344052   -1.469173   -0.256997
     11          1           0        3.079369   -0.485016   -1.366025
     12          1           0        3.447082    0.535638    0.022419
     13          1           0       -1.923476    0.224375   -1.461206
     14          1           0       -2.055863    1.307823   -0.095365
     15          1           0        1.456099   -1.799914    0.057534
     16          1           0        1.746302   -0.710073    1.392821
     17          1           0       -0.853981   -0.337240    1.345824
     18          1           0       -0.821582   -1.482078    0.023681
     19          1           0        0.587534    0.107539   -1.300667
     20          6           0        0.769883    1.598721    0.226172
     21          1           0       -0.014695    2.245965   -0.165115
     22          1           0        1.720804    1.997706   -0.126289
     23          1           0        0.757558    1.682770    1.316470
 ---------------------------------------------------------------------

 SCF Done:  E(RHF) =  -275.889821157     A.U. after    2 cycles

 The electronic state is 1-A.
 Alpha  occ. eigenvalues --  -11.41960 -11.41620 -11.39501 -11.37911 -11.36485
 Alpha  occ. eigenvalues --  -11.35421 -11.33277  -1.29107  -1.16104  -1.06813
 Alpha  occ. eigenvalues --   -0.98760  -0.91314  -0.83609  -0.78997  -0.65147
 Alpha  occ. eigenvalues --   -0.62028  -0.60704  -0.58288  -0.56227  -0.53621
 Alpha  occ. eigenvalues --   -0.52789  -0.50107  -0.49560  -0.48441  -0.45594
 Alpha  occ. eigenvalues --   -0.45185  -0.43521  -0.41182  -0.37792
 Alpha virt. eigenvalues --    0.04306   0.04902   0.04910   0.05414   0.05750
 Alpha virt. eigenvalues --    0.06091   0.06133   0.06208   0.06532   0.07584
 Alpha virt. eigenvalues --    0.07882   0.08275   0.08449   0.10518   0.10730

 Mulliken charges:
               1
     1  C   -4.510047
     2  C   -4.359728
     3  C   -2.351151
     4  C   -0.443834
     5  C   -3.178760
     6  C   -3.273877
     7  H    1.041934
     8  H    1.073076
     9  H    1.320662
    10  H    1.346033
    11  H    1.265608
    12  H    1.452491
    13  H    1.420619
    14  H    1.608441
    15  H    1.446782
    16  H    1.410420
    17  H    1.519522
    18  H    1.615141
    19  H    1.950566
    20  C   -4.444759
    21  H    1.390686
    22  H    1.429679
    23  H    1.270497
 Sum of Mulliken charges =   0.00000

 Dipole moment (field-independent basis, Debye):
    X=              0.0036    Y=              0.0044    Z=             -0.1255  Tot=              0.1256

 Test job not archived.
 1\1\GINC-SE298\SP\RHF\Aug-CC-pVDZ\C7H16\OHZDE\06-Apr-2025\0\\#t hf aug
 -cc-pvdz iop(5/13=1,5/36=2,99/5=2) pseudo=read geom=check guess=(read,
 tcheck) scf=(maxcycle=1)\\title\\0,1\C,0,-3.327207,-0.419023,0.041928\
 C,0,3.090721,-0.45114,-0.274255\C,0,-0.788431,-0.412239,0.253951\C,0,0
 .571113,0.14123,-0.203853\C,0,1.708576,-0.76365,0.299514\C,0,-2.017419
 ,0.251736,-0.371051\H,0,3.827406,-1.178545,0.069812\H,0,-4.188029,0.07
 0172,-0.416159\H,0,-3.463898,-0.383764,1.124825\H,0,-3.344052,-1.46917
 3,-0.256997\H,0,3.079369,-0.485016,-1.366025\H,0,3.447082,0.535638,0.0

 Normal termination of Gaussian 16 at Sun Apr  6 08:05:23 2025.
