 Gaussian 16, Revision C.01,

 ----------------------------------------------------------------------
 #t hf aug-cc-pvdz symm=none int=(grid=ultrafine) guess=(read,tcheck) s
 table=(opt,rrhf)
 ----------------------------------------------------------------------
 -----
 title
 -----
 Symbolic Z-matrix:
 Charge =  0 Multiplicity = 1

 SCF Done:  E(RHF) =  -233.039109447     A.U. after   13 cycles
 Normal termination of Gaussian 16 at Sun Apr  6 08:04:18 2025.
 Gaussian 16:  ES64L-G16RevC.01  3-Jul-2019

 ----------------------------------------------------------------------
 #t hf aug-cc-pvdz iop(5/13=1,5/36=2,99/5=2) pseudo=read geom=check gue
 ss=(read,tcheck) scf=(maxcycle=1)
 ----------------------------------------------------------------------
 -----
 title
 -----
 Structure from the checkpoint file:  "3-methylcyclopentene.chk"
 Charge =  0 Multiplicity = 1

                         Standard orientation:
 ---------------------------------------------------------------------
 Center     Atomic      Atomic             Coordinates (Angstroms)
 Number     Number       Type             X           Y           Z
 ---------------------------------------------------------------------
      1          1           0       -0.288253    2.211377    0.113712
      2          6           0        0.103075    1.202002    0.097091
      3          1           0        2.155830    1.583915   -0.380964
      4          6           0        1.366429    0.878250   -0.158285
      5          1           0        2.158926   -0.837607    0.868606
      6          1           0        2.190120   -1.009750   -0.873105
      7          6           0        1.601620   -0.607266   -0.046137
      8          1           0        0.072016   -2.042382    0.656132
      9          1           0       -0.122787   -1.505070   -1.005335
     10          6           0        0.165989   -1.180038   -0.003279
     11          1           0       -0.908864   -0.034062    1.507559
     12          6           0       -0.750290   -0.003256    0.421562
     13          1           0       -2.727516    0.841153    0.071891
     14          1           0       -2.677022   -0.918993   -0.000210
     15          1           0       -2.025849    0.037111   -1.334613
     16          6           0       -2.124590   -0.010641   -0.248232
 ---------------------------------------------------------------------

 SCF Done:  E(RHF) =  -234.228290016     A.U. after    2 cycles

 The electronic state is 1-A.
 Alpha  occ. eigenvalues --  -11.44190 -11.43673 -11.38966 -11.37467 -11.37234
 Alpha  occ. eigenvalues --  -11.33683  -1.33447  -1.09994  -1.02608  -0.93886
 Alpha  occ. eigenvalues --   -0.80676  -0.74903  -0.67963  -0.63283  -0.57477
 Alpha  occ. eigenvalues --   -0.56002  -0.50338  -0.49045  -0.46863  -0.45088
 Alpha  occ. eigenvalues --   -0.43510  -0.41271  -0.32237
 Alpha virt. eigenvalues --    0.04051   0.05284   0.05435   0.05602   0.05863
 Alpha virt. eigenvalues --    0.06251   0.06373   0.06903   0.07756   0.08490
 Alpha virt. eigenvalues --    0.12077   0.12578   0.12906   0.14291   0.14780

 Mulliken charges:
               1
     1  H    1.509801
     2  C   -0.548933
     3  H    1.366085
     4  C   -0.048209
     5  H    1.310857
     6  H    1.202516
     7  C   -3.876022
     8  H    1.262583
     9  H    1.520206
    10  C   -3.006505
    11  H    1.518982
    12  C   -2.007550
    13  H    1.181906
    14  H    1.224484
    15  H    1.326660
    16  C   -3.936861
 Sum of Mulliken charges =  -0.00000

 Dipole moment (field-independent basis, Debye):
    X=              0.0983    Y=             -0.1119    Z=              0.2077  Tot=              0.2556

 Test job not archived.
 1\1\GINC-SE431\SP\RHF\Aug-CC-pVDZ\C6H10\OHZDE\06-Apr-2025\0\\#t hf aug
 -cc-pvdz iop(5/13=1,5/36=2,99/5=2) pseudo=read geom=check guess=(read,
 tcheck) scf=(maxcycle=1)\\title\\0,1\H,0,-0.288253,2.211377,0.113712\C
 ,0,0.103075,1.202002,0.097091\H,0,2.15583,1.583915,-0.380964\C,0,1.366
 429,0.87825,-0.158285\H,0,2.158926,-0.837607,0.868606\H,0,2.19012,-1.0
 0975,-0.873105\C,0,1.60162,-0.607266,-0.046137\H,0,0.072016,-2.042382,
 0.656132\H,0,-0.122787,-1.50507,-1.005335\C,0,0.165989,-1.180038,-0.00
 3279\H,0,-0.908864,-0.034062,1.507559\C,0,-0.75029,-0.003256,0.421562\

 Normal termination of Gaussian 16 at Sun Apr  6 08:04:54 2025.
