 Gaussian 16, Revision C.01,

 ----------------------------------------------------------------------
 #t hf aug-cc-pvdz symm=none int=(grid=ultrafine) guess=(read,tcheck) s
 table=(opt,rrhf)
 ----------------------------------------------------------------------
 -----
 title
 -----
 Symbolic Z-matrix:
 Charge =  0 Multiplicity = 1

 SCF Done:  E(RHF) =  -271.218579927     A.U. after   12 cycles

 1\1\GINC-SE292\Stability\RHF\Aug-CC-pVDZ\C5H12O1\OHZDE\06-Apr-2025\0\\
 #t hf aug-cc-pvdz symm=none int=(grid=ultrafine) guess=(read,tcheck) s
 table=(opt,rrhf)\\title\\0,1\C,0,1.596556,-1.266774,-0.239032\C,0,1.59
 6587,1.262126,-0.295667\C,0,-0.382487,0.015965,0.749058\C,0,-1.29752,-
 0.031192,-0.471402\C,0,1.13244,0.013943,0.463905\O,0,-2.679318,-0.0787
 6,-0.109803\H,0,2.685123,-1.295615,-0.309213\H,0,1.204663,-1.33577,-1.
 25552\H,0,1.274126,-2.157267,0.303519\H,0,1.20444,1.286519,-1.31398\H,
 0,2.685176,1.287631,-0.367323\H,0,1.275953,2.176485,0.207423\H,0,-0.62

 Normal termination of Gaussian 16 at Sun Apr  6 08:04:26 2025.
 Gaussian 16:  ES64L-G16RevC.01  3-Jul-2019

 ----------------------------------------------------------------------
 #t hf aug-cc-pvdz iop(5/13=1,5/36=2,99/5=2) pseudo=read geom=check gue
 ss=(read,tcheck) scf=(maxcycle=1)
 ----------------------------------------------------------------------
 -----
 title
 -----
 Structure from the checkpoint file:  "3-methyl-1-butanol.chk"
 Charge =  0 Multiplicity = 1

                         Standard orientation:
 ---------------------------------------------------------------------
 Center     Atomic      Atomic             Coordinates (Angstroms)
 Number     Number       Type             X           Y           Z
 ---------------------------------------------------------------------
      1          6           0        1.596556   -1.266774   -0.239032
      2          6           0        1.596587    1.262126   -0.295667
      3          6           0       -0.382487    0.015965    0.749058
      4          6           0       -1.297520   -0.031192   -0.471402
      5          6           0        1.132440    0.013943    0.463905
      6          8           0       -2.679318   -0.078760   -0.109803
      7          1           0        2.685123   -1.295615   -0.309213
      8          1           0        1.204663   -1.335770   -1.255520
      9          1           0        1.274126   -2.157267    0.303519
     10          1           0        1.204440    1.286519   -1.313980
     11          1           0        2.685176    1.287631   -0.367323
     12          1           0        1.275953    2.176485    0.207423
     13          1           0       -0.625987    0.914555    1.327581
     14          1           0       -0.629303   -0.837820    1.385322
     15          1           0       -1.111212    0.820023   -1.133951
     16          1           0       -1.127626   -0.938783   -1.049056
     17          1           0        1.619002    0.036154    1.444159
     18          1           0       -2.893279    0.709561    0.398292
 ---------------------------------------------------------------------

 SCF Done:  E(RHF) =  -272.559741950     A.U. after    2 cycles

 The electronic state is 1-A.
 Alpha  occ. eigenvalues --  -21.06097 -11.43449 -11.41637 -11.38406 -11.38111
 Alpha  occ. eigenvalues --  -11.34625  -1.69841  -1.26001  -1.06197  -1.00213
 Alpha  occ. eigenvalues --   -0.90260  -0.79381  -0.66350  -0.64075  -0.60148
 Alpha  occ. eigenvalues --   -0.57968  -0.54765  -0.53353  -0.52541  -0.49553
 Alpha  occ. eigenvalues --   -0.46776  -0.43319  -0.43060  -0.38517  -0.30524
 Alpha virt. eigenvalues --    0.03850   0.05168   0.05435   0.05547   0.05672
 Alpha virt. eigenvalues --    0.05920   0.06295   0.06450   0.06993   0.08768
 Alpha virt. eigenvalues --    0.09291   0.09935   0.11970   0.13657   0.13998

 Mulliken charges:
               1
     1  C   -4.097791
     2  C   -4.162728
     3  C   -2.827058
     4  C   -0.748608
     5  C   -0.848996
     6  O   -2.767159
     7  H    1.156442
     8  H    1.464882
     9  H    1.230076
    10  H    1.489342
    11  H    1.151416
    12  H    1.217589
    13  H    1.350031
    14  H    1.352438
    15  H    1.356515
    16  H    1.416465
    17  H    1.536612
    18  H    0.730532
 Sum of Mulliken charges =   0.00000

 Dipole moment (field-independent basis, Debye):
    X=              0.7766    Y=              0.4693    Z=              0.3342  Tot=              0.9670

 Test job not archived.
 1\1\GINC-SE292\SP\RHF\Aug-CC-pVDZ\C5H12O1\OHZDE\06-Apr-2025\0\\#t hf a
 ug-cc-pvdz iop(5/13=1,5/36=2,99/5=2) pseudo=read geom=check guess=(rea
 d,tcheck) scf=(maxcycle=1)\\title\\0,1\C,0,1.596556,-1.266774,-0.23903
 2\C,0,1.596587,1.262126,-0.295667\C,0,-0.382487,0.015965,0.749058\C,0,
 -1.29752,-0.031192,-0.471402\C,0,1.13244,0.013943,0.463905\O,0,-2.6793
 18,-0.07876,-0.109803\H,0,2.685123,-1.295615,-0.309213\H,0,1.204663,-1
 .33577,-1.25552\H,0,1.274126,-2.157267,0.303519\H,0,1.20444,1.286519,-
 1.31398\H,0,2.685176,1.287631,-0.367323\H,0,1.275953,2.176485,0.207423

 Normal termination of Gaussian 16 at Sun Apr  6 08:04:55 2025.
