 Gaussian 16, Revision C.01,

 ----------------------------------------------------------------------
 #t hf aug-cc-pvdz symm=none int=(grid=ultrafine) guess=(read,tcheck) s
 table=(opt,rrhf)
 ----------------------------------------------------------------------
 -----
 title
 -----
 Symbolic Z-matrix:
 Charge =  0 Multiplicity = 1

 SCF Done:  E(RHF) =  -400.552957802     A.U. after   17 cycles
 Normal termination of Gaussian 16 at Sun Apr  6 08:05:25 2025.
 Gaussian 16:  ES64L-G16RevC.01  3-Jul-2019

 ----------------------------------------------------------------------
 #t hf aug-cc-pvdz iop(5/13=1,5/36=2,99/5=2) pseudo=read geom=check gue
 ss=(read,tcheck) scf=(maxcycle=1)
 ----------------------------------------------------------------------
 -----
 title
 -----
 Structure from the checkpoint file:  "3-methyl-1H-indole.chk"
 Charge =  0 Multiplicity = 1

                         Standard orientation:
 ---------------------------------------------------------------------
 Center     Atomic      Atomic             Coordinates (Angstroms)
 Number     Number       Type             X           Y           Z
 ---------------------------------------------------------------------
      1          6           0        2.400164    0.371988    0.000000
      2          6           0        2.378035   -1.032832    0.000000
      3          6           0        1.225975    1.104452    0.000000
      4          6           0        1.182366   -1.731751    0.000000
      5          6           0       -2.128810   -0.282840    0.000000
      6          6           0        0.000000    0.426694    0.000000
      7          6           0       -1.373591    0.855620    0.000000
      8          6           0        0.002264   -0.990913    0.000000
      9          6           0       -1.867832    2.265726    0.000000
     10          7           0       -1.311241   -1.397590    0.000000
     11          1           0        3.352447    0.884836    0.000000
     12          1           0        3.311975   -1.578319    0.000000
     13          1           0        1.256606    2.186234    0.000000
     14          1           0        1.169379   -2.813921    0.000000
     15          1           0       -3.200520   -0.392057    0.000000
     16          1           0       -1.518423    2.813684    0.878543
     17          1           0       -1.518423    2.813684   -0.878543
     18          1           0       -2.957160    2.300825    0.000000
     19          1           0       -1.628626   -2.348692    0.000000
 ---------------------------------------------------------------------

 SCF Done:  E(RHF) =  -402.477778699     A.U. after    2 cycles

 The electronic state is 1-A'.
 Alpha  occ. eigenvalues --  -15.77480 -11.50490 -11.45088 -11.44100 -11.42379
 Alpha  occ. eigenvalues --  -11.41430 -11.40358 -11.39345 -11.38516 -11.35395
 Alpha  occ. eigenvalues --   -1.51143  -1.27958  -1.18226  -1.07350  -1.05710
 Alpha  occ. eigenvalues --   -0.98845  -0.87550  -0.83324  -0.77608  -0.71068
 Alpha  occ. eigenvalues --   -0.65347  -0.64617  -0.59264  -0.59104  -0.56617
 Alpha  occ. eigenvalues --   -0.54477  -0.52882  -0.50125  -0.49775  -0.45296
 Alpha  occ. eigenvalues --   -0.44316  -0.41580  -0.36581  -0.28465  -0.25741
 Alpha virt. eigenvalues --    0.03387   0.04414   0.04789   0.05879   0.06323
 Alpha virt. eigenvalues --    0.06785   0.07051   0.07114   0.08155   0.09860
 Alpha virt. eigenvalues --    0.10165   0.11923   0.12471   0.12849   0.13599

 Mulliken charges:
               1
     1  C   -2.510888
     2  C   -2.111403
     3  C    1.524561
     4  C   -4.266255
     5  C   -2.004991
     6  C    1.339256
     7  C    3.238426
     8  C    2.536713
     9  C   -4.939097
    10  N   -4.671730
    11  H    1.543157
    12  H    1.468512
    13  H    1.622690
    14  H    1.600645
    15  H    1.403662
    16  H    1.079775
    17  H    1.079775
    18  H    1.349135
    19  H    0.718059
 Sum of Mulliken charges =  -0.00000

 Dipole moment (field-independent basis, Debye):
    X=             -1.5474    Y=             -1.3870    Z=              0.0000  Tot=              2.0780

 Test job not archived.
 1\1\GINC-SE289\SP\RHF\Aug-CC-pVDZ\C9H9N1\OHZDE\06-Apr-2025\0\\#t hf au
 g-cc-pvdz iop(5/13=1,5/36=2,99/5=2) pseudo=read geom=check guess=(read
 ,tcheck) scf=(maxcycle=1)\\title\\0,1\C,0,2.400164,0.371989,0.\C,0,2.3
 78036,-1.032831,0.\C,0,1.225975,1.104452,0.\C,0,1.182367,-1.731751,0.\
 C,0,-2.12881,-0.282841,0.\C,0,0.,0.426694,0.\C,0,-1.373591,0.855619,0.
 \C,0,0.002265,-0.990913,0.\C,0,-1.867833,2.265725,0.\N,0,-1.31124,-1.3
 97591,0.\H,0,3.352447,0.884837,0.\H,0,3.311976,-1.578318,0.\H,0,1.2566
 05,2.186234,0.\H,0,1.16938,-2.813921,0.\H,0,-3.20052,-0.392058,0.\H,0,

 Normal termination of Gaussian 16 at Sun Apr  6 08:05:34 2025.
