 Gaussian 16, Revision C.01,

 ----------------------------------------------------------------------
 #t hf aug-cc-pvdz symm=none int=(grid=ultrafine) guess=(read,tcheck) s
 table=(opt,rrhf)
 ----------------------------------------------------------------------
 -----
 title
 -----
 Symbolic Z-matrix:
 Charge =  0 Multiplicity = 1

 SCF Done:  E(RHF) =  -195.164484775     A.U. after   13 cycles
 Normal termination of Gaussian 16 at Sun Apr  6 08:04:11 2025.
 Gaussian 16:  ES64L-G16RevC.01  3-Jul-2019

 ----------------------------------------------------------------------
 #t hf aug-cc-pvdz iop(5/13=1,5/36=2,99/5=2) pseudo=read geom=check gue
 ss=(read,tcheck) scf=(maxcycle=1)
 ----------------------------------------------------------------------
 -----
 title
 -----
 Structure from the checkpoint file:  "3-methyl-1-butene.chk"
 Charge =  0 Multiplicity = 1

                         Standard orientation:
 ---------------------------------------------------------------------
 Center     Atomic      Atomic             Coordinates (Angstroms)
 Number     Number       Type             X           Y           Z
 ---------------------------------------------------------------------
      1          6           0        0.038790   -2.151291   -0.000000
      2          6           0       -0.466392   -0.924162   -0.000000
      3          6           0        0.038790    1.174358    1.264341
      4          6           0        0.038790    1.174358   -1.264341
      5          6           0        0.328419    0.351813    0.000000
      6          1           0       -0.595889   -3.027411   -0.000000
      7          1           0        1.108765   -2.324083   -0.000000
      8          1           0       -1.547581   -0.800215   -0.000000
      9          1           0        0.621162    2.097450    1.268423
     10          1           0        0.283840    0.612320    2.165774
     11          1           0       -1.017756    1.447586    1.316867
     12          1           0       -1.017756    1.447586   -1.316867
     13          1           0        0.621162    2.097450   -1.268423
     14          1           0        0.283840    0.612320   -2.165774
     15          1           0        1.389834    0.086538    0.000000
 ---------------------------------------------------------------------

 SCF Done:  E(RHF) =  -196.176917531     A.U. after    2 cycles

 The electronic state is 1-A'.
 Alpha  occ. eigenvalues --  -11.42944 -11.39649 -11.37862 -11.37688 -11.34751
 Alpha  occ. eigenvalues --   -1.26799  -1.08344  -0.99783  -0.86831  -0.77680
 Alpha  occ. eigenvalues --   -0.63291  -0.61905  -0.57647  -0.55869  -0.53161
 Alpha  occ. eigenvalues --   -0.51616  -0.46056  -0.45386  -0.42524  -0.33732
 Alpha virt. eigenvalues --    0.04015   0.05452   0.05662   0.05774   0.06011
 Alpha virt. eigenvalues --    0.06378   0.06486   0.06635   0.07499   0.08614
 Alpha virt. eigenvalues --    0.12109   0.12574   0.13352   0.13568   0.15146

 Mulliken charges:
               1
     1  C   -3.233924
     2  C    0.057537
     3  C   -3.777833
     4  C   -3.777833
     5  C   -2.662852
     6  H    1.360560
     7  H    1.387861
     8  H    1.411117
     9  H    1.234305
    10  H    1.285723
    11  H    1.314891
    12  H    1.314891
    13  H    1.234305
    14  H    1.285723
    15  H    1.565528
 Sum of Mulliken charges =  -0.00000

 Dipole moment (field-independent basis, Debye):
    X=              0.1269    Y=              0.2746    Z=              0.0000  Tot=              0.3025

 Test job not archived.
 1\1\GINC-SE289\SP\RHF\Aug-CC-pVDZ\C5H10\OHZDE\06-Apr-2025\0\\#t hf aug
 -cc-pvdz iop(5/13=1,5/36=2,99/5=2) pseudo=read geom=check guess=(read,
 tcheck) scf=(maxcycle=1)\\title\\0,1\C,0,0.03879,-2.151291,0.\C,0,-0.4
 66392,-0.924162,0.\C,0,0.03879,1.174358,1.264341\C,0,0.03879,1.174358,
 -1.264341\C,0,0.328419,0.351813,0.\H,0,-0.595889,-3.027411,0.\H,0,1.10
 8765,-2.324083,0.\H,0,-1.547581,-0.800215,0.\H,0,0.621162,2.09745,1.26
 8423\H,0,0.28384,0.61232,2.165774\H,0,-1.017756,1.447586,1.316867\H,0,
 -1.017756,1.447586,-1.316867\H,0,0.621162,2.09745,-1.268423\H,0,0.2838

 Normal termination of Gaussian 16 at Sun Apr  6 08:04:14 2025.
