 Gaussian 16, Revision C.01,

 ----------------------------------------------------------------------
 #t hf aug-cc-pvdz symm=none int=(grid=ultrafine) guess=(read,tcheck) s
 table=(opt,rrhf)
 ----------------------------------------------------------------------
 -----
 title
 -----
 Symbolic Z-matrix:
 Charge =  0 Multiplicity = 1

 SCF Done:  E(RHF) =  -741.203860633     A.U. after   13 cycles
 Normal termination of Gaussian 16 at Sun Apr  6 08:04:44 2025.
 Gaussian 16:  ES64L-G16RevC.01  3-Jul-2019

 ----------------------------------------------------------------------
 #t hf aug-cc-pvdz iop(5/13=1,5/36=2,99/5=2) pseudo=read geom=check gue
 ss=(read,tcheck) scf=(maxcycle=1)
 ----------------------------------------------------------------------
 -----
 title
 -----
 Structure from the checkpoint file:  "3-methyl-2-5-dihydrothiophene-1-1-dioxide.chk"
 Charge =  0 Multiplicity = 1

                         Standard orientation:
 ---------------------------------------------------------------------
 Center     Atomic      Atomic             Coordinates (Angstroms)
 Number     Number       Type             X           Y           Z
 ---------------------------------------------------------------------
      1          8           0       -1.801585   -0.353946   -1.263177
      2         16           0       -1.102837   -0.138972    0.000074
      3          8           0       -1.800137   -0.353814    1.264151
      4          6           0        0.470647   -1.077138   -0.000655
      5          6           0        1.551977   -0.034521   -0.000177
      6          6           0        2.979502   -0.481812    0.000109
      7          6           0       -0.322179    1.520248   -0.000351
      8          6           0        1.145332    1.235846   -0.000038
      9          1           0        0.476225   -1.706442   -0.890781
     10          1           0        0.476388   -1.707450    0.888755
     11          1           0        3.659750    0.368607    0.000410
     12          1           0        3.197004   -1.095951   -0.877283
     13          1           0        3.196558   -1.096217    0.877425
     14          1           0       -0.672041    2.042715   -0.890512
     15          1           0       -0.672325    2.043260    0.889375
     16          1           0        1.845935    2.061374    0.000310
 ---------------------------------------------------------------------

 SCF Done:  E(RHF) =  -743.054149519     A.U. after    2 cycles

 The electronic state is 1-A.
 Alpha  occ. eigenvalues --  -75.87643 -21.03785 -21.03741 -13.49038 -13.43433
 Alpha  occ. eigenvalues --  -13.33470 -11.48085 -11.46754 -11.44360 -11.42058
 Alpha  occ. eigenvalues --  -11.39483  -8.22579  -1.81442  -1.63616  -1.34517
 Alpha  occ. eigenvalues --   -1.14188  -1.09006  -0.99052  -0.86989  -0.78879
 Alpha  occ. eigenvalues --   -0.67569  -0.66467  -0.63021  -0.60975  -0.58210
 Alpha  occ. eigenvalues --   -0.56724  -0.53544  -0.51495  -0.50978  -0.43108
 Alpha  occ. eigenvalues --   -0.37808  -0.36701  -0.36416  -0.34098  -0.33988
 Alpha virt. eigenvalues --    0.02326   0.04312   0.05074   0.05352   0.05721
 Alpha virt. eigenvalues --    0.06106   0.07104   0.07356   0.08837   0.11222
 Alpha virt. eigenvalues --    0.11712   0.12090   0.12710   0.13023   0.13470

 Mulliken charges:
               1
     1  O   -2.730384
     2  S    7.174752
     3  O   -2.730410
     4  C   -6.061363
     5  C    4.697582
     6  C   -4.705273
     7  C   -5.081780
     8  C   -1.043128
     9  H    1.284955
    10  H    1.285338
    11  H    1.335751
    12  H    1.151647
    13  H    1.151624
    14  H    1.326971
    15  H    1.326868
    16  H    1.616848
 Sum of Mulliken charges =  -0.00000

 Dipole moment (field-independent basis, Debye):
    X=              3.0489    Y=              0.6273    Z=             -0.0012  Tot=              3.1127

 Test job not archived.
 1\1\GINC-SE290\SP\RHF\Aug-CC-pVDZ\C5H8O2S1\OHZDE\06-Apr-2025\0\\#t hf
 aug-cc-pvdz iop(5/13=1,5/36=2,99/5=2) pseudo=read geom=check guess=(re
 ad,tcheck) scf=(maxcycle=1)\\title\\0,1\O,0,-1.801585,-0.353946,-1.263
 177\S,0,-1.102837,-0.138972,0.000074\O,0,-1.800137,-0.353814,1.264151\
 C,0,0.470647,-1.077138,-0.000655\C,0,1.551977,-0.034521,-0.000177\C,0,
 2.979502,-0.481812,0.000109\C,0,-0.322179,1.520248,-0.000351\C,0,1.145
 332,1.235846,-0.000038\H,0,0.476225,-1.706442,-0.890781\H,0,0.476388,-
 1.70745,0.888755\H,0,3.65975,0.368607,0.00041\H,0,3.197004,-1.095951,-

 Normal termination of Gaussian 16 at Sun Apr  6 08:04:57 2025.
