 Gaussian 16, Revision C.01,

 ----------------------------------------------------------------------
 #t hf aug-cc-pvdz symm=none int=(grid=ultrafine) guess=(read,tcheck) s
 table=(opt,rrhf)
 ----------------------------------------------------------------------
 -----
 title
 -----
 Symbolic Z-matrix:
 Charge =  0 Multiplicity = 1

 SCF Done:  E(RHF) =  -605.139010672     A.U. after   16 cycles
 Normal termination of Gaussian 16 at Sun Apr  6 08:03:59 2025.
 Gaussian 16:  ES64L-G16RevC.01  3-Jul-2019

 ----------------------------------------------------------------------
 #t hf aug-cc-pvdz iop(5/13=1,5/36=2,99/5=2) pseudo=read geom=check gue
 ss=(read,tcheck) scf=(maxcycle=1)
 ----------------------------------------------------------------------
 -----
 title
 -----
 Structure from the checkpoint file:  "3-methylsulfanylprop-2-ynenitrile.chk"
 Charge =  0 Multiplicity = 1

                         Standard orientation:
 ---------------------------------------------------------------------
 Center     Atomic      Atomic             Coordinates (Angstroms)
 Number     Number       Type             X           Y           Z
 ---------------------------------------------------------------------
      1         16           0        1.646373   -0.642200   -0.000046
      2          7           0       -3.679210    0.273566    0.000060
      3          6           0        2.361907    1.048758    0.000007
      4          6           0        0.007828   -0.301890   -0.000011
      5          6           0       -1.191000   -0.121742    0.000012
      6          6           0       -2.535848    0.090366    0.000037
      7          1           0        2.057644    1.581413    0.895536
      8          1           0        3.439906    0.904390   -0.000013
      9          1           0        2.057620    1.581480   -0.895474
 ---------------------------------------------------------------------

 SCF Done:  E(RHF) =  -606.313313360     A.U. after    2 cycles

 The electronic state is 1-A.
 Alpha  occ. eigenvalues --  -75.74811 -15.78239 -13.23408 -13.15305 -13.07513
 Alpha  occ. eigenvalues --  -11.49311 -11.46587 -11.45692 -11.43363  -8.08987
 Alpha  occ. eigenvalues --   -1.33772  -1.27929  -1.12792  -1.00837  -0.86975
 Alpha  occ. eigenvalues --   -0.64906  -0.62506  -0.57643  -0.54364  -0.53611
 Alpha  occ. eigenvalues --   -0.53073  -0.45893  -0.42425  -0.36665  -0.25615
 Alpha virt. eigenvalues --    0.01435   0.04184   0.05043   0.05399   0.07673
 Alpha virt. eigenvalues --    0.08811   0.09404   0.10037   0.11520   0.11891
 Alpha virt. eigenvalues --    0.12375   0.12508   0.13836   0.14825   0.16375

 Mulliken charges:
               1
     1  S    0.972217
     2  N   -2.796786
     3  C   -4.653134
     4  C    1.220356
     5  C   -0.698952
     6  C    1.783724
     7  H    1.452487
     8  H    1.267601
     9  H    1.452487
 Sum of Mulliken charges =   0.00000

 Dipole moment (field-independent basis, Debye):
    X=              5.9623    Y=             -0.6371    Z=             -0.0001  Tot=              5.9963

 Test job not archived.
 1\1\GINC-SE299\SP\RHF\Aug-CC-pVDZ\C4H3N1S1\OHZDE\06-Apr-2025\0\\#t hf
 aug-cc-pvdz iop(5/13=1,5/36=2,99/5=2) pseudo=read geom=check guess=(re
 ad,tcheck) scf=(maxcycle=1)\\title\\0,1\S,0,1.646373,-0.6422,-0.000046
 \N,0,-3.67921,0.273566,0.00006\C,0,2.361907,1.048758,0.000007\C,0,0.00
 7828,-0.30189,-0.000011\C,0,-1.191,-0.121742,0.000012\C,0,-2.535848,0.
 090366,0.000037\H,0,2.057644,1.581413,0.895536\H,0,3.439906,0.90439,-0
 .000013\H,0,2.05762,1.58148,-0.895474\\Version=ES64L-G16RevC.01\State=
 1-A\HF=-606.3133134\RMSD=1.118e+00\Dipole=2.3457658,-0.2506477,-0.0000

 Normal termination of Gaussian 16 at Sun Apr  6 08:04:04 2025.
