 Gaussian 16, Revision C.01,

 ----------------------------------------------------------------------
 #t hf aug-cc-pvdz symm=none int=(grid=ultrafine) guess=(read,tcheck) s
 table=(opt,rrhf)
 ----------------------------------------------------------------------
 -----
 title
 -----
 Symbolic Z-matrix:
 Charge =  0 Multiplicity = 1

 SCF Done:  E(RHF) =  -313.466754255     A.U. after   11 cycles
 Normal termination of Gaussian 16 at Sun Apr  6 08:05:34 2025.
 Gaussian 16:  ES64L-G16RevC.01  3-Jul-2019

 ----------------------------------------------------------------------
 #t hf aug-cc-pvdz iop(5/13=1,5/36=2,99/5=2) pseudo=read geom=check gue
 ss=(read,tcheck) scf=(maxcycle=1)
 ----------------------------------------------------------------------
 -----
 title
 -----
 Structure from the checkpoint file:  "3-methylheptane.chk"
 Charge =  0 Multiplicity = 1

                         Standard orientation:
 ---------------------------------------------------------------------
 Center     Atomic      Atomic             Coordinates (Angstroms)
 Number     Number       Type             X           Y           Z
 ---------------------------------------------------------------------
      1          6           0        4.015672    0.099100    0.289449
      2          6           0       -3.659890   -0.381305    0.397793
      3          6           0       -1.312953    1.589945   -0.274353
      4          6           0        2.736727   -0.537959   -0.251184
      5          6           0       -2.319478   -0.745039   -0.241002
      6          6           0        1.463534    0.175911    0.206921
      7          6           0        0.184875   -0.466156   -0.335149
      8          6           0       -1.132203    0.137622    0.180181
      9          1           0        4.109221    1.136544   -0.038345
     10          1           0        4.025788    0.097510    1.381427
     11          1           0        4.903264   -0.436410   -0.050520
     12          1           0       -3.592023   -0.395135    1.487967
     13          1           0       -4.434015   -1.093105    0.107456
     14          1           0       -4.003439    0.609778    0.100382
     15          1           0       -0.491110    2.223149    0.059161
     16          1           0       -1.356401    1.648509   -1.365506
     17          1           0       -2.232244    2.024627    0.117681
     18          1           0        2.769370   -0.548538   -1.344870
     19          1           0        2.692400   -1.586189    0.059526
     20          1           0       -2.414267   -0.714025   -1.331790
     21          1           0       -2.082615   -1.782577    0.011079
     22          1           0        1.429172    0.178672    1.301980
     23          1           0        1.519308    1.224408   -0.097653
     24          1           0        0.198956   -1.530706   -0.080311
     25          1           0        0.192317   -0.418766   -1.430343
     26          1           0       -1.091387    0.129538    1.276747
 ---------------------------------------------------------------------

 SCF Done:  E(RHF) =  -315.133961209     A.U. after    2 cycles

 The electronic state is 1-A.
 Alpha  occ. eigenvalues --  -11.42330 -11.42064 -11.40552 -11.38805 -11.37158
 Alpha  occ. eigenvalues --  -11.36256 -11.35089 -11.33223  -1.29716  -1.19316
 Alpha  occ. eigenvalues --   -1.08582  -1.03225  -0.94489  -0.88555  -0.82174
 Alpha  occ. eigenvalues --   -0.79010  -0.65660  -0.62669  -0.60958  -0.58791
 Alpha  occ. eigenvalues --   -0.57176  -0.56054  -0.53517  -0.52542  -0.50118
 Alpha  occ. eigenvalues --   -0.48584  -0.47542  -0.47139  -0.44828  -0.44446
 Alpha  occ. eigenvalues --   -0.43533  -0.41099  -0.36955
 Alpha virt. eigenvalues --    0.04247   0.04666   0.04844   0.05367   0.05674
 Alpha virt. eigenvalues --    0.05885   0.06030   0.06177   0.06566   0.06993
 Alpha virt. eigenvalues --    0.07458   0.07667   0.07830   0.09669   0.10127

 Mulliken charges:
               1
     1  C   -4.699386
     2  C   -4.540060
     3  C   -4.660447
     4  C   -3.356948
     5  C   -3.294915
     6  C   -2.873828
     7  C   -1.996804
     8  C   -0.475084
     9  H    1.343315
    10  H    1.346989
    11  H    1.070994
    12  H    1.280710
    13  H    1.043227
    14  H    1.447451
    15  H    1.374637
    16  H    1.288085
    17  H    1.441132
    18  H    1.469160
    19  H    1.484899
    20  H    1.433422
    21  H    1.445358
    22  H    1.541325
    23  H    1.793924
    24  H    1.635775
    25  H    1.491042
    26  H    1.966029
 Sum of Mulliken charges =  -0.00000

 Dipole moment (field-independent basis, Debye):
    X=              0.0013    Y=             -0.1074    Z=              0.0411  Tot=              0.1150

 Test job not archived.
 1\1\GINC-SE434\SP\RHF\Aug-CC-pVDZ\C8H18\OHZDE\06-Apr-2025\0\\#t hf aug
 -cc-pvdz iop(5/13=1,5/36=2,99/5=2) pseudo=read geom=check guess=(read,
 tcheck) scf=(maxcycle=1)\\title\\0,1\C,0,4.015672,0.0991,0.289449\C,0,
 -3.65989,-0.381305,0.397793\C,0,-1.312953,1.589945,-0.274353\C,0,2.736
 727,-0.537959,-0.251184\C,0,-2.319478,-0.745039,-0.241002\C,0,1.463534
 ,0.175911,0.206921\C,0,0.184875,-0.466156,-0.335149\C,0,-1.132203,0.13
 7622,0.180181\H,0,4.109221,1.136544,-0.038345\H,0,4.025788,0.09751,1.3
 81427\H,0,4.903264,-0.43641,-0.05052\H,0,-3.592023,-0.395135,1.487967\

 Normal termination of Gaussian 16 at Sun Apr  6 08:05:52 2025.
