 Gaussian 16, Revision C.01,

 ----------------------------------------------------------------------
 #t hf aug-cc-pvdz symm=none int=(grid=ultrafine) guess=(read,tcheck) s
 table=(opt,rrhf)
 ----------------------------------------------------------------------
 -----
 title
 -----
 Symbolic Z-matrix:
 Charge =  0 Multiplicity = 1

 SCF Done:  E(RHF) =  -590.370663959     A.U. after   15 cycles
 Normal termination of Gaussian 16 at Sun Apr  6 08:04:04 2025.
 Gaussian 16:  ES64L-G16RevC.01  3-Jul-2019

 ----------------------------------------------------------------------
 #t hf aug-cc-pvdz iop(5/13=1,5/36=2,99/5=2) pseudo=read geom=check gue
 ss=(read,tcheck) scf=(maxcycle=1)
 ----------------------------------------------------------------------
 -----
 title
 -----
 Structure from the checkpoint file:  "3-methylthiophene.chk"
 Charge =  0 Multiplicity = 1

                         Standard orientation:
 ---------------------------------------------------------------------
 Center     Atomic      Atomic             Coordinates (Angstroms)
 Number     Number       Type             X           Y           Z
 ---------------------------------------------------------------------
      1          1           0       -2.208077    0.786344    0.000000
      2          6           0       -1.250002    0.285807    0.000000
      3          6           0        0.000000    0.979789    0.000000
      4          6           0        1.052965    0.110970    0.000000
      5          1           0       -1.892989   -1.815714    0.000000
      6          6           0       -1.117544   -1.068772    0.000000
      7         16           0        0.542369   -1.539521    0.000000
      8          1           0        1.168494    2.786598    0.000000
      9          1           0       -0.354771    2.912496    0.878798
     10          1           0       -0.354771    2.912496   -0.878798
     11          6           0        0.124666    2.475760    0.000000
     12          1           0        2.103691    0.348795    0.000000
 ---------------------------------------------------------------------

 SCF Done:  E(RHF) =  -591.545963964     A.U. after    2 cycles

 The electronic state is 1-A'.
 Alpha  occ. eigenvalues --  -75.70390 -13.15176 -13.13971 -13.02026 -11.46014
 Alpha  occ. eigenvalues --  -11.42587 -11.41572 -11.39213 -11.36465  -8.04934
 Alpha  occ. eigenvalues --   -1.37259  -1.13443  -1.05530  -0.97550  -0.80836
 Alpha  occ. eigenvalues --   -0.75424  -0.66886  -0.57893  -0.57666  -0.53935
 Alpha  occ. eigenvalues --   -0.48294  -0.47282  -0.44766  -0.37607  -0.31731
 Alpha  occ. eigenvalues --   -0.25470
 Alpha virt. eigenvalues --    0.03182   0.04504   0.05188   0.05965   0.06570
 Alpha virt. eigenvalues --    0.06630   0.08819   0.10043   0.11650   0.12549
 Alpha virt. eigenvalues --    0.13498   0.13871   0.14144   0.14524   0.14593

 Mulliken charges:
               1
     1  H    1.579361
     2  C   -2.038583
     3  C    4.890831
     4  C   -3.768112
     5  H    1.207611
     6  C   -3.437118
     7  S    1.473437
     8  H    1.277397
     9  H    1.180116
    10  H    1.180116
    11  C   -4.799379
    12  H    1.254323
 Sum of Mulliken charges =  -0.00000

 Dipole moment (field-independent basis, Debye):
    X=              0.7880    Y=             -1.1553    Z=              0.0000  Tot=              1.3985

 Test job not archived.
 1\1\GINC-SE300\SP\RHF\Aug-CC-pVDZ\C5H6S1\OHZDE\06-Apr-2025\0\\#t hf au
 g-cc-pvdz iop(5/13=1,5/36=2,99/5=2) pseudo=read geom=check guess=(read
 ,tcheck) scf=(maxcycle=1)\\title\\0,1\H,0,-2.208077,0.786344,0.\C,0,-1
 .250002,0.285807,0.\C,0,0.,0.979789,0.\C,0,1.052965,0.11097,0.\H,0,-1.
 892989,-1.815714,0.\C,0,-1.117544,-1.068772,0.\S,0,0.542369,-1.539521,
 0.\H,0,1.168494,2.786598,0.\H,0,-0.354771,2.912496,0.878798\H,0,-0.354
 771,2.912496,-0.878798\C,0,0.124666,2.47576,0.\H,0,2.103691,0.348795,0
 .\\Version=ES64L-G16RevC.01\State=1-A'\HF=-591.545964\RMSD=1.784e+00\D

 Normal termination of Gaussian 16 at Sun Apr  6 08:04:09 2025.
