 Gaussian 16, Revision C.01,

 ----------------------------------------------------------------------
 #t hf aug-cc-pvdz symm=none int=(grid=ultrafine) guess=(read,tcheck) s
 table=(opt,rrhf)
 ----------------------------------------------------------------------
 -----
 title
 -----
 Symbolic Z-matrix:
 Charge =  0 Multiplicity = 1

 SCF Done:  E(RHF) =  -267.697028519     A.U. after   14 cycles
 Normal termination of Gaussian 16 at Sun Apr  6 08:04:04 2025.
 Gaussian 16:  ES64L-G16RevC.01  3-Jul-2019

 ----------------------------------------------------------------------
 #t hf aug-cc-pvdz iop(5/13=1,5/36=2,99/5=2) pseudo=read geom=check gue
 ss=(read,tcheck) scf=(maxcycle=1)
 ----------------------------------------------------------------------
 -----
 title
 -----
 Structure from the checkpoint file:  "3-methylfuran.chk"
 Charge =  0 Multiplicity = 1

                         Standard orientation:
 ---------------------------------------------------------------------
 Center     Atomic      Atomic             Coordinates (Angstroms)
 Number     Number       Type             X           Y           Z
 ---------------------------------------------------------------------
      1          8           0       -0.697958   -1.455911    0.000000
      2          6           0       -1.079484   -0.145052    0.000000
      3          6           0        0.661528   -1.463672    0.000000
      4          6           0        0.000000    0.676627    0.000000
      5          6           0        1.141177   -0.197619    0.000000
      6          6           0        0.006984    2.171398    0.000000
      7          1           0       -2.139263    0.036670    0.000000
      8          1           0        1.128523   -2.431792    0.000000
      9          1           0        2.178895    0.090679    0.000000
     10          1           0       -1.007010    2.569914    0.000000
     11          1           0        0.520643    2.565867    0.878993
     12          1           0        0.520643    2.565867   -0.878993
 ---------------------------------------------------------------------

 SCF Done:  E(RHF) =  -268.944343802     A.U. after    2 cycles

 The electronic state is 1-A'.
 Alpha  occ. eigenvalues --  -21.10599 -11.46634 -11.43126 -11.42050 -11.39581
 Alpha  occ. eigenvalues --  -11.36115  -1.83684  -1.22880  -1.07748  -1.00026
 Alpha  occ. eigenvalues --   -0.80329  -0.77965  -0.69256  -0.59203  -0.57810
 Alpha  occ. eigenvalues --   -0.55221  -0.53938  -0.50251  -0.47656  -0.41801
 Alpha  occ. eigenvalues --   -0.32102  -0.30881
 Alpha virt. eigenvalues --    0.03378   0.04784   0.05478   0.06160   0.06589
 Alpha virt. eigenvalues --    0.07023   0.09537   0.11205   0.11945   0.12802
 Alpha virt. eigenvalues --    0.13470   0.13798   0.14689   0.14803   0.15212

 Mulliken charges:
               1
     1  O   -3.867201
     2  C   -1.022738
     3  C    0.351237
     4  C    4.194333
     5  C   -3.094414
     6  C   -4.266874
     7  H    1.439771
     8  H    1.409264
     9  H    1.261127
    10  H    1.260682
    11  H    1.167407
    12  H    1.167407
 Sum of Mulliken charges =  -0.00000

 Dipole moment (field-independent basis, Debye):
    X=              0.0699    Y=              0.2566    Z=              0.0000  Tot=              0.2659

 Test job not archived.
 1\1\GINC-SE434\SP\RHF\Aug-CC-pVDZ\C5H6O1\OHZDE\06-Apr-2025\0\\#t hf au
 g-cc-pvdz iop(5/13=1,5/36=2,99/5=2) pseudo=read geom=check guess=(read
 ,tcheck) scf=(maxcycle=1)\\title\\0,1\O,0,-0.697958,-1.455911,0.\C,0,-
 1.079484,-0.145052,0.\C,0,0.661528,-1.463672,0.\C,0,0.,0.676627,0.\C,0
 ,1.141177,-0.197619,0.\C,0,0.006984,2.171398,0.\H,0,-2.139263,0.03667,
 0.\H,0,1.128523,-2.431792,0.\H,0,2.178895,0.090679,0.\H,0,-1.00701,2.5
 69914,0.\H,0,0.520643,2.565867,0.878993\H,0,0.520643,2.565867,-0.87899
 3\\Version=ES64L-G16RevC.01\State=1-A'\HF=-268.9443438\RMSD=1.467e+00\

 Normal termination of Gaussian 16 at Sun Apr  6 08:04:08 2025.
