 Gaussian 16, Revision C.01,

 ----------------------------------------------------------------------
 #t hf aug-cc-pvdz symm=none int=(grid=ultrafine) guess=(read,tcheck) s
 table=(opt,rrhf)
 ----------------------------------------------------------------------
 -----
 title
 -----
 Symbolic Z-matrix:
 Charge =  0 Multiplicity = 1

 SCF Done:  E(RHF) =  -234.203551827     A.U. after   12 cycles
 Normal termination of Gaussian 16 at Sun Apr  6 08:04:24 2025.
 Gaussian 16:  ES64L-G16RevC.01  3-Jul-2019

 ----------------------------------------------------------------------
 #t hf aug-cc-pvdz iop(5/13=1,5/36=2,99/5=2) pseudo=read geom=check gue
 ss=(read,tcheck) scf=(maxcycle=1)
 ----------------------------------------------------------------------
 -----
 title
 -----
 Structure from the checkpoint file:  "3-methylenepentane.chk"
 Charge =  0 Multiplicity = 1

                         Standard orientation:
 ---------------------------------------------------------------------
 Center     Atomic      Atomic             Coordinates (Angstroms)
 Number     Number       Type             X           Y           Z
 ---------------------------------------------------------------------
      1          6           0       -0.000000    1.958176   -0.987741
      2          1           0        0.566649    1.430602   -1.755450
      3          1           0       -0.650438    2.672727   -1.493685
      4          1           0        0.707866    2.520346   -0.377078
      5          6           0       -0.827026    0.996208   -0.123763
      6          1           0       -1.529824    0.461466   -0.769662
      7          1           0       -1.433305    1.572550    0.576719
      8          6           0       -0.000000   -1.958176   -0.987741
      9          1           0       -0.566649   -1.430602   -1.755450
     10          1           0        0.650438   -2.672727   -1.493685
     11          1           0       -0.707866   -2.520346   -0.377078
     12          6           0        0.827026   -0.996208   -0.123763
     13          1           0        1.529824   -0.461466   -0.769662
     14          1           0        1.433305   -1.572550    0.576719
     15          6           0        0.000000    0.000000    0.656119
     16          6           0        0.000000    0.000000    1.987937
     17          1           0       -0.592649    0.706057    2.556012
     18          1           0        0.592649   -0.706057    2.556012
 ---------------------------------------------------------------------

 SCF Done:  E(RHF) =  -235.423646441     A.U. after    2 cycles

 The electronic state is 1-A.
 Alpha  occ. eigenvalues --  -11.43339 -11.41012 -11.38474 -11.37199 -11.36132
 Alpha  occ. eigenvalues --  -11.34415  -1.27926  -1.12409  -1.05329  -0.90013
 Alpha  occ. eigenvalues --   -0.89761  -0.73633  -0.63576  -0.63544  -0.57374
 Alpha  occ. eigenvalues --   -0.57286  -0.56988  -0.50848  -0.50353  -0.48142
 Alpha  occ. eigenvalues --   -0.47683  -0.44323  -0.41231  -0.32586
 Alpha virt. eigenvalues --    0.03798   0.05033   0.05257   0.05651   0.05913
 Alpha virt. eigenvalues --    0.06018   0.06323   0.06780   0.07143   0.08793
 Alpha virt. eigenvalues --    0.08906   0.09752   0.11986   0.12263   0.13176

 Mulliken charges:
               1
     1  C   -3.875427
     2  H    1.450021
     3  H    1.137115
     4  H    1.329041
     5  C   -3.808357
     6  H    1.423589
     7  H    1.435237
     8  C   -3.875427
     9  H    1.450021
    10  H    1.137115
    11  H    1.329041
    12  C   -3.808357
    13  H    1.423589
    14  H    1.435237
    15  C    3.677616
    16  C   -5.016325
    17  H    1.578135
    18  H    1.578135
 Sum of Mulliken charges =   0.00000

 Dipole moment (field-independent basis, Debye):
    X=             -0.0000    Y=              0.0000    Z=             -0.4752  Tot=              0.4752

 Test job not archived.
 1\1\GINC-SE433\SP\RHF\Aug-CC-pVDZ\C6H12\OHZDE\06-Apr-2025\0\\#t hf aug
 -cc-pvdz iop(5/13=1,5/36=2,99/5=2) pseudo=read geom=check guess=(read,
 tcheck) scf=(maxcycle=1)\\title\\0,1\C,0,0.,1.958176,-0.987741\H,0,0.5
 66649,1.430602,-1.75545\H,0,-0.650438,2.672727,-1.493685\H,0,0.707866,
 2.520346,-0.377078\C,0,-0.827026,0.996208,-0.123763\H,0,-1.529824,0.46
 1466,-0.769662\H,0,-1.433305,1.57255,0.576719\C,0,0.,-1.958176,-0.9877
 41\H,0,-0.566649,-1.430602,-1.75545\H,0,0.650438,-2.672727,-1.493685\H
 ,0,-0.707866,-2.520346,-0.377078\C,0,0.827026,-0.996208,-0.123763\H,0,

 Normal termination of Gaussian 16 at Sun Apr  6 08:04:53 2025.
