 Gaussian 16, Revision C.01,

 ----------------------------------------------------------------------
 #t hf aug-cc-pvdz symm=none int=(grid=ultrafine) guess=(read,tcheck) s
 table=(opt,rrhf)
 ----------------------------------------------------------------------
 -----
 title
 -----
 Symbolic Z-matrix:
 Charge =  0 Multiplicity = 1

 SCF Done:  E(RHF) =  -283.668426974     A.U. after   15 cycles
 Normal termination of Gaussian 16 at Sun Apr  6 08:04:02 2025.
 Gaussian 16:  ES64L-G16RevC.01  3-Jul-2019

 ----------------------------------------------------------------------
 #t hf aug-cc-pvdz iop(5/13=1,5/36=2,99/5=2) pseudo=read geom=check gue
 ss=(read,tcheck) scf=(maxcycle=1)
 ----------------------------------------------------------------------
 -----
 title
 -----
 Structure from the checkpoint file:  "3-methyl-1-2-oxazole.chk"
 Charge =  0 Multiplicity = 1

                         Standard orientation:
 ---------------------------------------------------------------------
 Center     Atomic      Atomic             Coordinates (Angstroms)
 Number     Number       Type             X           Y           Z
 ---------------------------------------------------------------------
      1          6           0        0.053087    2.127284    0.000000
      2          1           0       -0.448036    2.532049    0.880290
      3          1           0        1.086611    2.465817    0.000000
      4          1           0       -0.448036    2.532049   -0.880290
      5          6           0       -0.629178   -1.458575    0.000000
      6          8           0        0.709685   -1.409033    0.000000
      7          7           0        1.104596   -0.064916    0.000000
      8          6           0        0.000000    0.635944    0.000000
      9          6           0       -1.148537   -0.210735    0.000000
     10          1           0       -2.184862    0.075240    0.000000
     11          1           0       -1.067559   -2.441986    0.000000
 ---------------------------------------------------------------------

 SCF Done:  E(RHF) =  -284.962488562     A.U. after    2 cycles

 The electronic state is 1-A'.
 Alpha  occ. eigenvalues --  -21.11912 -15.76614 -11.48045 -11.45734 -11.41010
 Alpha  occ. eigenvalues --  -11.38247  -1.88749  -1.30283  -1.15172  -1.05995
 Alpha  occ. eigenvalues --   -0.84071  -0.77598  -0.71100  -0.62226  -0.59950
 Alpha  occ. eigenvalues --   -0.55798  -0.52958  -0.50761  -0.43184  -0.41499
 Alpha  occ. eigenvalues --   -0.35973  -0.33230
 Alpha virt. eigenvalues --    0.03162   0.04877   0.05135   0.06188   0.06851
 Alpha virt. eigenvalues --    0.09328   0.10739   0.11258   0.12078   0.12824
 Alpha virt. eigenvalues --    0.13508   0.13790   0.15010   0.15265   0.15893

 Mulliken charges:
               1
     1  C   -4.203585
     2  H    1.158378
     3  H    1.244653
     4  H    1.158378
     5  C    0.701936
     6  O   -2.939376
     7  N   -1.359812
     8  C    4.251850
     9  C   -2.584367
    10  H    1.172811
    11  H    1.399135
 Sum of Mulliken charges =  -0.00000

 Dipole moment (field-independent basis, Debye):
    X=             -1.9718    Y=              0.0746    Z=             -0.0000  Tot=              1.9732

 Test job not archived.
 1\1\GINC-SE410\SP\RHF\Aug-CC-pVDZ\C4H5N1O1\OHZDE\06-Apr-2025\0\\#t hf
 aug-cc-pvdz iop(5/13=1,5/36=2,99/5=2) pseudo=read geom=check guess=(re
 ad,tcheck) scf=(maxcycle=1)\\title\\0,1\C,0,0.053087,2.127284,0.\H,0,-
 0.448036,2.532049,0.88029\H,0,1.086611,2.465817,0.\H,0,-0.448036,2.532
 049,-0.88029\C,0,-0.629178,-1.458575,0.\O,0,0.709685,-1.409033,0.\N,0,
 1.104596,-0.064916,0.\C,0,0.,0.635944,0.\C,0,-1.148537,-0.210735,0.\H,
 0,-2.184862,0.07524,0.\H,0,-1.067559,-2.441986,0.\\Version=ES64L-G16Re
 vC.01\State=1-A'\HF=-284.9624886\RMSD=1.107e+00\Dipole=-0.7757511,0.02

 Normal termination of Gaussian 16 at Sun Apr  6 08:04:06 2025.
