 Gaussian 16, Revision C.01,

 ----------------------------------------------------------------------
 #t hf aug-cc-pvdz symm=none int=(grid=ultrafine) guess=(read,tcheck) s
 table=(opt,rrhf)
 ----------------------------------------------------------------------
 -----
 title
 -----
 Symbolic Z-matrix:
 Charge =  0 Multiplicity = 1

 SCF Done:  E(RHF) =  -231.857670175     A.U. after   13 cycles
 Normal termination of Gaussian 16 at Sun Apr  6 08:04:12 2025.
 Gaussian 16:  ES64L-G16RevC.01  3-Jul-2019

 ----------------------------------------------------------------------
 #t hf aug-cc-pvdz iop(5/13=1,5/36=2,99/5=2) pseudo=read geom=check gue
 ss=(read,tcheck) scf=(maxcycle=1)
 ----------------------------------------------------------------------
 -----
 title
 -----
 Structure from the checkpoint file:  "3-methylenecyclopentene.chk"
 Charge =  0 Multiplicity = 1

                         Standard orientation:
 ---------------------------------------------------------------------
 Center     Atomic      Atomic             Coordinates (Angstroms)
 Number     Number       Type             X           Y           Z
 ---------------------------------------------------------------------
      1          6           0       -0.101375   -1.193285    0.000050
      2          1           0        0.073644   -1.818598    0.875674
      3          1           0        0.073697   -1.818666   -0.875519
      4          6           0       -1.534643   -0.600290   -0.000041
      5          1           0       -2.112333   -0.914628    0.873359
      6          1           0       -2.112265   -0.914644   -0.873479
      7          6           0        2.169627   -0.018400   -0.000040
      8          1           0        2.749486    0.894993   -0.000074
      9          1           0        2.721180   -0.949106   -0.000022
     10          6           0        0.834976    0.009041    0.000011
     11          6           0       -1.306567    0.887577   -0.000018
     12          1           0       -2.117586    1.602915   -0.000019
     13          6           0       -0.007168    1.200885    0.000034
     14          1           0        0.395073    2.204577    0.000103
 ---------------------------------------------------------------------

 SCF Done:  E(RHF) =  -233.007641154     A.U. after    2 cycles

 The electronic state is 1-A.
 Alpha  occ. eigenvalues --  -11.46188 -11.44419 -11.40365 -11.38688 -11.37012
 Alpha  occ. eigenvalues --  -11.35278  -1.34122  -1.09503  -1.03999  -0.92396
 Alpha  occ. eigenvalues --   -0.79830  -0.74106  -0.66693  -0.62986  -0.58507
 Alpha  occ. eigenvalues --   -0.50834  -0.50763  -0.48388  -0.45990  -0.42637
 Alpha  occ. eigenvalues --   -0.41602  -0.28489
 Alpha virt. eigenvalues --    0.03649   0.05191   0.05700   0.05809   0.06334
 Alpha virt. eigenvalues --    0.06524   0.06747   0.07913   0.09387   0.10994
 Alpha virt. eigenvalues --    0.12687   0.13089   0.13187   0.14347   0.14854

 Mulliken charges:
               1
     1  C   -3.758622
     2  H    1.143995
     3  H    1.144009
     4  C   -4.281230
     5  H    1.245013
     6  H    1.244973
     7  C   -4.472414
     8  H    1.500010
     9  H    1.494345
    10  C    4.614643
    11  C   -1.192788
    12  H    1.354027
    13  C   -1.535502
    14  H    1.499541
 Sum of Mulliken charges =   0.00000

 Dipole moment (field-independent basis, Debye):
    X=             -0.9103    Y=             -0.1598    Z=              0.0001  Tot=              0.9243

 Test job not archived.
 1\1\GINC-SE433\SP\RHF\Aug-CC-pVDZ\C6H8\OHZDE\06-Apr-2025\0\\#t hf aug-
 cc-pvdz iop(5/13=1,5/36=2,99/5=2) pseudo=read geom=check guess=(read,t
 check) scf=(maxcycle=1)\\title\\0,1\C,0,-0.101375,-1.193285,0.00005\H,
 0,0.073644,-1.818598,0.875674\H,0,0.073697,-1.818666,-0.875519\C,0,-1.
 534643,-0.60029,-0.000041\H,0,-2.112333,-0.914628,0.873359\H,0,-2.1122
 65,-0.914644,-0.873479\C,0,2.169627,-0.0184,-0.00004\H,0,2.749486,0.89
 4993,-0.000074\H,0,2.72118,-0.949106,-0.000022\C,0,0.834976,0.009041,0
 .000011\C,0,-1.306567,0.887577,-0.000018\H,0,-2.117586,1.602915,-0.000

 Normal termination of Gaussian 16 at Sun Apr  6 08:04:17 2025.
