 Gaussian 16, Revision C.01,

 ----------------------------------------------------------------------
 #t hf aug-cc-pvdz symm=none int=(grid=ultrafine) guess=(read,tcheck) s
 table=(opt,rrhf)
 ----------------------------------------------------------------------
 -----
 title
 -----
 Symbolic Z-matrix:
 Charge =  0 Multiplicity = 1

 SCF Done:  E(RHF) =  -235.389322936     A.U. after   11 cycles
 Normal termination of Gaussian 16 at Sun Apr  6 08:04:36 2025.
 Gaussian 16:  ES64L-G16RevC.01  3-Jul-2019

 ----------------------------------------------------------------------
 #t hf aug-cc-pvdz iop(5/13=1,5/36=2,99/5=2) pseudo=read geom=check gue
 ss=(read,tcheck) scf=(maxcycle=1)
 ----------------------------------------------------------------------
 -----
 title
 -----
 Structure from the checkpoint file:  "3-methylpentane.chk"
 Charge =  0 Multiplicity = 1

                         Standard orientation:
 ---------------------------------------------------------------------
 Center     Atomic      Atomic             Coordinates (Angstroms)
 Number     Number       Type             X           Y           Z
 ---------------------------------------------------------------------
      1          6           0        0.332422   -0.120738    2.576193
      2          6           0        0.332422   -0.120738   -2.576193
      3          6           0       -1.326599   -0.799534   -0.000000
      4          6           0        0.332422    0.658899    1.260993
      5          6           0        0.332422    0.658899   -1.260993
      6          6           0        0.076207   -0.183223   -0.000000
      7          1           0        1.064695   -0.930894    2.552760
      8          1           0        0.589136    0.530437    3.413029
      9          1           0       -0.640971   -0.560347    2.794714
     10          1           0        0.589136    0.530437   -3.413029
     11          1           0       -0.640971   -0.560347   -2.794714
     12          1           0        1.064695   -0.930894   -2.552760
     13          1           0       -2.090417   -0.016871   -0.000000
     14          1           0       -1.492605   -1.425260    0.876651
     15          1           0       -1.492605   -1.425260   -0.876651
     16          1           0        1.299473    1.157680    1.150999
     17          1           0       -0.414951    1.458132    1.311128
     18          1           0       -0.414951    1.458132   -1.311128
     19          1           0        1.299473    1.157680   -1.150999
     20          1           0        0.805074   -1.004008   -0.000000
 ---------------------------------------------------------------------

 SCF Done:  E(RHF) =  -236.646027961     A.U. after    2 cycles

 The electronic state is 1-A'.
 Alpha  occ. eigenvalues --  -11.41306 -11.41088 -11.38534 -11.36651 -11.35844
 Alpha  occ. eigenvalues --  -11.33338  -1.28155  -1.11894  -1.04698  -0.94297
 Alpha  occ. eigenvalues --   -0.86468  -0.78834  -0.64423  -0.61976  -0.59071
 Alpha  occ. eigenvalues --   -0.57306  -0.54794  -0.52527  -0.52008  -0.49466
 Alpha  occ. eigenvalues --   -0.46840  -0.46709  -0.43524  -0.41195  -0.38864
 Alpha virt. eigenvalues --    0.04231   0.05116   0.05240   0.05648   0.05841
 Alpha virt. eigenvalues --    0.06171   0.06205   0.06271   0.06555   0.08434
 Alpha virt. eigenvalues --    0.08501   0.08766   0.09366   0.11223   0.13322

 Mulliken charges:
               1
     1  C   -4.185853
     2  C   -4.185853
     3  C   -4.356917
     4  C   -3.043551
     5  C   -3.043551
     6  C   -0.407791
     7  H    1.242844
     8  H    1.049963
     9  H    1.436302
    10  H    1.049963
    11  H    1.436302
    12  H    1.242844
    13  H    1.279686
    14  H    1.387867
    15  H    1.387867
    16  H    1.462217
    17  H    1.427018
    18  H    1.427018
    19  H    1.462217
    20  H    1.931406
 Sum of Mulliken charges =  -0.00000

 Dipole moment (field-independent basis, Debye):
    X=              0.1143    Y=              0.0406    Z=              0.0000  Tot=              0.1213

 Test job not archived.
 1\1\GINC-SE298\SP\RHF\Aug-CC-pVDZ\C6H14\OHZDE\06-Apr-2025\0\\#t hf aug
 -cc-pvdz iop(5/13=1,5/36=2,99/5=2) pseudo=read geom=check guess=(read,
 tcheck) scf=(maxcycle=1)\\title\\0,1\C,0,0.332422,-0.120738,2.576193\C
 ,0,0.332422,-0.120738,-2.576193\C,0,-1.326599,-0.799534,0.\C,0,0.33242
 2,0.658899,1.260993\C,0,0.332422,0.658899,-1.260993\C,0,0.076207,-0.18
 3223,0.\H,0,1.064695,-0.930894,2.55276\H,0,0.589136,0.530437,3.413029\
 H,0,-0.640971,-0.560347,2.794714\H,0,0.589136,0.530437,-3.413029\H,0,-
 0.640971,-0.560347,-2.794714\H,0,1.064695,-0.930894,-2.55276\H,0,-2.09

 Normal termination of Gaussian 16 at Sun Apr  6 08:04:54 2025.
