 Gaussian 16, Revision C.01,

 ----------------------------------------------------------------------
 #t hf aug-cc-pvdz symm=none int=(grid=ultrafine) guess=(read,tcheck) s
 table=(opt,rrhf)
 ----------------------------------------------------------------------
 -----
 title
 -----
 Symbolic Z-matrix:
 Charge =  0 Multiplicity = 1

 SCF Done:  E(RHF) =  -593.883868862     A.U. after   12 cycles

 1\1\GINC-SE410\Stability\RHF\Aug-CC-pVDZ\C5H12S1\OHZDE\06-Apr-2025\0\\
 #t hf aug-cc-pvdz symm=none int=(grid=ultrafine) guess=(read,tcheck) s
 table=(opt,rrhf)\\title\\0,1\C,0,1.606387,-0.480067,0.\H,0,2.540581,0.
 090664,0.\S,0,-2.13095,1.425864,0.\H,0,-3.258675,0.692401,0.\C,0,-0.93
 8661,0.019058,0.\C,0,0.482787,0.577197,0.\C,0,1.606387,-1.344668,1.264
 784\C,0,1.606387,-1.344668,-1.264784\H,0,-1.123532,-0.585866,0.884604\
 H,0,-1.123532,-0.585866,-0.884604\H,0,0.607472,1.219754,-0.87567\H,0,0
 .607472,1.219754,0.87567\H,0,2.487666,-1.987485,-1.29199\H,0,2.487666,

 Normal termination of Gaussian 16 at Sun Apr  6 08:04:25 2025.
 Gaussian 16:  ES64L-G16RevC.01  3-Jul-2019

 ----------------------------------------------------------------------
 #t hf aug-cc-pvdz iop(5/13=1,5/36=2,99/5=2) pseudo=read geom=check gue
 ss=(read,tcheck) scf=(maxcycle=1)
 ----------------------------------------------------------------------
 -----
 title
 -----
 Structure from the checkpoint file:  "3-methyl-1-butanethiol.chk"
 Charge =  0 Multiplicity = 1

                         Standard orientation:
 ---------------------------------------------------------------------
 Center     Atomic      Atomic             Coordinates (Angstroms)
 Number     Number       Type             X           Y           Z
 ---------------------------------------------------------------------
      1          6           0        1.606387   -0.480067    0.000000
      2          1           0        2.540581    0.090664    0.000000
      3         16           0       -2.130950    1.425864    0.000000
      4          1           0       -3.258675    0.692401   -0.000000
      5          6           0       -0.938661    0.019058   -0.000000
      6          6           0        0.482787    0.577197    0.000000
      7          6           0        1.606387   -1.344668    1.264784
      8          6           0        1.606387   -1.344668   -1.264784
      9          1           0       -1.123532   -0.585866    0.884604
     10          1           0       -1.123532   -0.585866   -0.884604
     11          1           0        0.607472    1.219754   -0.875670
     12          1           0        0.607472    1.219754    0.875670
     13          1           0        2.487666   -1.987485   -1.291990
     14          1           0        2.487666   -1.987485    1.291990
     15          1           0        0.730680   -1.994906    1.310682
     16          1           0        0.730680   -1.994906   -1.310682
     17          1           0        1.614497   -0.730494    2.167099
     18          1           0        1.614497   -0.730494   -2.167099
 ---------------------------------------------------------------------

 SCF Done:  E(RHF) =  -595.149009976     A.U. after    2 cycles

 The electronic state is 1-A'.
 Alpha  occ. eigenvalues --  -75.67889 -13.13949 -13.07478 -13.00643 -11.43104
 Alpha  occ. eigenvalues --  -11.41589 -11.38554 -11.38544 -11.34939  -8.01728
 Alpha  occ. eigenvalues --   -1.29183  -1.16477  -1.02391  -1.00380  -0.89194
 Alpha  occ. eigenvalues --   -0.79266  -0.64677  -0.64282  -0.60487  -0.56695
 Alpha  occ. eigenvalues --   -0.54518  -0.53034  -0.50648  -0.49629  -0.44105
 Alpha  occ. eigenvalues --   -0.43413  -0.41762  -0.37030  -0.23318
 Alpha virt. eigenvalues --    0.03526   0.04267   0.05546   0.05681   0.05862
 Alpha virt. eigenvalues --    0.05920   0.05991   0.06149   0.06283   0.08327
 Alpha virt. eigenvalues --    0.09504   0.09833   0.10551   0.12460   0.13624

 Mulliken charges:
               1
     1  C   -1.192524
     2  H    1.476585
     3  S   -0.428779
     4  H    0.854315
     5  C   -3.742823
     6  C   -2.465068
     7  C   -4.142866
     8  C   -4.142866
     9  H    1.498491
    10  H    1.498491
    11  H    1.510764
    12  H    1.510764
    13  H    1.160237
    14  H    1.160237
    15  H    1.480308
    16  H    1.480308
    17  H    1.242215
    18  H    1.242215
 Sum of Mulliken charges =  -0.00000

 Dipole moment (field-independent basis, Debye):
    X=              1.3339    Y=              0.2305    Z=              0.0000  Tot=              1.3537

 Test job not archived.
 1\1\GINC-SE410\SP\RHF\Aug-CC-pVDZ\C5H12S1\OHZDE\06-Apr-2025\0\\#t hf a
 ug-cc-pvdz iop(5/13=1,5/36=2,99/5=2) pseudo=read geom=check guess=(rea
 d,tcheck) scf=(maxcycle=1)\\title\\0,1\C,0,1.606387,-0.480067,0.\H,0,2
 .540581,0.090664,0.\S,0,-2.13095,1.425864,0.\H,0,-3.258675,0.692401,0.
 \C,0,-0.938661,0.019058,0.\C,0,0.482787,0.577197,0.\C,0,1.606387,-1.34
 4668,1.264784\C,0,1.606387,-1.344668,-1.264784\H,0,-1.123532,-0.585866
 ,0.884604\H,0,-1.123532,-0.585866,-0.884604\H,0,0.607472,1.219754,-0.8
 7567\H,0,0.607472,1.219754,0.87567\H,0,2.487666,-1.987485,-1.29199\H,0

 Normal termination of Gaussian 16 at Sun Apr  6 08:04:54 2025.
