 Gaussian 16, Revision C.01,

 ----------------------------------------------------------------------
 #t hf aug-cc-pvdz symm=none int=(grid=ultrafine) guess=(read,tcheck) s
 table=(opt,rrhf)
 ----------------------------------------------------------------------
 -----
 title
 -----
 Symbolic Z-matrix:
 Charge =  0 Multiplicity = 1

 SCF Done:  E(RHF) =  -593.883032012     A.U. after   13 cycles

 1\1\GINC-SE290\Stability\RHF\Aug-CC-pVDZ\C5H12S1\OHZDE\06-Apr-2025\0\\
 #t hf aug-cc-pvdz symm=none int=(grid=ultrafine) guess=(read,tcheck) s
 table=(opt,rrhf)\\title\\0,1\C,0,-1.178493,-1.652194,0.116805\H,0,-2.0
 72764,-2.05324,-0.361889\H,0,-0.342512,-2.298223,-0.146619\H,0,-1.3214
 81,-1.71964,1.198086\C,0,0.547343,1.874508,-0.035601\H,0,-0.265216,2.5
 15201,0.308948\H,0,1.466983,2.246656,0.415537\H,0,0.637818,1.980802,-1
 .117431\S,0,1.773454,-0.622977,-0.100054\H,0,2.70471,0.202406,0.408749
 \C,0,0.298134,0.419562,0.349892\H,0,0.183677,0.344478,1.433269\C,0,-0.

 Normal termination of Gaussian 16 at Sun Apr  6 08:04:35 2025.
 Gaussian 16:  ES64L-G16RevC.01  3-Jul-2019

 ----------------------------------------------------------------------
 #t hf aug-cc-pvdz iop(5/13=1,5/36=2,99/5=2) pseudo=read geom=check gue
 ss=(read,tcheck) scf=(maxcycle=1)
 ----------------------------------------------------------------------
 -----
 title
 -----
 Structure from the checkpoint file:  "3-methyl-2-butanethiol.chk"
 Charge =  0 Multiplicity = 1

                         Standard orientation:
 ---------------------------------------------------------------------
 Center     Atomic      Atomic             Coordinates (Angstroms)
 Number     Number       Type             X           Y           Z
 ---------------------------------------------------------------------
      1          6           0       -1.178493   -1.652194    0.116805
      2          1           0       -2.072764   -2.053240   -0.361889
      3          1           0       -0.342512   -2.298223   -0.146619
      4          1           0       -1.321481   -1.719640    1.198086
      5          6           0        0.547343    1.874508   -0.035601
      6          1           0       -0.265216    2.515201    0.308948
      7          1           0        1.466983    2.246656    0.415537
      8          1           0        0.637818    1.980802   -1.117431
      9         16           0        1.773454   -0.622977   -0.100054
     10          1           0        2.704710    0.202406    0.408749
     11          6           0        0.298134    0.419562    0.349892
     12          1           0        0.183677    0.344478    1.433269
     13          6           0       -0.951456   -0.197739   -0.311553
     14          1           0       -0.786007   -0.181121   -1.393993
     15          6           0       -2.209169    0.629016   -0.010608
     16          1           0       -2.374526    0.713213    1.066488
     17          1           0       -2.158055    1.634905   -0.423808
     18          1           0       -3.086048    0.143279   -0.440087
 ---------------------------------------------------------------------

 SCF Done:  E(RHF) =  -595.153948668     A.U. after    2 cycles

 The electronic state is 1-A.
 Alpha  occ. eigenvalues --  -75.67459 -13.14526 -13.09332 -13.02243 -11.44290
 Alpha  occ. eigenvalues --  -11.41138 -11.38519 -11.37793 -11.35153  -8.01338
 Alpha  occ. eigenvalues --   -1.30684  -1.13503  -1.04242  -0.99761  -0.90515
 Alpha  occ. eigenvalues --   -0.79439  -0.63928  -0.62236  -0.59499  -0.58297
 Alpha  occ. eigenvalues --   -0.54537  -0.53630  -0.50495  -0.49599  -0.45841
 Alpha  occ. eigenvalues --   -0.44812  -0.41667  -0.35234  -0.23420
 Alpha virt. eigenvalues --    0.03872   0.04676   0.05437   0.05588   0.05783
 Alpha virt. eigenvalues --    0.06024   0.06163   0.06475   0.06613   0.08559
 Alpha virt. eigenvalues --    0.09051   0.09321   0.12316   0.12609   0.13293

 Mulliken charges:
               1
     1  C   -4.083006
     2  H    1.190172
     3  H    1.420325
     4  H    1.282534
     5  C   -3.881484
     6  H    1.373394
     7  H    1.047941
     8  H    1.357950
     9  S   -0.764752
    10  H    0.935374
    11  C   -2.049035
    12  H    1.750417
    13  C   -1.065004
    14  H    1.759289
    15  C   -4.089762
    16  H    1.283899
    17  H    1.351660
    18  H    1.180089
 Sum of Mulliken charges =  -0.00000

 Dipole moment (field-independent basis, Debye):
    X=             -1.0419    Y=             -0.4870    Z=             -0.3290  Tot=              1.1962

 Test job not archived.
 1\1\GINC-SE290\SP\RHF\Aug-CC-pVDZ\C5H12S1\OHZDE\06-Apr-2025\0\\#t hf a
 ug-cc-pvdz iop(5/13=1,5/36=2,99/5=2) pseudo=read geom=check guess=(rea
 d,tcheck) scf=(maxcycle=1)\\title\\0,1\C,0,-1.178493,-1.652194,0.11680
 5\H,0,-2.072764,-2.05324,-0.361889\H,0,-0.342512,-2.298223,-0.146619\H
 ,0,-1.321481,-1.71964,1.198086\C,0,0.547343,1.874508,-0.035601\H,0,-0.
 265216,2.515201,0.308948\H,0,1.466983,2.246656,0.415537\H,0,0.637818,1
 .980802,-1.117431\S,0,1.773454,-0.622977,-0.100054\H,0,2.70471,0.20240
 6,0.408749\C,0,0.298134,0.419562,0.349892\H,0,0.183677,0.344478,1.4332

 Normal termination of Gaussian 16 at Sun Apr  6 08:04:57 2025.
