 Gaussian 16, Revision C.01,

 ----------------------------------------------------------------------
 #t hf aug-cc-pvdz symm=none int=(grid=ultrafine) guess=(read,tcheck) s
 table=(opt,rrhf)
 ----------------------------------------------------------------------
 -----
 title
 -----
 Symbolic Z-matrix:
 Charge =  0 Multiplicity = 1

 SCF Done:  E(RHF) =  -193.960239032     A.U. after   12 cycles
 Normal termination of Gaussian 16 at Sun Apr  6 08:04:06 2025.
 Gaussian 16:  ES64L-G16RevC.01  3-Jul-2019

 ----------------------------------------------------------------------
 #t hf aug-cc-pvdz iop(5/13=1,5/36=2,99/5=2) pseudo=read geom=check gue
 ss=(read,tcheck) scf=(maxcycle=1)
 ----------------------------------------------------------------------
 -----
 title
 -----
 Structure from the checkpoint file:  "3-methyl-1-2-butadiene.chk"
 Charge =  0 Multiplicity = 1

                         Standard orientation:
 ---------------------------------------------------------------------
 Center     Atomic      Atomic             Coordinates (Angstroms)
 Number     Number       Type             X           Y           Z
 ---------------------------------------------------------------------
      1          6           0        0.000000    0.000000    2.232657
      2          6           0        0.000000    0.000000    0.930096
      3          1           0       -0.923706    0.000000    2.800709
      4          1           0        0.923706   -0.000000    2.800709
      5          6           0        0.000000    0.000000   -0.374142
      6          6           0        0.000000    1.284198   -1.168462
      7          6           0       -0.000000   -1.284198   -1.168462
      8          1           0        0.000000    2.158725   -0.521798
      9          1           0       -0.000000   -2.158725   -0.521798
     10          1           0        0.878905    1.332755   -1.816985
     11          1           0       -0.878905    1.332755   -1.816985
     12          1           0       -0.878905   -1.332755   -1.816985
     13          1           0        0.878905   -1.332755   -1.816985
 ---------------------------------------------------------------------

 SCF Done:  E(RHF) =  -194.939756093     A.U. after    2 cycles

 The electronic state is 1-A1.
 Alpha  occ. eigenvalues --  -11.42054 -11.40748 -11.39459 -11.38351 -11.36404
 Alpha  occ. eigenvalues --   -1.25753  -1.08230  -1.01251  -0.89704  -0.68425
 Alpha  occ. eigenvalues --   -0.60851  -0.60758  -0.57770  -0.57734  -0.53635
 Alpha  occ. eigenvalues --   -0.49681  -0.48490  -0.34235  -0.32652
 Alpha virt. eigenvalues --    0.03138   0.05480   0.05756   0.05820   0.06313
 Alpha virt. eigenvalues --    0.06773   0.07403   0.07451   0.09590   0.11553
 Alpha virt. eigenvalues --    0.12261   0.13290   0.14692   0.14986   0.15123

 Mulliken charges:
               1
     1  C   -4.435986
     2  C    2.103573
     3  H    1.271273
     4  H    1.271273
     5  C    2.082786
     6  C   -4.736138
     7  C   -4.736138
     8  H    1.324667
     9  H    1.324667
    10  H    1.132506
    11  H    1.132506
    12  H    1.132506
    13  H    1.132506
 Sum of Mulliken charges =   0.00000

 Dipole moment (field-independent basis, Debye):
    X=              0.0000    Y=             -0.0000    Z=             -0.5730  Tot=              0.5730

 Test job not archived.
 1\1\GINC-SE409\SP\RHF\Aug-CC-pVDZ\C5H8\OHZDE\06-Apr-2025\0\\#t hf aug-
 cc-pvdz iop(5/13=1,5/36=2,99/5=2) pseudo=read geom=check guess=(read,t
 check) scf=(maxcycle=1)\\title\\0,1\C,0,0.,0.,2.232657\C,0,0.,0.,0.930
 096\H,0,-0.923706,0.,2.800709\H,0,0.923706,0.,2.800709\C,0,0.,0.,-0.37
 4142\C,0,0.,1.284198,-1.168462\C,0,0.,-1.284198,-1.168462\H,0,0.,2.158
 725,-0.521798\H,0,0.,-2.158725,-0.521798\H,0,0.878905,1.332755,-1.8169
 85\H,0,-0.878905,1.332755,-1.816985\H,0,-0.878905,-1.332755,-1.816985\
 H,0,0.878905,-1.332755,-1.816985\\Version=ES64L-G16RevC.01\State=1-A1\

 Normal termination of Gaussian 16 at Sun Apr  6 08:04:11 2025.
