 Gaussian 16, Revision C.01,

 ----------------------------------------------------------------------
 #t hf aug-cc-pvdz symm=none int=(grid=ultrafine) guess=(read,tcheck) s
 table=(opt,rrhf)
 ----------------------------------------------------------------------
 -----
 title
 -----
 Symbolic Z-matrix:
 Charge =  0 Multiplicity = 1

 SCF Done:  E(RHF) =  -458.736161486     A.U. after   14 cycles

 1\1\GINC-SE432\Stability\RHF\Aug-CC-pVDZ\C6H12O3\OHZDE\06-Apr-2025\0\\
 #t hf aug-cc-pvdz symm=none int=(grid=ultrafine) guess=(read,tcheck) s
 table=(opt,rrhf)\\title\\0,1\O,0,1.270396,-1.072639,-0.506582\O,0,1.51
 7293,1.629822,0.199626\O,0,2.683542,-0.799493,-0.331343\C,0,0.56324,-0
 .576995,0.62928\C,0,0.307919,0.934523,0.521011\C,0,-1.624769,-0.258153
 ,-0.451572\C,0,-0.849525,-1.149198,0.553638\C,0,-0.801644,1.058787,-0.
 534497\C,0,-3.086772,-0.05309,-0.062299\H,0,1.309055,2.53608,-0.044132
 \H,0,2.700175,0.16802,-0.431915\H,0,1.109271,-0.857959,1.530822\H,0,-0

 Normal termination of Gaussian 16 at Sun Apr  6 08:05:25 2025.
 Gaussian 16:  ES64L-G16RevC.01  3-Jul-2019

 ----------------------------------------------------------------------
 #t hf aug-cc-pvdz iop(5/13=1,5/36=2,99/5=2) pseudo=read geom=check gue
 ss=(read,tcheck) scf=(maxcycle=1)
 ----------------------------------------------------------------------
 -----
 title
 -----
 Structure from the checkpoint file:  "3-methyl-2-peroxycyclopentanol.chk"
 Charge =  0 Multiplicity = 1

                         Standard orientation:
 ---------------------------------------------------------------------
 Center     Atomic      Atomic             Coordinates (Angstroms)
 Number     Number       Type             X           Y           Z
 ---------------------------------------------------------------------
      1          8           0        1.270396   -1.072639   -0.506582
      2          8           0        1.517293    1.629822    0.199626
      3          8           0        2.683542   -0.799493   -0.331343
      4          6           0        0.563240   -0.576995    0.629280
      5          6           0        0.307919    0.934523    0.521011
      6          6           0       -1.624769   -0.258153   -0.451572
      7          6           0       -0.849525   -1.149198    0.553638
      8          6           0       -0.801644    1.058787   -0.534497
      9          6           0       -3.086772   -0.053090   -0.062299
     10          1           0        1.309055    2.536080   -0.044132
     11          1           0        2.700175    0.168020   -0.431915
     12          1           0        1.109271   -0.857959    1.530822
     13          1           0       -0.053565    1.281853    1.495981
     14          1           0       -1.598532   -0.739344   -1.429450
     15          1           0       -1.302471   -1.082953    1.545764
     16          1           0       -0.834433   -2.200567    0.271677
     17          1           0       -0.336755    1.157769   -1.515782
     18          1           0       -1.419865    1.942579   -0.368709
     19          1           0       -3.610629   -1.007454    0.018344
     20          1           0       -3.169359    0.453398    0.902715
     21          1           0       -3.613427    0.551813   -0.802280
 ---------------------------------------------------------------------

 SCF Done:  E(RHF) =  -460.827230626     A.U. after    2 cycles

 The electronic state is 1-A.
 Alpha  occ. eigenvalues --  -21.09134 -21.08533 -21.07597 -11.50105 -11.48081
 Alpha  occ. eigenvalues --  -11.42187 -11.40696 -11.38883 -11.35178  -1.92233
 Alpha  occ. eigenvalues --   -1.72853  -1.44275  -1.28977  -1.08982  -1.04342
 Alpha  occ. eigenvalues --   -0.95484  -0.81400  -0.80951  -0.70572  -0.67681
 Alpha  occ. eigenvalues --   -0.64299  -0.60792  -0.58083  -0.56697  -0.53800
 Alpha  occ. eigenvalues --   -0.52863  -0.49794  -0.48494  -0.47551  -0.45027
 Alpha  occ. eigenvalues --   -0.43753  -0.40916  -0.38408  -0.33087  -0.31644
 Alpha  occ. eigenvalues --   -0.28010
 Alpha virt. eigenvalues --    0.03816   0.04227   0.04556   0.04845   0.05225
 Alpha virt. eigenvalues --    0.05633   0.06532   0.07038   0.07593   0.08102
 Alpha virt. eigenvalues --    0.08530   0.08904   0.12514   0.13043   0.13257

 Mulliken charges:
               1
     1  O   -2.082309
     2  O   -3.599557
     3  O   -1.211203
     4  C    0.590920
     5  C    1.450940
     6  C   -0.939425
     7  C   -3.073271
     8  C   -3.421365
     9  C   -4.019748
    10  H    0.864278
    11  H    1.090743
    12  H    1.866904
    13  H    1.697085
    14  H    1.513071
    15  H    1.398860
    16  H    1.395808
    17  H    1.356425
    18  H    1.475169
    19  H    1.183935
    20  H    1.288352
    21  H    1.174389
 Sum of Mulliken charges =  -0.00000

 Dipole moment (field-independent basis, Debye):
    X=             -1.2852    Y=              1.2794    Z=              0.2825  Tot=              1.8353

 Test job not archived.
 1\1\GINC-SE432\SP\RHF\Aug-CC-pVDZ\C6H12O3\OHZDE\06-Apr-2025\0\\#t hf a
 ug-cc-pvdz iop(5/13=1,5/36=2,99/5=2) pseudo=read geom=check guess=(rea
 d,tcheck) scf=(maxcycle=1)\\title\\0,1\O,0,1.270396,-1.072639,-0.50658
 2\O,0,1.517293,1.629822,0.199626\O,0,2.683542,-0.799493,-0.331343\C,0,
 0.56324,-0.576995,0.62928\C,0,0.307919,0.934523,0.521011\C,0,-1.624769
 ,-0.258153,-0.451572\C,0,-0.849525,-1.149198,0.553638\C,0,-0.801644,1.
 058787,-0.534497\C,0,-3.086772,-0.05309,-0.062299\H,0,1.309055,2.53608
 ,-0.044132\H,0,2.700175,0.16802,-0.431915\H,0,1.109271,-0.857959,1.530

 Normal termination of Gaussian 16 at Sun Apr  6 08:05:34 2025.
