 Gaussian 16, Revision C.01,

 ----------------------------------------------------------------------
 #t hf aug-cc-pvdz symm=none int=(grid=ultrafine) guess=(read,tcheck) s
 table=(opt,rrhf)
 ----------------------------------------------------------------------
 -----
 title
 -----
 Symbolic Z-matrix:
 Charge =  0 Multiplicity = 1

 SCF Done:  E(RHF) =  -285.765444692     A.U. after   15 cycles
 Normal termination of Gaussian 16 at Sun Apr  6 08:04:23 2025.
 Gaussian 16:  ES64L-G16RevC.01  3-Jul-2019

 ----------------------------------------------------------------------
 #t hf aug-cc-pvdz iop(5/13=1,5/36=2,99/5=2) pseudo=read geom=check gue
 ss=(read,tcheck) scf=(maxcycle=1)
 ----------------------------------------------------------------------
 -----
 title
 -----
 Structure from the checkpoint file:  "3-methylpyridine.chk"
 Charge =  0 Multiplicity = 1

                         Standard orientation:
 ---------------------------------------------------------------------
 Center     Atomic      Atomic             Coordinates (Angstroms)
 Number     Number       Type             X           Y           Z
 ---------------------------------------------------------------------
      1          6           0       -1.174839   -1.203589    0.000000
      2          6           0       -1.199799    0.182128    0.000000
      3          6           0        0.057339   -1.847450    0.000000
      4          6           0        1.173702    0.138239    0.000000
      5          6           0       -0.000000    0.891573    0.000000
      6          6           0        0.034480    2.395305    0.000000
      7          7           0        1.217307   -1.194023    0.000000
      8          1           0       -2.090952   -1.778442    0.000000
      9          1           0       -2.144751    0.712153    0.000000
     10          1           0        0.113787   -2.930206    0.000000
     11          1           0        2.134084    0.644651    0.000000
     12          1           0       -0.468705    2.803456    0.878765
     13          1           0        1.058791    2.765852    0.000000
     14          1           0       -0.468705    2.803456   -0.878765
 ---------------------------------------------------------------------

 SCF Done:  E(RHF) =  -287.136366258     A.U. after    2 cycles

 The electronic state is 1-A'.
 Alpha  occ. eigenvalues --  -15.73397 -11.47585 -11.44290 -11.43102 -11.41491
 Alpha  occ. eigenvalues --  -11.39404 -11.37196  -1.44806  -1.21430  -1.13627
 Alpha  occ. eigenvalues --   -1.01334  -0.88895  -0.85293  -0.72097  -0.63473
 Alpha  occ. eigenvalues --   -0.62156  -0.58704  -0.56116  -0.54970  -0.53114
 Alpha  occ. eigenvalues --   -0.52236  -0.45689  -0.36259  -0.35072  -0.32836
 Alpha virt. eigenvalues --    0.03207   0.04749   0.05359   0.05793   0.06152
 Alpha virt. eigenvalues --    0.06531   0.07611   0.09565   0.10100   0.12059
 Alpha virt. eigenvalues --    0.12383   0.12825   0.13495   0.13943   0.14059

 Mulliken charges:
               1
     1  C   -1.292425
     2  C   -1.063508
     3  C   -1.215148
     4  C   -1.832546
     5  C    4.185189
     6  C   -5.035994
     7  N   -3.602753
     8  H    1.368128
     9  H    1.739100
    10  H    1.517140
    11  H    1.596432
    12  H    1.148396
    13  H    1.339593
    14  H    1.148396
 Sum of Mulliken charges =   0.00000

 Dipole moment (field-independent basis, Debye):
    X=             -1.7060    Y=              1.2578    Z=             -0.0000  Tot=              2.1195

 Test job not archived.
 1\1\GINC-SE299\SP\RHF\Aug-CC-pVDZ\C6H7N1\OHZDE\06-Apr-2025\0\\#t hf au
 g-cc-pvdz iop(5/13=1,5/36=2,99/5=2) pseudo=read geom=check guess=(read
 ,tcheck) scf=(maxcycle=1)\\title\\0,1\C,0,-1.174839,-1.203589,0.\C,0,-
 1.199799,0.182128,0.\C,0,0.057339,-1.84745,0.\C,0,1.173702,0.138239,0.
 \C,0,0.,0.891573,0.\C,0,0.03448,2.395305,0.\N,0,1.217307,-1.194023,0.\
 H,0,-2.090952,-1.778442,0.\H,0,-2.144751,0.712153,0.\H,0,0.113787,-2.9
 30206,0.\H,0,2.134084,0.644651,0.\H,0,-0.468705,2.803456,0.878765\H,0,
 1.058791,2.765852,0.\H,0,-0.468705,2.803456,-0.878765\\Version=ES64L-G

 Normal termination of Gaussian 16 at Sun Apr  6 08:04:53 2025.
