 Gaussian 16, Revision C.01,

 ----------------------------------------------------------------------
 #t hf aug-cc-pvdz symm=none int=(grid=ultrafine) guess=(read,tcheck) s
 table=(opt,rrhf)
 ----------------------------------------------------------------------
 -----
 title
 -----
 Symbolic Z-matrix:
 Charge =  0 Multiplicity = 1

 SCF Done:  E(RHF) =  -399.667951245     A.U. after   15 cycles
 Normal termination of Gaussian 16 at Sun Apr  6 08:04:50 2025.
 Gaussian 16:  ES64L-G16RevC.01  3-Jul-2019

 ----------------------------------------------------------------------
 #t hf aug-cc-pvdz iop(5/13=1,5/36=2,99/5=2) pseudo=read geom=check gue
 ss=(read,tcheck) scf=(maxcycle=1)
 ----------------------------------------------------------------------
 -----
 title
 -----
 Structure from the checkpoint file:  "3-methoxyaniline.chk"
 Charge =  0 Multiplicity = 1

                         Standard orientation:
 ---------------------------------------------------------------------
 Center     Atomic      Atomic             Coordinates (Angstroms)
 Number     Number       Type             X           Y           Z
 ---------------------------------------------------------------------
      1          6           0       -0.533337    1.799111    0.003615
      2          6           0       -1.705095    1.064563   -0.002894
      3          6           0        0.717403    1.184420    0.004395
      4          6           0       -0.402266   -0.962277   -0.006106
      5          6           0       -1.646552   -0.337109   -0.007512
      6          6           0        0.770726   -0.209050   -0.000830
      7          6           0        3.162146   -0.235899    0.003261
      8          7           0       -2.816974   -1.091799   -0.070750
      9          8           0        1.927453   -0.933333    0.000800
     10          1           0       -0.586702    2.879891    0.008420
     11          1           0       -2.664991    1.564249   -0.010323
     12          1           0        1.613061    1.784526    0.009583
     13          1           0       -0.323439   -2.041438   -0.015180
     14          1           0        3.268427    0.385502    0.896029
     15          1           0        3.269501    0.389402   -0.886596
     16          1           0        3.936497   -0.998414    0.002060
     17          1           0       -3.647664   -0.634953    0.267787
     18          1           0       -2.743642   -2.042069    0.253499
 ---------------------------------------------------------------------

 SCF Done:  E(RHF) =  -401.540527135     A.U. after    2 cycles

 The electronic state is 1-A.
 Alpha  occ. eigenvalues --  -21.06831 -15.75550 -11.52358 -11.46786 -11.43499
 Alpha  occ. eigenvalues --  -11.41142 -11.39478 -11.39200 -11.35562  -1.78321
 Alpha  occ. eigenvalues --   -1.39990  -1.24829  -1.09096  -1.04915  -0.98469
 Alpha  occ. eigenvalues --   -0.86544  -0.82311  -0.70301  -0.67764  -0.65698
 Alpha  occ. eigenvalues --   -0.62015  -0.61762  -0.58122  -0.57291  -0.53488
 Alpha  occ. eigenvalues --   -0.52309  -0.46715  -0.46170  -0.44656  -0.38542
 Alpha  occ. eigenvalues --   -0.38353  -0.28249  -0.25514
 Alpha virt. eigenvalues --    0.03488   0.04731   0.05076   0.05650   0.06310
 Alpha virt. eigenvalues --    0.06569   0.06991   0.08096   0.09454   0.10377
 Alpha virt. eigenvalues --    0.11865   0.12249   0.13328   0.13653   0.14055

 Mulliken charges:
               1
     1  C    0.780657
     2  C   -3.279929
     3  C   -3.891389
     4  C   -3.668866
     5  C    3.394896
     6  C    6.720198
     7  C   -3.684344
     8  N   -4.040183
     9  O   -4.794366
    10  H    1.500749
    11  H    1.692471
    12  H    1.896461
    13  H    1.934003
    14  H    1.353681
    15  H    1.359259
    16  H    1.448172
    17  H    0.638952
    18  H    0.639578
 Sum of Mulliken charges =  -0.00000

 Dipole moment (field-independent basis, Debye):
    X=             -0.0559    Y=             -0.4807    Z=              0.7405  Tot=              0.8846

 Test job not archived.
 1\1\GINC-SE408\SP\RHF\Aug-CC-pVDZ\C7H9N1O1\OHZDE\06-Apr-2025\0\\#t hf
 aug-cc-pvdz iop(5/13=1,5/36=2,99/5=2) pseudo=read geom=check guess=(re
 ad,tcheck) scf=(maxcycle=1)\\title\\0,1\C,0,-0.533337,1.799111,0.00361
 5\C,0,-1.705095,1.064563,-0.002894\C,0,0.717403,1.18442,0.004395\C,0,-
 0.402266,-0.962277,-0.006106\C,0,-1.646552,-0.337109,-0.007512\C,0,0.7
 70726,-0.20905,-0.00083\C,0,3.162146,-0.235899,0.003261\N,0,-2.816974,
 -1.091799,-0.07075\O,0,1.927453,-0.933333,0.0008\H,0,-0.586702,2.87989
 1,0.00842\H,0,-2.664991,1.564249,-0.010323\H,0,1.613061,1.784526,0.009

 Normal termination of Gaussian 16 at Sun Apr  6 08:05:21 2025.
