 Gaussian 16, Revision C.01,

 ----------------------------------------------------------------------
 #t hf aug-cc-pvdz symm=none int=(grid=ultrafine) guess=(read,tcheck) s
 table=(opt,rrhf)
 ----------------------------------------------------------------------
 -----
 title
 -----
 Symbolic Z-matrix:
 Charge =  0 Multiplicity = 1

 SCF Done:  E(RHF) =  -344.965530886     A.U. after   13 cycles

 1\1\GINC-SE431\Stability\RHF\Aug-CC-pVDZ\C5H10O2\OHZDE\06-Apr-2025\0\\
 #t hf aug-cc-pvdz symm=none int=(grid=ultrafine) guess=(read,tcheck) s
 table=(opt,rrhf)\\title\\0,1\C,0,-1.385093,-0.119037,-0.191443\C,0,1.1
 98586,1.436061,0.377759\C,0,2.456843,-0.677449,-0.193579\C,0,-0.014446
 ,-0.553958,-0.640655\C,0,1.127999,-0.090146,0.287288\O,0,-2.127693,0.6
 17199,-0.789592\O,0,-1.722647,-0.661713,1.007831\H,0,0.267397,1.867338
 ,0.747324\H,0,1.400121,1.875664,-0.601872\H,0,1.997897,1.744882,1.0527
 19\H,0,2.699166,-0.326079,-1.199339\H,0,3.273423,-0.380691,0.46604\H,0

 Normal termination of Gaussian 16 at Sun Apr  6 08:04:30 2025.
 Gaussian 16:  ES64L-G16RevC.01  3-Jul-2019

 ----------------------------------------------------------------------
 #t hf aug-cc-pvdz iop(5/13=1,5/36=2,99/5=2) pseudo=read geom=check gue
 ss=(read,tcheck) scf=(maxcycle=1)
 ----------------------------------------------------------------------
 -----
 title
 -----
 Structure from the checkpoint file:  "3-methylbutanoic_acid.chk"
 Charge =  0 Multiplicity = 1

                         Standard orientation:
 ---------------------------------------------------------------------
 Center     Atomic      Atomic             Coordinates (Angstroms)
 Number     Number       Type             X           Y           Z
 ---------------------------------------------------------------------
      1          6           0       -1.385093   -0.119037   -0.191443
      2          6           0        1.198586    1.436061    0.377759
      3          6           0        2.456843   -0.677449   -0.193579
      4          6           0       -0.014446   -0.553958   -0.640655
      5          6           0        1.127999   -0.090146    0.287288
      6          8           0       -2.127693    0.617199   -0.789592
      7          8           0       -1.722647   -0.661713    1.007831
      8          1           0        0.267397    1.867338    0.747324
      9          1           0        1.400121    1.875664   -0.601872
     10          1           0        1.997897    1.744882    1.052719
     11          1           0        2.699166   -0.326079   -1.199339
     12          1           0        3.273423   -0.380691    0.466040
     13          1           0        2.426108   -1.767952   -0.218522
     14          1           0       -0.012100   -1.645227   -0.691635
     15          1           0        0.133247   -0.165542   -1.647605
     16          1           0        0.921724   -0.484958    1.284881
     17          1           0       -2.607598   -0.334141    1.225892
 ---------------------------------------------------------------------

 SCF Done:  E(RHF) =  -346.556007368     A.U. after    2 cycles

 The electronic state is 1-A.
 Alpha  occ. eigenvalues --  -21.11963 -21.05189 -11.52686 -11.43367 -11.40951
 Alpha  occ. eigenvalues --  -11.38875 -11.35651  -1.82504  -1.64990  -1.27064
 Alpha  occ. eigenvalues --   -1.06293  -1.00779  -0.84372  -0.78978  -0.65814
 Alpha  occ. eigenvalues --   -0.63564  -0.61965  -0.60142  -0.54872  -0.54111
 Alpha  occ. eigenvalues --   -0.53613  -0.52891  -0.47626  -0.45997  -0.43877
 Alpha  occ. eigenvalues --   -0.42981  -0.33798  -0.29085
 Alpha virt. eigenvalues --    0.03737   0.04944   0.05205   0.05494   0.06134
 Alpha virt. eigenvalues --    0.06407   0.06558   0.07107   0.08063   0.08562
 Alpha virt. eigenvalues --    0.11264   0.12315   0.13266   0.14027   0.14294

 Mulliken charges:
               1
     1  C    6.663111
     2  C   -3.921683
     3  C   -4.253692
     4  C   -4.204231
     5  C   -1.160306
     6  O   -3.208668
     7  O   -3.093294
     8  H    1.312723
     9  H    1.292386
    10  H    1.228797
    11  H    1.307413
    12  H    1.203519
    13  H    1.234523
    14  H    1.565139
    15  H    1.321169
    16  H    1.822585
    17  H    0.890509
 Sum of Mulliken charges =   0.00000

 Dipole moment (field-independent basis, Debye):
    X=              1.0213    Y=             -0.7351    Z=              0.9519  Tot=              1.5779

 Test job not archived.
 1\1\GINC-SE431\SP\RHF\Aug-CC-pVDZ\C5H10O2\OHZDE\06-Apr-2025\0\\#t hf a
 ug-cc-pvdz iop(5/13=1,5/36=2,99/5=2) pseudo=read geom=check guess=(rea
 d,tcheck) scf=(maxcycle=1)\\title\\0,1\C,0,-1.385093,-0.119037,-0.1914
 43\C,0,1.198586,1.436061,0.377759\C,0,2.456843,-0.677449,-0.193579\C,0
 ,-0.014446,-0.553958,-0.640655\C,0,1.127999,-0.090146,0.287288\O,0,-2.
 127693,0.617199,-0.789592\O,0,-1.722647,-0.661713,1.007831\H,0,0.26739
 7,1.867338,0.747324\H,0,1.400121,1.875664,-0.601872\H,0,1.997897,1.744
 882,1.052719\H,0,2.699166,-0.326079,-1.199339\H,0,3.273423,-0.380691,0

 Normal termination of Gaussian 16 at Sun Apr  6 08:04:55 2025.
