 Gaussian 16, Revision C.01,

 ----------------------------------------------------------------------
 #t hf aug-cc-pvdz symm=none int=(grid=ultrafine) guess=(read,tcheck) s
 table=(opt,rrhf)
 ----------------------------------------------------------------------
 -----
 title
 -----
 Symbolic Z-matrix:
 Charge =  0 Multiplicity = 1

 SCF Done:  E(RHF) =  -419.498777717     A.U. after   15 cycles
 Normal termination of Gaussian 16 at Sun Apr  6 08:04:50 2025.
 Gaussian 16:  ES64L-G16RevC.01  3-Jul-2019

 ----------------------------------------------------------------------
 #t hf aug-cc-pvdz iop(5/13=1,5/36=2,99/5=2) pseudo=read geom=check gue
 ss=(read,tcheck) scf=(maxcycle=1)
 ----------------------------------------------------------------------
 -----
 title
 -----
 Structure from the checkpoint file:  "3-methoxyphenol.chk"
 Charge =  0 Multiplicity = 1

                         Standard orientation:
 ---------------------------------------------------------------------
 Center     Atomic      Atomic             Coordinates (Angstroms)
 Number     Number       Type             X           Y           Z
 ---------------------------------------------------------------------
      1          6           0       -1.579132   -1.018404    0.000000
      2          6           0       -0.556518   -1.950256    0.000000
      3          6           0       -1.323399    0.352438    0.000000
      4          6           0        1.044493   -0.139672    0.000000
      5          6           0        0.763417   -1.497487    0.000000
      6          6           0        0.000000    0.787801    0.000000
      7          6           0       -0.623241    3.096404    0.000000
      8          8           0        1.751266   -2.443316    0.000000
      9          8           0        0.383127    2.095674    0.000000
     10          1           0       -2.605756   -1.359527    0.000000
     11          1           0       -0.754444   -3.011972    0.000000
     12          1           0       -2.144558    1.051118    0.000000
     13          1           0        2.064483    0.223401    0.000000
     14          1           0       -1.251546    3.030018    0.891559
     15          1           0       -1.251546    3.030018   -0.891559
     16          1           0       -0.098191    4.047676    0.000000
     17          1           0        2.612695   -2.014536    0.000000
 ---------------------------------------------------------------------

 SCF Done:  E(RHF) =  -421.408818925     A.U. after    2 cycles

 The electronic state is 1-A'.
 Alpha  occ. eigenvalues --  -21.10233 -21.07579 -11.53221 -11.47993 -11.44227
 Alpha  occ. eigenvalues --  -11.41711 -11.40139 -11.39887 -11.36575  -1.79336
 Alpha  occ. eigenvalues --   -1.75226  -1.30021  -1.10020  -1.06848  -0.99203
 Alpha  occ. eigenvalues --   -0.87725  -0.82246  -0.71035  -0.67246  -0.65347
 Alpha  occ. eigenvalues --   -0.62625  -0.59555  -0.58126  -0.55360  -0.54623
 Alpha  occ. eigenvalues --   -0.50211  -0.47339  -0.45863  -0.41920  -0.39297
 Alpha  occ. eigenvalues --   -0.38728  -0.28596  -0.25895
 Alpha virt. eigenvalues --    0.03421   0.04546   0.05344   0.06113   0.06313
 Alpha virt. eigenvalues --    0.06417   0.07098   0.08527   0.09479   0.11470
 Alpha virt. eigenvalues --    0.11766   0.13156   0.13512   0.13757   0.14397

 Mulliken charges:
               1
     1  C    0.805015
     2  C   -3.775841
     3  C   -3.952401
     4  C   -5.243524
     5  C    6.612220
     6  C    6.315315
     7  C   -3.659295
     8  O   -4.517563
     9  O   -4.769002
    10  H    1.454782
    11  H    1.741468
    12  H    1.873753
    13  H    1.893689
    14  H    1.359135
    15  H    1.359135
    16  H    1.436848
    17  H    1.066268
 Sum of Mulliken charges =  -0.00000

 Dipole moment (field-independent basis, Debye):
    X=              0.2618    Y=              1.1412    Z=              0.0000  Tot=              1.1708

 Test job not archived.
 1\1\GINC-SE409\SP\RHF\Aug-CC-pVDZ\C7H8O2\OHZDE\06-Apr-2025\0\\#t hf au
 g-cc-pvdz iop(5/13=1,5/36=2,99/5=2) pseudo=read geom=check guess=(read
 ,tcheck) scf=(maxcycle=1)\\title\\0,1\C,0,-1.579132,-1.018404,0.\C,0,-
 0.556518,-1.950256,0.\C,0,-1.323399,0.352438,0.\C,0,1.044493,-0.139672
 ,0.\C,0,0.763417,-1.497487,0.\C,0,0.,0.787801,0.\C,0,-0.623241,3.09640
 4,0.\O,0,1.751266,-2.443316,0.\O,0,0.383127,2.095674,0.\H,0,-2.605756,
 -1.359527,0.\H,0,-0.754444,-3.011972,0.\H,0,-2.144558,1.051118,0.\H,0,
 2.064483,0.223401,0.\H,0,-1.251546,3.030018,0.891559\H,0,-1.251546,3.0

 Normal termination of Gaussian 16 at Sun Apr  6 08:05:21 2025.
