 Gaussian 16, Revision C.01,

 ----------------------------------------------------------------------
 #t hf aug-cc-pvdz symm=none int=(grid=ultrafine) guess=(read,tcheck) s
 table=(opt,rrhf)
 ----------------------------------------------------------------------
 -----
 title
 -----
 Symbolic Z-matrix:
 Charge =  0 Multiplicity = 1

 SCF Done:  E(RHF) =  -271.224306296     A.U. after   12 cycles

 1\1\GINC-SE291\Stability\RHF\Aug-CC-pVDZ\C5H12O1\OHZDE\06-Apr-2025\0\\
 #t hf aug-cc-pvdz symm=none int=(grid=ultrafine) guess=(read,tcheck) s
 table=(opt,rrhf)\\title\\0,1\C,0,-1.572019,-1.152435,0.064704\H,0,-2.5
 44151,-1.085014,-0.426242\H,0,-1.109397,-2.095497,-0.217069\H,0,-1.747
 322,-1.170696,1.143837\C,0,1.649859,1.062268,-0.055942\H,0,1.313035,2.
 014631,0.352183\H,0,2.646218,0.870729,0.349265\H,0,1.737758,1.156202,-
 1.139611\O,0,1.248482,-1.330506,-0.129077\H,0,2.137286,-1.421916,0.225
 802\C,0,0.703049,-0.076396,0.308494\H,0,0.58065,-0.102704,1.400853\C,0

 Normal termination of Gaussian 16 at Sun Apr  6 08:04:27 2025.
 Gaussian 16:  ES64L-G16RevC.01  3-Jul-2019

 ----------------------------------------------------------------------
 #t hf aug-cc-pvdz iop(5/13=1,5/36=2,99/5=2) pseudo=read geom=check gue
 ss=(read,tcheck) scf=(maxcycle=1)
 ----------------------------------------------------------------------
 -----
 title
 -----
 Structure from the checkpoint file:  "3-methyl-2-butanol.chk"
 Charge =  0 Multiplicity = 1

                         Standard orientation:
 ---------------------------------------------------------------------
 Center     Atomic      Atomic             Coordinates (Angstroms)
 Number     Number       Type             X           Y           Z
 ---------------------------------------------------------------------
      1          6           0       -1.572019   -1.152435    0.064704
      2          1           0       -2.544151   -1.085014   -0.426242
      3          1           0       -1.109397   -2.095497   -0.217069
      4          1           0       -1.747322   -1.170696    1.143837
      5          6           0        1.649859    1.062268   -0.055942
      6          1           0        1.313035    2.014631    0.352183
      7          1           0        2.646218    0.870729    0.349265
      8          1           0        1.737758    1.156202   -1.139611
      9          8           0        1.248482   -1.330506   -0.129077
     10          1           0        2.137286   -1.421916    0.225802
     11          6           0        0.703049   -0.076396    0.308494
     12          1           0        0.580650   -0.102704    1.400853
     13          6           0       -0.691524    0.040475   -0.320727
     14          1           0       -0.545223    0.020911   -1.406038
     15          6           0       -1.380726    1.356806    0.052990
     16          1           0       -1.468276    1.460678    1.137735
     17          1           0       -0.850062    2.229463   -0.326308
     18          1           0       -2.390195    1.382956   -0.358897
 ---------------------------------------------------------------------

 SCF Done:  E(RHF) =  -272.565715488     A.U. after    2 cycles

 The electronic state is 1-A.
 Alpha  occ. eigenvalues --  -21.05700 -11.45071 -11.40539 -11.37905 -11.37353
 Alpha  occ. eigenvalues --  -11.34140  -1.70482  -1.23834  -1.08169  -0.99257
 Alpha  occ. eigenvalues --   -0.90620  -0.79222  -0.65457  -0.62268  -0.60043
 Alpha  occ. eigenvalues --   -0.58495  -0.54722  -0.52909  -0.51889  -0.50461
 Alpha  occ. eigenvalues --   -0.45215  -0.44089  -0.41720  -0.38314  -0.31145
 Alpha virt. eigenvalues --    0.04213   0.05236   0.05345   0.05638   0.05753
 Alpha virt. eigenvalues --    0.05977   0.06407   0.06504   0.07096   0.08696
 Alpha virt. eigenvalues --    0.09008   0.09680   0.12898   0.13393   0.14709

 Mulliken charges:
               1
     1  C   -4.074001
     2  H    1.184025
     3  H    1.361126
     4  H    1.332317
     5  C   -3.854257
     6  H    1.389085
     7  H    1.089325
     8  H    1.215449
     9  O   -3.226925
    10  H    0.769915
    11  C    1.452978
    12  H    1.697477
    13  C   -2.051273
    14  H    1.722348
    15  C   -3.814381
    16  H    1.242628
    17  H    1.347946
    18  H    1.216218
 Sum of Mulliken charges =   0.00000

 Dipole moment (field-independent basis, Debye):
    X=              0.3148    Y=              0.3789    Z=              0.2381  Tot=              0.5471

 Test job not archived.
 1\1\GINC-SE291\SP\RHF\Aug-CC-pVDZ\C5H12O1\OHZDE\06-Apr-2025\0\\#t hf a
 ug-cc-pvdz iop(5/13=1,5/36=2,99/5=2) pseudo=read geom=check guess=(rea
 d,tcheck) scf=(maxcycle=1)\\title\\0,1\C,0,-1.572019,-1.152435,0.06470
 4\H,0,-2.544151,-1.085014,-0.426242\H,0,-1.109397,-2.095497,-0.217069\
 H,0,-1.747322,-1.170696,1.143837\C,0,1.649859,1.062268,-0.055942\H,0,1
 .313035,2.014631,0.352183\H,0,2.646218,0.870729,0.349265\H,0,1.737758,
 1.156202,-1.139611\O,0,1.248482,-1.330506,-0.129077\H,0,2.137286,-1.42
 1916,0.225802\C,0,0.703049,-0.076396,0.308494\H,0,0.58065,-0.102704,1.

 Normal termination of Gaussian 16 at Sun Apr  6 08:04:55 2025.
