 Gaussian 16, Revision C.01,

 ----------------------------------------------------------------------
 #t hf aug-cc-pvdz symm=none int=(grid=ultrafine) guess=(read,tcheck) s
 table=(opt,rrhf)
 ----------------------------------------------------------------------
 -----
 title
 -----
 Symbolic Z-matrix:
 Charge =  0 Multiplicity = 1

 SCF Done:  E(RHF) =  -703.322557671     A.U. after   14 cycles
 Normal termination of Gaussian 16 at Sun Apr  6 08:04:27 2025.
 Gaussian 16:  ES64L-G16RevC.01  3-Jul-2019

 ----------------------------------------------------------------------
 #t hf aug-cc-pvdz iop(5/13=1,5/36=2,99/5=2) pseudo=read geom=check gue
 ss=(read,tcheck) scf=(maxcycle=1)
 ----------------------------------------------------------------------
 -----
 title
 -----
 Structure from the checkpoint file:  "3-methylsulphonyl-1-propene.chk"
 Charge =  0 Multiplicity = 1

                         Standard orientation:
 ---------------------------------------------------------------------
 Center     Atomic      Atomic             Coordinates (Angstroms)
 Number     Number       Type             X           Y           Z
 ---------------------------------------------------------------------
      1          6           0       -2.115162   -0.859134   -0.446944
      2         16           0       -0.736952    0.145568    0.134592
      3          8           0       -0.603003   -0.070176    1.570701
      4          8           0       -0.913666    1.497805   -0.387410
      5          6           0        0.712310   -0.599546   -0.708204
      6          6           0        1.940525    0.209848   -0.457486
      7          6           0        2.972177   -0.220038    0.256620
      8          1           0       -1.957196   -1.891564   -0.146285
      9          1           0       -2.996316   -0.452994    0.044646
     10          1           0       -2.202825   -0.759745   -1.525431
     11          1           0        0.446453   -0.619309   -1.766218
     12          1           0        0.799645   -1.614868   -0.324996
     13          1           0        1.949759    1.202936   -0.889296
     14          1           0        2.982692   -1.202462    0.711754
     15          1           0        3.843275    0.401100    0.412111
 ---------------------------------------------------------------------

 SCF Done:  E(RHF) =  -705.005163519     A.U. after    2 cycles

 The electronic state is 1-A.
 Alpha  occ. eigenvalues --  -75.87771 -21.03625 -21.03563 -13.49261 -13.40012
 Alpha  occ. eigenvalues --  -13.33590 -11.46043 -11.42878 -11.42354 -11.39194
 Alpha  occ. eigenvalues --   -8.22726  -1.81454  -1.63713  -1.25353  -1.14757
 Alpha  occ. eigenvalues --   -1.04439  -0.88531  -0.81079  -0.68264  -0.65275
 Alpha  occ. eigenvalues --   -0.63548  -0.62259  -0.60228  -0.54282  -0.53533
 Alpha  occ. eigenvalues --   -0.49847  -0.42637  -0.40537  -0.38362  -0.36692
 Alpha  occ. eigenvalues --   -0.34120  -0.33035
 Alpha virt. eigenvalues --    0.02604   0.04178   0.04771   0.05173   0.06172
 Alpha virt. eigenvalues --    0.06340   0.07197   0.07889   0.10487   0.10772
 Alpha virt. eigenvalues --    0.11899   0.12196   0.13159   0.14244   0.15019

 Mulliken charges:
               1
     1  C   -4.667520
     2  S    6.289180
     3  O   -2.512366
     4  O   -2.513872
     5  C   -4.533233
     6  C    0.055295
     7  C   -3.236898
     8  H    1.328406
     9  H    1.325504
    10  H    1.319994
    11  H    1.415301
    12  H    1.493515
    13  H    1.483357
    14  H    1.378638
    15  H    1.374697
 Sum of Mulliken charges =  -0.00000

 Dipole moment (field-independent basis, Debye):
    X=              0.2673    Y=             -1.6940    Z=             -1.3194  Tot=              2.1638

 Test job not archived.
 1\1\GINC-SE300\SP\RHF\Aug-CC-pVDZ\C4H8O2S1\OHZDE\06-Apr-2025\0\\#t hf
 aug-cc-pvdz iop(5/13=1,5/36=2,99/5=2) pseudo=read geom=check guess=(re
 ad,tcheck) scf=(maxcycle=1)\\title\\0,1\C,0,-2.115162,-0.859134,-0.446
 944\S,0,-0.736952,0.145568,0.134592\O,0,-0.603003,-0.070176,1.570701\O
 ,0,-0.913666,1.497805,-0.38741\C,0,0.71231,-0.599546,-0.708204\C,0,1.9
 40525,0.209848,-0.457486\C,0,2.972177,-0.220038,0.25662\H,0,-1.957196,
 -1.891564,-0.146285\H,0,-2.996316,-0.452994,0.044646\H,0,-2.202825,-0.
 759745,-1.525431\H,0,0.446453,-0.619309,-1.766218\H,0,0.799645,-1.6148

 Normal termination of Gaussian 16 at Sun Apr  6 08:04:55 2025.
