 Gaussian 16, Revision C.01,

 ----------------------------------------------------------------------
 #t hf aug-cc-pvdz symm=none int=(grid=ultrafine) guess=(read,tcheck) s
 table=(opt,rrhf)
 ----------------------------------------------------------------------
 -----
 title
 -----
 Symbolic Z-matrix:
 Charge =  0 Multiplicity = 1

 SCF Done:  E(RHF) =  -1039.63920990     A.U. after   18 cycles
 Normal termination of Gaussian 16 at Sun Apr  6 08:04:06 2025.
 Gaussian 16:  ES64L-G16RevC.01  3-Jul-2019

 ----------------------------------------------------------------------
 #t hf aug-cc-pvdz iop(5/13=1,5/36=2,99/5=2) pseudo=read geom=check gue
 ss=(read,tcheck) scf=(maxcycle=1)
 ----------------------------------------------------------------------
 -----
 title
 -----
 Structure from the checkpoint file:  "3-nitroso-3H-dithiole.chk"
 Charge =  0 Multiplicity = 1

                         Standard orientation:
 ---------------------------------------------------------------------
 Center     Atomic      Atomic             Coordinates (Angstroms)
 Number     Number       Type             X           Y           Z
 ---------------------------------------------------------------------
      1         16           0        0.262272   -1.270575    0.351509
      2         16           0        1.911534   -0.165680   -0.415891
      3          8           0       -2.958453   -0.023467   -0.342226
      4          7           0       -1.819104    0.125111   -0.669138
      5          6           0       -0.854816    0.161427    0.535168
      6          6           0       -0.048735    1.415196    0.494290
      7          6           0        1.197951    1.369932    0.028995
      8          1           0       -1.455073    0.027442    1.436830
      9          1           0       -0.518659    2.347856    0.774850
     10          1           0        1.827781    2.237414   -0.110510
 ---------------------------------------------------------------------

 SCF Done:  E(RHF) =  -1041.16625714     A.U. after    2 cycles

 The electronic state is 1-A.
 Alpha  occ. eigenvalues --  -75.73276 -75.72704 -21.14154 -15.87393 -13.16862
 Alpha  occ. eigenvalues --  -13.16058 -13.11914 -13.11411 -13.06273 -13.04845
 Alpha  occ. eigenvalues --  -11.49408 -11.47187 -11.41532  -8.07356  -8.06682
 Alpha  occ. eigenvalues --   -1.87767  -1.36663  -1.17425  -1.11841  -0.99774
 Alpha  occ. eigenvalues --   -0.87025  -0.80734  -0.71638  -0.63137  -0.61128
 Alpha  occ. eigenvalues --   -0.56492  -0.50927  -0.46669  -0.45837  -0.42598
 Alpha  occ. eigenvalues --   -0.36892  -0.32367  -0.29674  -0.19313
 Alpha virt. eigenvalues --    0.02698   0.04181   0.05489   0.05727   0.06735
 Alpha virt. eigenvalues --    0.09302   0.11004   0.11744   0.12466   0.13082
 Alpha virt. eigenvalues --    0.13447   0.13834   0.14554   0.15126   0.15218

 Mulliken charges:
               1
     1  S    0.881204
     2  S    0.338429
     3  O   -2.135449
     4  N    1.510162
     5  C   -3.104381
     6  C   -0.017052
     7  C   -1.935633
     8  H    1.663610
     9  H    1.495813
    10  H    1.303297
 Sum of Mulliken charges =  -0.00000

 Dipole moment (field-independent basis, Debye):
    X=              1.8420    Y=             -1.0631    Z=              0.6501  Tot=              2.2239

 Test job not archived.
 1\1\GINC-SE301\SP\RHF\Aug-CC-pVDZ\C3H3N1O1S2\OHZDE\06-Apr-2025\0\\#t h
 f aug-cc-pvdz iop(5/13=1,5/36=2,99/5=2) pseudo=read geom=check guess=(
 read,tcheck) scf=(maxcycle=1)\\title\\0,1\S,0,0.262272,-1.270575,0.351
 509\S,0,1.911534,-0.16568,-0.415891\O,0,-2.958453,-0.023467,-0.342226\
 N,0,-1.819104,0.125111,-0.669138\C,0,-0.854816,0.161427,0.535168\C,0,-
 0.048735,1.415196,0.49429\C,0,1.197951,1.369932,0.028995\H,0,-1.455073
 ,0.027442,1.43683\H,0,-0.518659,2.347856,0.77485\H,0,1.827781,2.237414
 ,-0.11051\\Version=ES64L-G16RevC.01\State=1-A\HF=-1041.1662571\RMSD=7.

 Normal termination of Gaussian 16 at Sun Apr  6 08:04:13 2025.
