 Gaussian 16, Revision C.01,

 ----------------------------------------------------------------------
 #t hf aug-cc-pvdz symm=none int=(grid=ultrafine) guess=(read,tcheck) s
 table=(opt,rrhf)
 ----------------------------------------------------------------------
 -----
 title
 -----
 Symbolic Z-matrix:
 Charge =  0 Multiplicity = 1

 SCF Done:  E(RHF) =  -489.275524789     A.U. after   16 cycles
 Normal termination of Gaussian 16 at Sun Apr  6 08:05:00 2025.
 Gaussian 16:  ES64L-G16RevC.01  3-Jul-2019

 ----------------------------------------------------------------------
 #t hf aug-cc-pvdz iop(5/13=1,5/36=2,99/5=2) pseudo=read geom=check gue
 ss=(read,tcheck) scf=(maxcycle=1)
 ----------------------------------------------------------------------
 -----
 title
 -----
 Structure from the checkpoint file:  "3-nitroaniline.chk"
 Charge =  0 Multiplicity = 1

                         Standard orientation:
 ---------------------------------------------------------------------
 Center     Atomic      Atomic             Coordinates (Angstroms)
 Number     Number       Type             X           Y           Z
 ---------------------------------------------------------------------
      1          6           0       -1.019949    1.869903    0.005061
      2          6           0       -2.035560    0.925894   -0.000762
      3          6           0        0.315136    1.486331    0.004036
      4          6           0       -0.402977   -0.840723   -0.007286
      5          6           0       -1.742943   -0.445332   -0.006521
      6          6           0        0.587891    0.126743   -0.001813
      7          7           0       -2.757551   -1.389060   -0.067066
      8          7           0        1.997431   -0.318897    0.000986
      9          8           0        2.865495    0.541162   -0.001230
     10          8           0        2.215470   -1.522514    0.006001
     11          1           0       -1.272850    2.921047    0.010796
     12          1           0       -3.069081    1.248201   -0.005007
     13          1           0        1.119865    2.202562    0.008669
     14          1           0       -0.125177   -1.883684   -0.015106
     15          1           0       -3.666794   -1.094774    0.247033
     16          1           0       -2.522433   -2.323737    0.221720
 ---------------------------------------------------------------------

 SCF Done:  E(RHF) =  -491.470988113     A.U. after    2 cycles

 The electronic state is 1-A.
 Alpha  occ. eigenvalues --  -21.09086 -21.08944 -15.99613 -15.77884 -11.54613
 Alpha  occ. eigenvalues --  -11.48862 -11.46647 -11.44052 -11.43966 -11.39604
 Alpha  occ. eigenvalues --   -1.99632  -1.68702  -1.43837  -1.30665  -1.16851
 Alpha  occ. eigenvalues --   -1.09188  -1.00133  -0.89206  -0.83100  -0.74666
 Alpha  occ. eigenvalues --   -0.70352  -0.69370  -0.67324  -0.64379  -0.62210
 Alpha  occ. eigenvalues --   -0.61100  -0.55723  -0.55376  -0.50340  -0.48108
 Alpha  occ. eigenvalues --   -0.45420  -0.36211  -0.35492  -0.31431  -0.30709
 Alpha  occ. eigenvalues --   -0.29294
 Alpha virt. eigenvalues --    0.02875   0.04288   0.04517   0.06255   0.06434
 Alpha virt. eigenvalues --    0.07490   0.08717   0.09964   0.11204   0.11612
 Alpha virt. eigenvalues --    0.12415   0.12863   0.13137   0.13420   0.14200

 Mulliken charges:
               1
     1  C    0.660897
     2  C   -3.577355
     3  C   -3.461266
     4  C   -2.628122
     5  C    3.953354
     6  C    3.754224
     7  N   -4.192184
     8  N    3.411787
     9  O   -3.100562
    10  O   -2.980263
    11  H    1.486565
    12  H    1.692567
    13  H    1.797773
    14  H    1.861527
    15  H    0.648373
    16  H    0.672684
 Sum of Mulliken charges =   0.00000

 Dipole moment (field-independent basis, Debye):
    X=             -4.2162    Y=              0.0858    Z=              0.6911  Tot=              4.2733

 Test job not archived.
 1\1\GINC-SE301\SP\RHF\Aug-CC-pVDZ\C6H6N2O2\OHZDE\06-Apr-2025\0\\#t hf
 aug-cc-pvdz iop(5/13=1,5/36=2,99/5=2) pseudo=read geom=check guess=(re
 ad,tcheck) scf=(maxcycle=1)\\title\\0,1\C,0,-1.019949,1.869903,0.00506
 1\C,0,-2.03556,0.925894,-0.000762\C,0,0.315136,1.486331,0.004036\C,0,-
 0.402977,-0.840723,-0.007286\C,0,-1.742943,-0.445332,-0.006521\C,0,0.5
 87891,0.126743,-0.001813\N,0,-2.757551,-1.38906,-0.067066\N,0,1.997431
 ,-0.318897,0.000986\O,0,2.865495,0.541162,-0.00123\O,0,2.21547,-1.5225
 14,0.006001\H,0,-1.27285,2.921047,0.010796\H,0,-3.069081,1.248201,-0.0

 Normal termination of Gaussian 16 at Sun Apr  6 08:05:21 2025.
