 Gaussian 16, Revision C.01,

 ----------------------------------------------------------------------
 #t hf aug-cc-pvdz symm=none int=(grid=ultrafine) guess=(read,tcheck) s
 table=(opt,rrhf)
 ----------------------------------------------------------------------
 -----
 title
 -----
 Symbolic Z-matrix:
 Charge =  0 Multiplicity = 1

 SCF Done:  E(RHF) =  -339.388050505     A.U. after   15 cycles
 Normal termination of Gaussian 16 at Sun Apr  6 08:03:58 2025.
 Gaussian 16:  ES64L-G16RevC.01  3-Jul-2019

 ----------------------------------------------------------------------
 #t hf aug-cc-pvdz iop(5/13=1,5/36=2,99/5=2) pseudo=read geom=check gue
 ss=(read,tcheck) scf=(maxcycle=1)
 ----------------------------------------------------------------------
 -----
 title
 -----
 Structure from the checkpoint file:  "3-oxoprop-2-enoicacid.chk"
 Charge =  0 Multiplicity = 1

                         Standard orientation:
 ---------------------------------------------------------------------
 Center     Atomic      Atomic             Coordinates (Angstroms)
 Number     Number       Type             X           Y           Z
 ---------------------------------------------------------------------
      1          8           0       -2.088631   -0.584833   -0.000019
      2          8           0       -0.935596    1.306407    0.000008
      3          8           0        2.497307    0.192352   -0.000016
      4          6           0       -1.014648   -0.052431    0.000002
      5          6           0        0.243940   -0.824199    0.000019
      6          6           0        1.450682   -0.297452    0.000000
      7          1           0       -0.029116    1.634178    0.000053
      8          1           0        0.164626   -1.901098    0.000033
 ---------------------------------------------------------------------

 SCF Done:  E(RHF) =  -340.791549522     A.U. after    2 cycles

 The electronic state is 1-A.
 Alpha  occ. eigenvalues --  -21.19448 -21.13929 -21.05848 -11.60002 -11.55347
 Alpha  occ. eigenvalues --  -11.44410  -1.84415  -1.81838  -1.66545  -1.19773
 Alpha  occ. eigenvalues --   -0.87612  -0.77452  -0.71293  -0.64983  -0.62653
 Alpha  occ. eigenvalues --   -0.55535  -0.53793  -0.53082  -0.47525  -0.36285
 Alpha  occ. eigenvalues --   -0.32055  -0.31742
 Alpha virt. eigenvalues --    0.02374   0.05954   0.08037   0.09566   0.10529
 Alpha virt. eigenvalues --    0.10711   0.11000   0.11415   0.12185   0.13149
 Alpha virt. eigenvalues --    0.13407   0.14860   0.15873   0.16571   0.18626

 Mulliken charges:
               1
     1  O   -3.010510
     2  O   -2.842815
     3  O   -2.208404
     4  C    4.559105
     5  C   -0.920960
     6  C    2.070196
     7  H    0.917037
     8  H    1.436351
 Sum of Mulliken charges =   0.00000

 Dipole moment (field-independent basis, Debye):
    X=              3.4143    Y=              0.6666    Z=              0.0000  Tot=              3.4788

 Test job not archived.
 1\1\GINC-SE401\SP\RHF\Aug-CC-pVDZ\C3H2O3\OHZDE\06-Apr-2025\0\\#t hf au
 g-cc-pvdz iop(5/13=1,5/36=2,99/5=2) pseudo=read geom=check guess=(read
 ,tcheck) scf=(maxcycle=1)\\title\\0,1\O,0,-2.088631,-0.584833,-0.00001
 9\O,0,-0.935596,1.306407,0.000008\O,0,2.497307,0.192352,-0.000016\C,0,
 -1.014648,-0.052431,0.000002\C,0,0.24394,-0.824199,0.000019\C,0,1.4506
 82,-0.297452,0.\H,0,-0.029116,1.634178,0.000053\H,0,0.164626,-1.901098
 ,0.000033\\Version=ES64L-G16RevC.01\State=1-A\HF=-340.7915495\RMSD=2.9
 64e-01\Dipole=1.3432843,0.2622584,0.0000152\Quadrupole=-1.1144407,1.88

 Normal termination of Gaussian 16 at Sun Apr  6 08:04:00 2025.
