 Gaussian 16, Revision C.01,

 ----------------------------------------------------------------------
 #t hf aug-cc-pvdz symm=none int=(grid=ultrafine) guess=(read,tcheck) s
 table=(opt,rrhf)
 ----------------------------------------------------------------------
 -----
 title
 -----
 Symbolic Z-matrix:
 Charge =  0 Multiplicity = 1

 SCF Done:  E(RHF) =  -340.583068093     A.U. after   14 cycles
 Normal termination of Gaussian 16 at Sun Apr  6 08:04:26 2025.
 Gaussian 16:  ES64L-G16RevC.01  3-Jul-2019

 ----------------------------------------------------------------------
 #t hf aug-cc-pvdz iop(5/13=1,5/36=2,99/5=2) pseudo=read geom=check gue
 ss=(read,tcheck) scf=(maxcycle=1)
 ----------------------------------------------------------------------
 -----
 title
 -----
 Structure from the checkpoint file:  "3-oxopropanoic_acid.chk"
 Charge =  0 Multiplicity = 1

                         Standard orientation:
 ---------------------------------------------------------------------
 Center     Atomic      Atomic             Coordinates (Angstroms)
 Number     Number       Type             X           Y           Z
 ---------------------------------------------------------------------
      1          6           0        1.643090   -0.157443    0.153934
      2          6           0       -0.880250   -0.166831    0.029956
      3          6           0        0.347276   -0.704458    0.723932
      4          8           0        1.723698    0.647413   -0.732257
      5          8           0       -1.466392   -0.723024   -0.859094
      6          8           0       -1.245723    1.033301    0.528366
      7          1           0        2.550479   -0.574965    0.632776
      8          1           0        0.367812   -1.791023    0.624453
      9          1           0        0.330267   -0.468364    1.790806
     10          1           0       -2.001918    1.345224    0.008912
 ---------------------------------------------------------------------

 SCF Done:  E(RHF) =  -342.014721586     A.U. after    2 cycles

 The electronic state is 1-A.
 Alpha  occ. eigenvalues --  -21.13180 -21.08434 -21.06503 -11.53787 -11.50900
 Alpha  occ. eigenvalues --  -11.42921  -1.83851  -1.72977  -1.66434  -1.17506
 Alpha  occ. eigenvalues --   -0.89745  -0.78196  -0.68755  -0.66469  -0.61856
 Alpha  occ. eigenvalues --   -0.57681  -0.55148  -0.50619  -0.46865  -0.44893
 Alpha  occ. eigenvalues --   -0.34803  -0.32157  -0.30293
 Alpha virt. eigenvalues --    0.03135   0.05189   0.05347   0.06194   0.09329
 Alpha virt. eigenvalues --    0.10089   0.10894   0.11977   0.12307   0.12921
 Alpha virt. eigenvalues --    0.14249   0.15111   0.15587   0.16595   0.18664

 Mulliken charges:
               1
     1  C    1.227375
     2  C    5.908702
     3  C   -3.711287
     4  O   -2.615603
     5  O   -3.081943
     6  O   -2.852122
     7  H    1.452534
     8  H    1.388898
     9  H    1.468487
    10  H    0.814959
 Sum of Mulliken charges =  -0.00000

 Dipole moment (field-independent basis, Debye):
    X=              0.2877    Y=              0.1028    Z=              1.5645  Tot=              1.5941

 Test job not archived.
 1\1\GINC-SE009\SP\RHF\Aug-CC-pVDZ\C3H4O3\OHZDE\06-Apr-2025\0\\#t hf au
 g-cc-pvdz iop(5/13=1,5/36=2,99/5=2) pseudo=read geom=check guess=(read
 ,tcheck) scf=(maxcycle=1)\\title\\0,1\C,0,1.64309,-0.157443,0.153934\C
 ,0,-0.88025,-0.166831,0.029956\C,0,0.347276,-0.704458,0.723932\O,0,1.7
 23698,0.647413,-0.732257\O,0,-1.466392,-0.723024,-0.859094\O,0,-1.2457
 23,1.033301,0.528366\H,0,2.550479,-0.574965,0.632776\H,0,0.367812,-1.7
 91023,0.624453\H,0,0.330267,-0.468364,1.790806\H,0,-2.001918,1.345224,
 0.008912\\Version=ES64L-G16RevC.01\State=1-A\HF=-342.0147216\RMSD=2.21

 Normal termination of Gaussian 16 at Sun Apr  6 08:04:53 2025.
