 Gaussian 16, Revision C.01,

 ----------------------------------------------------------------------
 #t hf aug-cc-pvdz symm=none int=(grid=ultrafine) guess=(read,tcheck) s
 table=(opt,rrhf)
 ----------------------------------------------------------------------
 -----
 title
 -----
 Symbolic Z-matrix:
 Charge =  0 Multiplicity = 1

 SCF Done:  E(RHF) =  -270.067319633     A.U. after   12 cycles

 1\1\GINC-SE023\Stability\RHF\Aug-CC-pVDZ\C5H10O1\OHZDE\06-Apr-2025\0\\
 #t hf aug-cc-pvdz symm=none int=(grid=ultrafine) guess=(read,tcheck) s
 table=(opt,rrhf)\\title\\0,1\C,0,0.,0.,0.077636\C,0,0.,2.555166,0.1223
 97\C,0,0.,-2.555166,0.122397\C,0,0.,1.291,-0.726245\C,0,0.,-1.291,-0.7
 26245\O,0,0.,0.,1.288225\H,0,0.,3.442073,-0.511364\H,0,-0.876892,2.593
 353,0.767222\H,0,0.876892,2.593353,0.767222\H,0,-0.876892,-2.593353,0.
 767222\H,0,0.876892,-2.593353,0.767222\H,0,0.,-3.442073,-0.511364\H,0,
 -0.868213,1.26523,-1.392902\H,0,0.868213,1.26523,-1.392902\H,0,0.86821

 Normal termination of Gaussian 16 at Sun Apr  6 08:05:16 2025.
 Gaussian 16:  ES64L-G16RevC.01  3-Jul-2019

 ----------------------------------------------------------------------
 #t hf aug-cc-pvdz iop(5/13=1,5/36=2,99/5=2) pseudo=read geom=check gue
 ss=(read,tcheck) scf=(maxcycle=1)
 ----------------------------------------------------------------------
 -----
 title
 -----
 Structure from the checkpoint file:  "3-pentanone.chk"
 Charge =  0 Multiplicity = 1

                         Standard orientation:
 ---------------------------------------------------------------------
 Center     Atomic      Atomic             Coordinates (Angstroms)
 Number     Number       Type             X           Y           Z
 ---------------------------------------------------------------------
      1          6           0       -0.000000   -0.000000    0.077636
      2          6           0        0.000000    2.555166    0.122397
      3          6           0       -0.000000   -2.555166    0.122397
      4          6           0        0.000000    1.291000   -0.726245
      5          6           0       -0.000000   -1.291000   -0.726245
      6          8           0       -0.000000   -0.000000    1.288225
      7          1           0        0.000000    3.442073   -0.511364
      8          1           0       -0.876892    2.593353    0.767222
      9          1           0        0.876892    2.593353    0.767222
     10          1           0       -0.876892   -2.593353    0.767222
     11          1           0        0.876892   -2.593353    0.767222
     12          1           0       -0.000000   -3.442073   -0.511364
     13          1           0       -0.868213    1.265230   -1.392902
     14          1           0        0.868213    1.265230   -1.392902
     15          1           0        0.868213   -1.265230   -1.392902
     16          1           0       -0.868213   -1.265230   -1.392902
 ---------------------------------------------------------------------

 SCF Done:  E(RHF) =  -271.367784188     A.U. after    2 cycles

 The electronic state is 1-A1.
 Alpha  occ. eigenvalues --  -21.04397 -11.48787 -11.42549 -11.40330 -11.36914
 Alpha  occ. eigenvalues --  -11.35812  -1.70367  -1.21424  -1.14348  -0.97234
 Alpha  occ. eigenvalues --   -0.89275  -0.72546  -0.65171  -0.64850  -0.60703
 Alpha  occ. eigenvalues --   -0.55585  -0.54444  -0.51081  -0.50217  -0.48034
 Alpha  occ. eigenvalues --   -0.45743  -0.45151  -0.40704  -0.27852
 Alpha virt. eigenvalues --    0.03430   0.04790   0.05217   0.05345   0.05977
 Alpha virt. eigenvalues --    0.06245   0.06590   0.07257   0.08403   0.09469
 Alpha virt. eigenvalues --    0.09785   0.12987   0.13998   0.14239   0.14258

 Mulliken charges:
               1
     1  C    5.830293
     2  C   -3.954909
     3  C   -3.954909
     4  C   -3.907816
     5  C   -3.907816
     6  O   -3.482113
     7  H    1.037027
     8  H    1.332534
     9  H    1.332534
    10  H    1.332534
    11  H    1.332534
    12  H    1.037027
    13  H    1.493269
    14  H    1.493269
    15  H    1.493269
    16  H    1.493269
 Sum of Mulliken charges =   0.00000

 Dipole moment (field-independent basis, Debye):
    X=              0.0000    Y=              0.0000    Z=             -1.2285  Tot=              1.2285

 Test job not archived.
 1\1\GINC-SE023\SP\RHF\Aug-CC-pVDZ\C5H10O1\OHZDE\06-Apr-2025\0\\#t hf a
 ug-cc-pvdz iop(5/13=1,5/36=2,99/5=2) pseudo=read geom=check guess=(rea
 d,tcheck) scf=(maxcycle=1)\\title\\0,1\C,0,0.,0.,0.077636\C,0,0.,2.555
 166,0.122397\C,0,0.,-2.555166,0.122397\C,0,0.,1.291,-0.726245\C,0,0.,-
 1.291,-0.726245\O,0,0.,0.,1.288225\H,0,0.,3.442073,-0.511364\H,0,-0.87
 6892,2.593353,0.767222\H,0,0.876892,2.593353,0.767222\H,0,-0.876892,-2
 .593353,0.767222\H,0,0.876892,-2.593353,0.767222\H,0,0.,-3.442073,-0.5
 11364\H,0,-0.868213,1.26523,-1.392902\H,0,0.868213,1.26523,-1.392902\H

 Normal termination of Gaussian 16 at Sun Apr  6 08:05:21 2025.
