 Gaussian 16, Revision C.01,

 ----------------------------------------------------------------------
 #t hf aug-cc-pvdz symm=none int=(grid=ultrafine) guess=(read,tcheck) s
 table=(opt,rrhf)
 ----------------------------------------------------------------------
 -----
 title
 -----
 Symbolic Z-matrix:
 Charge =  0 Multiplicity = 1

 SCF Done:  E(RHF) =  -271.225172045     A.U. after   12 cycles

 1\1\GINC-SE014\Stability\RHF\Aug-CC-pVDZ\C5H12O1\OHZDE\06-Apr-2025\0\\
 #t hf aug-cc-pvdz symm=none int=(grid=ultrafine) guess=(read,tcheck) s
 table=(opt,rrhf)\\title\\0,1\C,0,0.256059,-0.14579,2.557816\C,0,0.2560
 59,-0.14579,-2.557816\C,0,0.256059,0.678253,1.27207\C,0,0.256059,0.678
 253,-1.27207\C,0,0.123504,-0.161251,0.\O,0,-1.093205,-0.921538,0.\H,0,
 0.329959,0.496804,3.435919\H,0,-0.654055,-0.737969,2.645405\H,0,1.1021
 79,-0.835589,2.578827\H,0,0.329959,0.496804,-3.435919\H,0,1.102179,-0.
 835589,-2.578827\H,0,-0.654055,-0.737969,-2.645405\H,0,-0.562591,1.406

 Normal termination of Gaussian 16 at Sun Apr  6 08:05:27 2025.
 Gaussian 16:  ES64L-G16RevC.01  3-Jul-2019

 ----------------------------------------------------------------------
 #t hf aug-cc-pvdz iop(5/13=1,5/36=2,99/5=2) pseudo=read geom=check gue
 ss=(read,tcheck) scf=(maxcycle=1)
 ----------------------------------------------------------------------
 -----
 title
 -----
 Structure from the checkpoint file:  "3-pentanol.chk"
 Charge =  0 Multiplicity = 1

                         Standard orientation:
 ---------------------------------------------------------------------
 Center     Atomic      Atomic             Coordinates (Angstroms)
 Number     Number       Type             X           Y           Z
 ---------------------------------------------------------------------
      1          6           0        0.256059   -0.145790    2.557816
      2          6           0        0.256059   -0.145790   -2.557816
      3          6           0        0.256059    0.678253    1.272070
      4          6           0        0.256059    0.678253   -1.272070
      5          6           0        0.123504   -0.161251   -0.000000
      6          8           0       -1.093205   -0.921538   -0.000000
      7          1           0        0.329959    0.496804    3.435919
      8          1           0       -0.654055   -0.737969    2.645405
      9          1           0        1.102179   -0.835589    2.578827
     10          1           0        0.329959    0.496804   -3.435919
     11          1           0        1.102179   -0.835589   -2.578827
     12          1           0       -0.654055   -0.737969   -2.645405
     13          1           0       -0.562591    1.406988    1.294805
     14          1           0        1.178723    1.261415    1.206832
     15          1           0       -0.562591    1.406988   -1.294805
     16          1           0        1.178723    1.261415   -1.206832
     17          1           0        0.906368   -0.925655   -0.000000
     18          1           0       -1.835609   -0.307374   -0.000000
 ---------------------------------------------------------------------

 SCF Done:  E(RHF) =  -272.564102121     A.U. after    2 cycles

 The electronic state is 1-A'.
 Alpha  occ. eigenvalues --  -21.05704 -11.44490 -11.41571 -11.38444 -11.36316
 Alpha  occ. eigenvalues --  -11.34396  -1.70349  -1.21915  -1.12700  -0.97724
 Alpha  occ. eigenvalues --   -0.87468  -0.82076  -0.65000  -0.62038  -0.59751
 Alpha  occ. eigenvalues --   -0.59292  -0.54833  -0.52169  -0.50338  -0.48332
 Alpha  occ. eigenvalues --   -0.47452  -0.45923  -0.43214  -0.37777  -0.30533
 Alpha virt. eigenvalues --    0.04111   0.04930   0.05111   0.05604   0.05853
 Alpha virt. eigenvalues --    0.06087   0.06377   0.06426   0.08265   0.08496
 Alpha virt. eigenvalues --    0.09283   0.09417   0.11398   0.13722   0.14546

 Mulliken charges:
               1
     1  C   -4.191156
     2  C   -4.191156
     3  C   -3.045695
     4  C   -3.045695
     5  C    1.843931
     6  O   -2.946653
     7  H    1.075344
     8  H    1.383069
     9  H    1.240029
    10  H    1.075344
    11  H    1.240029
    12  H    1.383069
    13  H    1.414392
    14  H    1.374854
    15  H    1.414392
    16  H    1.374854
    17  H    1.965656
    18  H    0.635391
 Sum of Mulliken charges =  -0.00000

 Dipole moment (field-independent basis, Debye):
    X=              0.1137    Y=              0.5965    Z=             -0.0000  Tot=              0.6073

 Test job not archived.
 1\1\GINC-SE014\SP\RHF\Aug-CC-pVDZ\C5H12O1\OHZDE\06-Apr-2025\0\\#t hf a
 ug-cc-pvdz iop(5/13=1,5/36=2,99/5=2) pseudo=read geom=check guess=(rea
 d,tcheck) scf=(maxcycle=1)\\title\\0,1\C,0,0.256059,-0.14579,2.557816\
 C,0,0.256059,-0.14579,-2.557816\C,0,0.256059,0.678253,1.27207\C,0,0.25
 6059,0.678253,-1.27207\C,0,0.123504,-0.161251,0.\O,0,-1.093205,-0.9215
 38,0.\H,0,0.329959,0.496804,3.435919\H,0,-0.654055,-0.737969,2.645405\
 H,0,1.102179,-0.835589,2.578827\H,0,0.329959,0.496804,-3.435919\H,0,1.
 102179,-0.835589,-2.578827\H,0,-0.654055,-0.737969,-2.645405\H,0,-0.56

 Normal termination of Gaussian 16 at Sun Apr  6 08:05:31 2025.
