 Gaussian 16, Revision C.01,

 ----------------------------------------------------------------------
 #t hf aug-cc-pvdz symm=none int=(grid=ultrafine) guess=(read,tcheck) s
 table=(opt,rrhf)
 ----------------------------------------------------------------------
 -----
 title
 -----
 Symbolic Z-matrix:
 Charge =  0 Multiplicity = 1

 SCF Done:  E(RHF) =  -492.258094472     A.U. after   16 cycles

 1\1\GINC-SE038\Stability\RHF\Aug-CC-pVDZ\C10H8N2\OHZDE\06-Apr-2025\0\\
 #t hf aug-cc-pvdz symm=none int=(grid=ultrafine) guess=(read,tcheck) s
 table=(opt,rrhf)\\title\\0,1\C,0,0.771928,0.031892,0.002176\N,0,1.3730
 89,-1.135533,-0.268058\C,0,1.517491,1.185214,0.283493\C,0,2.888656,1.0
 88544,0.253045\C,0,3.435576,-0.15637,-0.042961\N,0,2.692576,-1.231573,
 -0.286051\C,0,-0.70972,0.022857,-0.000158\C,0,-1.402884,-1.169419,0.23
 4804\C,0,-2.789799,-1.189168,0.240834\C,0,-3.510661,-0.022683,0.006144
 \C,0,-2.8326,1.165699,-0.237604\C,0,-1.444071,1.188439,-0.239574\H,0,4

 Normal termination of Gaussian 16 at Sun Apr  6 08:07:24 2025.
 Gaussian 16:  ES64L-G16RevC.01  3-Jul-2019

 ----------------------------------------------------------------------
 #t hf aug-cc-pvdz iop(5/13=1,5/36=2,99/5=2) pseudo=read geom=check gue
 ss=(read,tcheck) scf=(maxcycle=1)
 ----------------------------------------------------------------------
 -----
 title
 -----
 Structure from the checkpoint file:  "3-phenylpyridazine.chk"
 Charge =  0 Multiplicity = 1

                         Standard orientation:
 ---------------------------------------------------------------------
 Center     Atomic      Atomic             Coordinates (Angstroms)
 Number     Number       Type             X           Y           Z
 ---------------------------------------------------------------------
      1          6           0        0.771928    0.031892    0.002176
      2          7           0        1.373089   -1.135533   -0.268058
      3          6           0        1.517491    1.185214    0.283493
      4          6           0        2.888656    1.088544    0.253045
      5          6           0        3.435576   -0.156370   -0.042961
      6          7           0        2.692576   -1.231573   -0.286051
      7          6           0       -0.709720    0.022857   -0.000158
      8          6           0       -1.402884   -1.169419    0.234804
      9          6           0       -2.789799   -1.189168    0.240834
     10          6           0       -3.510661   -0.022683    0.006144
     11          6           0       -2.832600    1.165699   -0.237604
     12          6           0       -1.444071    1.188439   -0.239574
     13          1           0        4.505517   -0.314225   -0.081356
     14          1           0        3.523963    1.938063    0.462583
     15          1           0        1.028770    2.114805    0.536243
     16          1           0       -3.383886    2.075335   -0.434047
     17          1           0       -4.592120   -0.040627    0.009324
     18          1           0       -3.310530   -2.118188    0.430151
     19          1           0       -0.839342   -2.073585    0.409647
     20          1           0       -0.935526    2.118137   -0.454969
 ---------------------------------------------------------------------

 SCF Done:  E(RHF) =  -494.575051073     A.U. after    2 cycles

 The electronic state is 1-A.
 Alpha  occ. eigenvalues --  -15.77484 -15.76458 -11.52742 -11.50617 -11.46679
 Alpha  occ. eigenvalues --  -11.44592 -11.43732 -11.43603 -11.41763 -11.41005
 Alpha  occ. eigenvalues --  -11.40833 -11.36945  -1.55853  -1.35706  -1.22290
 Alpha  occ. eigenvalues --   -1.21629  -1.09819  -1.08904  -0.93750  -0.92888
 Alpha  occ. eigenvalues --   -0.86284  -0.84309  -0.74716  -0.70743  -0.67234
 Alpha  occ. eigenvalues --   -0.64644  -0.61518  -0.59234  -0.58614  -0.57830
 Alpha  occ. eigenvalues --   -0.56225  -0.54379  -0.50882  -0.46793  -0.45105
 Alpha  occ. eigenvalues --   -0.41441  -0.39858  -0.38986  -0.34023  -0.33338
 Alpha  occ. eigenvalues --   -0.30790
 Alpha virt. eigenvalues --    0.02982   0.04431   0.04947   0.05389   0.05820
 Alpha virt. eigenvalues --    0.06056   0.06783   0.07610   0.08884   0.08954
 Alpha virt. eigenvalues --    0.09557   0.09647   0.11684   0.12273   0.12497

 Mulliken charges:
               1
     1  C    3.025847
     2  N   -2.609345
     3  C   -2.527977
     4  C   -1.176715
     5  C   -1.343842
     6  N   -2.024439
     7  C    6.107480
     8  C   -2.216079
     9  C   -2.067280
    10  C   -3.247147
    11  C   -2.887737
    12  C   -1.770160
    13  H    1.487670
    14  H    1.464402
    15  H    1.698822
    16  H    1.464133
    17  H    1.541932
    18  H    1.447990
    19  H    1.719099
    20  H    1.913345
 Sum of Mulliken charges =   0.00000

 Dipole moment (field-independent basis, Debye):
    X=             -0.2590    Y=              2.9610    Z=              0.7362  Tot=              3.0621

 Test job not archived.
 1\1\GINC-SE038\SP\RHF\Aug-CC-pVDZ\C10H8N2\OHZDE\06-Apr-2025\0\\#t hf a
 ug-cc-pvdz iop(5/13=1,5/36=2,99/5=2) pseudo=read geom=check guess=(rea
 d,tcheck) scf=(maxcycle=1)\\title\\0,1\C,0,0.771928,0.031892,0.002176\
 N,0,1.373089,-1.135533,-0.268058\C,0,1.517491,1.185214,0.283493\C,0,2.
 888656,1.088544,0.253045\C,0,3.435576,-0.15637,-0.042961\N,0,2.692576,
 -1.231573,-0.286051\C,0,-0.70972,0.022857,-0.000158\C,0,-1.402884,-1.1
 69419,0.234804\C,0,-2.789799,-1.189168,0.240834\C,0,-3.510661,-0.02268
 3,0.006144\C,0,-2.8326,1.165699,-0.237604\C,0,-1.444071,1.188439,-0.23

 Normal termination of Gaussian 16 at Sun Apr  6 08:07:37 2025.
