 Gaussian 16, Revision C.01,

 ----------------------------------------------------------------------
 #t hf aug-cc-pvdz symm=none int=(grid=ultrafine) guess=(read,tcheck) s
 table=(opt,rrhf)
 ----------------------------------------------------------------------
 -----
 title
 -----
 Symbolic Z-matrix:
 Charge =  0 Multiplicity = 1

 SCF Done:  E(RHF) =  -422.714023462     A.U. after   15 cycles

 1\1\GINC-SE028\Stability\RHF\Aug-CC-pVDZ\C9H12O1\OHZDE\06-Apr-2025\0\\
 #t hf aug-cc-pvdz symm=none int=(grid=ultrafine) guess=(read,tcheck) s
 table=(opt,rrhf)\\title\\0,1\C,0,-3.309215,-0.035048,-0.489887\C,0,-2.
 671442,1.180652,-0.272279\C,0,-2.629106,-1.220002,-0.231542\C,0,-1.363
 124,1.208399,0.197144\C,0,-1.321483,-1.186224,0.237822\C,0,-0.666846,0
 .027201,0.456848\C,0,0.765821,0.059305,0.929966\C,0,1.78243,-0.026705,
 -0.220241\C,0,3.223262,0.025404,0.272641\O,0,4.180079,-0.117662,-0.774
 765\H,0,-4.328143,-0.059056,-0.851886\H,0,-3.193934,2.10867,-0.463436\

 Normal termination of Gaussian 16 at Sun Apr  6 08:06:51 2025.
 Gaussian 16:  ES64L-G16RevC.01  3-Jul-2019

 ----------------------------------------------------------------------
 #t hf aug-cc-pvdz iop(5/13=1,5/36=2,99/5=2) pseudo=read geom=check gue
 ss=(read,tcheck) scf=(maxcycle=1)
 ----------------------------------------------------------------------
 -----
 title
 -----
 Structure from the checkpoint file:  "3-phenyl-1-propanol.chk"
 Charge =  0 Multiplicity = 1

                         Standard orientation:
 ---------------------------------------------------------------------
 Center     Atomic      Atomic             Coordinates (Angstroms)
 Number     Number       Type             X           Y           Z
 ---------------------------------------------------------------------
      1          6           0       -3.309215   -0.035048   -0.489887
      2          6           0       -2.671442    1.180652   -0.272279
      3          6           0       -2.629106   -1.220002   -0.231542
      4          6           0       -1.363124    1.208399    0.197144
      5          6           0       -1.321483   -1.186224    0.237822
      6          6           0       -0.666846    0.027201    0.456848
      7          6           0        0.765821    0.059305    0.929966
      8          6           0        1.782430   -0.026705   -0.220241
      9          6           0        3.223262    0.025404    0.272641
     10          8           0        4.180079   -0.117662   -0.774765
     11          1           0       -4.328143   -0.059056   -0.851886
     12          1           0       -3.193934    2.108670   -0.463436
     13          1           0       -3.118515   -2.171659   -0.391314
     14          1           0       -0.877699    2.161375    0.369864
     15          1           0       -0.803093   -2.115354    0.441580
     16          1           0        0.940283   -0.770099    1.620194
     17          1           0        0.940705    0.977696    1.495854
     18          1           0        1.606106    0.797260   -0.919162
     19          1           0        1.631807   -0.951245   -0.781323
     20          1           0        3.399381    0.953589    0.829929
     21          1           0        3.418890   -0.803311    0.954619
     22          1           0        4.081795    0.615535   -1.389632
 ---------------------------------------------------------------------

 SCF Done:  E(RHF) =  -424.741975273     A.U. after    2 cycles

 The electronic state is 1-A.
 Alpha  occ. eigenvalues --  -21.06527 -11.51677 -11.44532 -11.43654 -11.42947
 Alpha  occ. eigenvalues --  -11.41736 -11.40401 -11.40151 -11.36994 -11.35615
 Alpha  occ. eigenvalues --   -1.70264  -1.35687  -1.20284  -1.08929  -1.08489
 Alpha  occ. eigenvalues --   -0.96836  -0.86402  -0.86200  -0.82273  -0.70602
 Alpha  occ. eigenvalues --   -0.67500  -0.64700  -0.61216  -0.58577  -0.57707
 Alpha  occ. eigenvalues --   -0.57199  -0.54458  -0.52085  -0.50533  -0.48045
 Alpha  occ. eigenvalues --   -0.47140  -0.44025  -0.43674  -0.39034  -0.33049
 Alpha  occ. eigenvalues --   -0.32819  -0.29663
 Alpha virt. eigenvalues --    0.03465   0.04728   0.04882   0.05222   0.05701
 Alpha virt. eigenvalues --    0.06114   0.06250   0.06524   0.07008   0.07393
 Alpha virt. eigenvalues --    0.08017   0.10096   0.10495   0.11838   0.12047

 Mulliken charges:
               1
     1  C   -2.974219
     2  C   -1.749221
     3  C   -1.767357
     4  C   -2.092129
     5  C   -2.182977
     6  C    4.578810
     7  C   -4.397012
     8  C   -2.947350
     9  C   -1.074066
    10  O   -2.699521
    11  H    1.530308
    12  H    1.499452
    13  H    1.502522
    14  H    1.737185
    15  H    1.773536
    16  H    1.295446
    17  H    1.334255
    18  H    1.645316
    19  H    1.604144
    20  H    1.278296
    21  H    1.350727
    22  H    0.753854
 Sum of Mulliken charges =   0.00000

 Dipole moment (field-independent basis, Debye):
    X=             -0.4106    Y=              0.4696    Z=              0.1111  Tot=              0.6336

 Test job not archived.
 1\1\GINC-SE028\SP\RHF\Aug-CC-pVDZ\C9H12O1\OHZDE\06-Apr-2025\0\\#t hf a
 ug-cc-pvdz iop(5/13=1,5/36=2,99/5=2) pseudo=read geom=check guess=(rea
 d,tcheck) scf=(maxcycle=1)\\title\\0,1\C,0,-3.309215,-0.035048,-0.4898
 87\C,0,-2.671442,1.180652,-0.272279\C,0,-2.629106,-1.220002,-0.231542\
 C,0,-1.363124,1.208399,0.197144\C,0,-1.321483,-1.186224,0.237822\C,0,-
 0.666846,0.027201,0.456848\C,0,0.765821,0.059305,0.929966\C,0,1.78243,
 -0.026705,-0.220241\C,0,3.223262,0.025404,0.272641\O,0,4.180079,-0.117
 662,-0.774765\H,0,-4.328143,-0.059056,-0.851886\H,0,-3.193934,2.10867,

 Normal termination of Gaussian 16 at Sun Apr  6 08:07:07 2025.
