 Gaussian 16, Revision C.01,

 ----------------------------------------------------------------------
 #t hf aug-cc-pvdz symm=none int=(grid=ultrafine) guess=(read,tcheck) s
 table=(opt,rrhf)
 ----------------------------------------------------------------------
 -----
 title
 -----
 Symbolic Z-matrix:
 Charge =  0 Multiplicity = 1

 SCF Done:  E(RHF) =  -321.595855128     A.U. after   15 cycles
 Normal termination of Gaussian 16 at Sun Apr  6 08:04:32 2025.
 Gaussian 16:  ES64L-G16RevC.01  3-Jul-2019

 ----------------------------------------------------------------------
 #t hf aug-cc-pvdz iop(5/13=1,5/36=2,99/5=2) pseudo=read geom=check gue
 ss=(read,tcheck) scf=(maxcycle=1)
 ----------------------------------------------------------------------
 -----
 title
 -----
 Structure from the checkpoint file:  "3-pyridinol.chk"
 Charge =  0 Multiplicity = 1

                         Standard orientation:
 ---------------------------------------------------------------------
 Center     Atomic      Atomic             Coordinates (Angstroms)
 Number     Number       Type             X           Y           Z
 ---------------------------------------------------------------------
      1          7           0       -1.199731   -1.156343    0.000000
      2          6           0       -1.178706    0.173175    0.000000
      3          6           0       -0.000000    0.918177    0.000000
      4          6           0        1.213975    0.242243    0.000000
      5          6           0        1.190617   -1.143321    0.000000
      6          6           0       -0.034471   -1.802433    0.000000
      7          8           0        0.013506    2.282556    0.000000
      8          1           0       -2.141010    0.679327    0.000000
      9          1           0        2.140074    0.800041    0.000000
     10          1           0        2.112543   -1.708300    0.000000
     11          1           0       -0.081634   -2.884350    0.000000
     12          1           0       -0.888395    2.620187    0.000000
 ---------------------------------------------------------------------

 SCF Done:  E(RHF) =  -323.052503407     A.U. after    2 cycles

 The electronic state is 1-A'.
 Alpha  occ. eigenvalues --  -21.11312 -15.74519 -11.49663 -11.45394 -11.42987
 Alpha  occ. eigenvalues --  -11.42515 -11.38362  -1.76809  -1.43936  -1.18129
 Alpha  occ. eigenvalues --   -1.09895  -0.90888  -0.87520  -0.73198  -0.68521
 Alpha  occ. eigenvalues --   -0.62897  -0.59353  -0.56906  -0.55886  -0.49144
 Alpha  occ. eigenvalues --   -0.47442  -0.45838  -0.36641  -0.35404  -0.28346
 Alpha virt. eigenvalues --    0.03179   0.05307   0.05492   0.05735   0.06642
 Alpha virt. eigenvalues --    0.09733   0.09779   0.11965   0.12259   0.12605
 Alpha virt. eigenvalues --    0.12835   0.13239   0.13909   0.14512   0.15291

 Mulliken charges:
               1
     1  N   -3.468064
     2  C   -2.206179
     3  C    4.938042
     4  C   -0.647106
     5  C   -0.485281
     6  C   -1.039774
     7  O   -4.346390
     8  H    1.639801
     9  H    1.685001
    10  H    1.352585
    11  H    1.529777
    12  H    1.047589
 Sum of Mulliken charges =   0.00000

 Dipole moment (field-independent basis, Debye):
    X=              1.0595    Y=              1.3209    Z=              0.0000  Tot=              1.6933

 Test job not archived.
 1\1\GINC-SE042\SP\RHF\Aug-CC-pVDZ\C5H5N1O1\OHZDE\06-Apr-2025\0\\#t hf
 aug-cc-pvdz iop(5/13=1,5/36=2,99/5=2) pseudo=read geom=check guess=(re
 ad,tcheck) scf=(maxcycle=1)\\title\\0,1\N,0,-1.199731,-1.156343,0.\C,0
 ,-1.178706,0.173175,0.\C,0,0.,0.918177,0.\C,0,1.213975,0.242243,0.\C,0
 ,1.190617,-1.143321,0.\C,0,-0.034471,-1.802433,0.\O,0,0.013506,2.28255
 6,0.\H,0,-2.14101,0.679327,0.\H,0,2.140074,0.800041,0.\H,0,2.112543,-1
 .7083,0.\H,0,-0.081634,-2.88435,0.\H,0,-0.888395,2.620187,0.\\Version=
 ES64L-G16RevC.01\State=1-A'\HF=-323.0525034\RMSD=1.480e+00\Dipole=0.41

 Normal termination of Gaussian 16 at Sun Apr  6 08:04:55 2025.
