 Gaussian 16, Revision C.01,

 ----------------------------------------------------------------------
 #t hf aug-cc-pvdz symm=none int=(grid=ultrafine) guess=(read,tcheck) s
 table=(opt,rrhf)
 ----------------------------------------------------------------------
 -----
 title
 -----
 Symbolic Z-matrix:
 Charge =  0 Multiplicity = 1

 SCF Done:  E(RHF) =  -662.036940423     A.U. after   15 cycles
 Normal termination of Gaussian 16 at Sun Apr  6 08:05:23 2025.
 Gaussian 16:  ES64L-G16RevC.01  3-Jul-2019

 ----------------------------------------------------------------------
 #t hf aug-cc-pvdz iop(5/13=1,5/36=2,99/5=2) pseudo=read geom=check gue
 ss=(read,tcheck) scf=(maxcycle=1)
 ----------------------------------------------------------------------
 -----
 title
 -----
 Structure from the checkpoint file:  "3-sulfanylideneprop-2-enoicacid.chk"
 Charge =  0 Multiplicity = 1

                         Standard orientation:
 ---------------------------------------------------------------------
 Center     Atomic      Atomic             Coordinates (Angstroms)
 Number     Number       Type             X           Y           Z
 ---------------------------------------------------------------------
      1         16           0       -2.444945    0.114711   -0.000002
      2          8           0        1.338014    1.334195    0.000002
      3          8           0        2.574349   -0.551462    0.000001
      4          6           0        1.397186    0.128744    0.000001
      5          6           0        0.265164   -0.804020    0.000000
      6          6           0       -0.982040   -0.381913    0.000000
      7          1           0        3.277153    0.114294    0.000002
      8          1           0        0.461205   -1.868401    0.000000
 ---------------------------------------------------------------------

 SCF Done:  E(RHF) =  -663.375310300     A.U. after    2 cycles

 The electronic state is 1-A.
 Alpha  occ. eigenvalues --  -75.74282 -21.13081 -21.05786 -13.25822 -13.06187
 Alpha  occ. eigenvalues --  -13.05418 -11.54503 -11.53238 -11.43320  -8.08603
 Alpha  occ. eigenvalues --   -1.83425  -1.65976  -1.27596  -1.12218  -0.87713
 Alpha  occ. eigenvalues --   -0.71139  -0.66307  -0.60619  -0.58299  -0.52742
 Alpha  occ. eigenvalues --   -0.47818  -0.47165  -0.38281  -0.34781  -0.30879
 Alpha  occ. eigenvalues --   -0.25524
 Alpha virt. eigenvalues --    0.02638   0.04872   0.05837   0.06304   0.08268
 Alpha virt. eigenvalues --    0.09088   0.11349   0.12117   0.12318   0.13886
 Alpha virt. eigenvalues --    0.14107   0.14415   0.15524   0.16634   0.18776

 Mulliken charges:
               1
     1  S    1.207042
     2  O   -3.140592
     3  O   -3.195389
     4  C    5.664406
     5  C   -3.135201
     6  C    0.095047
     7  H    1.104240
     8  H    1.400447
 Sum of Mulliken charges =  -0.00000

 Dipole moment (field-independent basis, Debye):
    X=             -3.8589    Y=              0.0179    Z=             -0.0000  Tot=              3.8589

 Test job not archived.
 1\1\GINC-SE104\SP\RHF\Aug-CC-pVDZ\C3H2O2S1\OHZDE\06-Apr-2025\0\\#t hf
 aug-cc-pvdz iop(5/13=1,5/36=2,99/5=2) pseudo=read geom=check guess=(re
 ad,tcheck) scf=(maxcycle=1)\\title\\0,1\S,0,-2.444945,0.114711,-0.0000
 02\O,0,1.338014,1.334195,0.000002\O,0,2.574349,-0.551462,0.000001\C,0,
 1.397186,0.128744,0.000001\C,0,0.265164,-0.80402,0.\C,0,-0.98204,-0.38
 1913,0.\H,0,3.277153,0.114294,0.000002\H,0,0.461205,-1.868401,0.\\Vers
 ion=ES64L-G16RevC.01\State=1-A\HF=-663.3753103\RMSD=5.713e-01\Dipole=-
 1.5181913,0.0070305,-0.0000026\Quadrupole=10.9723313,-4.9597425,-6.012

 Normal termination of Gaussian 16 at Sun Apr  6 08:05:27 2025.
