 Gaussian 16, Revision C.01,

 ----------------------------------------------------------------------
 #t hf aug-cc-pvdz symm=none int=(grid=ultrafine) guess=(read,tcheck) s
 table=(opt,rrhf)
 ----------------------------------------------------------------------
 -----
 title
 -----
 Symbolic Z-matrix:
 Charge =  0 Multiplicity = 1

 SCF Done:  E(RHF) =  -981.941094053     A.U. after   15 cycles
 Normal termination of Gaussian 16 at Sun Apr  6 08:05:02 2025.
 Gaussian 16:  ES64L-G16RevC.01  3-Jul-2019

 ----------------------------------------------------------------------
 #t hf aug-cc-pvdz iop(5/13=1,5/36=2,99/5=2) pseudo=read geom=check gue
 ss=(read,tcheck) scf=(maxcycle=1)
 ----------------------------------------------------------------------
 -----
 title
 -----
 Structure from the checkpoint file:  "3-sulfanyl-2H-thiadiazole.chk"
 Charge =  0 Multiplicity = 1

                         Standard orientation:
 ---------------------------------------------------------------------
 Center     Atomic      Atomic             Coordinates (Angstroms)
 Number     Number       Type             X           Y           Z
 ---------------------------------------------------------------------
      1         16           0       -1.704462   -0.551936   -0.348464
      2         16           0        2.023603   -0.133580   -0.423222
      3          7           0        0.632814    0.094551    0.642941
      4          7           0       -0.297676   -0.998966    0.631752
      5          6           0       -0.067494    1.302057    0.352543
      6          6           0       -1.293811    1.155566   -0.146389
      7          1           0        2.855091   -0.564541    0.544789
      8          1           0       -0.635754   -1.053433    1.588426
      9          1           0        0.457833    2.229855    0.510423
     10          1           0       -1.961569    1.941553   -0.456436
 ---------------------------------------------------------------------

 SCF Done:  E(RHF) =  -983.263878192     A.U. after    2 cycles

 The electronic state is 1-A.
 Alpha  occ. eigenvalues --  -75.71853 -75.71501 -15.78483 -15.77993 -13.20313
 Alpha  occ. eigenvalues --  -13.15133 -13.13475 -13.12522 -13.06541 -13.04602
 Alpha  occ. eigenvalues --  -11.45784 -11.40295  -8.05655  -8.05583  -1.56587
 Alpha  occ. eigenvalues --   -1.25265  -1.18458  -1.07110  -0.90268  -0.81247
 Alpha  occ. eigenvalues --   -0.71127  -0.66641  -0.58629  -0.53649  -0.49555
 Alpha  occ. eigenvalues --   -0.45980  -0.41665  -0.39358  -0.33981  -0.25438
 Alpha  occ. eigenvalues --   -0.21173
 Alpha virt. eigenvalues --    0.02754   0.04034   0.05412   0.05555   0.07580
 Alpha virt. eigenvalues --    0.08792   0.10004   0.10398   0.12429   0.13066
 Alpha virt. eigenvalues --    0.13513   0.13954   0.15018   0.15928   0.16367

 Mulliken charges:
               1
     1  S    1.200326
     2  S   -0.668261
     3  N   -1.201107
     4  N   -1.920877
     5  C   -0.260672
     6  C   -1.450897
     7  H    1.028615
     8  H    0.759431
     9  H    1.327298
    10  H    1.186145
 Sum of Mulliken charges =  -0.00000

 Dipole moment (field-independent basis, Debye):
    X=             -1.1858    Y=              0.1050    Z=             -1.2528  Tot=              1.7281

 Test job not archived.
 1\1\GINC-SE050\SP\RHF\Aug-CC-pVDZ\C2H4N2S2\OHZDE\06-Apr-2025\0\\#t hf
 aug-cc-pvdz iop(5/13=1,5/36=2,99/5=2) pseudo=read geom=check guess=(re
 ad,tcheck) scf=(maxcycle=1)\\title\\0,1\S,0,-1.704462,-0.551936,-0.348
 464\S,0,2.023603,-0.13358,-0.423222\N,0,0.632814,0.094551,0.642941\N,0
 ,-0.297676,-0.998966,0.631752\C,0,-0.067494,1.302057,0.352543\C,0,-1.2
 93811,1.155566,-0.146389\H,0,2.855091,-0.564541,0.544789\H,0,-0.635754
 ,-1.053433,1.588426\H,0,0.457833,2.229855,0.510423\H,0,-1.961569,1.941
 553,-0.456436\\Version=ES64L-G16RevC.01\State=1-A\HF=-983.2638782\RMSD

 Normal termination of Gaussian 16 at Sun Apr  6 08:05:19 2025.
