 Gaussian 16, Revision C.01,

 ----------------------------------------------------------------------
 #t hf aug-cc-pvdz symm=none int=(grid=ultrafine) guess=(read,tcheck) s
 table=(opt,rrhf)
 ----------------------------------------------------------------------
 -----
 title
 -----
 Symbolic Z-matrix:
 Charge =  0 Multiplicity = 1

 SCF Done:  E(RHF) =  -1019.89563700     A.U. after   15 cycles
 Normal termination of Gaussian 16 at Sun Apr  6 08:05:10 2025.
 Gaussian 16:  ES64L-G16RevC.01  3-Jul-2019

 ----------------------------------------------------------------------
 #t hf aug-cc-pvdz iop(5/13=1,5/36=2,99/5=2) pseudo=read geom=check gue
 ss=(read,tcheck) scf=(maxcycle=1)
 ----------------------------------------------------------------------
 -----
 title
 -----
 Structure from the checkpoint file:  "3-sulfanyl-1H-imidazole-2-thione.chk"
 Charge =  0 Multiplicity = 1

                         Standard orientation:
 ---------------------------------------------------------------------
 Center     Atomic      Atomic             Coordinates (Angstroms)
 Number     Number       Type             X           Y           Z
 ---------------------------------------------------------------------
      1         16           0        1.423114   -1.504034   -0.000003
      2         16           0        1.033269    1.806920    0.000000
      3          7           0       -0.098632   -0.682408    0.000000
      4          7           0       -1.561190    0.904247    0.000002
      5          6           0       -0.213029    0.685854    0.000000
      6          6           0       -1.351291   -1.279777    0.000001
      7          6           0       -2.265069   -0.285495    0.000003
      8          1           0        2.055117   -0.283371   -0.000002
      9          1           0       -1.946320    1.831521    0.000004
     10          1           0       -1.478170   -2.345481    0.000001
     11          1           0       -3.337664   -0.325202    0.000003
 ---------------------------------------------------------------------

 SCF Done:  E(RHF) =  -1021.37433581     A.U. after    2 cycles

 The electronic state is 1-A.
 Alpha  occ. eigenvalues --  -75.73519 -75.63210 -15.81992 -15.81107 -13.25121
 Alpha  occ. eigenvalues --  -13.16500 -13.11638 -13.05634 -13.00552 -12.94403
 Alpha  occ. eigenvalues --  -11.49190 -11.48863 -11.42477  -8.07316  -7.97309
 Alpha  occ. eigenvalues --   -1.62817  -1.37466  -1.18744  -1.11051  -1.02312
 Alpha  occ. eigenvalues --   -0.89248  -0.81922  -0.73962  -0.65894  -0.63769
 Alpha  occ. eigenvalues --   -0.60871  -0.54944  -0.46943  -0.46914  -0.46537
 Alpha  occ. eigenvalues --   -0.38770  -0.25751  -0.22299  -0.20289
 Alpha virt. eigenvalues --    0.02194   0.04245   0.04712   0.05221   0.07796
 Alpha virt. eigenvalues --    0.09312   0.09506   0.10309   0.10862   0.11587
 Alpha virt. eigenvalues --    0.12416   0.13521   0.14197   0.14573   0.15501

 Mulliken charges:
               1
     1  S   -0.145061
     2  S    1.000448
     3  N   -1.875739
     4  N   -3.197550
     5  C    0.023571
     6  C   -0.133839
     7  C    0.289340
     8  H    0.849526
     9  H    0.796109
    10  H    1.164474
    11  H    1.228721
 Sum of Mulliken charges =   0.00000

 Dipole moment (field-independent basis, Debye):
    X=             -2.0204    Y=             -2.3837    Z=              0.0000  Tot=              3.1247

 Test job not archived.
 1\1\GINC-SE044\SP\RHF\Aug-CC-pVDZ\C3H4N2S2\OHZDE\06-Apr-2025\0\\#t hf
 aug-cc-pvdz iop(5/13=1,5/36=2,99/5=2) pseudo=read geom=check guess=(re
 ad,tcheck) scf=(maxcycle=1)\\title\\0,1\S,0,1.423113,-1.504035,-0.0000
 03\S,0,1.03327,1.806919,0.\N,0,-0.098633,-0.682408,0.\N,0,-1.561189,0.
 904248,0.000002\C,0,-0.213029,0.685854,0.\C,0,-1.351292,-1.279776,0.00
 0001\C,0,-2.265069,-0.285493,0.000003\H,0,2.055117,-0.283372,-0.000002
 \H,0,-1.946319,1.831522,0.000004\H,0,-1.478172,-2.34548,0.000001\H,0,-
 3.337664,-0.3252,0.000003\\Version=ES64L-G16RevC.01\State=1-A\HF=-1021

 Normal termination of Gaussian 16 at Sun Apr  6 08:05:20 2025.
