 Gaussian 16, Revision C.01,

 ----------------------------------------------------------------------
 #t hf aug-cc-pvdz symm=none int=(grid=ultrafine) guess=(read,tcheck) s
 table=(opt,rrhf)
 ----------------------------------------------------------------------
 -----
 title
 -----
 Symbolic Z-matrix:
 Charge =  0 Multiplicity = 1

 SCF Done:  E(RHF) =  -717.046579704     A.U. after   15 cycles
 Normal termination of Gaussian 16 at Sun Apr  6 08:05:03 2025.
 Gaussian 16:  ES64L-G16RevC.01  3-Jul-2019

 ----------------------------------------------------------------------
 #t hf aug-cc-pvdz iop(5/13=1,5/36=2,99/5=2) pseudo=read geom=check gue
 ss=(read,tcheck) scf=(maxcycle=1)
 ----------------------------------------------------------------------
 -----
 title
 -----
 Structure from the checkpoint file:  "3-thioxo-1-2-oxazolidin-5-one.chk"
 Charge =  0 Multiplicity = 1

                         Standard orientation:
 ---------------------------------------------------------------------
 Center     Atomic      Atomic             Coordinates (Angstroms)
 Number     Number       Type             X           Y           Z
 ---------------------------------------------------------------------
      1         16           0        2.388840   -0.228485   -0.065926
      2          8           0       -1.264798    1.114379   -0.020009
      3          8           0       -2.745689   -0.568829   -0.105351
      4          7           0        0.144946    1.180968    0.131545
      5          6           0        0.766882   -0.013837    0.054715
      6          6           0       -1.610527   -0.229493   -0.016169
      7          6           0       -0.337581   -1.036321    0.118536
      8          1           0        0.526739    2.051909   -0.206611
      9          1           0       -0.336392   -1.568271    1.071151
     10          1           0       -0.255164   -1.781153   -0.670150
 ---------------------------------------------------------------------

 SCF Done:  E(RHF) =  -718.622916780     A.U. after    2 cycles

 The electronic state is 1-A.
 Alpha  occ. eigenvalues --  -75.67079 -21.15709 -21.09562 -15.85673 -13.17552
 Alpha  occ. eigenvalues --  -13.01018 -12.98165 -11.56764 -11.53649 -11.45786
 Alpha  occ. eigenvalues --   -8.01233  -1.93377  -1.72823  -1.38648  -1.20716
 Alpha  occ. eigenvalues --   -1.10191  -0.88880  -0.82434  -0.72044  -0.70501
 Alpha  occ. eigenvalues --   -0.61674  -0.58885  -0.56891  -0.53826  -0.52470
 Alpha  occ. eigenvalues --   -0.46133  -0.36694  -0.33472  -0.26442  -0.23826
 Alpha virt. eigenvalues --    0.02377   0.04834   0.05412   0.06628   0.08253
 Alpha virt. eigenvalues --    0.08970   0.09844   0.10933   0.11229   0.12408
 Alpha virt. eigenvalues --    0.12845   0.13703   0.14635   0.15752   0.16281

 Mulliken charges:
               1
     1  S    1.433855
     2  O   -2.735185
     3  O   -3.213914
     4  N   -1.179092
     5  C    0.815008
     6  C    5.634707
     7  C   -4.372356
     8  H    0.843736
     9  H    1.398375
    10  H    1.374866
 Sum of Mulliken charges =   0.00000

 Dipole moment (field-independent basis, Debye):
    X=              1.3081    Y=              0.5439    Z=             -0.2364  Tot=              1.4363

 Test job not archived.
 1\1\GINC-SE177\SP\RHF\Aug-CC-pVDZ\C3H3N1O2S1\OHZDE\06-Apr-2025\0\\#t h
 f aug-cc-pvdz iop(5/13=1,5/36=2,99/5=2) pseudo=read geom=check guess=(
 read,tcheck) scf=(maxcycle=1)\\title\\0,1\S,0,2.38884,-0.228485,-0.065
 926\O,0,-1.264798,1.114379,-0.020009\O,0,-2.745689,-0.568829,-0.105351
 \N,0,0.144946,1.180968,0.131545\C,0,0.766882,-0.013837,0.054715\C,0,-1
 .610527,-0.229493,-0.016169\C,0,-0.337581,-1.036321,0.118536\H,0,0.526
 739,2.051909,-0.206611\H,0,-0.336392,-1.568271,1.071151\H,0,-0.255164,
 -1.781153,-0.67015\\Version=ES64L-G16RevC.01\State=1-A\HF=-718.6229168

 Normal termination of Gaussian 16 at Sun Apr  6 08:05:19 2025.
