 Gaussian 16, Revision C.01,

 ----------------------------------------------------------------------
 #t hf aug-cc-pvdz symm=none int=(grid=ultrafine) guess=(read,tcheck) s
 table=(opt,rrhf)
 ----------------------------------------------------------------------
 -----
 title
 -----
 Symbolic Z-matrix:
 Charge =  0 Multiplicity = 1

 SCF Done:  E(RHF) =  -321.570336320     A.U. after   15 cycles
 Normal termination of Gaussian 16 at Sun Apr  6 08:05:06 2025.
 Gaussian 16:  ES64L-G16RevC.01  3-Jul-2019

 ----------------------------------------------------------------------
 #t hf aug-cc-pvdz iop(5/13=1,5/36=2,99/5=2) pseudo=read geom=check gue
 ss=(read,tcheck) scf=(maxcycle=1)
 ----------------------------------------------------------------------
 -----
 title
 -----
 Structure from the checkpoint file:  "32H-pyridinone.chk"
 Charge =  0 Multiplicity = 1

                         Standard orientation:
 ---------------------------------------------------------------------
 Center     Atomic      Atomic             Coordinates (Angstroms)
 Number     Number       Type             X           Y           Z
 ---------------------------------------------------------------------
      1          7           0        1.200532   -1.192190    0.000009
      2          6           0       -0.248247   -1.251538    0.000100
      3          6           0       -1.059500    0.036614    0.000061
      4          6           0       -0.288709    1.286859    0.000113
      5          6           0        1.051418    1.235550   -0.000006
      6          6           0        1.757680   -0.047837   -0.000095
      7          8           0       -2.276005    0.018306   -0.000145
      8          1           0       -0.559635   -1.846968    0.864275
      9          1           0       -0.843315    2.215844    0.000201
     10          1           0        1.646021    2.141077   -0.000054
     11          1           0        2.845073   -0.022117   -0.000226
     12          1           0       -0.559677   -1.846841   -0.864144
 ---------------------------------------------------------------------

 SCF Done:  E(RHF) =  -323.011878703     A.U. after    2 cycles

 The electronic state is 1-A.
 Alpha  occ. eigenvalues --  -21.05483 -15.75678 -11.51562 -11.47934 -11.45174
 Alpha  occ. eigenvalues --  -11.42208 -11.40752  -1.71171  -1.43284  -1.19473
 Alpha  occ. eigenvalues --   -1.10288  -0.92968  -0.85680  -0.74016  -0.65111
 Alpha  occ. eigenvalues --   -0.64203  -0.64134  -0.57750  -0.53852  -0.49319
 Alpha  occ. eigenvalues --   -0.48270  -0.46321  -0.39409  -0.32766  -0.27873
 Alpha virt. eigenvalues --    0.02699   0.04988   0.05283   0.05719   0.06288
 Alpha virt. eigenvalues --    0.07264   0.08700   0.10783   0.11616   0.12577
 Alpha virt. eigenvalues --    0.12987   0.13043   0.13510   0.13748   0.14573

 Mulliken charges:
               1
     1  N   -2.816904
     2  C   -3.023227
     3  C    3.766533
     4  C   -1.110342
     5  C    0.317649
     6  C   -0.489321
     7  O   -3.649117
     8  H    1.256000
     9  H    1.555732
    10  H    1.378994
    11  H    1.558162
    12  H    1.255842
 Sum of Mulliken charges =   0.00000

 Dipole moment (field-independent basis, Debye):
    X=              1.3031    Y=              1.4731    Z=              0.0001  Tot=              1.9668

 Test job not archived.
 1\1\GINC-SE011\SP\RHF\Aug-CC-pVDZ\C5H5N1O1\OHZDE\06-Apr-2025\0\\#t hf
 aug-cc-pvdz iop(5/13=1,5/36=2,99/5=2) pseudo=read geom=check guess=(re
 ad,tcheck) scf=(maxcycle=1)\\title\\0,1\N,0,1.200532,-1.19219,0.000009
 \C,0,-0.248247,-1.251538,0.0001\C,0,-1.0595,0.036614,0.000061\C,0,-0.2
 88709,1.286859,0.000113\C,0,1.051418,1.23555,-0.000006\C,0,1.75768,-0.
 047837,-0.000095\O,0,-2.276005,0.018306,-0.000145\H,0,-0.559635,-1.846
 968,0.864275\H,0,-0.843315,2.215844,0.000201\H,0,1.646021,2.141077,-0.
 000054\H,0,2.845073,-0.022117,-0.000226\H,0,-0.559677,-1.846841,-0.864

 Normal termination of Gaussian 16 at Sun Apr  6 08:05:19 2025.
