 Gaussian 16, Revision C.01,

 ----------------------------------------------------------------------
 #t hf aug-cc-pvdz symm=none int=(grid=ultrafine) guess=(read,tcheck) s
 table=(opt,rrhf)
 ----------------------------------------------------------------------
 -----
 title
 -----
 Symbolic Z-matrix:
 Charge =  0 Multiplicity = 1

 SCF Done:  E(RHF) =  -321.564740181     A.U. after   15 cycles
 Normal termination of Gaussian 16 at Sun Apr  6 08:05:31 2025.
 Gaussian 16:  ES64L-G16RevC.01  3-Jul-2019

 ----------------------------------------------------------------------
 #t hf aug-cc-pvdz iop(5/13=1,5/36=2,99/5=2) pseudo=read geom=check gue
 ss=(read,tcheck) scf=(maxcycle=1)
 ----------------------------------------------------------------------
 -----
 title
 -----
 Structure from the checkpoint file:  "34H-pyridinone.chk"
 Charge =  0 Multiplicity = 1

                         Standard orientation:
 ---------------------------------------------------------------------
 Center     Atomic      Atomic             Coordinates (Angstroms)
 Number     Number       Type             X           Y           Z
 ---------------------------------------------------------------------
      1          7           0        1.003702   -1.321515   -0.000044
      2          6           0       -0.274008   -1.255389    0.000230
      3          6           0       -1.057493    0.010593    0.000105
      4          6           0       -0.250299    1.293437    0.000138
      5          6           0        1.227716    1.089202    0.000005
      6          6           0        1.758426   -0.135993   -0.000177
      7          8           0       -2.271435   -0.003688   -0.000258
      8          1           0       -0.853456   -2.175087    0.000425
      9          1           0       -0.562854    1.887548   -0.865857
     10          1           0        1.870338    1.960254    0.000050
     11          1           0        2.828067   -0.291154   -0.000357
     12          1           0       -0.562581    1.887450    0.866314
 ---------------------------------------------------------------------

 SCF Done:  E(RHF) =  -323.005439192     A.U. after    2 cycles

 The electronic state is 1-A.
 Alpha  occ. eigenvalues --  -21.07033 -15.77165 -11.52261 -11.46577 -11.44238
 Alpha  occ. eigenvalues --  -11.43161 -11.39651  -1.72426  -1.44029  -1.19866
 Alpha  occ. eigenvalues --   -1.09162  -0.93197  -0.86068  -0.73673  -0.65042
 Alpha  occ. eigenvalues --   -0.63952  -0.63709  -0.57353  -0.54445  -0.51395
 Alpha  occ. eigenvalues --   -0.48675  -0.45307  -0.40349  -0.32091  -0.28945
 Alpha virt. eigenvalues --    0.02835   0.05193   0.05389   0.05907   0.06406
 Alpha virt. eigenvalues --    0.06616   0.08382   0.10908   0.11103   0.12499
 Alpha virt. eigenvalues --    0.13061   0.13080   0.13596   0.14406   0.14408

 Mulliken charges:
               1
     1  N   -3.402767
     2  C   -1.624152
     3  C    5.118294
     4  C   -3.533089
     5  C    0.415408
     6  C   -0.741534
     7  O   -3.565538
     8  H    1.772862
     9  H    1.339318
    10  H    1.346964
    11  H    1.534875
    12  H    1.339359
 Sum of Mulliken charges =  -0.00000

 Dipole moment (field-independent basis, Debye):
    X=              0.7034    Y=              1.7480    Z=              0.0005  Tot=              1.8842

 Test job not archived.
 1\1\GINC-SE012\SP\RHF\Aug-CC-pVDZ\C5H5N1O1\OHZDE\06-Apr-2025\0\\#t hf
 aug-cc-pvdz iop(5/13=1,5/36=2,99/5=2) pseudo=read geom=check guess=(re
 ad,tcheck) scf=(maxcycle=1)\\title\\0,1\N,0,1.003702,-1.321515,-0.0000
 44\C,0,-0.274008,-1.255389,0.00023\C,0,-1.057493,0.010593,0.000105\C,0
 ,-0.250299,1.293437,0.000138\C,0,1.227716,1.089202,0.000005\C,0,1.7584
 26,-0.135993,-0.000177\O,0,-2.271435,-0.003688,-0.000258\H,0,-0.853456
 ,-2.175087,0.000425\H,0,-0.562854,1.887548,-0.865857\H,0,1.870338,1.96
 0254,0.00005\H,0,2.828067,-0.291154,-0.000357\H,0,-0.562581,1.88745,0.

 Normal termination of Gaussian 16 at Sun Apr  6 08:05:36 2025.
