 Gaussian 16, Revision C.01,

 ----------------------------------------------------------------------
 #t hf aug-cc-pvdz symm=none int=(grid=ultrafine) guess=(read,tcheck) s
 table=(opt,rrhf)
 ----------------------------------------------------------------------
 -----
 title
 -----
 Symbolic Z-matrix:
 Charge =  0 Multiplicity = 1

 SCF Done:  E(RHF) =  -321.571709109     A.U. after   15 cycles
 Normal termination of Gaussian 16 at Sun Apr  6 08:05:05 2025.
 Gaussian 16:  ES64L-G16RevC.01  3-Jul-2019

 ----------------------------------------------------------------------
 #t hf aug-cc-pvdz iop(5/13=1,5/36=2,99/5=2) pseudo=read geom=check gue
 ss=(read,tcheck) scf=(maxcycle=1)
 ----------------------------------------------------------------------
 -----
 title
 -----
 Structure from the checkpoint file:  "36H-pyridinone.chk"
 Charge =  0 Multiplicity = 1

                         Standard orientation:
 ---------------------------------------------------------------------
 Center     Atomic      Atomic             Coordinates (Angstroms)
 Number     Number       Type             X           Y           Z
 ---------------------------------------------------------------------
      1          7           0       -1.271596   -1.030212    0.000000
      2          6           0       -1.236096    0.239527    0.000000
      3          6           0        0.000000    1.085157    0.000000
      4          6           0        1.263984    0.348634    0.000000
      5          6           0        1.244327   -0.987977    0.000000
      6          6           0       -0.025532   -1.764497    0.000000
      7          8           0       -0.082178    2.301599    0.000000
      8          1           0       -2.173830    0.792159    0.000000
      9          1           0        2.180630    0.923062    0.000000
     10          1           0        2.167680   -1.557260    0.000000
     11          1           0       -0.047988   -2.442167    0.862672
     12          1           0       -0.047988   -2.442167   -0.862672
 ---------------------------------------------------------------------

 SCF Done:  E(RHF) =  -323.012063676     A.U. after    2 cycles

 The electronic state is 1-A'.
 Alpha  occ. eigenvalues --  -21.06031 -15.76565 -11.51401 -11.47748 -11.44262
 Alpha  occ. eigenvalues --  -11.43970 -11.40320  -1.71428  -1.43720  -1.20025
 Alpha  occ. eigenvalues --   -1.09846  -0.90327  -0.88994  -0.73668  -0.65066
 Alpha  occ. eigenvalues --   -0.64365  -0.63764  -0.57762  -0.54100  -0.51775
 Alpha  occ. eigenvalues --   -0.49141  -0.42020  -0.39656  -0.34248  -0.28427
 Alpha virt. eigenvalues --    0.02716   0.05053   0.05330   0.05902   0.06490
 Alpha virt. eigenvalues --    0.08722   0.09301   0.10126   0.11059   0.12534
 Alpha virt. eigenvalues --    0.12600   0.12874   0.13196   0.13866   0.13956

 Mulliken charges:
               1
     1  N   -2.819208
     2  C   -1.141045
     3  C    4.044518
     4  C   -0.646727
     5  C    0.238005
     6  C   -2.964488
     7  O   -3.773911
     8  H    1.687926
     9  H    1.558344
    10  H    1.373716
    11  H    1.221435
    12  H    1.221435
 Sum of Mulliken charges =   0.00000

 Dipole moment (field-independent basis, Debye):
    X=              1.5475    Y=             -1.7994    Z=              0.0000  Tot=              2.3733

 Test job not archived.
 1\1\GINC-SE046\SP\RHF\Aug-CC-pVDZ\C5H5N1O1\OHZDE\06-Apr-2025\0\\#t hf
 aug-cc-pvdz iop(5/13=1,5/36=2,99/5=2) pseudo=read geom=check guess=(re
 ad,tcheck) scf=(maxcycle=1)\\title\\0,1\N,0,-1.271596,-1.030212,0.\C,0
 ,-1.236096,0.239527,0.\C,0,0.,1.085157,0.\C,0,1.263984,0.348634,0.\C,0
 ,1.244327,-0.987977,0.\C,0,-0.025532,-1.764497,0.\O,0,-0.082178,2.3015
 99,0.\H,0,-2.17383,0.792159,0.\H,0,2.18063,0.923062,0.\H,0,2.16768,-1.
 55726,0.\H,0,-0.047988,-2.442167,0.862672\H,0,-0.047988,-2.442167,-0.8
 62672\\Version=ES64L-G16RevC.01\State=1-A'\HF=-323.0120637\RMSD=1.358e

 Normal termination of Gaussian 16 at Sun Apr  6 08:05:19 2025.
