 Gaussian 16, Revision C.01,

 ----------------------------------------------------------------------
 #t hf aug-cc-pvdz symm=none int=(grid=ultrafine) guess=(read,tcheck) s
 table=(opt,rrhf)
 ----------------------------------------------------------------------
 -----
 title
 -----
 Symbolic Z-matrix:
 Charge =  0 Multiplicity = 1

 SCF Done:  E(RHF) =  -233.024287157     A.U. after   13 cycles
 Normal termination of Gaussian 16 at Sun Apr  6 08:05:42 2025.
 Gaussian 16:  ES64L-G16RevC.01  3-Jul-2019

 ----------------------------------------------------------------------
 #t hf aug-cc-pvdz iop(5/13=1,5/36=2,99/5=2) pseudo=read geom=check gue
 ss=(read,tcheck) scf=(maxcycle=1)
 ----------------------------------------------------------------------
 -----
 title
 -----
 Structure from the checkpoint file:  "3E-2-methyl-1-3-pentadiene.chk"
 Charge =  0 Multiplicity = 1

                         Standard orientation:
 ---------------------------------------------------------------------
 Center     Atomic      Atomic             Coordinates (Angstroms)
 Number     Number       Type             X           Y           Z
 ---------------------------------------------------------------------
      1          6           0        2.066444   -1.078567   -0.000000
      2          6           0        1.117232   -0.133948    0.000001
      3          6           0       -0.293736   -0.518951    0.000015
      4          6           0       -1.341106    0.310850    0.000031
      5          6           0       -2.772365   -0.122358   -0.000019
      6          6           0        1.473859    1.328371   -0.000012
      7          1           0        3.118414   -0.827682   -0.000025
      8          1           0        1.813394   -2.130884    0.000014
      9          1           0       -0.482710   -1.588989   -0.000013
     10          1           0       -1.170199    1.382350    0.000073
     11          1           0       -2.863802   -1.208498   -0.000060
     12          1           0       -3.301379    0.263852    0.875706
     13          1           0       -3.301329    0.263911   -0.875747
     14          1           0        1.065954    1.834129   -0.878047
     15          1           0        1.066119    1.834099    0.878118
     16          1           0        2.553575    1.465330   -0.000111
 ---------------------------------------------------------------------

 SCF Done:  E(RHF) =  -234.204872442     A.U. after    2 cycles

 The electronic state is 1-A.
 Alpha  occ. eigenvalues --  -11.43934 -11.42292 -11.39118 -11.38314 -11.38074
 Alpha  occ. eigenvalues --  -11.35838  -1.27849  -1.14459  -1.00211  -0.97960
 Alpha  occ. eigenvalues --   -0.81735  -0.74161  -0.64109  -0.59988  -0.57146
 Alpha  occ. eigenvalues --   -0.56354  -0.56098  -0.52503  -0.49650  -0.47110
 Alpha  occ. eigenvalues --   -0.43573  -0.40348  -0.29137
 Alpha virt. eigenvalues --    0.03559   0.05076   0.05542   0.05973   0.06272
 Alpha virt. eigenvalues --    0.06452   0.06884   0.07388   0.08031   0.08277
 Alpha virt. eigenvalues --    0.11215   0.11748   0.12082   0.13219   0.13762

 Mulliken charges:
               1
     1  C   -5.425309
     2  C    1.988025
     3  C    0.837208
     4  C   -0.709044
     5  C   -4.883957
     6  C   -4.972365
     7  H    1.607916
     8  H    1.503006
     9  H    1.529815
    10  H    1.490529
    11  H    1.266973
    12  H    1.091758
    13  H    1.091773
    14  H    1.169110
    15  H    1.169108
    16  H    1.245454
 Sum of Mulliken charges =  -0.00000

 Dipole moment (field-independent basis, Debye):
    X=             -0.4760    Y=              0.3949    Z=             -0.0000  Tot=              0.6185

 Test job not archived.
 1\1\GINC-SE047\SP\RHF\Aug-CC-pVDZ\C6H10\OHZDE\06-Apr-2025\0\\#t hf aug
 -cc-pvdz iop(5/13=1,5/36=2,99/5=2) pseudo=read geom=check guess=(read,
 tcheck) scf=(maxcycle=1)\\title\\0,1\C,0,2.066444,-1.078567,0.\C,0,1.1
 17232,-0.133948,0.000001\C,0,-0.293736,-0.518951,0.000015\C,0,-1.34110
 6,0.31085,0.000031\C,0,-2.772365,-0.122358,-0.000019\C,0,1.473859,1.32
 8371,-0.000012\H,0,3.118414,-0.827682,-0.000025\H,0,1.813394,-2.130884
 ,0.000014\H,0,-0.48271,-1.588989,-0.000013\H,0,-1.170199,1.38235,0.000
 073\H,0,-2.863802,-1.208498,-0.00006\H,0,-3.301379,0.263852,0.875706\H

 Normal termination of Gaussian 16 at Sun Apr  6 08:05:47 2025.
