 Gaussian 16, Revision C.01,

 ----------------------------------------------------------------------
 #t hf aug-cc-pvdz symm=none int=(grid=ultrafine) guess=(read,tcheck) s
 table=(opt,rrhf)
 ----------------------------------------------------------------------
 -----
 title
 -----
 Symbolic Z-matrix:
 Charge =  0 Multiplicity = 1

 SCF Done:  E(RHF) =  -233.020531600     A.U. after   14 cycles
 Normal termination of Gaussian 16 at Sun Apr  6 08:05:19 2025.
 Gaussian 16:  ES64L-G16RevC.01  3-Jul-2019

 ----------------------------------------------------------------------
 #t hf aug-cc-pvdz iop(5/13=1,5/36=2,99/5=2) pseudo=read geom=check gue
 ss=(read,tcheck) scf=(maxcycle=1)
 ----------------------------------------------------------------------
 -----
 title
 -----
 Structure from the checkpoint file:  "3E-3-methyl-1-3-pentadiene.chk"
 Charge =  0 Multiplicity = 1

                         Standard orientation:
 ---------------------------------------------------------------------
 Center     Atomic      Atomic             Coordinates (Angstroms)
 Number     Number       Type             X           Y           Z
 ---------------------------------------------------------------------
      1          6           0        2.526085   -0.224091   -0.000065
      2          6           0        1.294342   -0.739554    0.000012
      3          6           0        0.034400    0.006499   -0.000010
      4          6           0       -1.115939   -0.688795    0.000099
      5          6           0       -2.521058   -0.179706    0.000118
      6          6           0        0.114883    1.508528   -0.000144
      7          1           0        3.396043   -0.865751   -0.000039
      8          1           0        2.711374    0.841312   -0.000153
      9          1           0        1.189188   -1.820097    0.000100
     10          1           0       -1.028922   -1.771727    0.000189
     11          1           0       -3.063558   -0.549262    0.875060
     12          1           0       -2.589482    0.905588   -0.000006
     13          1           0       -3.063659   -0.549470   -0.874672
     14          1           0        0.658431    1.866471   -0.877450
     15          1           0       -0.864162    1.979015   -0.000164
     16          1           0        0.658474    1.866628    0.877071
 ---------------------------------------------------------------------

 SCF Done:  E(RHF) =  -234.202802267     A.U. after    2 cycles

 The electronic state is 1-A.
 Alpha  occ. eigenvalues --  -11.44234 -11.41489 -11.39751 -11.38771 -11.37853
 Alpha  occ. eigenvalues --  -11.35688  -1.28204  -1.11902  -1.04782  -0.95951
 Alpha  occ. eigenvalues --   -0.81777  -0.73106  -0.65734  -0.59230  -0.57674
 Alpha  occ. eigenvalues --   -0.56485  -0.55482  -0.53032  -0.49729  -0.46720
 Alpha  occ. eigenvalues --   -0.43349  -0.40451  -0.28914
 Alpha virt. eigenvalues --    0.03422   0.05193   0.05432   0.05627   0.06010
 Alpha virt. eigenvalues --    0.06435   0.07235   0.07447   0.08081   0.09358
 Alpha virt. eigenvalues --    0.11196   0.11296   0.12300   0.13096   0.13972

 Mulliken charges:
               1
     1  C   -4.040870
     2  C   -0.438833
     3  C    1.108664
     4  C   -0.230030
     5  C   -4.619187
     6  C   -4.818564
     7  H    1.385815
     8  H    1.577079
     9  H    1.342295
    10  H    1.581643
    11  H    1.091930
    12  H    1.381176
    13  H    1.091916
    14  H    1.085576
    15  H    1.415819
    16  H    1.085570
 Sum of Mulliken charges =   0.00000

 Dipole moment (field-independent basis, Debye):
    X=             -0.6357    Y=              0.1509    Z=              0.0000  Tot=              0.6533

 Test job not archived.
 1\1\GINC-SE106\SP\RHF\Aug-CC-pVDZ\C6H10\OHZDE\06-Apr-2025\0\\#t hf aug
 -cc-pvdz iop(5/13=1,5/36=2,99/5=2) pseudo=read geom=check guess=(read,
 tcheck) scf=(maxcycle=1)\\title\\0,1\C,0,2.526085,-0.224091,-0.000065\
 C,0,1.294342,-0.739554,0.000012\C,0,0.0344,0.006499,-0.00001\C,0,-1.11
 5939,-0.688795,0.000099\C,0,-2.521058,-0.179706,0.000118\C,0,0.114883,
 1.508528,-0.000144\H,0,3.396043,-0.865751,-0.000039\H,0,2.711374,0.841
 312,-0.000153\H,0,1.189188,-1.820097,0.0001\H,0,-1.028922,-1.771727,0.
 000189\H,0,-3.063558,-0.549262,0.87506\H,0,-2.589482,0.905588,-0.00000

 Normal termination of Gaussian 16 at Sun Apr  6 08:05:24 2025.
