 Gaussian 16, Revision C.01,

 ----------------------------------------------------------------------
 #t hf aug-cc-pvdz symm=none int=(grid=ultrafine) guess=(read,tcheck) s
 table=(opt,rrhf)
 ----------------------------------------------------------------------
 -----
 title
 -----
 Symbolic Z-matrix:
 Charge =  0 Multiplicity = 1

 SCF Done:  E(RHF) =  -1094.45168881     A.U. after   19 cycles
 Normal termination of Gaussian 16 at Sun Apr  6 08:05:46 2025.
 Gaussian 16:  ES64L-G16RevC.01  3-Jul-2019

 ----------------------------------------------------------------------
 #t hf aug-cc-pvdz iop(5/13=1,5/36=2,99/5=2) pseudo=read geom=check gue
 ss=(read,tcheck) scf=(maxcycle=1)
 ----------------------------------------------------------------------
 -----
 title
 -----
 Structure from the checkpoint file:  "3H-1-2-dithiole-4-5-dicarbonitrile.chk"
 Charge =  0 Multiplicity = 1

                         Standard orientation:
 ---------------------------------------------------------------------
 Center     Atomic      Atomic             Coordinates (Angstroms)
 Number     Number       Type             X           Y           Z
 ---------------------------------------------------------------------
      1         16           0       -1.222640    1.296701    0.169140
      2         16           0       -2.161882   -0.546051   -0.275063
      3          7           0        2.326633    2.291014   -0.116594
      4          7           0        2.731829   -2.027824   -0.080487
      5          6           0        0.395120    0.601936    0.030052
      6          6           0        0.511175   -0.743969    0.062000
      7          6           0       -0.745707   -1.549818    0.310030
      8          6           0        1.476896    1.515274   -0.054572
      9          6           0        1.752199   -1.421097   -0.020140
     10          1           0       -0.759980   -2.475318   -0.261951
     11          1           0       -0.835001   -1.791373    1.372058
 ---------------------------------------------------------------------

 SCF Done:  E(RHF) =  -1096.23019913     A.U. after    2 cycles

 The electronic state is 1-A.
 Alpha  occ. eigenvalues --  -75.76637 -75.75178 -15.80484 -15.79759 -13.22916
 Alpha  occ. eigenvalues --  -13.18533 -13.16020 -13.14203 -13.09139 -13.08074
 Alpha  occ. eigenvalues --  -11.57768 -11.51359 -11.48090 -11.47423 -11.46274
 Alpha  occ. eigenvalues --   -8.10669  -8.09062  -1.44418  -1.33799  -1.31359
 Alpha  occ. eigenvalues --   -1.17616  -1.17224  -0.96061  -0.93814  -0.82309
 Alpha  occ. eigenvalues --   -0.67953  -0.64445  -0.60099  -0.57199  -0.56057
 Alpha  occ. eigenvalues --   -0.52946  -0.50739  -0.49567  -0.46689  -0.44385
 Alpha  occ. eigenvalues --   -0.42361  -0.39289  -0.33250  -0.22892
 Alpha virt. eigenvalues --    0.01600   0.03437   0.03665   0.04907   0.05070
 Alpha virt. eigenvalues --    0.07664   0.09047   0.09684   0.10441   0.10631
 Alpha virt. eigenvalues --    0.10831   0.11472   0.12863   0.13281   0.13775

 Mulliken charges:
               1
     1  S    0.203816
     2  S    0.465207
     3  N   -2.005692
     4  N   -2.433264
     5  C    2.536111
     6  C    2.144162
     7  C   -4.689266
     8  C    0.022186
     9  C    1.234939
    10  H    1.311576
    11  H    1.210225
 Sum of Mulliken charges =   0.00000

 Dipole moment (field-independent basis, Debye):
    X=             -7.1678    Y=              0.2088    Z=              0.2337  Tot=              7.1746

 Test job not archived.
 1\1\GINC-SE084\SP\RHF\Aug-CC-pVDZ\C5H2N2S2\OHZDE\06-Apr-2025\0\\#t hf
 aug-cc-pvdz iop(5/13=1,5/36=2,99/5=2) pseudo=read geom=check guess=(re
 ad,tcheck) scf=(maxcycle=1)\\title\\0,1\S,0,-1.22264,1.296701,0.16914\
 S,0,-2.161882,-0.546051,-0.275063\N,0,2.326633,2.291015,-0.116594\N,0,
 2.731829,-2.027823,-0.080487\C,0,0.39512,0.601936,0.030052\C,0,0.51117
 5,-0.743969,0.062\C,0,-0.745707,-1.549818,0.31003\C,0,1.476896,1.51527
 4,-0.054572\C,0,1.752199,-1.421097,-0.02014\H,0,-0.75998,-2.475318,-0.
 261951\H,0,-0.835001,-1.791373,1.372058\\Version=ES64L-G16RevC.01\Stat

 Normal termination of Gaussian 16 at Sun Apr  6 08:05:53 2025.
