 Gaussian 16, Revision C.01,

 ----------------------------------------------------------------------
 #t hf aug-cc-pvdz symm=none int=(grid=ultrafine) guess=(read,tcheck) s
 table=(opt,rrhf)
 ----------------------------------------------------------------------
 -----
 title
 -----
 Symbolic Z-matrix:
 Charge =  0 Multiplicity = 1

 SCF Done:  E(RHF) =  -1098.62158341     A.U. after   16 cycles
 Normal termination of Gaussian 16 at Sun Apr  6 08:05:16 2025.
 Gaussian 16:  ES64L-G16RevC.01  3-Jul-2019

 ----------------------------------------------------------------------
 #t hf aug-cc-pvdz iop(5/13=1,5/36=2,99/5=2) pseudo=read geom=check gue
 ss=(read,tcheck) scf=(maxcycle=1)
 ----------------------------------------------------------------------
 -----
 title
 -----
 Structure from the checkpoint file:  "3H-1-2-dithiole-3-carboxylic_acid.chk"
 Charge =  0 Multiplicity = 1

                         Standard orientation:
 ---------------------------------------------------------------------
 Center     Atomic      Atomic             Coordinates (Angstroms)
 Number     Number       Type             X           Y           Z
 ---------------------------------------------------------------------
      1         16           0       -0.671855   -1.153928    0.660705
      2         16           0       -2.102626   -0.073495   -0.487708
      3          8           0        2.806302    0.706910    0.014558
      4          8           0        1.840814   -1.023297   -0.999049
      5          6           0        0.592505    0.197419    0.742618
      6          6           0        1.861261   -0.020299   -0.114890
      7          6           0       -0.080754    1.484200    0.342170
      8          6           0       -1.272181    1.455845   -0.241430
      9          1           0        0.997209   -1.505143   -0.912903
     10          1           0        0.933145    0.237738    1.777666
     11          1           0        0.468066    2.404340    0.484590
     12          1           0       -1.788640    2.329941   -0.612187
 ---------------------------------------------------------------------

 SCF Done:  E(RHF) =  -1100.38795852     A.U. after    2 cycles

 The electronic state is 1-A.
 Alpha  occ. eigenvalues --  -75.74100 -75.73795 -21.13066 -21.05984 -13.18347
 Alpha  occ. eigenvalues --  -13.16611 -13.14464 -13.12984 -13.10725 -13.06206
 Alpha  occ. eigenvalues --  -11.54543 -11.48695 -11.47450 -11.42142  -8.08091
 Alpha  occ. eigenvalues --   -8.07738  -1.83609  -1.66691  -1.36133  -1.15315
 Alpha  occ. eigenvalues --   -1.12454  -0.95152  -0.83244  -0.78664  -0.71879
 Alpha  occ. eigenvalues --   -0.70502  -0.61110  -0.56131  -0.51644  -0.49101
 Alpha  occ. eigenvalues --   -0.47344  -0.45756  -0.43094  -0.38091  -0.34358
 Alpha  occ. eigenvalues --   -0.33463  -0.31352  -0.20168
 Alpha virt. eigenvalues --    0.02313   0.03528   0.04514   0.05811   0.06528
 Alpha virt. eigenvalues --    0.06742   0.09613   0.10467   0.11341   0.11670
 Alpha virt. eigenvalues --    0.12567   0.12864   0.13159   0.14216   0.14705

 Mulliken charges:
               1
     1  S   -0.130018
     2  S    0.335129
     3  O   -3.245556
     4  O   -3.186832
     5  C   -2.666075
     6  C    5.702814
     7  C   -0.372539
     8  C   -1.856257
     9  H    1.220091
    10  H    1.443172
    11  H    1.492656
    12  H    1.263415
 Sum of Mulliken charges =  -0.00000

 Dipole moment (field-independent basis, Debye):
    X=             -3.5511    Y=             -1.5568    Z=              0.2062  Tot=              3.8828

 Test job not archived.
 1\1\GINC-SE223\SP\RHF\Aug-CC-pVDZ\C4H4O2S2\OHZDE\06-Apr-2025\0\\#t hf
 aug-cc-pvdz iop(5/13=1,5/36=2,99/5=2) pseudo=read geom=check guess=(re
 ad,tcheck) scf=(maxcycle=1)\\title\\0,1\S,0,-0.671855,-1.153928,0.6607
 05\S,0,-2.102626,-0.073495,-0.487708\O,0,2.806302,0.70691,0.014558\O,0
 ,1.840814,-1.023297,-0.999049\C,0,0.592505,0.197419,0.742618\C,0,1.861
 261,-0.020299,-0.11489\C,0,-0.080754,1.4842,0.34217\C,0,-1.272181,1.45
 5845,-0.24143\H,0,0.997209,-1.505143,-0.912903\H,0,0.933145,0.237738,1
 .777666\H,0,0.468066,2.40434,0.48459\H,0,-1.78864,2.329941,-0.612187\\

 Normal termination of Gaussian 16 at Sun Apr  6 08:05:23 2025.
