 Gaussian 16, Revision C.01,

 ----------------------------------------------------------------------
 #t hf aug-cc-pvdz symm=none int=(grid=ultrafine) guess=(read,tcheck) s
 table=(opt,rrhf)
 ----------------------------------------------------------------------
 -----
 title
 -----
 Symbolic Z-matrix:
 Charge =  0 Multiplicity = 1

 SCF Done:  E(RHF) =  -982.031269933     A.U. after   15 cycles
 Normal termination of Gaussian 16 at Sun Apr  6 08:05:01 2025.
 Gaussian 16:  ES64L-G16RevC.01  3-Jul-2019

 ----------------------------------------------------------------------
 #t hf aug-cc-pvdz iop(5/13=1,5/36=2,99/5=2) pseudo=read geom=check gue
 ss=(read,tcheck) scf=(maxcycle=1)
 ----------------------------------------------------------------------
 -----
 title
 -----
 Structure from the checkpoint file:  "3H-1-2-4-dithiazol-3-amine.chk"
 Charge =  0 Multiplicity = 1

                         Standard orientation:
 ---------------------------------------------------------------------
 Center     Atomic      Atomic             Coordinates (Angstroms)
 Number     Number       Type             X           Y           Z
 ---------------------------------------------------------------------
      1         16           0       -0.028479   -1.298792    0.113208
      2         16           0       -1.706091   -0.067083   -0.155054
      3          7           0        0.494117    1.411130    0.230341
      4          7           0        2.316910   -0.066084   -0.430930
      5          6           0        1.182581    0.157135    0.412230
      6          6           0       -0.739922    1.410171   -0.021635
      7          1           0        2.101161    0.113195   -1.403505
      8          1           0        3.105494    0.503334   -0.149239
      9          1           0        1.509307    0.087909    1.449130
     10          1           0       -1.295978    2.330405   -0.166289
 ---------------------------------------------------------------------

 SCF Done:  E(RHF) =  -983.345450229     A.U. after    2 cycles

 The electronic state is 1-A.
 Alpha  occ. eigenvalues --  -75.72227 -75.70429 -15.75571 -15.75433 -13.14603
 Alpha  occ. eigenvalues --  -13.12858 -13.10309 -13.08730 -13.04515 -13.02749
 Alpha  occ. eigenvalues --  -11.46719 -11.46342  -8.06427  -8.04342  -1.47892
 Alpha  occ. eigenvalues --   -1.31703  -1.19627  -1.07489  -0.90478  -0.81725
 Alpha  occ. eigenvalues --   -0.70416  -0.65274  -0.61564  -0.59185  -0.47593
 Alpha  occ. eigenvalues --   -0.42785  -0.40631  -0.36448  -0.33695  -0.32283
 Alpha  occ. eigenvalues --   -0.19091
 Alpha virt. eigenvalues --    0.02907   0.04081   0.05160   0.06235   0.06891
 Alpha virt. eigenvalues --    0.08015   0.11010   0.11662   0.12427   0.12966
 Alpha virt. eigenvalues --    0.13498   0.14055   0.14319   0.14781   0.16257

 Mulliken charges:
               1
     1  S    0.412516
     2  S    0.651319
     3  N   -2.596764
     4  N   -2.383343
     5  C    0.375205
     6  C   -0.921775
     7  H    0.581154
     8  H    0.511938
     9  H    1.752537
    10  H    1.617214
 Sum of Mulliken charges =   0.00000

 Dipole moment (field-independent basis, Debye):
    X=             -1.0537    Y=             -1.0524    Z=             -0.3850  Tot=              1.5382

 Test job not archived.
 1\1\GINC-SE168\SP\RHF\Aug-CC-pVDZ\C2H4N2S2\OHZDE\06-Apr-2025\0\\#t hf
 aug-cc-pvdz iop(5/13=1,5/36=2,99/5=2) pseudo=read geom=check guess=(re
 ad,tcheck) scf=(maxcycle=1)\\title\\0,1\S,0,-0.028479,-1.298792,0.1132
 08\S,0,-1.706091,-0.067083,-0.155054\N,0,0.494117,1.41113,0.230341\N,0
 ,2.31691,-0.066084,-0.43093\C,0,1.182581,0.157135,0.41223\C,0,-0.73992
 2,1.410171,-0.021635\H,0,2.101161,0.113195,-1.403505\H,0,3.105494,0.50
 3334,-0.149239\H,0,1.509307,0.087909,1.44913\H,0,-1.295978,2.330405,-0
 .166289\\Version=ES64L-G16RevC.01\State=1-A\HF=-983.3454502\RMSD=1.189

 Normal termination of Gaussian 16 at Sun Apr  6 08:05:18 2025.
