 Gaussian 16, Revision C.01,

 ----------------------------------------------------------------------
 #t hf aug-cc-pvdz symm=none int=(grid=ultrafine) guess=(read,tcheck) s
 table=(opt,rrhf)
 ----------------------------------------------------------------------
 -----
 title
 -----
 Symbolic Z-matrix:
 Charge =  0 Multiplicity = 1

 SCF Done:  E(RHF) =  -926.988103083     A.U. after   16 cycles
 Normal termination of Gaussian 16 at Sun Apr  6 08:04:56 2025.
 Gaussian 16:  ES64L-G16RevC.01  3-Jul-2019

 ----------------------------------------------------------------------
 #t hf aug-cc-pvdz iop(5/13=1,5/36=2,99/5=2) pseudo=read geom=check gue
 ss=(read,tcheck) scf=(maxcycle=1)
 ----------------------------------------------------------------------
 -----
 title
 -----
 Structure from the checkpoint file:  "3H-1-2-4-dithiazole.chk"
 Charge =  0 Multiplicity = 1

                         Standard orientation:
 ---------------------------------------------------------------------
 Center     Atomic      Atomic             Coordinates (Angstroms)
 Number     Number       Type             X           Y           Z
 ---------------------------------------------------------------------
      1         16           0        1.295601   -0.412021    0.082747
      2         16           0       -0.664807   -1.162625   -0.093069
      3          7           0       -0.479286    1.584300   -0.083568
      4          6           0        0.738132    1.267660   -0.100668
      5          6           0       -1.435057    0.543008    0.155054
      6          1           0        1.524839    2.007288   -0.203172
      7          1           0       -2.263983    0.603209   -0.546612
      8          1           0       -1.817013    0.629727    1.173604
 ---------------------------------------------------------------------

 SCF Done:  E(RHF) =  -928.048818930     A.U. after    2 cycles

 The electronic state is 1-A.
 Alpha  occ. eigenvalues --  -75.72435 -75.71016 -15.76132 -13.13981 -13.11812
 Alpha  occ. eigenvalues --  -13.10168 -13.08969 -13.04547 -13.02933 -11.46357
 Alpha  occ. eigenvalues --  -11.43908  -8.06577  -8.04912  -1.45511  -1.19448
 Alpha  occ. eigenvalues --   -1.12295  -0.91902  -0.81634  -0.65803  -0.64560
 Alpha  occ. eigenvalues --   -0.59091  -0.47053  -0.42628  -0.38763  -0.34375
 Alpha  occ. eigenvalues --   -0.32782  -0.19192
 Alpha virt. eigenvalues --    0.02735   0.03902   0.05687   0.06072   0.07165
 Alpha virt. eigenvalues --    0.10908   0.11127   0.11607   0.12820   0.13970
 Alpha virt. eigenvalues --    0.14012   0.14643   0.15317   0.16203   0.16852

 Mulliken charges:
               1
     1  S    0.655513
     2  S    0.336204
     3  N   -2.347016
     4  C   -0.439527
     5  C   -2.677111
     6  H    1.587637
     7  H    1.414227
     8  H    1.470074
 Sum of Mulliken charges =   0.00000

 Dipole moment (field-independent basis, Debye):
    X=              0.7574    Y=             -2.0819    Z=              0.1042  Tot=              2.2178

 Test job not archived.
 1\1\GINC-SE222\SP\RHF\Aug-CC-pVDZ\C2H3N1S2\OHZDE\06-Apr-2025\0\\#t hf
 aug-cc-pvdz iop(5/13=1,5/36=2,99/5=2) pseudo=read geom=check guess=(re
 ad,tcheck) scf=(maxcycle=1)\\title\\0,1\S,0,1.295602,-0.412017,0.08274
 7\S,0,-0.664803,-1.162627,-0.093069\N,0,-0.479291,1.584298,-0.083568\C
 ,0,0.738128,1.267662,-0.100668\C,0,-1.435059,0.543003,0.155054\H,0,1.5
 24832,2.007293,-0.203172\H,0,-2.263985,0.603202,-0.546612\H,0,-1.81701
 5,0.629721,1.173604\\Version=ES64L-G16RevC.01\State=1-A\HF=-928.048818
 9\RMSD=9.099e-02\Dipole=0.2979704,-0.8190637,0.0409785\Quadrupole=4.57

 Normal termination of Gaussian 16 at Sun Apr  6 08:05:17 2025.
