 Gaussian 16, Revision C.01,

 ----------------------------------------------------------------------
 #t hf aug-cc-pvdz symm=none int=(grid=ultrafine) guess=(read,tcheck) s
 table=(opt,rrhf)
 ----------------------------------------------------------------------
 -----
 title
 -----
 Symbolic Z-matrix:
 Charge =  0 Multiplicity = 1

 SCF Done:  E(RHF) =  -604.262123361     A.U. after   15 cycles
 Normal termination of Gaussian 16 at Sun Apr  6 08:04:55 2025.
 Gaussian 16:  ES64L-G16RevC.01  3-Jul-2019

 ----------------------------------------------------------------------
 #t hf aug-cc-pvdz iop(5/13=1,5/36=2,99/5=2) pseudo=read geom=check gue
 ss=(read,tcheck) scf=(maxcycle=1)
 ----------------------------------------------------------------------
 -----
 title
 -----
 Structure from the checkpoint file:  "3H-1-2-3-oxathiazole.chk"
 Charge =  0 Multiplicity = 1

                         Standard orientation:
 ---------------------------------------------------------------------
 Center     Atomic      Atomic             Coordinates (Angstroms)
 Number     Number       Type             X           Y           Z
 ---------------------------------------------------------------------
      1         16           0       -1.154148   -0.066919   -0.130433
      2          8           0        0.068806   -1.262764    0.214972
      3          7           0       -0.111862    1.263970    0.119104
      4          6           0        1.205240    0.713893   -0.140345
      5          6           0        1.248577   -0.612642   -0.043800
      6          1           0        2.033948    1.375479   -0.327363
      7          1           0       -0.169651    1.597164    1.080067
      8          1           0        2.111755   -1.255125   -0.114406
 ---------------------------------------------------------------------

 SCF Done:  E(RHF) =  -605.401737641     A.U. after    2 cycles

 The electronic state is 1-A.
 Alpha  occ. eigenvalues --  -75.75236 -21.09253 -15.77505 -13.20369 -13.17477
 Alpha  occ. eigenvalues --  -13.07942 -11.46979 -11.40703  -8.08885  -1.79821
 Alpha  occ. eigenvalues --   -1.40448  -1.12336  -0.95289  -0.82531  -0.72810
 Alpha  occ. eigenvalues --   -0.64728  -0.53496  -0.52942  -0.49157  -0.42714
 Alpha  occ. eigenvalues --   -0.38822  -0.32214  -0.20862
 Alpha virt. eigenvalues --    0.03238   0.05210   0.05351   0.07726   0.08867
 Alpha virt. eigenvalues --    0.10785   0.11029   0.12786   0.13373   0.14095
 Alpha virt. eigenvalues --    0.15188   0.15718   0.16260   0.18841   0.19708

 Mulliken charges:
               1
     1  S    1.541302
     2  O   -2.739102
     3  N   -2.750371
     4  C   -0.401352
     5  C    1.095884
     6  H    1.194658
     7  H    0.663889
     8  H    1.395092
 Sum of Mulliken charges =   0.00000

 Dipole moment (field-independent basis, Debye):
    X=              0.0855    Y=             -0.2563    Z=              0.6151  Tot=              0.6718

 Test job not archived.
 1\1\GINC-SE107\SP\RHF\Aug-CC-pVDZ\C2H3N1O1S1\OHZDE\06-Apr-2025\0\\#t h
 f aug-cc-pvdz iop(5/13=1,5/36=2,99/5=2) pseudo=read geom=check guess=(
 read,tcheck) scf=(maxcycle=1)\\title\\0,1\S,0,-1.154148,-0.066919,-0.1
 30433\O,0,0.068806,-1.262764,0.214972\N,0,-0.111862,1.26397,0.119104\C
 ,0,1.20524,0.713893,-0.140345\C,0,1.248577,-0.612642,-0.0438\H,0,2.033
 948,1.375479,-0.327363\H,0,-0.169651,1.597164,1.080067\H,0,2.111755,-1
 .255125,-0.114406\\Version=ES64L-G16RevC.01\State=1-A\HF=-605.4017376\
 RMSD=5.950e-01\Dipole=0.0336483,-0.1008167,0.2419849\Quadrupole=2.7623

 Normal termination of Gaussian 16 at Sun Apr  6 08:05:17 2025.
