 Gaussian 16, Revision C.01,

 ----------------------------------------------------------------------
 #t hf aug-cc-pvdz symm=none int=(grid=ultrafine) guess=(read,tcheck) s
 table=(opt,rrhf)
 ----------------------------------------------------------------------
 -----
 title
 -----
 Symbolic Z-matrix:
 Charge =  0 Multiplicity = 1

 SCF Done:  E(RHF) =  -281.567173453     A.U. after   14 cycles
 Normal termination of Gaussian 16 at Sun Apr  6 08:04:55 2025.
 Gaussian 16:  ES64L-G16RevC.01  3-Jul-2019

 ----------------------------------------------------------------------
 #t hf aug-cc-pvdz iop(5/13=1,5/36=2,99/5=2) pseudo=read geom=check gue
 ss=(read,tcheck) scf=(maxcycle=1)
 ----------------------------------------------------------------------
 -----
 title
 -----
 Structure from the checkpoint file:  "3H-1-2-4-dioxazole.chk"
 Charge =  0 Multiplicity = 1

                         Standard orientation:
 ---------------------------------------------------------------------
 Center     Atomic      Atomic             Coordinates (Angstroms)
 Number     Number       Type             X           Y           Z
 ---------------------------------------------------------------------
      1          8           0        0.891156   -0.824591    0.000333
      2          8           0       -0.557922   -1.054738   -0.000461
      3          7           0       -0.044879    1.222226   -0.000283
      4          6           0        1.000130    0.519723   -0.000070
      5          6           0       -1.143632    0.283845    0.000324
      6          1           0        2.022842    0.872055   -0.000125
      7          1           0       -1.756107    0.392725    0.898645
      8          1           0       -1.757438    0.392864   -0.897042
 ---------------------------------------------------------------------

 SCF Done:  E(RHF) =  -282.748666828     A.U. after    2 cycles

 The electronic state is 1-A.
 Alpha  occ. eigenvalues --  -21.14067 -21.11635 -15.74948 -11.48364 -11.45197
 Alpha  occ. eigenvalues --   -2.00249  -1.51000  -1.38773  -0.96550  -0.85105
 Alpha  occ. eigenvalues --   -0.71707  -0.68994  -0.58229  -0.54134  -0.47960
 Alpha  occ. eigenvalues --   -0.46472  -0.42587  -0.38306  -0.26690
 Alpha virt. eigenvalues --    0.03441   0.05454   0.06128   0.09437   0.09918
 Alpha virt. eigenvalues --    0.10496   0.11312   0.14753   0.15087   0.17582
 Alpha virt. eigenvalues --    0.17584   0.17781   0.17989   0.19506   0.21187

 Mulliken charges:
               1
     1  O   -1.678029
     2  O   -1.272211
     3  N   -2.493343
     4  C    2.127186
     5  C   -1.199572
     6  H    1.584980
     7  H    1.465671
     8  H    1.465319
 Sum of Mulliken charges =   0.00000

 Dipole moment (field-independent basis, Debye):
    X=              0.4509    Y=             -0.6659    Z=              0.0004  Tot=              0.8042

 Test job not archived.
 1\1\GINC-SE167\SP\RHF\Aug-CC-pVDZ\C2H3N1O2\OHZDE\06-Apr-2025\0\\#t hf
 aug-cc-pvdz iop(5/13=1,5/36=2,99/5=2) pseudo=read geom=check guess=(re
 ad,tcheck) scf=(maxcycle=1)\\title\\0,1\O,0,0.891155,-0.824592,0.00033
 3\O,0,-0.557923,-1.054738,-0.000461\N,0,-0.044878,1.222226,-0.000283\C
 ,0,1.000131,0.519722,-0.00007\C,0,-1.143632,0.283846,0.000324\H,0,2.02
 2843,0.872053,-0.000125\H,0,-1.756107,0.392727,0.898645\H,0,-1.757438,
 0.392866,-0.897042\\Version=ES64L-G16RevC.01\State=1-A\HF=-282.7486668
 \RMSD=6.547e-02\Dipole=0.1774149,-0.2619971,0.0001518\Quadrupole=3.781

 Normal termination of Gaussian 16 at Sun Apr  6 08:05:16 2025.
