 Gaussian 16, Revision C.01,

 ----------------------------------------------------------------------
 #t hf aug-cc-pvdz symm=none int=(grid=ultrafine) guess=(read,tcheck) s
 table=(opt,rrhf)
 ----------------------------------------------------------------------
 -----
 title
 -----
 Symbolic Z-matrix:
 Charge =  0 Multiplicity = 1

 SCF Done:  E(RHF) =  -910.982361930     A.U. after   15 cycles
 Normal termination of Gaussian 16 at Sun Apr  6 08:04:58 2025.
 Gaussian 16:  ES64L-G16RevC.01  3-Jul-2019

 ----------------------------------------------------------------------
 #t hf aug-cc-pvdz iop(5/13=1,5/36=2,99/5=2) pseudo=read geom=check gue
 ss=(read,tcheck) scf=(maxcycle=1)
 ----------------------------------------------------------------------
 -----
 title
 -----
 Structure from the checkpoint file:  "3H-1-2-dithiolene.chk"
 Charge =  0 Multiplicity = 1

                         Standard orientation:
 ---------------------------------------------------------------------
 Center     Atomic      Atomic             Coordinates (Angstroms)
 Number     Number       Type             X           Y           Z
 ---------------------------------------------------------------------
      1         16           0        1.327006   -0.375637    0.105858
      2         16           0       -0.627900   -1.176631   -0.128471
      3          6           0        0.766846    1.280061   -0.119461
      4          6           0       -1.496295    0.415715    0.204467
      5          6           0       -0.535996    1.534602   -0.083959
      6          1           0        1.537200    2.027810   -0.243628
      7          1           0       -1.848317    0.454828    1.239330
      8          1           0       -2.365633    0.428754   -0.452364
      9          1           0       -0.916283    2.542633   -0.187804
 ---------------------------------------------------------------------

 SCF Done:  E(RHF) =  -911.996146708     A.U. after    2 cycles

 The electronic state is 1-A.
 Alpha  occ. eigenvalues --  -75.71135 -75.70336 -13.13388 -13.12155 -13.09231
 Alpha  occ. eigenvalues --  -13.08602 -13.03323 -13.02247 -11.45235 -11.43499
 Alpha  occ. eigenvalues --  -11.39423  -8.05204  -8.04242  -1.33489  -1.10676
 Alpha  occ. eigenvalues --   -1.09309  -0.88634  -0.78655  -0.68822  -0.62094
 Alpha  occ. eigenvalues --   -0.53731  -0.45209  -0.43009  -0.41578  -0.34840
 Alpha  occ. eigenvalues --   -0.30012  -0.17849
 Alpha virt. eigenvalues --    0.02527   0.04373   0.05590   0.05817   0.06381
 Alpha virt. eigenvalues --    0.07074   0.11481   0.11584   0.13576   0.13851
 Alpha virt. eigenvalues --    0.13913   0.14699   0.15180   0.15559   0.15827

 Mulliken charges:
               1
     1  S    0.343073
     2  S    0.604565
     3  C   -1.971054
     4  C   -4.374708
     5  C    0.006222
     6  H    1.263717
     7  H    1.299175
     8  H    1.366265
     9  H    1.462746
 Sum of Mulliken charges =  -0.00000

 Dipole moment (field-independent basis, Debye):
    X=              0.2175    Y=             -0.7501    Z=              0.0409  Tot=              0.7821

 Test job not archived.
 1\1\GINC-SE085\SP\RHF\Aug-CC-pVDZ\C3H4S2\OHZDE\06-Apr-2025\0\\#t hf au
 g-cc-pvdz iop(5/13=1,5/36=2,99/5=2) pseudo=read geom=check guess=(read
 ,tcheck) scf=(maxcycle=1)\\title\\0,1\S,0,1.327006,-0.375637,0.105858\
 S,0,-0.6279,-1.176631,-0.128471\C,0,0.766846,1.280061,-0.119461\C,0,-1
 .496295,0.415715,0.204467\C,0,-0.535996,1.534602,-0.083959\H,0,1.5372,
 2.02781,-0.243628\H,0,-1.848317,0.454829,1.23933\H,0,-2.365633,0.42875
 5,-0.452364\H,0,-0.916283,2.542633,-0.187804\\Version=ES64L-G16RevC.01
 \State=1-A\HF=-911.9961467\RMSD=7.796e-01\Dipole=0.0855825,-0.2951301,

 Normal termination of Gaussian 16 at Sun Apr  6 08:05:17 2025.
