 Gaussian 16, Revision C.01,

 ----------------------------------------------------------------------
 #t hf aug-cc-pvdz symm=none int=(grid=ultrafine) guess=(read,tcheck) s
 table=(opt,rrhf)
 ----------------------------------------------------------------------
 -----
 title
 -----
 Symbolic Z-matrix:
 Charge =  0 Multiplicity = 1

 SCF Done:  E(RHF) =  -147.856744155     A.U. after   11 cycles
 Normal termination of Gaussian 16 at Sun Apr  6 08:05:16 2025.
 Gaussian 16:  ES64L-G16RevC.01  3-Jul-2019

 ----------------------------------------------------------------------
 #t hf aug-cc-pvdz iop(5/13=1,5/36=2,99/5=2) pseudo=read geom=check gue
 ss=(read,tcheck) scf=(maxcycle=1)
 ----------------------------------------------------------------------
 -----
 title
 -----
 Structure from the checkpoint file:  "3H-diazirine.chk"
 Charge =  0 Multiplicity = 1

                         Standard orientation:
 ---------------------------------------------------------------------
 Center     Atomic      Atomic             Coordinates (Angstroms)
 Number     Number       Type             X           Y           Z
 ---------------------------------------------------------------------
      1          6           0        0.000000    0.000000    0.808471
      2          7           0        0.000000    0.607849   -0.539787
      3          7           0       -0.000000   -0.607849   -0.539787
      4          1           0        0.931674   -0.000000    1.353097
      5          1           0       -0.931674    0.000000    1.353097
 ---------------------------------------------------------------------

 SCF Done:  E(RHF) =  -148.504563864     A.U. after    2 cycles

 The electronic state is 1-A1.
 Alpha  occ. eigenvalues --  -15.83765 -15.83519 -11.43226  -1.65385  -0.96826
 Alpha  occ. eigenvalues --   -0.87098  -0.69255  -0.63969  -0.53004  -0.45878
 Alpha  occ. eigenvalues --   -0.36042
 Alpha virt. eigenvalues --    0.03757   0.05664   0.09434   0.09855   0.11374
 Alpha virt. eigenvalues --    0.14906   0.15554   0.16442   0.17064   0.18407
 Alpha virt. eigenvalues --    0.20445   0.23966   0.26164   0.28365   0.29760

 Mulliken charges:
               1
     1  C   -1.486229
     2  N   -0.739983
     3  N   -0.739983
     4  H    1.483098
     5  H    1.483098
 Sum of Mulliken charges =  -0.00000

 Dipole moment (field-independent basis, Debye):
    X=              0.0000    Y=             -0.0000    Z=              1.2260  Tot=              1.2260

 Test job not archived.
 1\1\GINC-SE086\SP\RHF\Aug-CC-pVDZ\C1H2N2\OHZDE\06-Apr-2025\0\\#t hf au
 g-cc-pvdz iop(5/13=1,5/36=2,99/5=2) pseudo=read geom=check guess=(read
 ,tcheck) scf=(maxcycle=1)\\title\\0,1\C,0,0.,0.,0.808471\N,0,0.,0.6078
 49,-0.539787\N,0,0.,-0.607849,-0.539787\H,0,0.931674,0.,1.353097\H,0,-
 0.931674,0.,1.353097\\Version=ES64L-G16RevC.01\State=1-A1\HF=-148.5045
 639\RMSD=1.051e-01\Dipole=0.,0.,0.4823492\Quadrupole=1.2374978,-1.3629
 392,0.1254414,0.,0.,0.\PG=C02V [C2(C1),SGV(N2),SGV'(H2)]\\@

 Normal termination of Gaussian 16 at Sun Apr  6 08:05:18 2025.
