 Gaussian 16, Revision C.01,

 ----------------------------------------------------------------------
 #t hf aug-cc-pvdz symm=none int=(grid=ultrafine) guess=(read,tcheck) s
 table=(opt,rrhf)
 ----------------------------------------------------------------------
 -----
 title
 -----
 Symbolic Z-matrix:
 Charge =  0 Multiplicity = 1

 SCF Done:  E(RHF) =  -926.957544244     A.U. after   16 cycles
 Normal termination of Gaussian 16 at Sun Apr  6 08:04:56 2025.
 Gaussian 16:  ES64L-G16RevC.01  3-Jul-2019

 ----------------------------------------------------------------------
 #t hf aug-cc-pvdz iop(5/13=1,5/36=2,99/5=2) pseudo=read geom=check gue
 ss=(read,tcheck) scf=(maxcycle=1)
 ----------------------------------------------------------------------
 -----
 title
 -----
 Structure from the checkpoint file:  "3H-dithiazole.chk"
 Charge =  0 Multiplicity = 1

                         Standard orientation:
 ---------------------------------------------------------------------
 Center     Atomic      Atomic             Coordinates (Angstroms)
 Number     Number       Type             X           Y           Z
 ---------------------------------------------------------------------
      1         16           0       -0.665332   -1.105338   -0.182687
      2         16           0        1.328504   -0.380759    0.146421
      3          7           0       -1.448430    0.367388    0.222713
      4          6           0        0.727120    1.257200   -0.172811
      5          6           0       -0.585499    1.466417   -0.095672
      6          1           0       -1.727962    0.395578    1.201544
      7          1           0        1.454704    2.032023   -0.360302
      8          1           0       -1.048219    2.436541   -0.209095
 ---------------------------------------------------------------------

 SCF Done:  E(RHF) =  -928.024494358     A.U. after    2 cycles

 The electronic state is 1-A.
 Alpha  occ. eigenvalues --  -75.73189 -75.71443 -15.77665 -13.17901 -13.13307
 Alpha  occ. eigenvalues --  -13.10299 -13.08684 -13.06073 -13.03230 -11.45905
 Alpha  occ. eigenvalues --  -11.40726  -8.07043  -8.05447  -1.45910  -1.19193
 Alpha  occ. eigenvalues --   -1.11332  -0.92377  -0.80993  -0.71122  -0.63438
 Alpha  occ. eigenvalues --   -0.52853  -0.46784  -0.44859  -0.41228  -0.32525
 Alpha  occ. eigenvalues --   -0.30141  -0.18967
 Alpha virt. eigenvalues --    0.02808   0.04493   0.05606   0.06263   0.06684
 Alpha virt. eigenvalues --    0.10625   0.11236   0.12081   0.12819   0.14267
 Alpha virt. eigenvalues --    0.14621   0.15606   0.15741   0.16766   0.16952

 Mulliken charges:
               1
     1  S    0.522029
     2  S    0.271929
     3  N   -2.451551
     4  C   -1.025751
     5  C   -0.506201
     6  H    0.602926
     7  H    1.234552
     8  H    1.352066
 Sum of Mulliken charges =   0.00000

 Dipole moment (field-independent basis, Debye):
    X=              0.6443    Y=             -0.6429    Z=              0.5025  Tot=              1.0397

 Test job not archived.
 1\1\GINC-SE086\SP\RHF\Aug-CC-pVDZ\C2H3N1S2\OHZDE\06-Apr-2025\0\\#t hf
 aug-cc-pvdz iop(5/13=1,5/36=2,99/5=2) pseudo=read geom=check guess=(re
 ad,tcheck) scf=(maxcycle=1)\\title\\0,1\S,0,-0.665329,-1.10534,-0.1826
 87\S,0,1.328505,-0.380755,0.146421\N,0,-1.448431,0.367384,0.222713\C,0
 ,0.727116,1.257202,-0.172811\C,0,-0.585503,1.466416,-0.095672\H,0,-1.7
 27963,0.395573,1.201544\H,0,1.454698,2.032027,-0.360302\H,0,-1.048226,
 2.436538,-0.209095\\Version=ES64L-G16RevC.01\State=1-A\HF=-928.0244944
 \RMSD=5.813e-01\Dipole=0.2534954,-0.2529325,0.1977058\Quadrupole=1.349

 Normal termination of Gaussian 16 at Sun Apr  6 08:05:17 2025.
