 Gaussian 16, Revision C.01,

 ----------------------------------------------------------------------
 #t hf aug-cc-pvdz symm=none int=(grid=ultrafine) guess=(read,tcheck) s
 table=(opt,rrhf)
 ----------------------------------------------------------------------
 -----
 title
 -----
 Symbolic Z-matrix:
 Charge =  0 Multiplicity = 1

 SCF Done:  E(RHF) =  -461.751738209     A.U. after   15 cycles
 Normal termination of Gaussian 16 at Sun Apr  6 08:07:17 2025.
 Gaussian 16:  ES64L-G16RevC.01  3-Jul-2019

 ----------------------------------------------------------------------
 #t hf aug-cc-pvdz iop(5/13=1,5/36=2,99/5=2) pseudo=read geom=check gue
 ss=(read,tcheck) scf=(maxcycle=1)
 ----------------------------------------------------------------------
 -----
 title
 -----
 Structure from the checkpoint file:  "4-2-methyl-2-propanylphenol.chk"
 Charge =  0 Multiplicity = 1

                         Standard orientation:
 ---------------------------------------------------------------------
 Center     Atomic      Atomic             Coordinates (Angstroms)
 Number     Number       Type             X           Y           Z
 ---------------------------------------------------------------------
      1          6           0       -1.115443   -0.498903    0.000000
      2          6           0        1.250967   -0.260855    0.000000
      3          6           0       -0.986607   -1.880476    0.000000
      4          6           0        1.399896   -1.643053    0.000000
      5          6           0       -0.004568    0.350470    0.000000
      6          6           0        0.278520   -2.460677    0.000000
      7          6           0       -0.986607    2.295203    1.257771
      8          6           0       -0.986607    2.295203   -1.257771
      9          6           0        1.138805    2.629595    0.000000
     10          6           0       -0.198372    1.873754    0.000000
     11          8           0        0.472057   -3.816729    0.000000
     12          1           0       -2.113690   -0.082584    0.000000
     13          1           0        2.147758    0.340453    0.000000
     14          1           0       -1.871422   -2.506840    0.000000
     15          1           0        2.382431   -2.094241    0.000000
     16          1           0       -1.134610    3.376937    1.269176
     17          1           0       -1.969239    1.825058    1.295308
     18          1           0       -0.449010    2.016368    2.165116
     19          1           0       -1.969239    1.825058   -1.295308
     20          1           0       -1.134610    3.376937   -1.269176
     21          1           0       -0.449010    2.016368   -2.165116
     22          1           0        0.952247    3.704407    0.000000
     23          1           0        1.735409    2.400064    0.883926
     24          1           0        1.735409    2.400064   -0.883926
     25          1           0       -0.378786   -4.265777    0.000000
 ---------------------------------------------------------------------

 SCF Done:  E(RHF) =  -463.997869108     A.U. after    2 cycles

 The electronic state is 1-A'.
 Alpha  occ. eigenvalues --  -21.09853 -11.52109 -11.45593 -11.44034 -11.43413
 Alpha  occ. eigenvalues --  -11.41791 -11.40180 -11.39233 -11.38344 -11.37875
 Alpha  occ. eigenvalues --  -11.35559  -1.75131  -1.35798  -1.23246  -1.09540
 Alpha  occ. eigenvalues --   -1.05363  -1.00351  -1.00345  -0.87542  -0.86538
 Alpha  occ. eigenvalues --   -0.77880  -0.69983  -0.65594  -0.63042  -0.60978
 Alpha  occ. eigenvalues --   -0.60466  -0.57887  -0.57715  -0.54875  -0.54244
 Alpha  occ. eigenvalues --   -0.52863  -0.51001  -0.50993  -0.47215  -0.44965
 Alpha  occ. eigenvalues --   -0.43164  -0.41008  -0.40269  -0.39428  -0.33096
 Alpha  occ. eigenvalues --   -0.26179
 Alpha virt. eigenvalues --    0.03480   0.04701   0.04945   0.05473   0.05572
 Alpha virt. eigenvalues --    0.05750   0.06365   0.06508   0.06806   0.07506
 Alpha virt. eigenvalues --    0.07963   0.08971   0.09550   0.10243   0.10705

 Mulliken charges:
               1
     1  C   -0.699339
     2  C   -1.449009
     3  C   -5.753060
     4  C   -3.198505
     5  C    5.146777
     6  C    4.154472
     7  C   -5.035786
     8  C   -5.035786
     9  C   -5.223415
    10  C    2.088035
    11  O   -4.470342
    12  H    1.974258
    13  H    1.797359
    14  H    1.599495
    15  H    1.726661
    16  H    1.269171
    17  H    1.367778
    18  H    1.228913
    19  H    1.367778
    20  H    1.269171
    21  H    1.228913
    22  H    0.957489
    23  H    1.334965
    24  H    1.334965
    25  H    1.019041
 Sum of Mulliken charges =   0.00000

 Dipole moment (field-independent basis, Debye):
    X=             -0.5568    Y=             -0.2100    Z=              0.0000  Tot=              0.5950

 Test job not archived.
 1\1\GINC-SE276\SP\RHF\Aug-CC-pVDZ\C10H14O1\OHZDE\06-Apr-2025\0\\#t hf
 aug-cc-pvdz iop(5/13=1,5/36=2,99/5=2) pseudo=read geom=check guess=(re
 ad,tcheck) scf=(maxcycle=1)\\title\\0,1\C,0,-1.115443,-0.498903,0.\C,0
 ,1.250967,-0.260855,0.\C,0,-0.986607,-1.880476,0.\C,0,1.399896,-1.6430
 53,0.\C,0,-0.004568,0.35047,0.\C,0,0.27852,-2.460677,0.\C,0,-0.986607,
 2.295203,1.257771\C,0,-0.986607,2.295203,-1.257771\C,0,1.138805,2.6295
 95,0.\C,0,-0.198372,1.873754,0.\O,0,0.472057,-3.816729,0.\H,0,-2.11369
 ,-0.082584,0.\H,0,2.147758,0.340453,0.\H,0,-1.871422,-2.50684,0.\H,0,2

 Normal termination of Gaussian 16 at Sun Apr  6 08:07:28 2025.
