 Gaussian 16, Revision C.01,

 ----------------------------------------------------------------------
 #t hf aug-cc-pvdz symm=none int=(grid=ultrafine) guess=(read,tcheck) s
 table=(opt,rrhf)
 ----------------------------------------------------------------------
 -----
 title
 -----
 Symbolic Z-matrix:
 Charge =  0 Multiplicity = 1

 SCF Done:  E(RHF) =  -501.237978761     A.U. after   16 cycles
 Normal termination of Gaussian 16 at Sun Apr  6 08:05:03 2025.
 Gaussian 16:  ES64L-G16RevC.01  3-Jul-2019

 ----------------------------------------------------------------------
 #t hf aug-cc-pvdz iop(5/13=1,5/36=2,99/5=2) pseudo=read geom=check gue
 ss=(read,tcheck) scf=(maxcycle=1)
 ----------------------------------------------------------------------
 -----
 title
 -----
 Structure from the checkpoint file:  "4-4-difluoro-2-butynoic_acid.chk"
 Charge =  0 Multiplicity = 1

                         Standard orientation:
 ---------------------------------------------------------------------
 Center     Atomic      Atomic             Coordinates (Angstroms)
 Number     Number       Type             X           Y           Z
 ---------------------------------------------------------------------
      1          9           0        2.506325    1.085625   -0.291206
      2          9           0        2.521596   -0.878303    0.707492
      3          8           0       -2.800863   -1.049313   -0.310556
      4          8           0       -2.668371    1.055585    0.407816
      5          6           0        1.976955   -0.173421   -0.324959
      6          6           0        0.523022   -0.117121   -0.183650
      7          6           0       -0.674290   -0.101787   -0.111486
      8          6           0       -2.125829   -0.103987   -0.024120
      9          1           0       -1.980086    1.705683    0.601006
     10          1           0        2.283524   -0.643865   -1.260372
 ---------------------------------------------------------------------

 SCF Done:  E(RHF) =  -503.195146760     A.U. after    2 cycles

 The electronic state is 1-A.
 Alpha  occ. eigenvalues --  -29.31486 -29.31421 -21.15390 -21.08647 -11.62207
 Alpha  occ. eigenvalues --  -11.58765 -11.48027 -11.46167  -1.85483  -1.68690
 Alpha  occ. eigenvalues --   -1.36653  -1.15111  -0.94804  -0.83578  -0.80167
 Alpha  occ. eigenvalues --   -0.78020  -0.74859  -0.59923  -0.58283  -0.51361
 Alpha  occ. eigenvalues --   -0.46773  -0.44805  -0.43297  -0.39993  -0.36263
 Alpha  occ. eigenvalues --   -0.34499  -0.33901  -0.31397  -0.30188  -0.24645
 Alpha virt. eigenvalues --    0.03091   0.04716   0.07532   0.10081   0.10241
 Alpha virt. eigenvalues --    0.10913   0.11428   0.11613   0.12059   0.12986
 Alpha virt. eigenvalues --    0.13714   0.15492   0.16061   0.17033   0.18747

 Mulliken charges:
               1
     1  F    0.311288
     2  F    0.325548
     3  O   -2.965202
     4  O   -2.845930
     5  C   -2.498122
     6  C    1.816428
     7  C   -0.631968
     8  C    4.391222
     9  H    1.060289
    10  H    1.036446
 Sum of Mulliken charges =  -0.00000

 Dipole moment (field-independent basis, Debye):
    X=              3.1466    Y=              1.8432    Z=              1.2315  Tot=              3.8491

 Test job not archived.
 1\1\GINC-SE289\SP\RHF\Aug-CC-pVDZ\C4H2F2O2\OHZDE\06-Apr-2025\0\\#t hf
 aug-cc-pvdz iop(5/13=1,5/36=2,99/5=2) pseudo=read geom=check guess=(re
 ad,tcheck) scf=(maxcycle=1)\\title\\0,1\F,0,2.506325,1.085625,-0.29120
 6\F,0,2.521596,-0.878303,0.707492\O,0,-2.800863,-1.049313,-0.310556\O,
 0,-2.668371,1.055585,0.407816\C,0,1.976955,-0.173421,-0.324959\C,0,0.5
 23022,-0.117121,-0.18365\C,0,-0.67429,-0.101787,-0.111486\C,0,-2.12582
 9,-0.103987,-0.02412\H,0,-1.980086,1.705683,0.601006\H,0,2.283524,-0.6
 43865,-1.260372\\Version=ES64L-G16RevC.01\State=1-A\HF=-503.1951468\RM

 Normal termination of Gaussian 16 at Sun Apr  6 08:05:18 2025.
