 Gaussian 16, Revision C.01,

 ----------------------------------------------------------------------
 #t hf aug-cc-pvdz symm=none int=(grid=ultrafine) guess=(read,tcheck) s
 table=(opt,rrhf)
 ----------------------------------------------------------------------
 -----
 title
 -----
 Symbolic Z-matrix:
 Charge =  0 Multiplicity = 1

 SCF Done:  E(RHF) =  -1042.96167542     A.U. after   15 cycles
 Normal termination of Gaussian 16 at Sun Apr  6 08:05:42 2025.
 Gaussian 16:  ES64L-G16RevC.01  3-Jul-2019

 ----------------------------------------------------------------------
 #t hf aug-cc-pvdz iop(5/13=1,5/36=2,99/5=2) pseudo=read geom=check gue
 ss=(read,tcheck) scf=(maxcycle=1)
 ----------------------------------------------------------------------
 -----
 title
 -----
 Structure from the checkpoint file:  "4-5-dimethyl-1-3-thiazole-23H-thione.chk"
 Charge =  0 Multiplicity = 1

                         Standard orientation:
 ---------------------------------------------------------------------
 Center     Atomic      Atomic             Coordinates (Angstroms)
 Number     Number       Type             X           Y           Z
 ---------------------------------------------------------------------
      1          6           0        2.045287    1.959573    0.000020
      2          6           0        1.079023    0.821006    0.000009
      3          6           0        1.317642   -0.506197    0.000000
      4          6           0        2.614953   -1.243781    0.000000
      5         16           0       -0.210914   -1.391881   -0.000010
      6          6           0       -1.168018    0.085615   -0.000003
      7          7           0       -0.281545    1.116807    0.000007
      8         16           0       -2.819584    0.202116   -0.000008
      9          1           0        1.909294    2.589853   -0.881908
     10          1           0        3.071241    1.602683    0.000021
     11          1           0        1.909289    2.589840    0.881956
     12          1           0        2.709293   -1.883500   -0.879789
     13          1           0        2.709288   -1.883511    0.879781
     14          1           0        3.456495   -0.553476    0.000007
     15          1           0       -0.639431    2.059413    0.000012
 ---------------------------------------------------------------------

 SCF Done:  E(RHF) =  -1044.60573915     A.U. after    2 cycles

 The electronic state is 1-A.
 Alpha  occ. eigenvalues --  -75.72391 -75.63361 -15.81337 -13.19236 -13.16590
 Alpha  occ. eigenvalues --  -13.12638 -13.04565 -12.97233 -12.94486 -11.49759
 Alpha  occ. eigenvalues --  -11.49392 -11.44190 -11.43616 -11.39868  -8.06819
 Alpha  occ. eigenvalues --   -7.97472  -1.53793  -1.24419  -1.20975  -1.08757
 Alpha  occ. eigenvalues --   -1.07794  -0.96712  -0.83442  -0.78303  -0.67417
 Alpha  occ. eigenvalues --   -0.64155  -0.60833  -0.59188  -0.57915  -0.55616
 Alpha  occ. eigenvalues --   -0.53872  -0.53123  -0.43482  -0.39830  -0.37969
 Alpha  occ. eigenvalues --   -0.33288  -0.20673  -0.19311
 Alpha virt. eigenvalues --    0.01553   0.04067   0.05251   0.05475   0.05845
 Alpha virt. eigenvalues --    0.06020   0.06791   0.07804   0.08843   0.09516
 Alpha virt. eigenvalues --    0.10057   0.11006   0.11948   0.12369   0.12894

 Mulliken charges:
               1
     1  C   -4.578230
     2  C    1.759110
     3  C    1.869526
     4  C   -4.659337
     5  S    1.546483
     6  C   -1.275795
     7  N   -4.101771
     8  S    1.351129
     9  H    1.135797
    10  H    1.223044
    11  H    1.135798
    12  H    1.233278
    13  H    1.233279
    14  H    1.299561
    15  H    0.828128
 Sum of Mulliken charges =  -0.00000

 Dipole moment (field-independent basis, Debye):
    X=              3.1812    Y=             -0.2740    Z=              0.0000  Tot=              3.1930

 Test job not archived.
 1\1\GINC-SE434\SP\RHF\Aug-CC-pVDZ\C5H7N1S2\OHZDE\06-Apr-2025\0\\#t hf
 aug-cc-pvdz iop(5/13=1,5/36=2,99/5=2) pseudo=read geom=check guess=(re
 ad,tcheck) scf=(maxcycle=1)\\title\\0,1\C,0,2.045287,1.959573,0.00002\
 C,0,1.079023,0.821006,0.000009\C,0,1.317642,-0.506197,0.\C,0,2.614953,
 -1.243781,0.\S,0,-0.210914,-1.391881,-0.00001\C,0,-1.168018,0.085615,-
 0.000003\N,0,-0.281545,1.116807,0.000007\S,0,-2.819584,0.202116,-0.000
 008\H,0,1.909294,2.589853,-0.881908\H,0,3.071241,1.602683,0.000021\H,0
 ,1.909289,2.58984,0.881956\H,0,2.709293,-1.8835,-0.879789\H,0,2.709288

 Normal termination of Gaussian 16 at Sun Apr  6 08:05:49 2025.
