 Gaussian 16, Revision C.01,

 ----------------------------------------------------------------------
 #t hf aug-cc-pvdz symm=none int=(grid=ultrafine) guess=(read,tcheck) s
 table=(opt,rrhf)
 ----------------------------------------------------------------------
 -----
 title
 -----
 Symbolic Z-matrix:
 Charge =  0 Multiplicity = 1

 SCF Done:  E(RHF) =  -981.983987483     A.U. after   16 cycles
 Normal termination of Gaussian 16 at Sun Apr  6 08:05:26 2025.
 Gaussian 16:  ES64L-G16RevC.01  3-Jul-2019

 ----------------------------------------------------------------------
 #t hf aug-cc-pvdz iop(5/13=1,5/36=2,99/5=2) pseudo=read geom=check gue
 ss=(read,tcheck) scf=(maxcycle=1)
 ----------------------------------------------------------------------
 -----
 title
 -----
 Structure from the checkpoint file:  "4-5-dihydro-1-2-3-thiadiazole-4-thiol.chk"
 Charge =  0 Multiplicity = 1

                         Standard orientation:
 ---------------------------------------------------------------------
 Center     Atomic      Atomic             Coordinates (Angstroms)
 Number     Number       Type             X           Y           Z
 ---------------------------------------------------------------------
      1         16           0       -1.983658   -0.378275   -0.077921
      2         16           0        2.278646   -0.016762   -0.202915
      3          7           0       -0.053374    1.287591    0.110852
      4          7           0       -1.248787    1.259796   -0.126326
      5          6           0        0.571612   -0.012113    0.475502
      6          6           0       -0.332408   -1.149797   -0.006743
      7          1           0        2.698054   -1.070500    0.520774
      8          1           0        0.640671    0.011826    1.564772
      9          1           0       -0.043820   -1.503899   -0.993521
     10          1           0       -0.334803   -1.977092    0.697118
 ---------------------------------------------------------------------

 SCF Done:  E(RHF) =  -983.301291627     A.U. after    2 cycles

 The electronic state is 1-A.
 Alpha  occ. eigenvalues --  -75.71845 -75.71052 -15.83578 -15.81248 -13.16496
 Alpha  occ. eigenvalues --  -13.14546 -13.13374 -13.11925 -13.05233 -13.04075
 Alpha  occ. eigenvalues --  -11.48734 -11.42272  -8.05933  -8.04932  -1.59856
 Alpha  occ. eigenvalues --   -1.25154  -1.19088  -1.06383  -0.91206  -0.81181
 Alpha  occ. eigenvalues --   -0.70968  -0.65070  -0.58245  -0.57092  -0.51496
 Alpha  occ. eigenvalues --   -0.50225  -0.46196  -0.38448  -0.32693  -0.25869
 Alpha  occ. eigenvalues --   -0.25460
 Alpha virt. eigenvalues --    0.02286   0.04414   0.04782   0.05780   0.07437
 Alpha virt. eigenvalues --    0.08093   0.09736   0.10287   0.11544   0.12334
 Alpha virt. eigenvalues --    0.13300   0.13905   0.14857   0.15385   0.16037

 Mulliken charges:
               1
     1  S    1.463939
     2  S   -0.232388
     3  N   -0.518772
     4  N   -1.144501
     5  C   -1.654235
     6  C   -3.288012
     7  H    0.977555
     8  H    1.582901
     9  H    1.514124
    10  H    1.299389
 Sum of Mulliken charges =  -0.00000

 Dipole moment (field-independent basis, Debye):
    X=             -0.2500    Y=             -2.1837    Z=             -0.3005  Tot=              2.2184

 Test job not archived.
 1\1\GINC-SE398\SP\RHF\Aug-CC-pVDZ\C2H4N2S2\OHZDE\06-Apr-2025\0\\#t hf
 aug-cc-pvdz iop(5/13=1,5/36=2,99/5=2) pseudo=read geom=check guess=(re
 ad,tcheck) scf=(maxcycle=1)\\title\\0,1\S,0,-1.983658,-0.378275,-0.077
 921\S,0,2.278646,-0.016762,-0.202915\N,0,-0.053374,1.287591,0.110852\N
 ,0,-1.248787,1.259796,-0.126326\C,0,0.571612,-0.012113,0.475502\C,0,-0
 .332408,-1.149797,-0.006743\H,0,2.698054,-1.0705,0.520774\H,0,0.640671
 ,0.011826,1.564772\H,0,-0.04382,-1.503899,-0.993521\H,0,-0.334803,-1.9
 77092,0.697118\\Version=ES64L-G16RevC.01\State=1-A\HF=-983.3012916\RMS

 Normal termination of Gaussian 16 at Sun Apr  6 08:05:30 2025.
