 Gaussian 16, Revision C.01,

 ----------------------------------------------------------------------
 #t hf aug-cc-pvdz symm=none int=(grid=ultrafine) guess=(read,tcheck) s
 table=(opt,rrhf)
 ----------------------------------------------------------------------
 -----
 title
 -----
 Symbolic Z-matrix:
 Charge =  0 Multiplicity = 1

 SCF Done:  E(RHF) =  -298.424592618     A.U. after   16 cycles
 Normal termination of Gaussian 16 at Sun Apr  6 08:04:57 2025.
 Gaussian 16:  ES64L-G16RevC.01  3-Jul-2019

 ----------------------------------------------------------------------
 #t hf aug-cc-pvdz iop(5/13=1,5/36=2,99/5=2) pseudo=read geom=check gue
 ss=(read,tcheck) scf=(maxcycle=1)
 ----------------------------------------------------------------------
 -----
 title
 -----
 Structure from the checkpoint file:  "4-5-didehydro-1-3-dihydro-2H-imidazol-2-one.chk"
 Charge =  0 Multiplicity = 1

                         Standard orientation:
 ---------------------------------------------------------------------
 Center     Atomic      Atomic             Coordinates (Angstroms)
 Number     Number       Type             X           Y           Z
 ---------------------------------------------------------------------
      1          8           0       -1.905063    0.000001    0.000000
      2          7           0        0.190297    1.107884    0.120754
      3          7           0        0.190296   -1.107884   -0.120755
      4          6           0       -0.714324    0.000000    0.000000
      5          6           0        1.431605    0.685517   -0.183402
      6          6           0        1.431604   -0.685518    0.183403
      7          1           0       -0.158478    2.033494   -0.089560
      8          1           0       -0.158483   -2.033493    0.089561
 ---------------------------------------------------------------------

 SCF Done:  E(RHF) =  -299.695178238     A.U. after    2 cycles

 The electronic state is 1-A.
 Alpha  occ. eigenvalues --  -21.10233 -15.83319 -15.83279 -11.56299 -11.44178
 Alpha  occ. eigenvalues --  -11.41502  -1.78304  -1.57846  -1.35581  -1.04337
 Alpha  occ. eigenvalues --   -0.90651  -0.82245  -0.68628  -0.65588  -0.64502
 Alpha  occ. eigenvalues --   -0.56069  -0.47294  -0.46259  -0.39396  -0.38214
 Alpha  occ. eigenvalues --   -0.31590
 Alpha virt. eigenvalues --    0.03249   0.03541   0.05607   0.08881   0.09423
 Alpha virt. eigenvalues --    0.10066   0.10935   0.11417   0.12222   0.12751
 Alpha virt. eigenvalues --    0.15014   0.15118   0.15319   0.16618   0.17706

 Mulliken charges:
               1
     1  O   -2.754499
     2  N   -1.958238
     3  N   -1.958238
     4  C    4.493237
     5  C    0.376389
     6  C    0.376391
     7  H    0.712480
     8  H    0.712479
 Sum of Mulliken charges =   0.00000

 Dipole moment (field-independent basis, Debye):
    X=             -3.3678    Y=              0.0000    Z=             -0.0000  Tot=              3.3678

 Test job not archived.
 1\1\GINC-SE344\SP\RHF\Aug-CC-pVDZ\C3H2N2O1\OHZDE\06-Apr-2025\0\\#t hf
 aug-cc-pvdz iop(5/13=1,5/36=2,99/5=2) pseudo=read geom=check guess=(re
 ad,tcheck) scf=(maxcycle=1)\\title\\0,1\O,0,-1.905063,0.,0.\N,0,0.1902
 97,1.107884,0.120754\N,0,0.190296,-1.107884,-0.120755\C,0,-0.714324,0.
 ,0.\C,0,1.431605,0.685517,-0.183402\C,0,1.431604,-0.685518,0.183403\H,
 0,-0.158479,2.033494,-0.08956\H,0,-0.158482,-2.033493,0.089561\\Versio
 n=ES64L-G16RevC.01\State=1-A\HF=-299.6951782\RMSD=1.650e-01\Dipole=-1.
 3249893,0.0000011,-0.0000004\Quadrupole=-7.1611012,5.6430854,1.5180158

 Normal termination of Gaussian 16 at Sun Apr  6 08:05:17 2025.
