 Gaussian 16, Revision C.01,

 ----------------------------------------------------------------------
 #t hf aug-cc-pvdz symm=none int=(grid=ultrafine) guess=(read,tcheck) s
 table=(opt,rrhf)
 ----------------------------------------------------------------------
 -----
 title
 -----
 Symbolic Z-matrix:
 Charge =  0 Multiplicity = 1

 SCF Done:  E(RHF) =  -643.307971732     A.U. after   14 cycles
 Normal termination of Gaussian 16 at Sun Apr  6 08:05:07 2025.
 Gaussian 16:  ES64L-G16RevC.01  3-Jul-2019

 ----------------------------------------------------------------------
 #t hf aug-cc-pvdz iop(5/13=1,5/36=2,99/5=2) pseudo=read geom=check gue
 ss=(read,tcheck) scf=(maxcycle=1)
 ----------------------------------------------------------------------
 -----
 title
 -----
 Structure from the checkpoint file:  "4-5-dihydro-1-2-thiazole-1-oxide.chk"
 Charge =  0 Multiplicity = 1

                         Standard orientation:
 ---------------------------------------------------------------------
 Center     Atomic      Atomic             Coordinates (Angstroms)
 Number     Number       Type             X           Y           Z
 ---------------------------------------------------------------------
      1          6           0       -1.612174    0.568511    0.325815
      2          6           0       -1.359474   -0.903273    0.131974
      3          6           0       -0.398399    1.283143   -0.255369
      4          7           0       -0.231575   -1.335367   -0.251174
      5          8           0        1.735392    0.014127    0.833141
      6         16           0        0.935671   -0.012414   -0.425050
      7          1           0       -2.539917    0.860499   -0.169257
      8          1           0       -1.752446    0.764996    1.391742
      9          1           0       -2.153498   -1.621061    0.337364
     10          1           0       -0.586581    1.674298   -1.253682
     11          1           0        0.019871    2.064161    0.373207
 ---------------------------------------------------------------------

 SCF Done:  E(RHF) =  -644.677595604     A.U. after    2 cycles

 The electronic state is 1-A.
 Alpha  occ. eigenvalues --  -75.80484 -21.01050 -15.76329 -13.35270 -13.22280
 Alpha  occ. eigenvalues --  -13.19779 -11.48326 -11.45176 -11.40599  -8.14622
 Alpha  occ. eigenvalues --   -1.69939  -1.43053  -1.18422  -1.07952  -0.89380
 Alpha  occ. eigenvalues --   -0.81035  -0.70546  -0.68200  -0.57032  -0.55581
 Alpha  occ. eigenvalues --   -0.53116  -0.49407  -0.48068  -0.40935  -0.36225
 Alpha  occ. eigenvalues --   -0.32916  -0.26305
 Alpha virt. eigenvalues --    0.02427   0.04556   0.05192   0.05448   0.06147
 Alpha virt. eigenvalues --    0.08339   0.09693   0.09897   0.10983   0.11459
 Alpha virt. eigenvalues --    0.12917   0.13360   0.14142   0.14934   0.15693

 Mulliken charges:
               1
     1  C   -2.708940
     2  C    0.567747
     3  C   -3.695150
     4  N   -2.968853
     5  O   -2.380669
     6  S    3.963049
     7  H    1.332784
     8  H    1.417063
     9  H    1.565493
    10  H    1.481746
    11  H    1.425730
 Sum of Mulliken charges =  -0.00000

 Dipole moment (field-independent basis, Debye):
    X=             -2.5517    Y=              1.5896    Z=             -0.8208  Tot=              3.1163

 Test job not archived.
 1\1\GINC-SE432\SP\RHF\Aug-CC-pVDZ\C3H5N1O1S1\OHZDE\06-Apr-2025\0\\#t h
 f aug-cc-pvdz iop(5/13=1,5/36=2,99/5=2) pseudo=read geom=check guess=(
 read,tcheck) scf=(maxcycle=1)\\title\\0,1\C,0,-1.612174,0.568511,0.325
 815\C,0,-1.359474,-0.903273,0.131974\C,0,-0.398399,1.283143,-0.255369\
 N,0,-0.231575,-1.335367,-0.251174\O,0,1.735392,0.014128,0.833141\S,0,0
 .935671,-0.012414,-0.42505\H,0,-2.539917,0.860498,-0.169257\H,0,-1.752
 446,0.764996,1.391742\H,0,-2.153498,-1.621061,0.337364\H,0,-0.586582,1
 .674298,-1.253682\H,0,0.01987,2.064161,0.373207\\Version=ES64L-G16RevC

 Normal termination of Gaussian 16 at Sun Apr  6 08:05:18 2025.
