 Gaussian 16, Revision C.01,

 ----------------------------------------------------------------------
 #t hf aug-cc-pvdz symm=none int=(grid=ultrafine) guess=(read,tcheck) s
 table=(opt,rrhf)
 ----------------------------------------------------------------------
 -----
 title
 -----
 Symbolic Z-matrix:
 Charge =  0 Multiplicity = 1

 SCF Done:  E(RHF) =  -496.921523303     A.U. after   15 cycles
 Normal termination of Gaussian 16 at Sun Apr  6 08:10:19 2025.
 Gaussian 16:  ES64L-G16RevC.01  3-Jul-2019

 ----------------------------------------------------------------------
 #t hf aug-cc-pvdz iop(5/13=1,5/36=2,99/5=2) pseudo=read geom=check gue
 ss=(read,tcheck) scf=(maxcycle=1)
 ----------------------------------------------------------------------
 -----
 title
 -----
 Structure from the checkpoint file:  "4-5-dipropylpyridazine.chk"
 Charge =  0 Multiplicity = 1

                         Standard orientation:
 ---------------------------------------------------------------------
 Center     Atomic      Atomic             Coordinates (Angstroms)
 Number     Number       Type             X           Y           Z
 ---------------------------------------------------------------------
      1          6           0       -0.550872    1.183343    1.818393
      2          6           0        0.550872   -1.183343    1.818393
      3          6           0       -0.290910    0.631581    0.558623
      4          6           0        0.290910   -0.631581    0.558623
      5          6           0        0.216434    3.129438   -2.389797
      6          6           0       -0.216434   -3.129438   -2.389797
      7          6           0       -0.608822    1.420841   -0.684182
      8          6           0        0.608822   -1.420841   -0.684182
      9          6           0        0.550872    2.327591   -1.134342
     10          6           0       -0.550872   -2.327591   -1.134342
     11          7           0       -0.282914    0.601718    2.979528
     12          7           0        0.282914   -0.601718    2.979528
     13          1           0       -1.012928    2.161604    1.897374
     14          1           0        1.012928   -2.161604    1.897374
     15          1           0       -0.012670    2.471736   -3.230631
     16          1           0       -0.650384    3.773094   -2.228370
     17          1           0        1.051528    3.765640   -2.684387
     18          1           0        0.012670   -2.471736   -3.230631
     19          1           0        0.650384   -3.773094   -2.228370
     20          1           0       -1.051528   -3.765640   -2.684387
     21          1           0       -0.878678    0.750885   -1.501953
     22          1           0       -1.486647    2.042926   -0.493539
     23          1           0        0.878678   -0.750885   -1.501953
     24          1           0        1.486647   -2.042926   -0.493539
     25          1           0        0.807198    3.006117   -0.317347
     26          1           0        1.439842    1.716802   -1.310001
     27          1           0       -0.807198   -3.006117   -0.317347
     28          1           0       -1.439842   -1.716802   -1.310001
 ---------------------------------------------------------------------

 SCF Done:  E(RHF) =  -499.371318052     A.U. after    2 cycles

 The electronic state is 1-A.
 Alpha  occ. eigenvalues --  -15.76244 -15.75578 -11.51434 -11.46035 -11.45205
 Alpha  occ. eigenvalues --  -11.44727 -11.43928 -11.41114 -11.40863 -11.38600
 Alpha  occ. eigenvalues --  -11.37217 -11.36338  -1.54639  -1.30805  -1.24098
 Alpha  occ. eigenvalues --   -1.18362  -1.15765  -1.04549  -1.00604  -0.90081
 Alpha  occ. eigenvalues --   -0.89604  -0.85794  -0.83255  -0.69029  -0.68716
 Alpha  occ. eigenvalues --   -0.65416  -0.64173  -0.61576  -0.59870  -0.58785
 Alpha  occ. eigenvalues --   -0.58591  -0.55706  -0.54459  -0.54110  -0.53369
 Alpha  occ. eigenvalues --   -0.48364  -0.48052  -0.47810  -0.47695  -0.47012
 Alpha  occ. eigenvalues --   -0.45872  -0.40462  -0.35774  -0.34926  -0.32702
 Alpha virt. eigenvalues --    0.03482   0.04087   0.04310   0.04642   0.04745
 Alpha virt. eigenvalues --    0.05393   0.05874   0.05948   0.06357   0.06967
 Alpha virt. eigenvalues --    0.07452   0.07493   0.08239   0.08948   0.09987

 Mulliken charges:
               1
     1  C   -2.706400
     2  C   -2.706400
     3  C    4.582468
     4  C    4.582468
     5  C   -4.191865
     6  C   -4.191865
     7  C   -3.482455
     8  C   -3.482455
     9  C   -3.786763
    10  C   -3.786763
    11  N   -2.048526
    12  N   -2.048526
    13  H    1.591333
    14  H    1.591333
    15  H    1.381489
    16  H    1.307363
    17  H    1.098925
    18  H    1.381489
    19  H    1.307363
    20  H    1.098925
    21  H    1.499320
    22  H    1.434329
    23  H    1.499320
    24  H    1.434329
    25  H    1.626459
    26  H    1.694324
    27  H    1.626459
    28  H    1.694324
 Sum of Mulliken charges =   0.00000

 Dipole moment (field-independent basis, Debye):
    X=             -0.0000    Y=              0.0000    Z=             -4.4887  Tot=              4.4887

 Test job not archived.
 1\1\GINC-SE249\SP\RHF\Aug-CC-pVDZ\C10H16N2\OHZDE\06-Apr-2025\0\\#t hf
 aug-cc-pvdz iop(5/13=1,5/36=2,99/5=2) pseudo=read geom=check guess=(re
 ad,tcheck) scf=(maxcycle=1)\\title\\0,1\C,0,-0.550872,1.183343,1.81839
 3\C,0,0.550872,-1.183343,1.818393\C,0,-0.29091,0.631581,0.558623\C,0,0
 .29091,-0.631581,0.558623\C,0,0.216434,3.129438,-2.389797\C,0,-0.21643
 4,-3.129438,-2.389797\C,0,-0.608822,1.420841,-0.684182\C,0,0.608822,-1
 .420841,-0.684182\C,0,0.550872,2.327591,-1.134342\C,0,-0.550872,-2.327
 591,-1.134342\N,0,-0.282914,0.601718,2.979528\N,0,0.282914,-0.601718,2

 Normal termination of Gaussian 16 at Sun Apr  6 08:10:57 2025.
