 Gaussian 16, Revision C.01,

 ----------------------------------------------------------------------
 #t hf aug-cc-pvdz symm=none int=(grid=ultrafine) guess=(read,tcheck) s
 table=(opt,rrhf)
 ----------------------------------------------------------------------
 -----
 title
 -----
 Symbolic Z-matrix:
 Charge =  0 Multiplicity = 1

 SCF Done:  E(RHF) =  -714.123916615     A.U. after   16 cycles
 Normal termination of Gaussian 16 at Sun Apr  6 08:05:15 2025.
 Gaussian 16:  ES64L-G16RevC.01  3-Jul-2019

 ----------------------------------------------------------------------
 #t hf aug-cc-pvdz iop(5/13=1,5/36=2,99/5=2) pseudo=read geom=check gue
 ss=(read,tcheck) scf=(maxcycle=1)
 ----------------------------------------------------------------------
 -----
 title
 -----
 Structure from the checkpoint file:  "4-amino-1-3-thiazole-5-carbonitrile.chk"
 Charge =  0 Multiplicity = 1

                         Standard orientation:
 ---------------------------------------------------------------------
 Center     Atomic      Atomic             Coordinates (Angstroms)
 Number     Number       Type             X           Y           Z
 ---------------------------------------------------------------------
      1         16           0       -0.844455   -1.432131   -0.001735
      2          7           0       -1.485615    1.063138    0.005370
      3          7           0        0.565464    2.204052   -0.054581
      4          7           0        2.937529   -0.771304    0.008341
      5          6           0       -0.117671    1.028945   -0.005236
      6          6           0        0.435762   -0.243451   -0.005215
      7          6           0       -1.980824   -0.136886    0.007729
      8          6           0        1.800797   -0.558509   -0.000399
      9          1           0       -3.040901   -0.340536    0.015885
     10          1           0        0.051496    3.036922    0.173244
     11          1           0        1.550661    2.205914    0.143440
 ---------------------------------------------------------------------

 SCF Done:  E(RHF) =  -715.775770441     A.U. after    2 cycles

 The electronic state is 1-A.
 Alpha  occ. eigenvalues --  -75.74914 -15.79538 -15.77036 -15.76094 -13.22363
 Alpha  occ. eigenvalues --  -13.18346 -13.06874 -11.52926 -11.47837 -11.45709
 Alpha  occ. eigenvalues --  -11.42711  -8.09381  -1.54431  -1.35762  -1.31517
 Alpha  occ. eigenvalues --   -1.21016  -1.09102  -0.92502  -0.83421  -0.76289
 Alpha  occ. eigenvalues --   -0.68721  -0.62021  -0.60235  -0.59788  -0.51779
 Alpha  occ. eigenvalues --   -0.51270  -0.49274  -0.45850  -0.40857  -0.38252
 Alpha  occ. eigenvalues --   -0.34753  -0.26873
 Alpha virt. eigenvalues --    0.02667   0.04055   0.06335   0.06964   0.07266
 Alpha virt. eigenvalues --    0.08575   0.09494   0.10187   0.11823   0.12091
 Alpha virt. eigenvalues --    0.13214   0.13389   0.14005   0.14140   0.14757

 Mulliken charges:
               1
     1  S    1.559394
     2  N   -3.313817
     3  N   -3.321080
     4  N   -2.253406
     5  C    2.238002
     6  C    1.984132
     7  C   -1.403250
     8  C    1.532778
     9  H    1.631290
    10  H    0.818745
    11  H    0.527213
 Sum of Mulliken charges =   0.00000

 Dipole moment (field-independent basis, Debye):
    X=             -2.9673    Y=             -0.7196    Z=              0.4877  Tot=              3.0920

 Test job not archived.
 1\1\GINC-SE253\SP\RHF\Aug-CC-pVDZ\C4H3N3S1\OHZDE\06-Apr-2025\0\\#t hf
 aug-cc-pvdz iop(5/13=1,5/36=2,99/5=2) pseudo=read geom=check guess=(re
 ad,tcheck) scf=(maxcycle=1)\\title\\0,1\S,0,-0.844455,-1.432131,-0.001
 735\N,0,-1.485615,1.063138,0.00537\N,0,0.565464,2.204052,-0.054581\N,0
 ,2.937529,-0.771304,0.008341\C,0,-0.117671,1.028945,-0.005236\C,0,0.43
 5762,-0.243451,-0.005215\C,0,-1.980824,-0.136886,0.007729\C,0,1.800797
 ,-0.558509,-0.000399\H,0,-3.040901,-0.340536,0.015885\H,0,0.051496,3.0
 36922,0.173244\H,0,1.550661,2.205914,0.14344\\Version=ES64L-G16RevC.01

 Normal termination of Gaussian 16 at Sun Apr  6 08:05:20 2025.
