 Gaussian 16, Revision C.01,

 ----------------------------------------------------------------------
 #t hf aug-cc-pvdz symm=none int=(grid=ultrafine) guess=(read,tcheck) s
 table=(opt,rrhf)
 ----------------------------------------------------------------------
 -----
 title
 -----
 Symbolic Z-matrix:
 Charge =  0 Multiplicity = 1

 SCF Done:  E(RHF) =  -714.102108213     A.U. after   17 cycles
 Normal termination of Gaussian 16 at Sun Apr  6 08:05:37 2025.
 Gaussian 16:  ES64L-G16RevC.01  3-Jul-2019

 ----------------------------------------------------------------------
 #t hf aug-cc-pvdz iop(5/13=1,5/36=2,99/5=2) pseudo=read geom=check gue
 ss=(read,tcheck) scf=(maxcycle=1)
 ----------------------------------------------------------------------
 -----
 title
 -----
 Structure from the checkpoint file:  "4-amino-1-2-thiazole-5-carbonitrile.chk"
 Charge =  0 Multiplicity = 1

                         Standard orientation:
 ---------------------------------------------------------------------
 Center     Atomic      Atomic             Coordinates (Angstroms)
 Number     Number       Type             X           Y           Z
 ---------------------------------------------------------------------
      1         16           0        0.849093   -1.404452   -0.001478
      2          7           0        2.043738   -0.263167    0.010200
      3          7           0       -0.588772    2.219969   -0.067972
      4          7           0       -2.942184   -0.775655    0.010632
      5          6           0       -0.440552   -0.233849   -0.006414
      6          6           0        0.105987    1.037713   -0.005426
      7          6           0        1.531170    0.941099    0.004087
      8          6           0       -1.808893   -0.550499   -0.000160
      9          1           0       -0.122155    3.047725    0.260526
     10          1           0       -1.574094    2.192039    0.137048
     11          1           0        2.195028    1.796650    0.003525
 ---------------------------------------------------------------------

 SCF Done:  E(RHF) =  -715.754947890     A.U. after    2 cycles

 The electronic state is 1-A.
 Alpha  occ. eigenvalues --  -75.75487 -15.80118 -15.79312 -15.77569 -13.24288
 Alpha  occ. eigenvalues --  -13.22226 -13.06989 -11.52853 -11.47676 -11.45967
 Alpha  occ. eigenvalues --  -11.43257  -8.09931  -1.53181  -1.38384  -1.32179
 Alpha  occ. eigenvalues --   -1.17092  -1.10703  -0.92956  -0.84174  -0.74675
 Alpha  occ. eigenvalues --   -0.70932  -0.61432  -0.60957  -0.58803  -0.52747
 Alpha  occ. eigenvalues --   -0.49870  -0.49510  -0.47650  -0.42174  -0.39964
 Alpha  occ. eigenvalues --   -0.34476  -0.26348
 Alpha virt. eigenvalues --    0.02346   0.04709   0.06063   0.07276   0.07355
 Alpha virt. eigenvalues --    0.07681   0.09041   0.11394   0.11742   0.11907
 Alpha virt. eigenvalues --    0.12494   0.12784   0.12912   0.13783   0.14786

 Mulliken charges:
               1
     1  S    1.749194
     2  N   -3.305093
     3  N   -3.728877
     4  N   -2.091863
     5  C    2.242179
     6  C    1.165308
     7  C   -0.081036
     8  C    1.130834
     9  H    0.728992
    10  H    0.642450
    11  H    1.547912
 Sum of Mulliken charges =  -0.00000

 Dipole moment (field-independent basis, Debye):
    X=              1.9295    Y=              0.8842    Z=              0.5875  Tot=              2.2023

 Test job not archived.
 1\1\GINC-SE249\SP\RHF\Aug-CC-pVDZ\C4H3N3S1\OHZDE\06-Apr-2025\0\\#t hf
 aug-cc-pvdz iop(5/13=1,5/36=2,99/5=2) pseudo=read geom=check guess=(re
 ad,tcheck) scf=(maxcycle=1)\\title\\0,1\S,0,0.849093,-1.404452,-0.0014
 78\N,0,2.043738,-0.263167,0.0102\N,0,-0.588772,2.219969,-0.067972\N,0,
 -2.942184,-0.775655,0.010632\C,0,-0.440552,-0.233849,-0.006414\C,0,0.1
 05987,1.037713,-0.005426\C,0,1.53117,0.941099,0.004087\C,0,-1.808893,-
 0.550499,-0.00016\H,0,-0.122155,3.047725,0.260526\H,0,-1.574094,2.1920
 39,0.137048\H,0,2.195028,1.79665,0.003525\\Version=ES64L-G16RevC.01\St

 Normal termination of Gaussian 16 at Sun Apr  6 08:05:45 2025.
