 Gaussian 16, Revision C.01,

 ----------------------------------------------------------------------
 #t hf aug-cc-pvdz symm=none int=(grid=ultrafine) guess=(read,tcheck) s
 table=(opt,rrhf)
 ----------------------------------------------------------------------
 -----
 title
 -----
 Symbolic Z-matrix:
 Charge =  0 Multiplicity = 1

 SCF Done:  E(RHF) =  -892.411482093     A.U. after   15 cycles
 Normal termination of Gaussian 16 at Sun Apr  6 08:05:35 2025.
 Gaussian 16:  ES64L-G16RevC.01  3-Jul-2019

 ----------------------------------------------------------------------
 #t hf aug-cc-pvdz iop(5/13=1,5/36=2,99/5=2) pseudo=read geom=check gue
 ss=(read,tcheck) scf=(maxcycle=1)
 ----------------------------------------------------------------------
 -----
 title
 -----
 Structure from the checkpoint file:  "4-amino-3-chloro-5-hydroxy-25H-furanone.chk"
 Charge =  0 Multiplicity = 1

                         Standard orientation:
 ---------------------------------------------------------------------
 Center     Atomic      Atomic             Coordinates (Angstroms)
 Number     Number       Type             X           Y           Z
 ---------------------------------------------------------------------
      1         17           0       -2.280642   -0.628707   -0.145550
      2          8           0        1.092025    1.391278    0.220496
      3          8           0       -0.955684    2.323645   -0.050493
      4          8           0        2.553373   -0.218210   -0.655230
      5          7           0        0.574476   -2.183960    0.238082
      6          6           0       -0.663800   -0.075616    0.058842
      7          6           0        0.431472   -0.842507    0.189010
      8          6           0       -0.290734    1.338463    0.058027
      9          6           0        1.619020    0.075759    0.341980
     10          1           0        3.324738    0.348497   -0.543164
     11          1           0       -0.217906   -2.752537   -0.012740
     12          1           0        1.479328   -2.567370    0.021871
     13          1           0        2.069968   -0.003146    1.336481
 ---------------------------------------------------------------------

 SCF Done:  E(RHF) =  -894.502480288     A.U. after    2 cycles

 The electronic state is 1-A.
 Alpha  occ. eigenvalues --  -99.91131 -21.11901 -21.09792 -21.05235 -15.81203
 Alpha  occ. eigenvalues --  -11.54726 -11.53383 -11.50269 -11.43569 -10.48505
 Alpha  occ. eigenvalues --   -9.68636  -9.67618  -9.67413  -1.88195  -1.75069
 Alpha  occ. eigenvalues --   -1.66185  -1.43767  -1.34568  -1.15823  -1.02751
 Alpha  occ. eigenvalues --   -0.85954  -0.81905  -0.73731  -0.71466  -0.68943
 Alpha  occ. eigenvalues --   -0.65031  -0.60865  -0.56602  -0.53833  -0.52991
 Alpha  occ. eigenvalues --   -0.51043  -0.50419  -0.48863  -0.43984  -0.37548
 Alpha  occ. eigenvalues --   -0.33343  -0.31677  -0.29934
 Alpha virt. eigenvalues --    0.02780   0.04171   0.05093   0.05424   0.08054
 Alpha virt. eigenvalues --    0.08295   0.10421   0.10564   0.11639   0.12203
 Alpha virt. eigenvalues --    0.12639   0.12857   0.13899   0.14564   0.14799

 Mulliken charges:
               1
     1  Cl  -0.340617
     2  O   -3.187637
     3  O   -3.232921
     4  O   -2.991501
     5  N   -3.339490
     6  C   -1.472560
     7  C    3.638813
     8  C    4.326486
     9  C    2.993070
    10  H    0.757510
    11  H    0.609165
    12  H    0.834195
    13  H    1.405486
 Sum of Mulliken charges =  -0.00000

 Dipole moment (field-independent basis, Debye):
    X=              4.0881    Y=             -3.5833    Z=              0.2086  Tot=              5.4402

 Test job not archived.
 1\1\GINC-SE253\SP\RHF\Aug-CC-pVDZ\C4H4Cl1N1O3\OHZDE\06-Apr-2025\0\\#t
 hf aug-cc-pvdz iop(5/13=1,5/36=2,99/5=2) pseudo=read geom=check guess=
 (read,tcheck) scf=(maxcycle=1)\\title\\0,1\Cl,0,-2.280642,-0.628707,-0
 .14555\O,0,1.092025,1.391278,0.220496\O,0,-0.955684,2.323645,-0.050493
 \O,0,2.553373,-0.21821,-0.65523\N,0,0.574476,-2.18396,0.238082\C,0,-0.
 6638,-0.075616,0.058842\C,0,0.431472,-0.842507,0.18901\C,0,-0.290734,1
 .338463,0.058027\C,0,1.61902,0.075759,0.34198\H,0,3.324738,0.348497,-0
 .543164\H,0,-0.217906,-2.752537,-0.01274\H,0,1.479328,-2.56737,0.02187

 Normal termination of Gaussian 16 at Sun Apr  6 08:05:44 2025.
