 Gaussian 16, Revision C.01,

 ----------------------------------------------------------------------
 #t hf aug-cc-pvdz symm=none int=(grid=ultrafine) guess=(read,tcheck) s
 table=(opt,rrhf)
 ----------------------------------------------------------------------
 -----
 title
 -----
 Symbolic Z-matrix:
 Charge =  0 Multiplicity = 1

 SCF Done:  E(RHF) =  -764.523303715     A.U. after   15 cycles
 Normal termination of Gaussian 16 at Sun Apr  6 08:05:52 2025.
 Gaussian 16:  ES64L-G16RevC.01  3-Jul-2019

 ----------------------------------------------------------------------
 #t hf aug-cc-pvdz iop(5/13=1,5/36=2,99/5=2) pseudo=read geom=check gue
 ss=(read,tcheck) scf=(maxcycle=1)
 ----------------------------------------------------------------------
 -----
 title
 -----
 Structure from the checkpoint file:  "4-chlorophenol.chk"
 Charge =  0 Multiplicity = 1

                         Standard orientation:
 ---------------------------------------------------------------------
 Center     Atomic      Atomic             Coordinates (Angstroms)
 Number     Number       Type             X           Y           Z
 ---------------------------------------------------------------------
      1          6           0        1.214937   -1.114720    0.000000
      2          6           0       -1.194532   -1.123734    0.000000
      3          6           0        1.208906    0.272121    0.000000
      4          6           0       -1.202251    0.266088    0.000000
      5          6           0        0.012562   -1.816947    0.000000
      6          6           0        0.000000    0.956110    0.000000
      7          8           0        0.080599   -3.181991    0.000000
      8         17           0       -0.005372    2.710582    0.000000
      9          1           0        2.146145   -1.663099    0.000000
     10          1           0       -2.133071   -1.664730    0.000000
     11          1           0        2.139489    0.820428    0.000000
     12          1           0       -2.137764    0.805811    0.000000
     13          1           0       -0.805999   -3.555873    0.000000
 ---------------------------------------------------------------------

 SCF Done:  E(RHF) =  -766.167967424     A.U. after    2 cycles

 The electronic state is 1-A'.
 Alpha  occ. eigenvalues --  -99.89167 -21.11334 -11.53249 -11.47172 -11.45037
 Alpha  occ. eigenvalues --  -11.44577 -11.41792 -11.38404 -10.46515  -9.66554
 Alpha  occ. eigenvalues --   -9.65647  -9.65478  -1.76746  -1.39324  -1.26781
 Alpha  occ. eigenvalues --   -1.11707  -1.06556  -0.90307  -0.85818  -0.72590
 Alpha  occ. eigenvalues --   -0.68762  -0.64636  -0.60124  -0.59888  -0.57847
 Alpha  occ. eigenvalues --   -0.53984  -0.53214  -0.49825  -0.46555  -0.43264
 Alpha  occ. eigenvalues --   -0.42977  -0.35153  -0.28300
 Alpha virt. eigenvalues --    0.03014   0.04681   0.05825   0.06096   0.06608
 Alpha virt. eigenvalues --    0.08661   0.09985   0.10164   0.11144   0.12046
 Alpha virt. eigenvalues --    0.12775   0.13111   0.13360   0.13845   0.14166

 Mulliken charges:
               1
     1  C   -1.636097
     2  C   -2.992319
     3  C   -0.573278
     4  C   -0.136527
     5  C    4.920932
     6  C   -2.273354
     7  O   -4.460772
     8  Cl  -0.840926
     9  H    1.771696
    10  H    1.685482
    11  H    1.793635
    12  H    1.717072
    13  H    1.024456
 Sum of Mulliken charges =  -0.00000

 Dipole moment (field-independent basis, Debye):
    X=             -0.6019    Y=             -2.9507    Z=              0.0000  Tot=              3.0114

 Test job not archived.
 1\1\GINC-SE169\SP\RHF\Aug-CC-pVDZ\C6H5Cl1O1\OHZDE\06-Apr-2025\0\\#t hf
  aug-cc-pvdz iop(5/13=1,5/36=2,99/5=2) pseudo=read geom=check guess=(r
 ead,tcheck) scf=(maxcycle=1)\\title\\0,1\C,0,1.214937,-1.11472,0.\C,0,
 -1.194532,-1.123734,0.\C,0,1.208906,0.272121,0.\C,0,-1.202251,0.266088
 ,0.\C,0,0.012562,-1.816947,0.\C,0,0.,0.95611,0.\O,0,0.0806,-3.181991,0
 .\Cl,0,-0.005372,2.710582,0.\H,0,2.146145,-1.663099,0.\H,0,-2.133071,-
 1.66473,0.\H,0,2.139489,0.820428,0.\H,0,-2.137764,0.805811,0.\H,0,-0.8
 05998,-3.555873,0.\\Version=ES64L-G16RevC.01\State=1-A'\HF=-766.167967

 Normal termination of Gaussian 16 at Sun Apr  6 08:06:12 2025.
