 Gaussian 16, Revision C.01,

 ----------------------------------------------------------------------
 #t hf aug-cc-pvdz symm=none int=(grid=ultrafine) guess=(read,tcheck) s
 table=(opt,rrhf)
 ----------------------------------------------------------------------
 -----
 title
 -----
 Symbolic Z-matrix:
 Charge =  0 Multiplicity = 1

 SCF Done:  E(RHF) =  -762.431888274     A.U. after   16 cycles
 Normal termination of Gaussian 16 at Sun Apr  6 08:05:25 2025.
 Gaussian 16:  ES64L-G16RevC.01  3-Jul-2019

 ----------------------------------------------------------------------
 #t hf aug-cc-pvdz iop(5/13=1,5/36=2,99/5=2) pseudo=read geom=check gue
 ss=(read,tcheck) scf=(maxcycle=1)
 ----------------------------------------------------------------------
 -----
 title
 -----
 Structure from the checkpoint file:  "4-chloro-2-butynoic_acid.chk"
 Charge =  0 Multiplicity = 1

                         Standard orientation:
 ---------------------------------------------------------------------
 Center     Atomic      Atomic             Coordinates (Angstroms)
 Number     Number       Type             X           Y           Z
 ---------------------------------------------------------------------
      1         17           0        2.873531    0.486714    0.000430
      2          8           0       -2.513569    1.387263   -0.000565
      3          8           0       -3.095526   -0.762540   -0.000395
      4          6           0       -2.179793    0.237520   -0.000377
      5          6           0       -0.799428   -0.203129   -0.000117
      6          6           0        0.356403   -0.534339    0.000095
      7          6           0        1.742195   -0.935325    0.000352
      8          1           0       -2.655104   -1.621927   -0.000224
      9          1           0        1.980933   -1.519238   -0.885367
     10          1           0        1.980645   -1.519107    0.886235
 ---------------------------------------------------------------------

 SCF Done:  E(RHF) =  -763.978262001     A.U. after    2 cycles

 The electronic state is 1-A.
 Alpha  occ. eigenvalues --  -99.90693 -21.14343 -21.07348 -11.58100 -11.52468
 Alpha  occ. eigenvalues --  -11.46555 -11.44728 -10.47879  -9.67788  -9.67050
 Alpha  occ. eigenvalues --   -9.66958  -1.84334  -1.67469  -1.36516  -1.18782
 Alpha  occ. eigenvalues --   -1.06294  -0.90963  -0.76069  -0.69705  -0.68936
 Alpha  occ. eigenvalues --   -0.64040  -0.58693  -0.56910  -0.51675  -0.50978
 Alpha  occ. eigenvalues --   -0.49882  -0.40921  -0.40894  -0.35017  -0.32681
 Alpha virt. eigenvalues --    0.01228   0.04133   0.05154   0.05509   0.07942
 Alpha virt. eigenvalues --    0.09278   0.10368   0.10610   0.11642   0.12217
 Alpha virt. eigenvalues --    0.12367   0.12945   0.14533   0.14695   0.15641

 Mulliken charges:
               1
     1  Cl   0.097491
     2  O   -2.957385
     3  O   -2.872787
     4  C    4.493153
     5  C   -0.177218
     6  C    3.080245
     7  C   -4.886298
     8  H    1.083046
     9  H    1.069878
    10  H    1.069874
 Sum of Mulliken charges =  -0.00000

 Dipole moment (field-independent basis, Debye):
    X=              0.4390    Y=             -3.5164    Z=              0.0004  Tot=              3.5437

 Test job not archived.
 1\1\GINC-SE412\SP\RHF\Aug-CC-pVDZ\C4H3Cl1O2\OHZDE\06-Apr-2025\0\\#t hf
  aug-cc-pvdz iop(5/13=1,5/36=2,99/5=2) pseudo=read geom=check guess=(r
 ead,tcheck) scf=(maxcycle=1)\\title\\0,1\Cl,0,2.873531,0.486714,0.0004
 3\O,0,-2.513569,1.387263,-0.000565\O,0,-3.095526,-0.76254,-0.000395\C,
 0,-2.179793,0.23752,-0.000377\C,0,-0.799428,-0.203129,-0.000117\C,0,0.
 356403,-0.534339,0.000095\C,0,1.742195,-0.935325,0.000352\H,0,-2.65510
 4,-1.621927,-0.000224\H,0,1.980933,-1.519238,-0.885367\H,0,1.980645,-1
 .519107,0.886235\\Version=ES64L-G16RevC.01\State=1-A\HF=-763.978262\RM

 Normal termination of Gaussian 16 at Sun Apr  6 08:05:29 2025.
