 Gaussian 16, Revision C.01,

 ----------------------------------------------------------------------
 #t hf aug-cc-pvdz symm=none int=(grid=ultrafine) guess=(read,tcheck) s
 table=(opt,rrhf)
 ----------------------------------------------------------------------
 -----
 title
 -----
 Symbolic Z-matrix:
 Charge =  0 Multiplicity = 1

 SCF Done:  E(RHF) =  -615.051837018     A.U. after   13 cycles

 1\1\GINC-SE273\Stability\RHF\Aug-CC-pVDZ\C4H7Cl1\OHZDE\06-Apr-2025\0\\
 #t hf aug-cc-pvdz symm=none int=(grid=ultrafine) guess=(read,tcheck) s
 table=(opt,rrhf)\\title\\0,1\H,0,3.260702,-1.294214,-0.401232\C,0,1.43
 8044,-0.423931,0.19133\H,0,3.206899,0.548451,-0.421234\C,0,2.695041,-0
 .387967,-0.232098\H,0,0.306468,0.824211,1.506818\C,0,0.591287,0.786117
 ,0.451638\H,0,-1.211253,1.787841,-0.217654\H,0,-0.46326,0.753418,-1.45
 0887\C,0,-0.675702,0.859133,-0.390868\H,0,0.96336,-1.382561,0.370238\H
 ,0,1.169489,1.691325,0.243452\Cl,0,-1.854378,-0.466387,0.014735\\Versi

 Normal termination of Gaussian 16 at Sun Apr  6 08:05:25 2025.
 Gaussian 16:  ES64L-G16RevC.01  3-Jul-2019

 ----------------------------------------------------------------------
 #t hf aug-cc-pvdz iop(5/13=1,5/36=2,99/5=2) pseudo=read geom=check gue
 ss=(read,tcheck) scf=(maxcycle=1)
 ----------------------------------------------------------------------
 -----
 title
 -----
 Structure from the checkpoint file:  "4-chloro-1-butene.chk"
 Charge =  0 Multiplicity = 1

                         Standard orientation:
 ---------------------------------------------------------------------
 Center     Atomic      Atomic             Coordinates (Angstroms)
 Number     Number       Type             X           Y           Z
 ---------------------------------------------------------------------
      1          1           0        3.260702   -1.294214   -0.401232
      2          6           0        1.438044   -0.423931    0.191330
      3          1           0        3.206899    0.548451   -0.421234
      4          6           0        2.695041   -0.387967   -0.232098
      5          1           0        0.306468    0.824211    1.506818
      6          6           0        0.591287    0.786117    0.451638
      7          1           0       -1.211253    1.787841   -0.217654
      8          1           0       -0.463260    0.753418   -1.450887
      9          6           0       -0.675702    0.859133   -0.390868
     10          1           0        0.963360   -1.382561    0.370238
     11          1           0        1.169489    1.691325    0.243452
     12         17           0       -1.854378   -0.466387    0.014735
 ---------------------------------------------------------------------

 SCF Done:  E(RHF) =  -616.084550250     A.U. after    2 cycles

 The electronic state is 1-A.
 Alpha  occ. eigenvalues --  -99.87433 -11.46163 -11.42579 -11.39984 -11.37170
 Alpha  occ. eigenvalues --  -10.44688  -9.64582  -9.63933  -9.63831  -1.34006
 Alpha  occ. eigenvalues --   -1.21067  -1.06614  -0.91352  -0.79646  -0.67573
 Alpha  occ. eigenvalues --   -0.64897  -0.61480  -0.57072  -0.54808  -0.50930
 Alpha  occ. eigenvalues --   -0.49206  -0.46943  -0.44910  -0.35321
 Alpha virt. eigenvalues --    0.03465   0.04821   0.05685   0.06052   0.06405
 Alpha virt. eigenvalues --    0.06547   0.07322   0.08613   0.10002   0.12033
 Alpha virt. eigenvalues --    0.12389   0.13353   0.14706   0.15279   0.15728

 Mulliken charges:
               1
     1  H    1.360526
     2  C   -0.288139
     3  H    1.409794
     4  C   -2.852619
     5  H    1.328933
     6  C   -3.296575
     7  H    1.531592
     8  H    1.698371
     9  C   -3.727615
    10  H    1.447004
    11  H    1.323582
    12  Cl   0.065148
 Sum of Mulliken charges =  -0.00000

 Dipole moment (field-independent basis, Debye):
    X=              1.6190    Y=              1.6893    Z=             -0.2869  Tot=              2.3574

 Test job not archived.
 1\1\GINC-SE273\SP\RHF\Aug-CC-pVDZ\C4H7Cl1\OHZDE\06-Apr-2025\0\\#t hf a
 ug-cc-pvdz iop(5/13=1,5/36=2,99/5=2) pseudo=read geom=check guess=(rea
 d,tcheck) scf=(maxcycle=1)\\title\\0,1\H,0,3.260702,-1.294214,-0.40123
 2\C,0,1.438044,-0.423931,0.19133\H,0,3.206899,0.548451,-0.421234\C,0,2
 .695041,-0.387967,-0.232098\H,0,0.306468,0.824211,1.506818\C,0,0.59128
 7,0.786117,0.451638\H,0,-1.211253,1.787841,-0.217654\H,0,-0.46326,0.75
 3418,-1.450887\C,0,-0.675702,0.859133,-0.390868\H,0,0.96336,-1.382561,
 0.370238\H,0,1.169489,1.691325,0.243452\Cl,0,-1.854378,-0.466387,0.014

 Normal termination of Gaussian 16 at Sun Apr  6 08:05:30 2025.
