 Gaussian 16, Revision C.01,

 ----------------------------------------------------------------------
 #t hf aug-cc-pvdz symm=none int=(grid=ultrafine) guess=(read,tcheck) s
 table=(opt,rrhf)
 ----------------------------------------------------------------------
 -----
 title
 -----
 Symbolic Z-matrix:
 Charge =  0 Multiplicity = 1

 SCF Done:  E(RHF) =  -1164.15911067     A.U. after   15 cycles
 Normal termination of Gaussian 16 at Sun Apr  6 08:05:11 2025.
 Gaussian 16:  ES64L-G16RevC.01  3-Jul-2019

 ----------------------------------------------------------------------
 #t hf aug-cc-pvdz iop(5/13=1,5/36=2,99/5=2) pseudo=read geom=check gue
 ss=(read,tcheck) scf=(maxcycle=1)
 ----------------------------------------------------------------------
 -----
 title
 -----
 Structure from the checkpoint file:  "4-chloromethyl-2-fluoro-1-3-thiazole.chk"
 Charge =  0 Multiplicity = 1

                         Standard orientation:
 ---------------------------------------------------------------------
 Center     Atomic      Atomic             Coordinates (Angstroms)
 Number     Number       Type             X           Y           Z
 ---------------------------------------------------------------------
      1         17           0       -2.893971   -0.323448   -0.516915
      2         16           0        1.947247    0.982404   -0.300395
      3          9           0        2.454522   -1.612150   -0.075441
      4          7           0        0.331438   -0.906310    0.410222
      5          6           0       -0.387056    0.275290    0.443852
      6          6           0        1.530280   -0.673246    0.042767
      7          6           0        0.310052    1.391096    0.099770
      8          6           0       -1.816007    0.247130    0.843769
      9          1           0       -0.036503    2.408900    0.047814
     10          1           0       -2.175019    1.233905    1.114544
     11          1           0       -1.981283   -0.450741    1.657975
 ---------------------------------------------------------------------

 SCF Done:  E(RHF) =  -1165.92654827     A.U. after    2 cycles

 The electronic state is 1-A.
 Alpha  occ. eigenvalues --  -99.88288 -75.75056 -29.33277 -15.76412 -13.20192
 Alpha  occ. eigenvalues --  -13.17862 -13.06774 -11.51907 -11.49445 -11.46336
 Alpha  occ. eigenvalues --  -11.42270 -10.45491  -9.65418  -9.64703  -9.64633
 Alpha  occ. eigenvalues --   -8.09590  -1.53471  -1.32912  -1.22139  -1.18452
 Alpha  occ. eigenvalues --   -1.03432  -0.93667  -0.82268  -0.73790  -0.66042
 Alpha  occ. eigenvalues --   -0.63838  -0.61068  -0.59106  -0.58635  -0.50160
 Alpha  occ. eigenvalues --   -0.48348  -0.44315  -0.43924  -0.43258  -0.39106
 Alpha  occ. eigenvalues --   -0.33311  -0.29845  -0.25385
 Alpha virt. eigenvalues --    0.02530   0.04723   0.06068   0.06455   0.07399
 Alpha virt. eigenvalues --    0.08823   0.09705   0.09829   0.10908   0.11506
 Alpha virt. eigenvalues --    0.12164   0.13081   0.13180   0.14277   0.14495

 Mulliken charges:
               1
     1  Cl   0.175188
     2  S    1.094887
     3  F    1.023586
     4  N   -3.619336
     5  C    4.621006
     6  C   -0.065573
     7  C   -3.242088
     8  C   -4.250301
     9  H    1.205135
    10  H    1.566332
    11  H    1.491164
 Sum of Mulliken charges =   0.00000

 Dipole moment (field-independent basis, Debye):
    X=              5.4651    Y=              1.4632    Z=              0.2945  Tot=              5.6652

 Test job not archived.
 1\1\GINC-SE167\SP\RHF\Aug-CC-pVDZ\C4H3Cl1F1N1S1\OHZDE\06-Apr-2025\0\\#
 t hf aug-cc-pvdz iop(5/13=1,5/36=2,99/5=2) pseudo=read geom=check gues
 s=(read,tcheck) scf=(maxcycle=1)\\title\\0,1\Cl,0,-2.893971,-0.323448,
 -0.516915\S,0,1.947247,0.982404,-0.300395\F,0,2.454522,-1.61215,-0.075
 441\N,0,0.331438,-0.90631,0.410222\C,0,-0.387056,0.27529,0.443852\C,0,
 1.53028,-0.673246,0.042767\C,0,0.310052,1.391096,0.09977\C,0,-1.816007
 ,0.24713,0.843769\H,0,-0.036503,2.4089,0.047814\H,0,-2.175019,1.233905
 ,1.114544\H,0,-1.981283,-0.450741,1.657975\\Version=ES64L-G16RevC.01\S

 Normal termination of Gaussian 16 at Sun Apr  6 08:05:20 2025.
