 Gaussian 16, Revision C.01,

 ----------------------------------------------------------------------
 #t hf aug-cc-pvdz symm=none int=(grid=ultrafine) guess=(read,tcheck) s
 table=(opt,rrhf)
 ----------------------------------------------------------------------
 -----
 title
 -----
 Symbolic Z-matrix:
 Charge =  0 Multiplicity = 1

 SCF Done:  E(RHF) =  -1444.80367989     A.U. after   16 cycles
 Normal termination of Gaussian 16 at Sun Apr  6 08:05:30 2025.
 Gaussian 16:  ES64L-G16RevC.01  3-Jul-2019

 ----------------------------------------------------------------------
 #t hf aug-cc-pvdz iop(5/13=1,5/36=2,99/5=2) pseudo=read geom=check gue
 ss=(read,tcheck) scf=(maxcycle=1)
 ----------------------------------------------------------------------
 -----
 title
 -----
 Structure from the checkpoint file:  "4-chlorodithiolan-3-one.chk"
 Charge =  0 Multiplicity = 1

                         Standard orientation:
 ---------------------------------------------------------------------
 Center     Atomic      Atomic             Coordinates (Angstroms)
 Number     Number       Type             X           Y           Z
 ---------------------------------------------------------------------
      1         17           0       -2.010456   -0.590268   -0.599839
      2         16           0        1.409201   -1.226558   -0.189113
      3         16           0        1.477785    0.867297   -0.404520
      4          8           0       -0.613216    2.315389    0.315501
      5          6           0       -0.892502   -0.061929    0.726505
      6          6           0        0.101019   -1.136073    1.098478
      7          6           0       -0.172173    1.206202    0.240534
      8          1           0       -1.528841    0.214376    1.562461
      9          1           0        0.561916   -0.885355    2.054656
     10          1           0       -0.359432   -2.118613    1.161173
 ---------------------------------------------------------------------

 SCF Done:  E(RHF) =  -1446.34358863     A.U. after    2 cycles

 The electronic state is 1-A.
 Alpha  occ. eigenvalues --  -99.90749 -75.73692 -75.73061 -21.09556 -13.16433
 Alpha  occ. eigenvalues --  -13.15516 -13.12864 -13.11331 -13.06855 -13.06030
 Alpha  occ. eigenvalues --  -11.54253 -11.50189 -11.44835 -10.47980  -9.67933
 Alpha  occ. eigenvalues --   -9.67186  -9.67097  -8.07794  -8.06989  -1.75318
 Alpha  occ. eigenvalues --   -1.39754  -1.27937  -1.13543  -1.07978  -0.91598
 Alpha  occ. eigenvalues --   -0.79720  -0.71021  -0.66815  -0.62570  -0.58345
 Alpha  occ. eigenvalues --   -0.53811  -0.52126  -0.50438  -0.49161  -0.44744
 Alpha  occ. eigenvalues --   -0.37390  -0.35012  -0.29425  -0.21114
 Alpha virt. eigenvalues --    0.02367   0.04333   0.05114   0.05472   0.05862
 Alpha virt. eigenvalues --    0.07198   0.09337   0.10808   0.10995   0.12085
 Alpha virt. eigenvalues --    0.12260   0.13343   0.13570   0.14814   0.15311

 Mulliken charges:
               1
     1  Cl  -0.152835
     2  S    0.380175
     3  S    0.639066
     4  O   -2.903776
     5  C   -1.220960
     6  C   -3.513435
     7  C    2.375175
     8  H    1.559883
     9  H    1.402806
    10  H    1.433901
 Sum of Mulliken charges =  -0.00000

 Dipole moment (field-independent basis, Debye):
    X=              3.0875    Y=             -1.2230    Z=              0.5852  Tot=              3.3721

 Test job not archived.
 1\1\GINC-SE108\SP\RHF\Aug-CC-pVDZ\C3H3Cl1O1S2\OHZDE\06-Apr-2025\0\\#t
 hf aug-cc-pvdz iop(5/13=1,5/36=2,99/5=2) pseudo=read geom=check guess=
 (read,tcheck) scf=(maxcycle=1)\\title\\0,1\Cl,0,-2.010456,-0.590268,-0
 .599839\S,0,1.409201,-1.226558,-0.189113\S,0,1.477785,0.867297,-0.4045
 2\O,0,-0.613216,2.315389,0.315501\C,0,-0.892502,-0.061929,0.726505\C,0
 ,0.101019,-1.136073,1.098478\C,0,-0.172173,1.206202,0.240534\H,0,-1.52
 8841,0.214376,1.562461\H,0,0.561916,-0.885355,2.054656\H,0,-0.359432,-
 2.118613,1.161173\\Version=ES64L-G16RevC.01\State=1-A\HF=-1446.3435886

 Normal termination of Gaussian 16 at Sun Apr  6 08:05:35 2025.
