 Gaussian 16, Revision C.01,

 ----------------------------------------------------------------------
 #t hf aug-cc-pvdz symm=none int=(grid=ultrafine) guess=(read,tcheck) s
 table=(opt,rrhf)
 ----------------------------------------------------------------------
 -----
 title
 -----
 Symbolic Z-matrix:
 Charge =  0 Multiplicity = 1

 SCF Done:  E(RHF) =  -758.549548588     A.U. after   15 cycles
 Normal termination of Gaussian 16 at Sun Apr  6 08:05:26 2025.
 Gaussian 16:  ES64L-G16RevC.01  3-Jul-2019

 ----------------------------------------------------------------------
 #t hf aug-cc-pvdz iop(5/13=1,5/36=2,99/5=2) pseudo=read geom=check gue
 ss=(read,tcheck) scf=(maxcycle=1)
 ----------------------------------------------------------------------
 -----
 title
 -----
 Structure from the checkpoint file:  "4-chloro-1-hydroxy-pyrazole.chk"
 Charge =  0 Multiplicity = 1

                         Standard orientation:
 ---------------------------------------------------------------------
 Center     Atomic      Atomic             Coordinates (Angstroms)
 Number     Number       Type             X           Y           Z
 ---------------------------------------------------------------------
      1         17           0        2.401410   -0.258167   -0.000042
      2          8           0       -2.704169   -0.697729    0.000040
      3          7           0       -1.435056   -0.167750    0.000025
      4          7           0       -1.265034    1.139232    0.000023
      5          6           0        0.703455    0.056232   -0.000012
      6          6           0       -0.307179   -0.895635    0.000004
      7          6           0        0.067053    1.299981    0.000002
      8          1           0       -3.268039    0.091657    0.000098
      9          1           0       -0.301932   -1.969154    0.000002
     10          1           0        0.500000    2.284319   -0.000003
 ---------------------------------------------------------------------

 SCF Done:  E(RHF) =  -760.121577131     A.U. after    2 cycles

 The electronic state is 1-A.
 Alpha  occ. eigenvalues --  -99.90522 -21.15189 -15.86316 -15.77479 -11.47879
 Alpha  occ. eigenvalues --  -11.45389 -11.42051 -10.47882  -9.68035  -9.66906
 Alpha  occ. eigenvalues --   -9.66807  -1.88078  -1.56950  -1.34764  -1.18691
 Alpha  occ. eigenvalues --   -1.10991  -0.85899  -0.83359  -0.75214  -0.67843
 Alpha  occ. eigenvalues --   -0.65282  -0.59398  -0.59168  -0.56278  -0.51380
 Alpha  occ. eigenvalues --   -0.49691  -0.45385  -0.43200  -0.35128  -0.29748
 Alpha virt. eigenvalues --    0.03691   0.05465   0.05680   0.07651   0.09562
 Alpha virt. eigenvalues --    0.10479   0.10539   0.12051   0.12628   0.14260
 Alpha virt. eigenvalues --    0.14492   0.14988   0.15846   0.16166   0.17476

 Mulliken charges:
               1
     1  Cl  -0.252474
     2  O   -3.023179
     3  N    1.045319
     4  N   -2.248994
     5  C    0.661374
     6  C    0.048965
     7  C    0.110860
     8  H    0.805211
     9  H    1.357179
    10  H    1.495739
 Sum of Mulliken charges =   0.00000

 Dipole moment (field-independent basis, Debye):
    X=             -2.6269    Y=             -0.9165    Z=              0.0001  Tot=              2.7822

 Test job not archived.
 1\1\GINC-SE388\SP\RHF\Aug-CC-pVDZ\C3H3Cl1N2O1\OHZDE\06-Apr-2025\0\\#t
 hf aug-cc-pvdz iop(5/13=1,5/36=2,99/5=2) pseudo=read geom=check guess=
 (read,tcheck) scf=(maxcycle=1)\\title\\0,1\Cl,0,2.40141,-0.258167,-0.0
 00042\O,0,-2.704169,-0.697729,0.00004\N,0,-1.435056,-0.16775,0.000025\
 N,0,-1.265034,1.139232,0.000023\C,0,0.703455,0.056232,-0.000012\C,0,-0
 .307179,-0.895635,0.000004\C,0,0.067053,1.299981,0.000002\H,0,-3.26803
 9,0.091657,0.000098\H,0,-0.301932,-1.969154,0.000002\H,0,0.5,2.284319,
 -0.000003\\Version=ES64L-G16RevC.01\State=1-A\HF=-760.1215771\RMSD=7.1

 Normal termination of Gaussian 16 at Sun Apr  6 08:05:30 2025.
