 Gaussian 16, Revision C.01,

 ----------------------------------------------------------------------
 #t hf aug-cc-pvdz symm=none int=(grid=ultrafine) guess=(read,tcheck) s
 table=(opt,rrhf)
 ----------------------------------------------------------------------
 -----
 title
 -----
 Symbolic Z-matrix:
 Charge =  0 Multiplicity = 1

 SCF Done:  E(RHF) =  -683.743916523     A.U. after   15 cycles
 Normal termination of Gaussian 16 at Sun Apr  6 08:04:59 2025.
 Gaussian 16:  ES64L-G16RevC.01  3-Jul-2019

 ----------------------------------------------------------------------
 #t hf aug-cc-pvdz iop(5/13=1,5/36=2,99/5=2) pseudo=read geom=check gue
 ss=(read,tcheck) scf=(maxcycle=1)
 ----------------------------------------------------------------------
 -----
 title
 -----
 Structure from the checkpoint file:  "4-chloro-pyrazole.chk"
 Charge =  0 Multiplicity = 1

                         Standard orientation:
 ---------------------------------------------------------------------
 Center     Atomic      Atomic             Coordinates (Angstroms)
 Number     Number       Type             X           Y           Z
 ---------------------------------------------------------------------
      1         17           0       -2.003064   -0.016547   -0.000005
      2          7           0        1.843891    0.756301    0.000005
      3          7           0        1.813601   -0.586654    0.000004
      4          6           0       -0.275304   -0.001147   -0.000000
      5          6           0        0.569529    1.124682    0.000002
      6          6           0        0.559203   -1.094849    0.000001
      7          1           0        2.680219   -1.094481    0.000006
      8          1           0        0.296397    2.165829    0.000002
      9          1           0        0.352459   -2.149705   -0.000000
 ---------------------------------------------------------------------

 SCF Done:  E(RHF) =  -685.021315167     A.U. after    2 cycles

 The electronic state is 1-A.
 Alpha  occ. eigenvalues --  -99.90225 -15.82521 -15.76442 -11.46212 -11.44663
 Alpha  occ. eigenvalues --  -11.40283 -10.47588  -9.67700  -9.66610  -9.66513
 Alpha  occ. eigenvalues --   -1.62413  -1.34664  -1.19676  -1.12724  -0.86466
 Alpha  occ. eigenvalues --   -0.82883  -0.76118  -0.63250  -0.61053  -0.58733
 Alpha  occ. eigenvalues --   -0.57618  -0.54580  -0.50587  -0.41789  -0.35499
 Alpha  occ. eigenvalues --   -0.33941
 Alpha virt. eigenvalues --    0.03218   0.05331   0.05585   0.07779   0.09568
 Alpha virt. eigenvalues --    0.10054   0.10663   0.12300   0.12955   0.14220
 Alpha virt. eigenvalues --    0.14242   0.15493   0.16340   0.16580   0.17456

 Mulliken charges:
               1
     1  Cl  -0.263243
     2  N   -2.151099
     3  N   -2.017937
     4  C    0.318604
     5  C    0.210957
     6  C    0.164556
     7  H    0.887826
     8  H    1.497034
     9  H    1.353303
 Sum of Mulliken charges =  -0.00000

 Dipole moment (field-independent basis, Debye):
    X=              2.0832    Y=             -2.1103    Z=              0.0000  Tot=              2.9653

 Test job not archived.
 1\1\GINC-SE013\SP\RHF\Aug-CC-pVDZ\C3H3Cl1N2\OHZDE\06-Apr-2025\0\\#t hf
  aug-cc-pvdz iop(5/13=1,5/36=2,99/5=2) pseudo=read geom=check guess=(r
 ead,tcheck) scf=(maxcycle=1)\\title\\0,1\Cl,0,-2.003064,-0.016547,-0.0
 00005\N,0,1.843891,0.756301,0.000005\N,0,1.813601,-0.586654,0.000004\C
 ,0,-0.275304,-0.001147,0.\C,0,0.569529,1.124682,0.000002\C,0,0.559203,
 -1.094849,0.000001\H,0,2.680219,-1.094481,0.000006\H,0,0.296397,2.1658
 29,0.000002\H,0,0.352459,-2.149705,0.\\Version=ES64L-G16RevC.01\State=
 1-A\HF=-685.0213152\RMSD=7.717e-01\Dipole=0.8196074,-0.8302395,0.00000

 Normal termination of Gaussian 16 at Sun Apr  6 08:05:17 2025.
