 Gaussian 16, Revision C.01,

 ----------------------------------------------------------------------
 #t hf aug-cc-pvdz symm=none int=(grid=ultrafine) guess=(read,tcheck) s
 table=(opt,rrhf)
 ----------------------------------------------------------------------
 -----
 title
 -----
 Symbolic Z-matrix:
 Charge =  0 Multiplicity = 1

 SCF Done:  E(RHF) =  -724.461469617     A.U. after   15 cycles
 Normal termination of Gaussian 16 at Sun Apr  6 08:05:23 2025.
 Gaussian 16:  ES64L-G16RevC.01  3-Jul-2019

 ----------------------------------------------------------------------
 #t hf aug-cc-pvdz iop(5/13=1,5/36=2,99/5=2) pseudo=read geom=check gue
 ss=(read,tcheck) scf=(maxcycle=1)
 ----------------------------------------------------------------------
 -----
 title
 -----
 Structure from the checkpoint file:  "4-chloro-3H-1-2-dioxole.chk"
 Charge =  0 Multiplicity = 1

                         Standard orientation:
 ---------------------------------------------------------------------
 Center     Atomic      Atomic             Coordinates (Angstroms)
 Number     Number       Type             X           Y           Z
 ---------------------------------------------------------------------
      1         17           0        2.035348   -0.011575   -0.003987
      2          8           0       -1.801008   -0.820277    0.011276
      3          8           0       -1.875262    0.660254   -0.028353
      4          6           0        0.315681   -0.055902   -0.001214
      5          6           0       -0.477853   -1.114474    0.001648
      6          6           0       -0.531551    1.179920    0.019645
      7          1           0       -0.253678   -2.168788    0.002003
      8          1           0       -0.374491    1.821150   -0.853262
      9          1           0       -0.400253    1.767328    0.935181
 ---------------------------------------------------------------------

 SCF Done:  E(RHF) =  -725.836113240     A.U. after    2 cycles

 The electronic state is 1-A.
 Alpha  occ. eigenvalues --  -99.91922 -21.13326 -21.11640 -11.47903 -11.47034
 Alpha  occ. eigenvalues --  -11.42764 -10.49279  -9.69373  -9.68294  -9.68207
 Alpha  occ. eigenvalues --   -1.98029  -1.51130  -1.37653  -1.15949  -0.94804
 Alpha  occ. eigenvalues --   -0.83420  -0.73520  -0.67998  -0.60734  -0.56902
 Alpha  occ. eigenvalues --   -0.56260  -0.52688  -0.51488  -0.45393  -0.42825
 Alpha  occ. eigenvalues --   -0.38753  -0.25399
 Alpha virt. eigenvalues --    0.03127   0.05367   0.06293   0.06887   0.08801
 Alpha virt. eigenvalues --    0.09514   0.10315   0.11923   0.12817   0.13650
 Alpha virt. eigenvalues --    0.14195   0.15616   0.16051   0.16095   0.17202

 Mulliken charges:
               1
     1  Cl  -0.188340
     2  O   -2.120585
     3  O   -1.485357
     4  C   -0.861335
     5  C    1.778132
     6  C   -1.297909
     7  H    1.505752
     8  H    1.338313
     9  H    1.331329
 Sum of Mulliken charges =   0.00000

 Dipole moment (field-independent basis, Debye):
    X=             -1.1819    Y=             -0.5024    Z=              0.0162  Tot=              1.2843

 Test job not archived.
 1\1\GINC-SE412\SP\RHF\Aug-CC-pVDZ\C3H3Cl1O2\OHZDE\06-Apr-2025\0\\#t hf
  aug-cc-pvdz iop(5/13=1,5/36=2,99/5=2) pseudo=read geom=check guess=(r
 ead,tcheck) scf=(maxcycle=1)\\title\\0,1\Cl,0,2.035348,-0.011575,-0.00
 3987\O,0,-1.801008,-0.820277,0.011276\O,0,-1.875262,0.660254,-0.028353
 \C,0,0.315681,-0.055902,-0.001214\C,0,-0.477853,-1.114474,0.001648\C,0
 ,-0.531551,1.17992,0.019645\H,0,-0.253678,-2.168788,0.002003\H,0,-0.37
 4491,1.82115,-0.853262\H,0,-0.400253,1.767328,0.935181\\Version=ES64L-
 G16RevC.01\State=1-A\HF=-725.8361132\RMSD=5.816e-01\Dipole=-0.4649857,

 Normal termination of Gaussian 16 at Sun Apr  6 08:05:26 2025.
