 Gaussian 16, Revision C.01,

 ----------------------------------------------------------------------
 #t hf aug-cc-pvdz symm=none int=(grid=ultrafine) guess=(read,tcheck) s
 table=(opt,rrhf)
 ----------------------------------------------------------------------
 -----
 title
 -----
 Symbolic Z-matrix:
 Charge =  0 Multiplicity = 1

 SCF Done:  E(RHF) =  -1064.38203315     A.U. after   15 cycles
 Normal termination of Gaussian 16 at Sun Apr  6 08:05:00 2025.
 Gaussian 16:  ES64L-G16RevC.01  3-Jul-2019

 ----------------------------------------------------------------------
 #t hf aug-cc-pvdz iop(5/13=1,5/36=2,99/5=2) pseudo=read geom=check gue
 ss=(read,tcheck) scf=(maxcycle=1)
 ----------------------------------------------------------------------
 -----
 title
 -----
 Structure from the checkpoint file:  "4-chloro-1-2-3-oxathiazolidine.chk"
 Charge =  0 Multiplicity = 1

                         Standard orientation:
 ---------------------------------------------------------------------
 Center     Atomic      Atomic             Coordinates (Angstroms)
 Number     Number       Type             X           Y           Z
 ---------------------------------------------------------------------
      1         17           0        2.146887   -0.158355   -0.305057
      2         16           0       -1.585845   -0.628523   -0.400452
      3          8           0       -1.548273    1.014367    0.043950
      4          7           0       -0.277672   -1.009832    0.627787
      5          6           0        0.609969    0.131067    0.637735
      6          6           0       -0.158865    1.344018    0.027468
      7          1           0       -0.595129   -1.227421    1.564642
      8          1           0        0.945527    0.317665    1.652134
      9          1           0        0.182044    1.521159   -0.992647
     10          1           0       -0.032741    2.240381    0.631744
 ---------------------------------------------------------------------

 SCF Done:  E(RHF) =  -1065.78466172     A.U. after    2 cycles

 The electronic state is 1-A.
 Alpha  occ. eigenvalues --  -99.88444 -75.75508 -21.08566 -15.77967 -13.21188
 Alpha  occ. eigenvalues --  -13.19409 -13.09937 -11.51270 -11.43553 -10.45721
 Alpha  occ. eigenvalues --   -9.65663  -9.64902  -9.64835  -8.09296  -1.79613
 Alpha  occ. eigenvalues --   -1.43606  -1.29970  -1.12205  -0.96403  -0.89212
 Alpha  occ. eigenvalues --   -0.75113  -0.68211  -0.64482  -0.59713  -0.55660
 Alpha  occ. eigenvalues --   -0.51301  -0.49345  -0.46484  -0.43378  -0.39387
 Alpha  occ. eigenvalues --   -0.36660  -0.23436
 Alpha virt. eigenvalues --    0.03022   0.05064   0.05765   0.06525   0.06979
 Alpha virt. eigenvalues --    0.07903   0.09190   0.11429   0.11477   0.12037
 Alpha virt. eigenvalues --    0.13422   0.14652   0.15660   0.15943   0.17477

 Mulliken charges:
               1
     1  Cl  -0.003488
     2  S    1.637736
     3  O   -2.405987
     4  N   -2.018136
     5  C   -1.881684
     6  C   -0.429507
     7  H    0.580594
     8  H    1.824458
     9  H    1.442943
    10  H    1.253071
 Sum of Mulliken charges =   0.00000

 Dipole moment (field-independent basis, Debye):
    X=             -2.6318    Y=              0.3624    Z=              1.2848  Tot=              2.9510

 Test job not archived.
 1\1\GINC-SE269\SP\RHF\Aug-CC-pVDZ\C2H4Cl1N1O1S1\OHZDE\06-Apr-2025\0\\#
 t hf aug-cc-pvdz iop(5/13=1,5/36=2,99/5=2) pseudo=read geom=check gues
 s=(read,tcheck) scf=(maxcycle=1)\\title\\0,1\Cl,0,2.146887,-0.158355,-
 0.305057\S,0,-1.585845,-0.628523,-0.400452\O,0,-1.548273,1.014367,0.04
 395\N,0,-0.277672,-1.009832,0.627787\C,0,0.609969,0.131067,0.637735\C,
 0,-0.158865,1.344018,0.027468\H,0,-0.595129,-1.227421,1.564642\H,0,0.9
 45527,0.317665,1.652134\H,0,0.182044,1.521159,-0.992647\H,0,-0.032741,
 2.240381,0.631744\\Version=ES64L-G16RevC.01\State=1-A\HF=-1065.7846617

 Normal termination of Gaussian 16 at Sun Apr  6 08:05:18 2025.
