 Gaussian 16, Revision C.01,

 ----------------------------------------------------------------------
 #t hf aug-cc-pvdz symm=none int=(grid=ultrafine) guess=(read,tcheck) s
 table=(opt,rrhf)
 ----------------------------------------------------------------------
 -----
 title
 -----
 Symbolic Z-matrix:
 Charge =  0 Multiplicity = 1

 SCF Done:  E(RHF) =  -758.586461149     A.U. after   15 cycles
 Normal termination of Gaussian 16 at Sun Apr  6 08:05:03 2025.
 Gaussian 16:  ES64L-G16RevC.01  3-Jul-2019

 ----------------------------------------------------------------------
 #t hf aug-cc-pvdz iop(5/13=1,5/36=2,99/5=2) pseudo=read geom=check gue
 ss=(read,tcheck) scf=(maxcycle=1)
 ----------------------------------------------------------------------
 -----
 title
 -----
 Structure from the checkpoint file:  "4-chloro-1-2-oxazol-3-amine.chk"
 Charge =  0 Multiplicity = 1

                         Standard orientation:
 ---------------------------------------------------------------------
 Center     Atomic      Atomic             Coordinates (Angstroms)
 Number     Number       Type             X           Y           Z
 ---------------------------------------------------------------------
      1         17           0        2.032090   -0.194629   -0.000258
      2          8           0       -1.737574   -1.136233    0.004416
      3          7           0       -1.857611    0.269811    0.007343
      4          7           0       -0.338436    2.066229   -0.073485
      5          6           0        0.315301   -0.344216   -0.003266
      6          6           0       -0.628792    0.728757   -0.004720
      7          6           0       -0.442310   -1.462994    0.002464
      8          1           0        0.555469    2.341498    0.298227
      9          1           0       -1.096227    2.686160    0.162543
     10          1           0       -0.197051   -2.510661    0.004428
 ---------------------------------------------------------------------

 SCF Done:  E(RHF) =  -760.156660836     A.U. after    2 cycles

 The electronic state is 1-A.
 Alpha  occ. eigenvalues --  -99.92172 -21.12784 -15.78740 -15.76334 -11.50118
 Alpha  occ. eigenvalues --  -11.48672 -11.43152 -10.49533  -9.69652  -9.68614
 Alpha  occ. eigenvalues --   -9.68445  -1.89411  -1.43376  -1.35623  -1.21396
 Alpha  occ. eigenvalues --   -1.13872  -0.87723  -0.81357  -0.73811  -0.69804
 Alpha  occ. eigenvalues --   -0.64724  -0.61050  -0.57485  -0.55829  -0.52648
 Alpha  occ. eigenvalues --   -0.48237  -0.44945  -0.42124  -0.36073  -0.30599
 Alpha virt. eigenvalues --    0.03210   0.04868   0.05961   0.07506   0.08992
 Alpha virt. eigenvalues --    0.10484   0.10860   0.12282   0.12546   0.12699
 Alpha virt. eigenvalues --    0.13529   0.13681   0.14805   0.16445   0.16735

 Mulliken charges:
               1
     1  Cl  -0.158216
     2  O   -2.937561
     3  N   -1.528198
     4  N   -3.166750
     5  C   -0.593458
     6  C    4.370395
     7  C    1.118275
     8  H    0.534268
     9  H    0.833669
    10  H    1.527576
 Sum of Mulliken charges =   0.00000

 Dipole moment (field-independent basis, Debye):
    X=              0.0913    Y=              0.1457    Z=              0.7072  Tot=              0.7278

 Test job not archived.
 1\1\GINC-SE270\SP\RHF\Aug-CC-pVDZ\C3H3Cl1N2O1\OHZDE\06-Apr-2025\0\\#t
 hf aug-cc-pvdz iop(5/13=1,5/36=2,99/5=2) pseudo=read geom=check guess=
 (read,tcheck) scf=(maxcycle=1)\\title\\0,1\Cl,0,2.03209,-0.194629,-0.0
 00258\O,0,-1.737574,-1.136233,0.004416\N,0,-1.857611,0.269811,0.007343
 \N,0,-0.338436,2.066229,-0.073485\C,0,0.315301,-0.344216,-0.003266\C,0
 ,-0.628792,0.728757,-0.00472\C,0,-0.44231,-1.462994,0.002464\H,0,0.555
 469,2.341498,0.298227\H,0,-1.096227,2.68616,0.162543\H,0,-0.197051,-2.
 510661,0.004428\\Version=ES64L-G16RevC.01\State=1-A\HF=-760.1566608\RM

 Normal termination of Gaussian 16 at Sun Apr  6 08:05:18 2025.
