 Gaussian 16, Revision C.01,

 ----------------------------------------------------------------------
 #t hf aug-cc-pvdz symm=none int=(grid=ultrafine) guess=(read,tcheck) s
 table=(opt,rrhf)
 ----------------------------------------------------------------------
 -----
 title
 -----
 Symbolic Z-matrix:
 Charge =  0 Multiplicity = 1

 SCF Done:  E(RHF) =  -1138.97799397     A.U. after   17 cycles
 Normal termination of Gaussian 16 at Sun Apr  6 08:05:39 2025.
 Gaussian 16:  ES64L-G16RevC.01  3-Jul-2019

 ----------------------------------------------------------------------
 #t hf aug-cc-pvdz iop(5/13=1,5/36=2,99/5=2) pseudo=read geom=check gue
 ss=(read,tcheck) scf=(maxcycle=1)
 ----------------------------------------------------------------------
 -----
 title
 -----
 Structure from the checkpoint file:  "4-chloro-1-2-thiazole-5-carbaldehyde.chk"
 Charge =  0 Multiplicity = 1

                         Standard orientation:
 ---------------------------------------------------------------------
 Center     Atomic      Atomic             Coordinates (Angstroms)
 Number     Number       Type             X           Y           Z
 ---------------------------------------------------------------------
      1         17           0        1.997780   -1.371459    0.000000
      2         16           0       -1.725995    0.605097    0.000000
      3          8           0        0.396341    2.866951    0.000000
      4          7           0       -1.923957   -1.041509    0.000000
      5          6           0        0.000000    0.542410    0.000000
      6          6           0        0.370267   -0.782870    0.000000
      7          6           0       -0.756625   -1.641068    0.000000
      8          6           0        0.840877    1.741435    0.000000
      9          1           0       -0.703404   -2.720895    0.000000
     10          1           0        1.926917    1.549668    0.000000
 ---------------------------------------------------------------------

 SCF Done:  E(RHF) =  -1140.68333859     A.U. after    2 cycles

 The electronic state is 1-A'.
 Alpha  occ. eigenvalues --  -99.93533 -75.76259 -21.09113 -15.79363 -13.24705
 Alpha  occ. eigenvalues --  -13.22640 -13.07580 -11.52268 -11.51469 -11.47823
 Alpha  occ. eigenvalues --  -11.44664 -10.50910  -9.70976  -9.70062  -9.69830
 Alpha  occ. eigenvalues --   -8.10726  -1.73784  -1.52437  -1.37145  -1.19450
 Alpha  occ. eigenvalues --   -1.12580  -0.97424  -0.84397  -0.80244  -0.72619
 Alpha  occ. eigenvalues --   -0.65486  -0.63006  -0.58192  -0.55047  -0.54770
 Alpha  occ. eigenvalues --   -0.53543  -0.49937  -0.43509  -0.41930  -0.36918
 Alpha  occ. eigenvalues --   -0.32406  -0.30160
 Alpha virt. eigenvalues --    0.02748   0.04694   0.05540   0.06018   0.07258
 Alpha virt. eigenvalues --    0.08557   0.09468   0.09772   0.10513   0.11581
 Alpha virt. eigenvalues --    0.12446   0.12936   0.13778   0.14115   0.14173

 Mulliken charges:
               1
     1  Cl  -0.488612
     2  S    1.795556
     3  O   -2.765547
     4  N   -3.247343
     5  C    3.223757
     6  C   -2.140045
     7  C   -0.627632
     8  C    1.239565
     9  H    1.508097
    10  H    1.502203
 Sum of Mulliken charges =   0.00000

 Dipole moment (field-independent basis, Debye):
    X=             -2.0371    Y=              1.7161    Z=              0.0000  Tot=              2.6636

 Test job not archived.
 1\1\GINC-SE273\SP\RHF\Aug-CC-pVDZ\C4H2Cl1N1O1S1\OHZDE\06-Apr-2025\0\\#
 t hf aug-cc-pvdz iop(5/13=1,5/36=2,99/5=2) pseudo=read geom=check gues
 s=(read,tcheck) scf=(maxcycle=1)\\title\\0,1\Cl,0,1.99778,-1.371459,0.
 \S,0,-1.725995,0.605097,0.\O,0,0.396341,2.866951,0.\N,0,-1.923957,-1.0
 41509,0.\C,0,0.,0.54241,0.\C,0,0.370267,-0.78287,0.\C,0,-0.756625,-1.6
 41068,0.\C,0,0.840877,1.741435,0.\H,0,-0.703404,-2.720895,0.\H,0,1.926
 917,1.549668,0.\\Version=ES64L-G16RevC.01\State=1-A'\HF=-1140.6833386\
 RMSD=1.539e+00\Dipole=-0.8014403,0.6751733,0.\Quadrupole=2.0802546,-0.

 Normal termination of Gaussian 16 at Sun Apr  6 08:05:45 2025.
