 Gaussian 16, Revision C.01,

 ----------------------------------------------------------------------
 #t hf aug-cc-pvdz symm=none int=(grid=ultrafine) guess=(read,tcheck) s
 table=(opt,rrhf)
 ----------------------------------------------------------------------
 -----
 title
 -----
 Symbolic Z-matrix:
 Charge =  0 Multiplicity = 1

 SCF Done:  E(RHF) =  -1103.09942088     A.U. after   15 cycles
 Normal termination of Gaussian 16 at Sun Apr  6 08:05:13 2025.
 Gaussian 16:  ES64L-G16RevC.01  3-Jul-2019

 ----------------------------------------------------------------------
 #t hf aug-cc-pvdz iop(5/13=1,5/36=2,99/5=2) pseudo=read geom=check gue
 ss=(read,tcheck) scf=(maxcycle=1)
 ----------------------------------------------------------------------
 -----
 title
 -----
 Structure from the checkpoint file:  "4-chloro-2-butyn-1-ylthiocyanate.chk"
 Charge =  0 Multiplicity = 1

                         Standard orientation:
 ---------------------------------------------------------------------
 Center     Atomic      Atomic             Coordinates (Angstroms)
 Number     Number       Type             X           Y           Z
 ---------------------------------------------------------------------
      1         17           0        3.790159   -0.565860   -0.387381
      2         16           0       -2.085317   -0.503553    0.546804
      3          7           0       -4.695349   -0.036278   -0.498130
      4          6           0       -1.119696    0.706179   -0.506380
      5          6           0        2.801833    0.572983    0.637702
      6          6           0        0.267289    0.664830   -0.108118
      7          6           0        1.418175    0.614979    0.230597
      8          6           0       -3.630791   -0.216125   -0.084152
      9          1           0       -1.553731    1.692329   -0.354795
     10          1           0       -1.245536    0.411120   -1.546247
     11          1           0        3.273951    1.547665    0.545309
     12          1           0        2.904272    0.222241    1.661369
 ---------------------------------------------------------------------

 SCF Done:  E(RHF) =  -1104.70386919     A.U. after    2 cycles

 The electronic state is 1-A.
 Alpha  occ. eigenvalues --  -99.89939 -75.75654 -15.77802 -13.23151 -13.16466
 Alpha  occ. eigenvalues --  -13.08420 -11.52475 -11.50588 -11.44988 -11.44291
 Alpha  occ. eigenvalues --  -11.43715 -10.47124  -9.67036  -9.66312  -9.66217
 Alpha  occ. eigenvalues --   -8.09759  -1.36327  -1.34345  -1.26112  -1.15954
 Alpha  occ. eigenvalues --   -1.07715  -0.97354  -0.73600  -0.69407  -0.67713
 Alpha  occ. eigenvalues --   -0.66702  -0.64164  -0.62091  -0.54785  -0.50767
 Alpha  occ. eigenvalues --   -0.50324  -0.50188  -0.49900  -0.44209  -0.39950
 Alpha  occ. eigenvalues --   -0.36716  -0.27488
 Alpha virt. eigenvalues --    0.01247   0.03822   0.05400   0.05554   0.05950
 Alpha virt. eigenvalues --    0.05979   0.07493   0.09285   0.09913   0.10499
 Alpha virt. eigenvalues --    0.11476   0.11602   0.12215   0.13044   0.13471

 Mulliken charges:
               1
     1  Cl   0.070551
     2  S    1.889152
     3  N   -1.962153
     4  C   -4.629257
     5  C   -5.339874
     6  C    2.423910
     7  C    3.122485
     8  C    0.214106
     9  H    1.081785
    10  H    1.118139
    11  H    0.978310
    12  H    1.032846
 Sum of Mulliken charges =   0.00000

 Dipole moment (field-independent basis, Debye):
    X=              3.0459    Y=              0.7714    Z=              2.4653  Tot=              3.9938

 Test job not archived.
 1\1\GINC-SE388\SP\RHF\Aug-CC-pVDZ\C5H4Cl1N1S1\OHZDE\06-Apr-2025\0\\#t
 hf aug-cc-pvdz iop(5/13=1,5/36=2,99/5=2) pseudo=read geom=check guess=
 (read,tcheck) scf=(maxcycle=1)\\title\\0,1\Cl,0,3.790159,-0.56586,-0.3
 87381\S,0,-2.085317,-0.503553,0.546804\N,0,-4.695349,-0.036278,-0.4981
 3\C,0,-1.119696,0.706179,-0.50638\C,0,2.801833,0.572983,0.637702\C,0,0
 .267289,0.66483,-0.108118\C,0,1.418175,0.614979,0.230597\C,0,-3.630791
 ,-0.216125,-0.084152\H,0,-1.553731,1.692329,-0.354795\H,0,-1.245536,0.
 41112,-1.546247\H,0,3.273951,1.547665,0.545309\H,0,2.904272,0.222241,1

 Normal termination of Gaussian 16 at Sun Apr  6 08:05:20 2025.
