 Gaussian 16, Revision C.01,

 ----------------------------------------------------------------------
 #t hf aug-cc-pvdz symm=none int=(grid=ultrafine) guess=(read,tcheck) s
 table=(opt,rrhf)
 ----------------------------------------------------------------------
 -----
 title
 -----
 Symbolic Z-matrix:
 Charge =  0 Multiplicity = 1

 SCF Done:  E(RHF) =  -341.427848272     A.U. after   12 cycles
 Normal termination of Gaussian 16 at Sun Apr  6 08:05:31 2025.
 Gaussian 16:  ES64L-G16RevC.01  3-Jul-2019

 ----------------------------------------------------------------------
 #t hf aug-cc-pvdz iop(5/13=1,5/36=2,99/5=2) pseudo=read geom=check gue
 ss=(read,tcheck) scf=(maxcycle=1)
 ----------------------------------------------------------------------
 -----
 title
 -----
 Structure from the checkpoint file:  "4-cyclopentene-1-3-dione.chk"
 Charge =  0 Multiplicity = 1

                         Standard orientation:
 ---------------------------------------------------------------------
 Center     Atomic      Atomic             Coordinates (Angstroms)
 Number     Number       Type             X           Y           Z
 ---------------------------------------------------------------------
      1          6           0        0.000000   -0.000000    1.088734
      2          6           0        0.000000    1.198351    0.149259
      3          6           0       -0.000000   -1.198351    0.149259
      4          6           0        0.000000    0.669044   -1.243983
      5          6           0       -0.000000   -0.669044   -1.243983
      6          8           0        0.000000    2.365037    0.458652
      7          8           0       -0.000000   -2.365037    0.458652
      8          1           0        0.878958   -0.000000    1.734426
      9          1           0       -0.878958    0.000000    1.734426
     10          1           0        0.000000    1.326391   -2.101506
     11          1           0       -0.000000   -1.326391   -2.101506
 ---------------------------------------------------------------------

 SCF Done:  E(RHF) =  -342.911172926     A.U. after    2 cycles

 The electronic state is 1-A1.
 Alpha  occ. eigenvalues --  -21.07735 -21.07727 -11.52928 -11.52696 -11.47706
 Alpha  occ. eigenvalues --  -11.43218 -11.41621  -1.74239  -1.71400  -1.32038
 Alpha  occ. eigenvalues --   -1.09351  -0.95968  -0.81635  -0.77129  -0.66661
 Alpha  occ. eigenvalues --   -0.65383  -0.58265  -0.57276  -0.53726  -0.50021
 Alpha  occ. eigenvalues --   -0.49167  -0.47732  -0.35784  -0.32882  -0.28188
 Alpha virt. eigenvalues --    0.02626   0.05333   0.05772   0.06542   0.07139
 Alpha virt. eigenvalues --    0.08146   0.10073   0.11095   0.11849   0.12609
 Alpha virt. eigenvalues --    0.13192   0.13664   0.13956   0.14441   0.15123

 Mulliken charges:
               1
     1  C   -5.101671
     2  C    4.321043
     3  C    4.321043
     4  C   -1.080412
     5  C   -1.080412
     6  O   -3.501577
     7  O   -3.501577
     8  H    1.387856
     9  H    1.387856
    10  H    1.423925
    11  H    1.423925
 Sum of Mulliken charges =   0.00000

 Dipole moment (field-independent basis, Debye):
    X=              0.0000    Y=              0.0000    Z=             -1.0817  Tot=              1.0817

 Test job not archived.
 1\1\GINC-SE009\SP\RHF\Aug-CC-pVDZ\C5H4O2\OHZDE\06-Apr-2025\0\\#t hf au
 g-cc-pvdz iop(5/13=1,5/36=2,99/5=2) pseudo=read geom=check guess=(read
 ,tcheck) scf=(maxcycle=1)\\title\\0,1\C,0,0.,0.,1.088734\C,0,0.,1.1983
 51,0.149259\C,0,0.,-1.198351,0.149259\C,0,0.,0.669044,-1.243983\C,0,0.
 ,-0.669044,-1.243983\O,0,0.,2.365037,0.458652\O,0,0.,-2.365037,0.45865
 2\H,0,0.878958,0.,1.734426\H,0,-0.878958,0.,1.734426\H,0,0.,1.326391,-
 2.101506\H,0,0.,-1.326391,-2.101506\\Version=ES64L-G16RevC.01\State=1-
 A1\HF=-342.9111729\RMSD=9.266e-01\Dipole=0.,0.,-0.4255593\Quadrupole=1

 Normal termination of Gaussian 16 at Sun Apr  6 08:05:35 2025.
