 Gaussian 16, Revision C.01,

 ----------------------------------------------------------------------
 #t hf aug-cc-pvdz symm=none int=(grid=ultrafine) guess=(read,tcheck) s
 table=(opt,rrhf)
 ----------------------------------------------------------------------
 -----
 title
 -----
 Symbolic Z-matrix:
 Charge =  0 Multiplicity = 1

 SCF Done:  E(RHF) =  -577.358008004     A.U. after   13 cycles
 Normal termination of Gaussian 16 at Sun Apr  6 08:05:57 2025.
 Gaussian 16:  ES64L-G16RevC.01  3-Jul-2019

 ----------------------------------------------------------------------
 #t hf aug-cc-pvdz iop(5/13=1,5/36=2,99/5=2) pseudo=read geom=check gue
 ss=(read,tcheck) scf=(maxcycle=1)
 ----------------------------------------------------------------------
 -----
 title
 -----
 Structure from the checkpoint file:  "4-difluoromethyl-1-3-dioxolan-2-one.chk"
 Charge =  0 Multiplicity = 1

                         Standard orientation:
 ---------------------------------------------------------------------
 Center     Atomic      Atomic             Coordinates (Angstroms)
 Number     Number       Type             X           Y           Z
 ---------------------------------------------------------------------
      1          9           0       -1.348626   -0.049956    1.364939
      2          9           0       -2.375705   -0.844928   -0.412965
      3          8           0        0.433224   -0.723724   -0.682853
      4          8           0        1.618313    0.882499    0.312093
      5          8           0        2.419188   -1.228012    0.268661
      6          6           0       -0.406254    0.422707   -0.759710
      7          6           0        1.578879   -0.436900    0.000770
      8          6           0       -1.668924    0.213355    0.065480
      9          6           0        0.485739    1.562976   -0.229668
     10          1           0       -0.703392    0.567543   -1.797832
     11          1           0       -2.315882    1.094850    0.045598
     12          1           0        0.016202    2.142547    0.562716
     13          1           0        0.819614    2.230086   -1.022680
 ---------------------------------------------------------------------

 SCF Done:  E(RHF) =  -579.625573741     A.U. after    2 cycles

 The electronic state is 1-A.
 Alpha  occ. eigenvalues --  -29.30598 -29.30461 -21.12598 -21.12479 -21.06382
 Alpha  occ. eigenvalues --  -11.57417 -11.55811 -11.52993 -11.46211  -1.95767
 Alpha  occ. eigenvalues --   -1.74754  -1.69944  -1.34310  -1.13025  -0.95002
 Alpha  occ. eigenvalues --   -0.85367  -0.82886  -0.75844  -0.74802  -0.70458
 Alpha  occ. eigenvalues --   -0.64873  -0.62528  -0.59595  -0.52453  -0.48487
 Alpha  occ. eigenvalues --   -0.46054  -0.43536  -0.39979  -0.38811  -0.34249
 Alpha  occ. eigenvalues --   -0.32975  -0.32206  -0.30810  -0.28430  -0.24121
 Alpha virt. eigenvalues --    0.02776   0.04091   0.04606   0.05173   0.08348
 Alpha virt. eigenvalues --    0.09517   0.10934   0.11376   0.11770   0.12867
 Alpha virt. eigenvalues --    0.13369   0.13899   0.14125   0.14277   0.15327

 Mulliken charges:
               1
     1  F    0.283943
     2  F    0.359092
     3  O   -2.982602
     4  O   -2.983763
     5  O   -3.246281
     6  C   -1.363722
     7  C    6.441920
     8  C   -1.165421
     9  C   -1.364019
    10  H    1.654960
    11  H    1.476070
    12  H    1.510119
    13  H    1.379706
 Sum of Mulliken charges =  -0.00000

 Dipole moment (field-independent basis, Debye):
    X=             -2.8324    Y=              0.8717    Z=              0.1898  Tot=              2.9696

 Test job not archived.
 1\1\GINC-SE046\SP\RHF\Aug-CC-pVDZ\C4H4F2O3\OHZDE\06-Apr-2025\0\\#t hf
 aug-cc-pvdz iop(5/13=1,5/36=2,99/5=2) pseudo=read geom=check guess=(re
 ad,tcheck) scf=(maxcycle=1)\\title\\0,1\F,0,-1.348626,-0.049956,1.3649
 39\F,0,-2.375705,-0.844928,-0.412965\O,0,0.433224,-0.723724,-0.682853\
 O,0,1.618313,0.882499,0.312093\O,0,2.419188,-1.228012,0.268661\C,0,-0.
 406254,0.422707,-0.75971\C,0,1.578879,-0.4369,0.00077\C,0,-1.668924,0.
 213355,0.06548\C,0,0.485739,1.562976,-0.229668\H,0,-0.703392,0.567543,
 -1.797832\H,0,-2.315882,1.09485,0.045598\H,0,0.016202,2.142547,0.56271

 Normal termination of Gaussian 16 at Sun Apr  6 08:06:12 2025.
