 Gaussian 16, Revision C.01,

 ----------------------------------------------------------------------
 #t hf aug-cc-pvdz symm=none int=(grid=ultrafine) guess=(read,tcheck) s
 table=(opt,rrhf)
 ----------------------------------------------------------------------
 -----
 title
 -----
 Symbolic Z-matrix:
 Charge =  0 Multiplicity = 1

 SCF Done:  E(RHF) =  -558.195799165     A.U. after   16 cycles
 Normal termination of Gaussian 16 at Sun Apr  6 08:06:23 2025.
 Gaussian 16:  ES64L-G16RevC.01  3-Jul-2019

 ----------------------------------------------------------------------
 #t hf aug-cc-pvdz iop(5/13=1,5/36=2,99/5=2) pseudo=read geom=check gue
 ss=(read,tcheck) scf=(maxcycle=1)
 ----------------------------------------------------------------------
 -----
 title
 -----
 Structure from the checkpoint file:  "4-difluoromethyl-2-ethynyl-5H-isoxazole.chk"
 Charge =  0 Multiplicity = 1

                         Standard orientation:
 ---------------------------------------------------------------------
 Center     Atomic      Atomic             Coordinates (Angstroms)
 Number     Number       Type             X           Y           Z
 ---------------------------------------------------------------------
      1          9           0       -2.610592   -0.327834    1.201239
      2          9           0       -2.811525   -0.037318   -0.964662
      3          8           0        1.182464    1.333129    0.117243
      4          7           0        1.584817    0.016648   -0.354989
      5          6           0       -0.642997   -0.097857   -0.059740
      6          6           0        0.463626   -0.798090   -0.297934
      7          6           0       -2.016538   -0.627408   -0.004321
      8          6           0       -0.262774    1.356137    0.055783
      9          6           0        2.824717   -0.333007   -0.014553
     10          6           0        3.962621   -0.634351    0.227184
     11          1           0        0.589733   -1.853786   -0.474588
     12          1           0       -2.071144   -1.706782   -0.144639
     13          1           0       -0.624227    1.838730    0.964570
     14          1           0       -0.584651    1.938157   -0.814947
     15          1           0        4.963978   -0.904064    0.448868
 ---------------------------------------------------------------------

 SCF Done:  E(RHF) =  -560.483138797     A.U. after    2 cycles

 The electronic state is 1-A.
 Alpha  occ. eigenvalues --  -29.28457 -29.28413 -21.09889 -15.82779 -11.55881
 Alpha  occ. eigenvalues --  -11.51125 -11.46982 -11.45859 -11.42105 -11.41040
 Alpha  occ. eigenvalues --   -1.84640  -1.37733  -1.33904  -1.17599  -1.07177
 Alpha  occ. eigenvalues --   -0.95661  -0.86594  -0.80313  -0.79974  -0.73990
 Alpha  occ. eigenvalues --   -0.71982  -0.67407  -0.64087  -0.58986  -0.58547
 Alpha  occ. eigenvalues --   -0.53958  -0.45177  -0.44007  -0.42146  -0.39489
 Alpha  occ. eigenvalues --   -0.38494  -0.36495  -0.31825  -0.29375  -0.27515
 Alpha  occ. eigenvalues --   -0.25122  -0.21279
 Alpha virt. eigenvalues --    0.03246   0.04488   0.05518   0.06307   0.06670
 Alpha virt. eigenvalues --    0.09030   0.09654   0.10066   0.10646   0.11265
 Alpha virt. eigenvalues --    0.11782   0.12038   0.12547   0.13762   0.14260

 Mulliken charges:
               1
     1  F    0.027006
     2  F    0.051631
     3  O   -2.883003
     4  N   -1.837574
     5  C    2.372101
     6  C   -2.567622
     7  C    0.404027
     8  C   -2.360310
     9  C    3.287402
    10  C   -2.654026
    11  H    1.364067
    12  H    1.708714
    13  H    1.179307
    14  H    1.204781
    15  H    0.703498
 Sum of Mulliken charges =  -0.00000

 Dipole moment (field-independent basis, Debye):
    X=             -1.8916    Y=              0.3693    Z=              0.4141  Tot=              1.9713

 Test job not archived.
 1\1\GINC-SE101\SP\RHF\Aug-CC-pVDZ\C6H5F2N1O1\OHZDE\06-Apr-2025\0\\#t h
 f aug-cc-pvdz iop(5/13=1,5/36=2,99/5=2) pseudo=read geom=check guess=(
 read,tcheck) scf=(maxcycle=1)\\title\\0,1\F,0,-2.610592,-0.327834,1.20
 1239\F,0,-2.811525,-0.037318,-0.964662\O,0,1.182464,1.333129,0.117243\
 N,0,1.584817,0.016648,-0.354989\C,0,-0.642997,-0.097857,-0.05974\C,0,0
 .463626,-0.79809,-0.297934\C,0,-2.016538,-0.627408,-0.004321\C,0,-0.26
 2774,1.356137,0.055783\C,0,2.824717,-0.333007,-0.014553\C,0,3.962621,-
 0.634351,0.227184\H,0,0.589733,-1.853786,-0.474588\H,0,-2.071144,-1.70

 Normal termination of Gaussian 16 at Sun Apr  6 08:06:50 2025.
