 Gaussian 16, Revision C.01,

 ----------------------------------------------------------------------
 #t hf aug-cc-pvdz symm=none int=(grid=ultrafine) guess=(read,tcheck) s
 table=(opt,rrhf)
 ----------------------------------------------------------------------
 -----
 title
 -----
 Symbolic Z-matrix:
 Charge =  0 Multiplicity = 1

 SCF Done:  E(RHF) =  -392.271609771     A.U. after   16 cycles
 Normal termination of Gaussian 16 at Sun Apr  6 08:06:37 2025.
 Gaussian 16:  ES64L-G16RevC.01  3-Jul-2019

 ----------------------------------------------------------------------
 #t hf aug-cc-pvdz iop(5/13=1,5/36=2,99/5=2) pseudo=read geom=check gue
 ss=(read,tcheck) scf=(maxcycle=1)
 ----------------------------------------------------------------------
 -----
 title
 -----
 Structure from the checkpoint file:  "4-ethynyl-1H-imidazole-5-carbonitrile.chk"
 Charge =  0 Multiplicity = 1

                         Standard orientation:
 ---------------------------------------------------------------------
 Center     Atomic      Atomic             Coordinates (Angstroms)
 Number     Number       Type             X           Y           Z
 ---------------------------------------------------------------------
      1          7           0       -0.276322   -1.723967    0.000021
      2          7           0       -1.849466   -0.170596   -0.000023
      3          7           0       -0.289475    2.979967   -0.000049
      4          6           0        0.394581   -0.521917    0.000012
      5          6           0       -0.614933    0.430613   -0.000017
      6          6           0       -1.610732   -1.456201    0.000000
      7          6           0        1.794759   -0.410634    0.000031
      8          6           0       -0.446188    1.838684   -0.000036
      9          6           0        2.991406   -0.303459    0.000049
     10          1           0        0.162004   -2.629700    0.000046
     11          1           0       -2.356541   -2.233190    0.000003
     12          1           0        4.048019   -0.197457    0.000073
 ---------------------------------------------------------------------

 SCF Done:  E(RHF) =  -394.036369120     A.U. after    2 cycles

 The electronic state is 1-A.
 Alpha  occ. eigenvalues --  -15.84118 -15.76193 -15.75919 -11.54271 -11.48084
 Alpha  occ. eigenvalues --  -11.46848 -11.45898 -11.44551 -11.43253  -1.61326
 Alpha  occ. eigenvalues --   -1.33335  -1.29597  -1.19603  -1.09048  -0.94175
 Alpha  occ. eigenvalues --   -0.88519  -0.84633  -0.73629  -0.66385  -0.65334
 Alpha  occ. eigenvalues --   -0.62527  -0.61570  -0.51692  -0.48916  -0.46014
 Alpha  occ. eigenvalues --   -0.45428  -0.43922  -0.39130  -0.38841  -0.31113
 Alpha virt. eigenvalues --    0.02216   0.03977   0.04689   0.07595   0.08352
 Alpha virt. eigenvalues --    0.09346   0.10076   0.10259   0.10441   0.10994
 Alpha virt. eigenvalues --    0.12230   0.13046   0.13531   0.13878   0.14371

 Mulliken charges:
               1
     1  N   -3.623291
     2  N   -3.635678
     3  N   -2.775624
     4  C    2.958552
     5  C    2.963971
     6  C    1.190967
     7  C    2.701955
     8  C    1.580609
     9  C   -4.207907
    10  H    0.847166
    11  H    1.579537
    12  H    0.419743
 Sum of Mulliken charges =  -0.00000

 Dipole moment (field-independent basis, Debye):
    X=              1.8816    Y=             -6.4752    Z=              0.0001  Tot=              6.7431

 Test job not archived.
 1\1\GINC-SE009\SP\RHF\Aug-CC-pVDZ\C6H3N3\OHZDE\06-Apr-2025\0\\#t hf au
 g-cc-pvdz iop(5/13=1,5/36=2,99/5=2) pseudo=read geom=check guess=(read
 ,tcheck) scf=(maxcycle=1)\\title\\0,1\N,0,-0.276322,-1.723967,0.000021
 \N,0,-1.849466,-0.170596,-0.000023\N,0,-0.289475,2.979967,-0.000049\C,
 0,0.394581,-0.521917,0.000012\C,0,-0.614933,0.430613,-0.000017\C,0,-1.
 610732,-1.456201,0.\C,0,1.794759,-0.410634,0.000031\C,0,-0.446188,1.83
 8684,-0.000036\C,0,2.991406,-0.303459,0.000049\H,0,0.162004,-2.6297,0.
 000046\H,0,-2.356541,-2.23319,0.000003\H,0,4.048019,-0.197456,0.000073

 Normal termination of Gaussian 16 at Sun Apr  6 08:06:49 2025.
