 Gaussian 16, Revision C.01,

 ----------------------------------------------------------------------
 #t hf aug-cc-pvdz symm=none int=(grid=ultrafine) guess=(read,tcheck) s
 table=(opt,rrhf)
 ----------------------------------------------------------------------
 -----
 title
 -----
 Symbolic Z-matrix:
 Charge =  0 Multiplicity = 1

 SCF Done:  E(RHF) =  -324.805767943     A.U. after   14 cycles
 Normal termination of Gaussian 16 at Sun Apr  6 08:06:09 2025.
 Gaussian 16:  ES64L-G16RevC.01  3-Jul-2019

 ----------------------------------------------------------------------
 #t hf aug-cc-pvdz iop(5/13=1,5/36=2,99/5=2) pseudo=read geom=check gue
 ss=(read,tcheck) scf=(maxcycle=1)
 ----------------------------------------------------------------------
 -----
 title
 -----
 Structure from the checkpoint file:  "4-ethylpyridine.chk"
 Charge =  0 Multiplicity = 1

                         Standard orientation:
 ---------------------------------------------------------------------
 Center     Atomic      Atomic             Coordinates (Angstroms)
 Number     Number       Type             X           Y           Z
 ---------------------------------------------------------------------
      1          6           0        0.233751   -0.248858    1.186174
      2          6           0        0.233751   -0.248858   -1.186174
      3          6           0        0.233751   -1.636587    1.135286
      4          6           0        0.233751   -1.636587   -1.135286
      5          6           0        0.232164    0.482399   -0.000000
      6          6           0       -1.236306    2.546240    0.000000
      7          6           0        0.194870    1.988942    0.000000
      8          7           0        0.233121   -2.335890   -0.000000
      9          1           0        0.240621    0.255199    2.144492
     10          1           0        0.240621    0.255199   -2.144492
     11          1           0        0.238122   -2.214612    2.053040
     12          1           0        0.238122   -2.214612   -2.053040
     13          1           0       -1.786360    2.212834   -0.880654
     14          1           0       -1.225706    3.636797    0.000000
     15          1           0       -1.786360    2.212834    0.880654
     16          1           0        0.727349    2.363720    0.876427
     17          1           0        0.727349    2.363720   -0.876427
 ---------------------------------------------------------------------

 SCF Done:  E(RHF) =  -326.382343009     A.U. after    2 cycles

 The electronic state is 1-A'.
 Alpha  occ. eigenvalues --  -15.72973 -11.48329 -11.44497 -11.44285 -11.41959
 Alpha  occ. eigenvalues --  -11.41206 -11.37933 -11.36556  -1.44777  -1.24861
 Alpha  occ. eigenvalues --   -1.10927  -1.10895  -0.93312  -0.88764  -0.83664
 Alpha  occ. eigenvalues --   -0.70048  -0.65142  -0.64419  -0.59308  -0.58737
 Alpha  occ. eigenvalues --   -0.57423  -0.54515  -0.50067  -0.49786  -0.47548
 Alpha  occ. eigenvalues --   -0.45266  -0.35256  -0.34944  -0.33738
 Alpha virt. eigenvalues --    0.03286   0.04665   0.05270   0.05761   0.06000
 Alpha virt. eigenvalues --    0.06154   0.06284   0.06992   0.08070   0.10468
 Alpha virt. eigenvalues --    0.10726   0.11870   0.11921   0.12022   0.12664

 Mulliken charges:
               1
     1  C   -2.312851
     2  C   -2.312851
     3  C   -1.148597
     4  C   -1.148597
     5  C    6.152683
     6  C   -3.755891
     7  C   -4.266749
     8  N   -3.923263
     9  H    1.586511
    10  H    1.586511
    11  H    1.498253
    12  H    1.498253
    13  H    1.387842
    14  H    1.149404
    15  H    1.387842
    16  H    1.310751
    17  H    1.310751
 Sum of Mulliken charges =   0.00000

 Dipole moment (field-independent basis, Debye):
    X=             -0.0533    Y=              2.3314    Z=             -0.0000  Tot=              2.3320

 Test job not archived.
 1\1\GINC-SE150\SP\RHF\Aug-CC-pVDZ\C7H9N1\OHZDE\06-Apr-2025\0\\#t hf au
 g-cc-pvdz iop(5/13=1,5/36=2,99/5=2) pseudo=read geom=check guess=(read
 ,tcheck) scf=(maxcycle=1)\\title\\0,1\C,0,0.233751,-0.248858,1.186174\
 C,0,0.233751,-0.248858,-1.186174\C,0,0.233751,-1.636587,1.135286\C,0,0
 .233751,-1.636587,-1.135286\C,0,0.232164,0.482399,0.\C,0,-1.236306,2.5
 4624,0.\C,0,0.19487,1.988942,0.\N,0,0.233121,-2.33589,0.\H,0,0.240621,
 0.255199,2.144492\H,0,0.240621,0.255199,-2.144492\H,0,0.238122,-2.2146
 12,2.05304\H,0,0.238122,-2.214612,-2.05304\H,0,-1.78636,2.212834,-0.88

 Normal termination of Gaussian 16 at Sun Apr  6 08:06:49 2025.
