 Gaussian 16, Revision C.01,

 ----------------------------------------------------------------------
 #t hf aug-cc-pvdz symm=none int=(grid=ultrafine) guess=(read,tcheck) s
 table=(opt,rrhf)
 ----------------------------------------------------------------------
 -----
 title
 -----
 Symbolic Z-matrix:
 Charge =  0 Multiplicity = 1

 SCF Done:  E(RHF) =  -383.680008392     A.U. after   15 cycles

 1\1\GINC-SE136\Stability\RHF\Aug-CC-pVDZ\C8H10O1\OHZDE\06-Apr-2025\0\\
 #t hf aug-cc-pvdz symm=none int=(grid=ultrafine) guess=(read,tcheck) s
 table=(opt,rrhf)\\title\\0,1\C,0,0.182296,-1.1946,-0.232278\C,0,0.2009
 46,1.190822,-0.237286\C,0,-1.192318,-1.189355,-0.02335\C,0,-1.17051,1.
 215647,-0.029025\C,0,0.907341,-0.009408,-0.342365\C,0,-1.872642,0.0194
 68,0.080035\C,0,3.186098,0.002643,0.787434\C,0,2.404665,-0.021419,-0.5
 33621\O,0,-3.225765,0.093049,0.281877\H,0,0.695495,-2.144808,-0.315944
 \H,0,0.733105,2.130212,-0.325596\H,0,-1.733693,-2.125233,0.053648\H,0,

 Normal termination of Gaussian 16 at Sun Apr  6 08:06:39 2025.
 Gaussian 16:  ES64L-G16RevC.01  3-Jul-2019

 ----------------------------------------------------------------------
 #t hf aug-cc-pvdz iop(5/13=1,5/36=2,99/5=2) pseudo=read geom=check gue
 ss=(read,tcheck) scf=(maxcycle=1)
 ----------------------------------------------------------------------
 -----
 title
 -----
 Structure from the checkpoint file:  "4-ethylphenol.chk"
 Charge =  0 Multiplicity = 1

                         Standard orientation:
 ---------------------------------------------------------------------
 Center     Atomic      Atomic             Coordinates (Angstroms)
 Number     Number       Type             X           Y           Z
 ---------------------------------------------------------------------
      1          6           0        0.182296   -1.194600   -0.232278
      2          6           0        0.200946    1.190822   -0.237286
      3          6           0       -1.192318   -1.189355   -0.023350
      4          6           0       -1.170510    1.215647   -0.029025
      5          6           0        0.907341   -0.009408   -0.342365
      6          6           0       -1.872642    0.019468    0.080035
      7          6           0        3.186098    0.002643    0.787434
      8          6           0        2.404665   -0.021419   -0.533621
      9          8           0       -3.225765    0.093049    0.281877
     10          1           0        0.695495   -2.144808   -0.315944
     11          1           0        0.733105    2.130212   -0.325596
     12          1           0       -1.733693   -2.125233    0.053648
     13          1           0       -1.708215    2.150587    0.045495
     14          1           0        2.948053    0.896107    1.366309
     15          1           0        4.262069   -0.005627    0.605398
     16          1           0        2.940274   -0.864143    1.402489
     17          1           0        2.689551   -0.909460   -1.102288
     18          1           0        2.698617    0.839070   -1.138965
     19          1           0       -3.594392   -0.793890    0.337165
 ---------------------------------------------------------------------

 SCF Done:  E(RHF) =  -385.504898215     A.U. after    2 cycles

 The electronic state is 1-A.
 Alpha  occ. eigenvalues --  -21.09883 -11.51611 -11.44911 -11.43064 -11.42855
 Alpha  occ. eigenvalues --  -11.40346 -11.39915 -11.36645 -11.35618  -1.75166
 Alpha  occ. eigenvalues --   -1.33778  -1.16901  -1.09417  -1.04105  -0.90205
 Alpha  occ. eigenvalues --   -0.87748  -0.81633  -0.69477  -0.65774  -0.63600
 Alpha  occ. eigenvalues --   -0.59689  -0.57813  -0.57668  -0.54337  -0.52869
 Alpha  occ. eigenvalues --   -0.49891  -0.48771  -0.45382  -0.43306  -0.41120
 Alpha  occ. eigenvalues --   -0.40640  -0.33190  -0.26174
 Alpha virt. eigenvalues --    0.03474   0.04761   0.05071   0.05999   0.06208
 Alpha virt. eigenvalues --    0.06325   0.06589   0.07002   0.07305   0.08352
 Alpha virt. eigenvalues --    0.10472   0.11457   0.12018   0.12805   0.13136

 Mulliken charges:
               1
     1  C   -0.411435
     2  C   -0.701132
     3  C   -4.817656
     4  C   -3.745054
     5  C    3.352453
     6  C    4.561277
     7  C   -3.832981
     8  C   -4.153316
     9  O   -4.464360
    10  H    1.661947
    11  H    1.754298
    12  H    1.664288
    13  H    1.748597
    14  H    1.388440
    15  H    1.149096
    16  H    1.400561
    17  H    1.227050
    18  H    1.196619
    19  H    1.021308
 Sum of Mulliken charges =   0.00000

 Dipole moment (field-independent basis, Debye):
    X=             -0.1412    Y=             -0.5847    Z=             -0.0371  Tot=              0.6026

 Test job not archived.
 1\1\GINC-SE136\SP\RHF\Aug-CC-pVDZ\C8H10O1\OHZDE\06-Apr-2025\0\\#t hf a
 ug-cc-pvdz iop(5/13=1,5/36=2,99/5=2) pseudo=read geom=check guess=(rea
 d,tcheck) scf=(maxcycle=1)\\title\\0,1\C,0,0.182296,-1.1946,-0.232278\
 C,0,0.200946,1.190822,-0.237286\C,0,-1.192318,-1.189355,-0.02335\C,0,-
 1.17051,1.215647,-0.029025\C,0,0.907341,-0.009408,-0.342365\C,0,-1.872
 642,0.019468,0.080035\C,0,3.186098,0.002643,0.787434\C,0,2.404665,-0.0
 21419,-0.533621\O,0,-3.225765,0.093049,0.281877\H,0,0.695495,-2.144808
 ,-0.315944\H,0,0.733105,2.130212,-0.325596\H,0,-1.733693,-2.125233,0.0

 Normal termination of Gaussian 16 at Sun Apr  6 08:06:53 2025.
