 Gaussian 16, Revision C.01,

 ----------------------------------------------------------------------
 #t hf aug-cc-pvdz symm=none int=(grid=ultrafine) guess=(read,tcheck) s
 table=(opt,rrhf)
 ----------------------------------------------------------------------
 -----
 title
 -----
 Symbolic Z-matrix:
 Charge =  0 Multiplicity = 1

 SCF Done:  E(RHF) =  -404.463682759     A.U. after   15 cycles
 Normal termination of Gaussian 16 at Sun Apr  6 08:06:39 2025.
 Gaussian 16:  ES64L-G16RevC.01  3-Jul-2019

 ----------------------------------------------------------------------
 #t hf aug-cc-pvdz iop(5/13=1,5/36=2,99/5=2) pseudo=read geom=check gue
 ss=(read,tcheck) scf=(maxcycle=1)
 ----------------------------------------------------------------------
 -----
 title
 -----
 Structure from the checkpoint file:  "4-fluorophenol.chk"
 Charge =  0 Multiplicity = 1

                         Standard orientation:
 ---------------------------------------------------------------------
 Center     Atomic      Atomic             Coordinates (Angstroms)
 Number     Number       Type             X           Y           Z
 ---------------------------------------------------------------------
      1          6           0        1.209009    0.686001   -0.000000
      2          6           0       -1.202025    0.675134   -0.000000
      3          6           0        1.216005   -0.701909    0.000000
      4          6           0       -1.199895   -0.715998    0.000000
      5          6           0       -0.000000    1.377007   -0.000000
      6          6           0        0.010446   -1.381379    0.000000
      7          8           0        0.057288    2.745374   -0.000000
      8          9           0        0.018013   -2.736527    0.000000
      9          1           0        2.134342    1.243985   -0.000000
     10          1           0       -2.143868    1.210090   -0.000000
     11          1           0        2.143774   -1.255723    0.000000
     12          1           0       -2.123419   -1.276673    0.000000
     13          1           0       -0.832492    3.110943   -0.000000
 ---------------------------------------------------------------------

 SCF Done:  E(RHF) =  -406.195720418     A.U. after    2 cycles

 The electronic state is 1-A'.
 Alpha  occ. eigenvalues --  -29.27820 -21.10860 -11.53827 -11.47511 -11.44854
 Alpha  occ. eigenvalues --  -11.43755 -11.41290 -11.38255  -1.76200  -1.35817
 Alpha  occ. eigenvalues --   -1.12980  -1.11783  -0.90816  -0.90021  -0.77012
 Alpha  occ. eigenvalues --   -0.69719  -0.64480  -0.61248  -0.60147  -0.56573
 Alpha  occ. eigenvalues --   -0.53555  -0.48694  -0.48681  -0.43165  -0.38054
 Alpha  occ. eigenvalues --   -0.35083  -0.34404  -0.26952  -0.20883
 Alpha virt. eigenvalues --    0.03301   0.04839   0.05944   0.06147   0.06839
 Alpha virt. eigenvalues --    0.10201   0.10226   0.11596   0.13162   0.13388
 Alpha virt. eigenvalues --    0.13435   0.13453   0.13844   0.13955   0.14773

 Mulliken charges:
               1
     1  C   -1.367162
     2  C   -2.614049
     3  C   -3.642469
     4  C   -3.800190
     5  C    4.871397
     6  C    2.690537
     7  O   -4.440862
     8  F    0.592407
     9  H    1.704092
    10  H    1.653390
    11  H    1.682608
    12  H    1.652745
    13  H    1.017555
 Sum of Mulliken charges =  -0.00000

 Dipole moment (field-independent basis, Debye):
    X=             -0.5695    Y=             -1.2283    Z=              0.0000  Tot=              1.3539

 Test job not archived.
 1\1\GINC-SE023\SP\RHF\Aug-CC-pVDZ\C6H5F1O1\OHZDE\06-Apr-2025\0\\#t hf
 aug-cc-pvdz iop(5/13=1,5/36=2,99/5=2) pseudo=read geom=check guess=(re
 ad,tcheck) scf=(maxcycle=1)\\title\\0,1\C,0,1.209009,0.686001,0.\C,0,-
 1.202025,0.675134,0.\C,0,1.216005,-0.701909,0.\C,0,-1.199895,-0.715998
 ,0.\C,0,0.,1.377007,0.\C,0,0.010446,-1.381379,0.\O,0,0.057288,2.745374
 ,0.\F,0,0.018013,-2.736527,0.\H,0,2.134342,1.243985,0.\H,0,-2.143868,1
 .21009,0.\H,0,2.143774,-1.255723,0.\H,0,-2.123419,-1.276673,0.\H,0,-0.
 832492,3.110943,0.\\Version=ES64L-G16RevC.01\State=1-A'\HF=-406.195720

 Normal termination of Gaussian 16 at Sun Apr  6 08:06:49 2025.
