 Gaussian 16, Revision C.01,

 ----------------------------------------------------------------------
 #t hf aug-cc-pvdz symm=none int=(grid=ultrafine) guess=(read,tcheck) s
 table=(opt,rrhf)
 ----------------------------------------------------------------------
 -----
 title
 -----
 Symbolic Z-matrix:
 Charge =  0 Multiplicity = 1

 SCF Done:  E(RHF) =  -826.906399063     A.U. after   17 cycles
 Normal termination of Gaussian 16 at Sun Apr  6 08:07:45 2025.
 Gaussian 16:  ES64L-G16RevC.01  3-Jul-2019

 ----------------------------------------------------------------------
 #t hf aug-cc-pvdz iop(5/13=1,5/36=2,99/5=2) pseudo=read geom=check gue
 ss=(read,tcheck) scf=(maxcycle=1)
 ----------------------------------------------------------------------
 -----
 title
 -----
 Structure from the checkpoint file:  "4-hydroxy-2-mercaptopyrimidine-5-carbonitrile.chk"
 Charge =  0 Multiplicity = 1

                         Standard orientation:
 ---------------------------------------------------------------------
 Center     Atomic      Atomic             Coordinates (Angstroms)
 Number     Number       Type             X           Y           Z
 ---------------------------------------------------------------------
      1         16           0        3.132710   -0.028210    0.000007
      2          8           0       -1.337989    2.079383   -0.000019
      3          7           0        0.658787    0.991064   -0.000007
      4          7           0        0.797722   -1.297239    0.000012
      5          7           0       -3.917479   -0.575246   -0.000004
      6          6           0       -1.360122   -0.311158   -0.000000
      7          6           0       -0.749660    1.025767   -0.000010
      8          6           0       -0.554818   -1.403788    0.000010
      9          6           0        1.482361   -0.097815    0.000004
     10          6           0       -2.773022   -0.442707   -0.000002
     11          1           0        1.112595    1.894358   -0.000013
     12          1           0       -0.951396   -2.408389    0.000017
     13          1           0        1.377708   -2.121519    0.000020
 ---------------------------------------------------------------------

 SCF Done:  E(RHF) =  -829.004469647     A.U. after    2 cycles

 The electronic state is 1-A.
 Alpha  occ. eigenvalues --  -75.67482 -21.07869 -15.86661 -15.84189 -15.77898
 Alpha  occ. eigenvalues --  -13.17330 -13.03110 -12.98496 -11.57750 -11.56245
 Alpha  occ. eigenvalues --  -11.55644 -11.49416 -11.45403  -8.01662  -1.76390
 Alpha  occ. eigenvalues --   -1.59717  -1.41264  -1.34076  -1.24737  -1.13543
 Alpha  occ. eigenvalues --   -1.00449  -0.94534  -0.88974  -0.75768  -0.73702
 Alpha  occ. eigenvalues --   -0.69415  -0.68518  -0.64635  -0.55819  -0.55118
 Alpha  occ. eigenvalues --   -0.54029  -0.53605  -0.50394  -0.45694  -0.44857
 Alpha  occ. eigenvalues --   -0.34286  -0.34168  -0.27623  -0.25932
 Alpha virt. eigenvalues --    0.01339   0.04426   0.04789   0.04875   0.06816
 Alpha virt. eigenvalues --    0.07563   0.09024   0.09593   0.09838   0.10536
 Alpha virt. eigenvalues --    0.11088   0.11612   0.11836   0.12771   0.12890

 Mulliken charges:
               1
     1  S    1.606334
     2  O   -3.721518
     3  N   -3.079048
     4  N   -3.202527
     5  N   -2.498671
     6  C    1.914814
     7  C    4.799753
     8  C    0.133253
     9  C   -0.754273
    10  C    1.678802
    11  H    0.690619
    12  H    1.667113
    13  H    0.765348
 Sum of Mulliken charges =  -0.00000

 Dipole moment (field-independent basis, Debye):
    X=              4.8261    Y=             -2.4677    Z=              0.0000  Tot=              5.4204

 Test job not archived.
 1\1\GINC-SE104\SP\RHF\Aug-CC-pVDZ\C5H3N3O1S1\OHZDE\06-Apr-2025\0\\#t h
 f aug-cc-pvdz iop(5/13=1,5/36=2,99/5=2) pseudo=read geom=check guess=(
 read,tcheck) scf=(maxcycle=1)\\title\\0,1\S,0,3.13271,-0.02821,0.00000
 7\O,0,-1.337989,2.079383,-0.000019\N,0,0.658787,0.991064,-0.000007\N,0
 ,0.797722,-1.297239,0.000012\N,0,-3.917479,-0.575246,-0.000004\C,0,-1.
 360122,-0.311158,0.\C,0,-0.74966,1.025767,-0.00001\C,0,-0.554818,-1.40
 3788,0.00001\C,0,1.482361,-0.097815,0.000004\C,0,-2.773022,-0.442707,-
 0.000002\H,0,1.112595,1.894358,-0.000013\H,0,-0.951396,-2.408389,0.000

 Normal termination of Gaussian 16 at Sun Apr  6 08:07:52 2025.
