 Gaussian 16, Revision C.01,

 ----------------------------------------------------------------------
 #t hf aug-cc-pvdz symm=none int=(grid=ultrafine) guess=(read,tcheck) s
 table=(opt,rrhf)
 ----------------------------------------------------------------------
 -----
 title
 -----
 Symbolic Z-matrix:
 Charge =  0 Multiplicity = 1

 SCF Done:  E(RHF) =  -627.362510205     A.U. after   14 cycles
 Normal termination of Gaussian 16 at Sun Apr  6 08:06:22 2025.
 Gaussian 16:  ES64L-G16RevC.01  3-Jul-2019

 ----------------------------------------------------------------------
 #t hf aug-cc-pvdz iop(5/13=1,5/36=2,99/5=2) pseudo=read geom=check gue
 ss=(read,tcheck) scf=(maxcycle=1)
 ----------------------------------------------------------------------
 -----
 title
 -----
 Structure from the checkpoint file:  "4-hydroxy-2-3-dihydrothiophene.chk"
 Charge =  0 Multiplicity = 1

                         Standard orientation:
 ---------------------------------------------------------------------
 Center     Atomic      Atomic             Coordinates (Angstroms)
 Number     Number       Type             X           Y           Z
 ---------------------------------------------------------------------
      1         16           0       -1.557947   -0.547420   -0.078355
      2          6           0        0.113521   -1.121692    0.074303
      3          6           0        1.026808   -0.155065    0.016891
      4          6           0        0.488759    1.236776   -0.190699
      5          6           0       -0.987946    1.187007    0.215046
      6          8           0        2.374694   -0.392412    0.019811
      7          1           0        0.314952   -2.177612    0.152421
      8          1           0        1.028571    1.980024    0.403180
      9          1           0       -1.614058    1.868088   -0.353978
     10          1           0        0.605870    1.517008   -1.244505
     11          1           0       -1.102813    1.398424    1.277082
     12          1           0        2.850231    0.429936    0.167745
 ---------------------------------------------------------------------

 SCF Done:  E(RHF) =  -628.653189735     A.U. after    2 cycles

 The electronic state is 1-A.
 Alpha  occ. eigenvalues --  -75.67733 -21.10728 -13.10773 -13.10390 -13.00825
 Alpha  occ. eigenvalues --  -11.47563 -11.43252 -11.39903 -11.38177  -8.01850
 Alpha  occ. eigenvalues --   -1.75492  -1.31443  -1.07978  -1.04184  -0.86699
 Alpha  occ. eigenvalues --   -0.76723  -0.67721  -0.65683  -0.58452  -0.55136
 Alpha  occ. eigenvalues --   -0.53086  -0.47875  -0.43816  -0.40916  -0.37520
 Alpha  occ. eigenvalues --   -0.33809  -0.18951
 Alpha virt. eigenvalues --    0.03109   0.04547   0.05496   0.05846   0.06095
 Alpha virt. eigenvalues --    0.06476   0.08293   0.10649   0.12036   0.13461
 Alpha virt. eigenvalues --    0.13778   0.14000   0.14336   0.14780   0.15163

 Mulliken charges:
               1
     1  S    1.071372
     2  C   -2.372685
     3  C    4.426800
     4  C   -3.668072
     5  C   -3.490292
     6  O   -3.754621
     7  H    1.432673
     8  H    1.269754
     9  H    1.347101
    10  H    1.292240
    11  H    1.469949
    12  H    0.975781
 Sum of Mulliken charges =   0.00000

 Dipole moment (field-independent basis, Debye):
    X=              0.0578    Y=              1.0784    Z=              0.0108  Tot=              1.0800

 Test job not archived.
 1\1\GINC-SE050\SP\RHF\Aug-CC-pVDZ\C4H6O1S1\OHZDE\06-Apr-2025\0\\#t hf
 aug-cc-pvdz iop(5/13=1,5/36=2,99/5=2) pseudo=read geom=check guess=(re
 ad,tcheck) scf=(maxcycle=1)\\title\\0,1\S,0,-1.557947,-0.54742,-0.0783
 55\C,0,0.113521,-1.121692,0.074303\C,0,1.026808,-0.155065,0.016891\C,0
 ,0.488759,1.236776,-0.190699\C,0,-0.987946,1.187007,0.215046\O,0,2.374
 694,-0.392412,0.019811\H,0,0.314952,-2.177612,0.152421\H,0,1.028571,1.
 980024,0.40318\H,0,-1.614058,1.868088,-0.353978\H,0,0.60587,1.517008,-
 1.244505\H,0,-1.102813,1.398424,1.277082\H,0,2.850231,0.429936,0.16774

 Normal termination of Gaussian 16 at Sun Apr  6 08:06:48 2025.
