 Gaussian 16, Revision C.01,

 ----------------------------------------------------------------------
 #t hf aug-cc-pvdz symm=none int=(grid=ultrafine) guess=(read,tcheck) s
 table=(opt,rrhf)
 ----------------------------------------------------------------------
 -----
 title
 -----
 Symbolic Z-matrix:
 Charge =  0 Multiplicity = 1

 SCF Done:  E(RHF) =  -397.347618580     A.U. after   16 cycles
 Normal termination of Gaussian 16 at Sun Apr  6 08:07:33 2025.
 Gaussian 16:  ES64L-G16RevC.01  3-Jul-2019

 ----------------------------------------------------------------------
 #t hf aug-cc-pvdz iop(5/13=1,5/36=2,99/5=2) pseudo=read geom=check gue
 ss=(read,tcheck) scf=(maxcycle=1)
 ----------------------------------------------------------------------
 -----
 title
 -----
 Structure from the checkpoint file:  "4-hydroxybenzonitrile.chk"
 Charge =  0 Multiplicity = 1

                         Standard orientation:
 ---------------------------------------------------------------------
 Center     Atomic      Atomic             Coordinates (Angstroms)
 Number     Number       Type             X           Y           Z
 ---------------------------------------------------------------------
      1          6           0       -0.005988    2.507272   -0.000000
      2          6           0       -1.204001    0.369123   -0.000000
      3          6           0        1.211150    0.375851    0.000000
      4          6           0       -1.197969   -1.015172   -0.000000
      5          6           0        1.219241   -1.005857    0.000000
      6          6           0       -0.000000    1.080084   -0.000000
      7          6           0        0.013220   -1.706493    0.000000
      8          7           0       -0.011295    3.660282   -0.000000
      9          8           0        0.081550   -3.064394    0.000000
     10          1           0       -2.141968    0.905432   -0.000000
     11          1           0        2.144005    0.921085    0.000000
     12          1           0       -2.133901   -1.560076   -0.000000
     13          1           0        2.147877   -1.558073    0.000000
     14          1           0       -0.803266   -3.444050    0.000000
 ---------------------------------------------------------------------

 SCF Done:  E(RHF) =  -399.141791821     A.U. after    2 cycles

 The electronic state is 1-A'.
 Alpha  occ. eigenvalues --  -21.13033 -15.75615 -11.55934 -11.49159 -11.46921
 Alpha  occ. eigenvalues --  -11.46727 -11.43314 -11.43053 -11.39868  -1.78635
 Alpha  occ. eigenvalues --   -1.38016  -1.28307  -1.13129  -1.11834  -0.91513
 Alpha  occ. eigenvalues --   -0.90735  -0.77792  -0.71655  -0.65525  -0.62644
 Alpha  occ. eigenvalues --   -0.61440  -0.57498  -0.55953  -0.51627  -0.50666
 Alpha  occ. eigenvalues --   -0.49018  -0.44617  -0.42946  -0.42023  -0.36522
 Alpha  occ. eigenvalues --   -0.29204
 Alpha virt. eigenvalues --    0.02460   0.04353   0.05563   0.06226   0.06500
 Alpha virt. eigenvalues --    0.08499   0.09163   0.10007   0.10759   0.11364
 Alpha virt. eigenvalues --    0.11894   0.12375   0.12416   0.12695   0.13205

 Mulliken charges:
               1
     1  C   -0.660617
     2  C   -1.312814
     3  C   -1.580824
     4  C   -3.868322
     5  C   -2.652788
     6  C    4.502439
     7  C    4.399926
     8  N   -2.224327
     9  O   -4.451284
    10  H    1.675236
    11  H    1.747161
    12  H    1.664986
    13  H    1.745438
    14  H    1.015791
 Sum of Mulliken charges =   0.00000

 Dipole moment (field-independent basis, Debye):
    X=             -0.6077    Y=             -5.0155    Z=             -0.0000  Tot=              5.0522

 Test job not archived.
 1\1\GINC-SE155\SP\RHF\Aug-CC-pVDZ\C7H5N1O1\OHZDE\06-Apr-2025\0\\#t hf
 aug-cc-pvdz iop(5/13=1,5/36=2,99/5=2) pseudo=read geom=check guess=(re
 ad,tcheck) scf=(maxcycle=1)\\title\\0,1\C,0,-0.005988,2.507272,0.\C,0,
 -1.204001,0.369123,0.\C,0,1.21115,0.375851,0.\C,0,-1.197969,-1.015172,
 0.\C,0,1.219241,-1.005857,0.\C,0,0.,1.080084,0.\C,0,0.01322,-1.706493,
 0.\N,0,-0.011295,3.660282,0.\O,0,0.081551,-3.064394,0.\H,0,-2.141968,0
 .905432,0.\H,0,2.144005,0.921085,0.\H,0,-2.133901,-1.560076,0.\H,0,2.1
 47877,-1.558073,0.\H,0,-0.803265,-3.44405,0.\\Version=ES64L-G16RevC.01

 Normal termination of Gaussian 16 at Sun Apr  6 08:07:39 2025.
