 Gaussian 16, Revision C.01,

 ----------------------------------------------------------------------
 #t hf aug-cc-pvdz symm=none int=(grid=ultrafine) guess=(read,tcheck) s
 table=(opt,rrhf)
 ----------------------------------------------------------------------
 -----
 title
 -----
 Symbolic Z-matrix:
 Charge =  0 Multiplicity = 1

 SCF Done:  E(RHF) =  -1019.92907162     A.U. after   15 cycles
 Normal termination of Gaussian 16 at Sun Apr  6 08:07:00 2025.
 Gaussian 16:  ES64L-G16RevC.01  3-Jul-2019

 ----------------------------------------------------------------------
 #t hf aug-cc-pvdz iop(5/13=1,5/36=2,99/5=2) pseudo=read geom=check gue
 ss=(read,tcheck) scf=(maxcycle=1)
 ----------------------------------------------------------------------
 -----
 title
 -----
 Structure from the checkpoint file:  "4-imino-1-3-thiazolidine-2-thione.chk"
 Charge =  0 Multiplicity = 1

                         Standard orientation:
 ---------------------------------------------------------------------
 Center     Atomic      Atomic             Coordinates (Angstroms)
 Number     Number       Type             X           Y           Z
 ---------------------------------------------------------------------
      1         16           0        0.212246    1.503595    0.000013
      2         16           0        2.374967   -0.597531   -0.000005
      3          7           0       -0.270384   -1.016336   -0.000009
      4          7           0       -2.558616   -1.309203   -0.000011
      5          6           0        0.793728   -0.164480   -0.000001
      6          6           0       -1.566028   -0.523204   -0.000005
      7          6           0       -1.550107    0.995182    0.000009
      8          1           0       -0.112585   -2.013711   -0.000018
      9          1           0       -3.442358   -0.809316   -0.000007
     10          1           0       -2.051518    1.379900   -0.885946
     11          1           0       -2.051518    1.379884    0.885970
 ---------------------------------------------------------------------

 SCF Done:  E(RHF) =  -1021.40751447     A.U. after    2 cycles

 The electronic state is 1-A.
 Alpha  occ. eigenvalues --  -75.73236 -75.65891 -15.82051 -15.75494 -13.17598
 Alpha  occ. eigenvalues --  -13.16908 -13.15181 -13.05895 -12.99797 -12.96978
 Alpha  occ. eigenvalues --  -11.52143 -11.51527 -11.44750  -8.07478  -8.00085
 Alpha  occ. eigenvalues --   -1.55360  -1.33707  -1.23296  -1.14781  -1.02045
 Alpha  occ. eigenvalues --   -0.87892  -0.84683  -0.67891  -0.67308  -0.62205
 Alpha  occ. eigenvalues --   -0.58605  -0.57539  -0.48145  -0.45021  -0.44993
 Alpha  occ. eigenvalues --   -0.38507  -0.30585  -0.23911  -0.22591
 Alpha virt. eigenvalues --    0.01814   0.04975   0.05026   0.05389   0.06985
 Alpha virt. eigenvalues --    0.07948   0.08031   0.08451   0.10840   0.11512
 Alpha virt. eigenvalues --    0.11692   0.13355   0.13804   0.15019   0.15495

 Mulliken charges:
               1
     1  S    1.739396
     2  S    1.705357
     3  N   -2.872052
     4  N   -3.315909
     5  C   -1.545030
     6  C    4.137098
     7  C   -4.120270
     8  H    0.772426
     9  H    0.670272
    10  H    1.414356
    11  H    1.414355
 Sum of Mulliken charges =   0.00000

 Dipole moment (field-independent basis, Debye):
    X=              0.0902    Y=              2.8008    Z=              0.0000  Tot=              2.8022

 Test job not archived.
 1\1\GINC-SE165\SP\RHF\Aug-CC-pVDZ\C3H4N2S2\OHZDE\06-Apr-2025\0\\#t hf
 aug-cc-pvdz iop(5/13=1,5/36=2,99/5=2) pseudo=read geom=check guess=(re
 ad,tcheck) scf=(maxcycle=1)\\title\\0,1\S,0,0.212246,1.503595,0.000013
 \S,0,2.374967,-0.597531,-0.000005\N,0,-0.270384,-1.016336,-0.000009\N,
 0,-2.558616,-1.309203,-0.000011\C,0,0.793728,-0.16448,-0.000001\C,0,-1
 .566028,-0.523204,-0.000005\C,0,-1.550107,0.995182,0.000009\H,0,-0.112
 586,-2.013711,-0.000018\H,0,-3.442358,-0.809316,-0.000007\H,0,-2.05151
 8,1.3799,-0.885946\H,0,-2.051518,1.379884,0.88597\\Version=ES64L-G16Re

 Normal termination of Gaussian 16 at Sun Apr  6 08:07:06 2025.
