 Gaussian 16, Revision C.01,

 ----------------------------------------------------------------------
 #t hf aug-cc-pvdz symm=none int=(grid=ultrafine) guess=(read,tcheck) s
 table=(opt,rrhf)
 ----------------------------------------------------------------------
 -----
 title
 -----
 Symbolic Z-matrix:
 Charge =  0 Multiplicity = 1

 SCF Done:  E(RHF) =  -382.515285680     A.U. after   16 cycles
 Normal termination of Gaussian 16 at Sun Apr  6 08:07:51 2025.
 Gaussian 16:  ES64L-G16RevC.01  3-Jul-2019

 ----------------------------------------------------------------------
 #t hf aug-cc-pvdz iop(5/13=1,5/36=2,99/5=2) pseudo=read geom=check gue
 ss=(read,tcheck) scf=(maxcycle=1)
 ----------------------------------------------------------------------
 -----
 title
 -----
 Structure from the checkpoint file:  "4-methylbenzaldehyde.chk"
 Charge =  0 Multiplicity = 1

                         Standard orientation:
 ---------------------------------------------------------------------
 Center     Atomic      Atomic             Coordinates (Angstroms)
 Number     Number       Type             X           Y           Z
 ---------------------------------------------------------------------
      1          6           0       -0.225569    1.332966   -0.000002
      2          6           0       -0.455485   -1.064735   -0.000006
      3          6           0        1.156764    1.200181   -0.000032
      4          6           0        0.920244   -1.190395   -0.000036
      5          6           0       -1.043674    0.204925    0.000012
      6          6           0        1.751261   -0.060989   -0.000040
      7          6           0       -2.509207    0.366017    0.000015
      8          6           0        3.247030   -0.218201    0.000041
      9          8           0       -3.310674   -0.540952    0.000015
     10          1           0       -0.675329    2.318557   -0.000006
     11          1           0       -1.096676   -1.935469   -0.000014
     12          1           0        1.781369    2.084082   -0.000052
     13          1           0        1.367447   -2.176702   -0.000067
     14          1           0       -2.854814    1.419797    0.000014
     15          1           0        3.582124   -0.775241   -0.877101
     16          1           0        3.750856    0.746927   -0.001219
     17          1           0        3.582235   -0.772949    0.878607
 ---------------------------------------------------------------------

 SCF Done:  E(RHF) =  -384.294459051     A.U. after    2 cycles

 The electronic state is 1-A.
 Alpha  occ. eigenvalues --  -21.05462 -11.52079 -11.48388 -11.45405 -11.45032
 Alpha  occ. eigenvalues --  -11.43090 -11.41870 -11.39963 -11.37246  -1.70280
 Alpha  occ. eigenvalues --   -1.36784  -1.17356  -1.10740  -1.03147  -0.90249
 Alpha  occ. eigenvalues --   -0.87939  -0.80788  -0.70078  -0.66267  -0.62400
 Alpha  occ. eigenvalues --   -0.59154  -0.58949  -0.58340  -0.53560  -0.52537
 Alpha  occ. eigenvalues --   -0.50501  -0.45380  -0.44548  -0.44479  -0.34392
 Alpha  occ. eigenvalues --   -0.31587  -0.29190
 Alpha virt. eigenvalues --    0.03084   0.04364   0.04915   0.06015   0.06037
 Alpha virt. eigenvalues --    0.06527   0.07289   0.07810   0.09230   0.09741
 Alpha virt. eigenvalues --    0.10149   0.11055   0.12012   0.12590   0.13047

 Mulliken charges:
               1
     1  C   -1.043626
     2  C   -2.400114
     3  C   -2.094108
     4  C   -1.650853
     5  C    2.718934
     6  C    2.334649
     7  C   -0.767907
     8  C   -5.725537
     9  O   -3.204936
    10  H    1.837647
    11  H    1.843159
    12  H    1.808149
    13  H    1.843718
    14  H    1.225033
    15  H    1.013673
    16  H    1.248047
    17  H    1.014071
 Sum of Mulliken charges =   0.00000

 Dipole moment (field-independent basis, Debye):
    X=              2.3274    Y=              0.3966    Z=              0.0001  Tot=              2.3610

 Test job not archived.
 1\1\GINC-SE042\SP\RHF\Aug-CC-pVDZ\C8H8O1\OHZDE\06-Apr-2025\0\\#t hf au
 g-cc-pvdz iop(5/13=1,5/36=2,99/5=2) pseudo=read geom=check guess=(read
 ,tcheck) scf=(maxcycle=1)\\title\\0,1\C,0,-0.225569,1.332966,-0.000002
 \C,0,-0.455485,-1.064735,-0.000006\C,0,1.156764,1.200181,-0.000032\C,0
 ,0.920244,-1.190395,-0.000036\C,0,-1.043674,0.204925,0.000012\C,0,1.75
 1261,-0.060989,-0.00004\C,0,-2.509207,0.366017,0.000015\C,0,3.24703,-0
 .218201,0.000041\O,0,-3.310674,-0.540952,0.000015\H,0,-0.675329,2.3185
 57,-0.000006\H,0,-1.096676,-1.935469,-0.000014\H,0,1.781369,2.084082,-

 Normal termination of Gaussian 16 at Sun Apr  6 08:08:02 2025.
