 Gaussian 16, Revision C.01,

 ----------------------------------------------------------------------
 #t hf aug-cc-pvdz symm=none int=(grid=ultrafine) guess=(read,tcheck) s
 table=(opt,rrhf)
 ----------------------------------------------------------------------
 -----
 title
 -----
 Symbolic Z-matrix:
 Charge =  0 Multiplicity = 1

 SCF Done:  E(RHF) =  -263.892746974     A.U. after   14 cycles
 Normal termination of Gaussian 16 at Sun Apr  6 08:06:58 2025.
 Gaussian 16:  ES64L-G16RevC.01  3-Jul-2019

 ----------------------------------------------------------------------
 #t hf aug-cc-pvdz iop(5/13=1,5/36=2,99/5=2) pseudo=read geom=check gue
 ss=(read,tcheck) scf=(maxcycle=1)
 ----------------------------------------------------------------------
 -----
 title
 -----
 Structure from the checkpoint file:  "4-methyl-1H-imidazole.chk"
 Charge =  0 Multiplicity = 1

                         Standard orientation:
 ---------------------------------------------------------------------
 Center     Atomic      Atomic             Coordinates (Angstroms)
 Number     Number       Type             X           Y           Z
 ---------------------------------------------------------------------
      1          6           0        1.108723   -0.145442    0.000000
      2          6           0       -0.725124   -1.365652    0.000000
      3          6           0        0.000000    0.658242    0.000000
      4          6           0       -0.075878    2.147531    0.000000
      5          7           0       -1.137354   -0.122450    0.000000
      6          7           0        0.632730   -1.439852    0.000000
      7          1           0        2.160529    0.077190    0.000000
      8          1           0       -1.353102   -2.241108    0.000000
      9          1           0       -0.613019    2.509034    0.878479
     10          1           0        0.918810    2.592122    0.000000
     11          1           0       -0.613019    2.509034   -0.878479
     12          1           0        1.185847   -2.278231    0.000000
 ---------------------------------------------------------------------

 SCF Done:  E(RHF) =  -265.138655463     A.U. after    2 cycles

 The electronic state is 1-A'.
 Alpha  occ. eigenvalues --  -15.79417 -15.70763 -11.43548 -11.41883 -11.39733
 Alpha  occ. eigenvalues --  -11.35845  -1.55770  -1.26804  -1.12690  -0.99953
 Alpha  occ. eigenvalues --   -0.84216  -0.77464  -0.73413  -0.60592  -0.59052
 Alpha  occ. eigenvalues --   -0.56586  -0.54059  -0.50721  -0.48983  -0.37707
 Alpha  occ. eigenvalues --   -0.35730  -0.29628
 Alpha virt. eigenvalues --    0.03324   0.05057   0.05137   0.05654   0.07185
 Alpha virt. eigenvalues --    0.07622   0.10402   0.10791   0.11465   0.12178
 Alpha virt. eigenvalues --    0.12703   0.14376   0.14826   0.15965   0.16156

 Mulliken charges:
               1
     1  C   -1.842973
     2  C    1.479829
     3  C    4.745566
     4  C   -4.829725
     5  N   -3.655093
     6  N   -2.963700
     7  H    1.152595
     8  H    1.594410
     9  H    1.144431
    10  H    1.221436
    11  H    1.144431
    12  H    0.808794
 Sum of Mulliken charges =  -0.00000

 Dipole moment (field-independent basis, Debye):
    X=              2.4699    Y=             -2.0912    Z=             -0.0000  Tot=              3.2363

 Test job not archived.
 1\1\GINC-SE212\SP\RHF\Aug-CC-pVDZ\C4H6N2\OHZDE\06-Apr-2025\0\\#t hf au
 g-cc-pvdz iop(5/13=1,5/36=2,99/5=2) pseudo=read geom=check guess=(read
 ,tcheck) scf=(maxcycle=1)\\title\\0,1\C,0,1.108723,-0.145442,0.\C,0,-0
 .725124,-1.365652,0.\C,0,0.,0.658242,0.\C,0,-0.075878,2.147531,0.\N,0,
 -1.137354,-0.12245,0.\N,0,0.63273,-1.439852,0.\H,0,2.160529,0.07719,0.
 \H,0,-1.353102,-2.241108,0.\H,0,-0.613019,2.509034,0.878479\H,0,0.9188
 1,2.592122,0.\H,0,-0.613019,2.509034,-0.878479\H,0,1.185847,-2.278231,
 0.\\Version=ES64L-G16RevC.01\State=1-A'\HF=-265.1386555\RMSD=8.235e-01

 Normal termination of Gaussian 16 at Sun Apr  6 08:07:05 2025.
