 Gaussian 16, Revision C.01,

 ----------------------------------------------------------------------
 #t hf aug-cc-pvdz symm=none int=(grid=ultrafine) guess=(read,tcheck) s
 table=(opt,rrhf)
 ----------------------------------------------------------------------
 -----
 title
 -----
 Symbolic Z-matrix:
 Charge =  0 Multiplicity = 1

 SCF Done:  E(RHF) =  -309.105063369     A.U. after   14 cycles

 1\1\GINC-SE041\Stability\RHF\Aug-CC-pVDZ\C6H12O1\OHZDE\06-Apr-2025\0\\
 #t hf aug-cc-pvdz symm=none int=(grid=ultrafine) guess=(read,tcheck) s
 table=(opt,rrhf)\\title\\0,1\C,0,1.363855,0.030075,-0.170042\C,0,2.606
 929,-0.557824,0.463532\C,0,-1.45528,1.225604,0.713644\C,0,-2.421092,-0
 .889332,-0.272124\C,0,0.061163,-0.705726,0.102479\C,0,-1.21841,0.05772
 2,-0.24833\O,0,1.416645,1.020203,-0.864763\H,0,2.642224,-1.64068,0.332
 842\H,0,3.496393,-0.099039,0.039705\H,0,2.584875,-0.368191,1.539724\H,
 0,-2.352545,1.781025,0.436354\H,0,-1.59422,0.865028,1.736746\H,0,-0.61

 Normal termination of Gaussian 16 at Sun Apr  6 08:07:39 2025.
 Gaussian 16:  ES64L-G16RevC.01  3-Jul-2019

 ----------------------------------------------------------------------
 #t hf aug-cc-pvdz iop(5/13=1,5/36=2,99/5=2) pseudo=read geom=check gue
 ss=(read,tcheck) scf=(maxcycle=1)
 ----------------------------------------------------------------------
 -----
 title
 -----
 Structure from the checkpoint file:  "4-methyl-2-pentanone.chk"
 Charge =  0 Multiplicity = 1

                         Standard orientation:
 ---------------------------------------------------------------------
 Center     Atomic      Atomic             Coordinates (Angstroms)
 Number     Number       Type             X           Y           Z
 ---------------------------------------------------------------------
      1          6           0        1.363855    0.030075   -0.170042
      2          6           0        2.606929   -0.557824    0.463532
      3          6           0       -1.455280    1.225604    0.713644
      4          6           0       -2.421092   -0.889332   -0.272124
      5          6           0        0.061163   -0.705726    0.102479
      6          6           0       -1.218410    0.057722   -0.248330
      7          8           0        1.416645    1.020203   -0.864763
      8          1           0        2.642224   -1.640680    0.332842
      9          1           0        3.496393   -0.099038    0.039705
     10          1           0        2.584875   -0.368191    1.539724
     11          1           0       -2.352545    1.781025    0.436354
     12          1           0       -1.594220    0.865028    1.736746
     13          1           0       -0.618385    1.922898    0.706321
     14          1           0       -3.332967   -0.354650   -0.542235
     15          1           0       -2.584846   -1.345226    0.707862
     16          1           0       -2.281272   -1.695729   -0.994592
     17          1           0        0.119090   -1.634373   -0.479035
     18          1           0        0.049131   -1.027199    1.149683
     19          1           0       -1.083622    0.471398   -1.250224
 ---------------------------------------------------------------------

 SCF Done:  E(RHF) =  -310.612227388     A.U. after    2 cycles

 The electronic state is 1-A.
 Alpha  occ. eigenvalues --  -21.04486 -11.49535 -11.42618 -11.39820 -11.38768
 Alpha  occ. eigenvalues --  -11.37989 -11.34871  -1.70400  -1.26455  -1.12380
 Alpha  occ. eigenvalues --   -1.01762  -0.99848  -0.82722  -0.73817  -0.65285
 Alpha  occ. eigenvalues --   -0.63028  -0.60240  -0.59202  -0.56599  -0.56072
 Alpha  occ. eigenvalues --   -0.53338  -0.51616  -0.47757  -0.44513  -0.43793
 Alpha  occ. eigenvalues --   -0.43051  -0.40166  -0.27919
 Alpha virt. eigenvalues --    0.03464   0.04850   0.05079   0.05601   0.05709
 Alpha virt. eigenvalues --    0.05914   0.06212   0.07346   0.07376   0.08368
 Alpha virt. eigenvalues --    0.08502   0.08801   0.12157   0.12856   0.13191

 Mulliken charges:
               1
     1  C    4.797483
     2  C   -4.829728
     3  C   -3.968286
     4  C   -4.257713
     5  C   -3.769735
     6  C   -1.145743
     7  O   -3.438934
     8  H    1.310153
     9  H    1.257876
    10  H    1.243503
    11  H    1.263296
    12  H    1.313722
    13  H    1.295595
    14  H    1.170508
    15  H    1.305509
    16  H    1.259643
    17  H    1.652609
    18  H    1.669055
    19  H    1.871190
 Sum of Mulliken charges =  -0.00000

 Dipole moment (field-independent basis, Debye):
    X=             -0.1308    Y=             -0.9555    Z=              0.5136  Tot=              1.0926

 Test job not archived.
 1\1\GINC-SE041\SP\RHF\Aug-CC-pVDZ\C6H12O1\OHZDE\06-Apr-2025\0\\#t hf a
 ug-cc-pvdz iop(5/13=1,5/36=2,99/5=2) pseudo=read geom=check guess=(rea
 d,tcheck) scf=(maxcycle=1)\\title\\0,1\C,0,1.363855,0.030075,-0.170042
 \C,0,2.606929,-0.557824,0.463532\C,0,-1.45528,1.225604,0.713644\C,0,-2
 .421092,-0.889332,-0.272124\C,0,0.061163,-0.705726,0.102479\C,0,-1.218
 41,0.057722,-0.24833\O,0,1.416645,1.020203,-0.864763\H,0,2.642224,-1.6
 4068,0.332842\H,0,3.496393,-0.099039,0.039705\H,0,2.584875,-0.368191,1
 .539724\H,0,-2.352545,1.781025,0.436354\H,0,-1.59422,0.865028,1.736746

 Normal termination of Gaussian 16 at Sun Apr  6 08:07:46 2025.
