 Gaussian 16, Revision C.01,

 ----------------------------------------------------------------------
 #t hf aug-cc-pvdz symm=none int=(grid=ultrafine) guess=(read,tcheck) s
 table=(opt,rrhf)
 ----------------------------------------------------------------------
 -----
 title
 -----
 Symbolic Z-matrix:
 Charge =  0 Multiplicity = 1

 SCF Done:  E(RHF) =  -325.071034668     A.U. after   12 cycles
 Normal termination of Gaussian 16 at Sun Apr  6 08:06:51 2025.
 Gaussian 16:  ES64L-G16RevC.01  3-Jul-2019

 ----------------------------------------------------------------------
 #t hf aug-cc-pvdz iop(5/13=1,5/36=2,99/5=2) pseudo=read geom=check gue
 ss=(read,tcheck) scf=(maxcycle=1)
 ----------------------------------------------------------------------
 -----
 title
 -----
 Structure from the checkpoint file:  "4-methylmorpholine.chk"
 Charge =  0 Multiplicity = 1

                         Standard orientation:
 ---------------------------------------------------------------------
 Center     Atomic      Atomic             Coordinates (Angstroms)
 Number     Number       Type             X           Y           Z
 ---------------------------------------------------------------------
      1          6           0        0.106519    0.321839    1.198642
      2          6           0        0.106519    0.321839   -1.198642
      3          6           0        0.106519   -1.199020    1.172521
      4          6           0        0.106519   -1.199020   -1.172521
      5          6           0       -0.609708    2.294708   -0.000000
      6          7           0       -0.539239    0.845250   -0.000000
      7          8           0        0.737364   -1.697303    0.000000
      8          1           0       -0.440093    0.670990    2.077415
      9          1           0        1.146930    0.681983    1.286343
     10          1           0        1.146930    0.681983   -1.286343
     11          1           0       -0.440093    0.670990   -2.077415
     12          1           0        0.665003   -1.599068    2.017754
     13          1           0       -0.925754   -1.568194    1.224034
     14          1           0       -0.925754   -1.568194   -1.224034
     15          1           0        0.665003   -1.599068   -2.017754
     16          1           0        0.384828    2.772550   -0.000000
     17          1           0       -1.149724    2.637811    0.883102
     18          1           0       -1.149724    2.637811   -0.883102
 ---------------------------------------------------------------------

 SCF Done:  E(RHF) =  -326.626984126     A.U. after    2 cycles

 The electronic state is 1-A'.
 Alpha  occ. eigenvalues --  -21.03522 -15.70257 -11.48640 -11.43127 -11.38381
 Alpha  occ. eigenvalues --  -11.37959 -11.36912  -1.75146  -1.42186  -1.13751
 Alpha  occ. eigenvalues --   -1.06529  -0.92438  -0.91192  -0.79028  -0.67810
 Alpha  occ. eigenvalues --   -0.64679  -0.64158  -0.61176  -0.59494  -0.54840
 Alpha  occ. eigenvalues --   -0.53935  -0.50259  -0.49555  -0.48443  -0.43344
 Alpha  occ. eigenvalues --   -0.36269  -0.31370  -0.28579
 Alpha virt. eigenvalues --    0.04324   0.05097   0.05331   0.05559   0.05797
 Alpha virt. eigenvalues --    0.06109   0.06646   0.07179   0.07388   0.08230
 Alpha virt. eigenvalues --    0.09216   0.11809   0.12021   0.13453   0.14242

 Mulliken charges:
               1
     1  C   -2.146881
     2  C   -2.146881
     3  C   -1.343847
     4  C   -1.343847
     5  C   -3.863908
     6  N   -1.841983
     7  O   -2.980808
     8  H    1.510606
     9  H    1.559049
    10  H    1.559049
    11  H    1.510606
    12  H    1.169901
    13  H    1.541312
    14  H    1.541312
    15  H    1.169901
    16  H    1.438808
    17  H    1.333805
    18  H    1.333805
 Sum of Mulliken charges =   0.00000

 Dipole moment (field-independent basis, Debye):
    X=             -0.1206    Y=              0.5134    Z=             -0.0000  Tot=              0.5274

 Test job not archived.
 1\1\GINC-SE222\SP\RHF\Aug-CC-pVDZ\C5H11N1O1\OHZDE\06-Apr-2025\0\\#t hf
  aug-cc-pvdz iop(5/13=1,5/36=2,99/5=2) pseudo=read geom=check guess=(r
 ead,tcheck) scf=(maxcycle=1)\\title\\0,1\C,0,0.106519,0.321839,1.19864
 2\C,0,0.106519,0.321839,-1.198642\C,0,0.106519,-1.19902,1.172521\C,0,0
 .106519,-1.19902,-1.172521\C,0,-0.609708,2.294708,0.\N,0,-0.539239,0.8
 4525,0.\O,0,0.737364,-1.697303,0.\H,0,-0.440093,0.67099,2.077415\H,0,1
 .14693,0.681983,1.286343\H,0,1.14693,0.681983,-1.286343\H,0,-0.440093,
 0.67099,-2.077415\H,0,0.665003,-1.599068,2.017754\H,0,-0.925754,-1.568

 Normal termination of Gaussian 16 at Sun Apr  6 08:06:58 2025.
