 Gaussian 16, Revision C.01,

 ----------------------------------------------------------------------
 #t hf aug-cc-pvdz symm=none int=(grid=ultrafine) guess=(read,tcheck) s
 table=(opt,rrhf)
 ----------------------------------------------------------------------
 -----
 title
 -----
 Symbolic Z-matrix:
 Charge =  0 Multiplicity = 1

 SCF Done:  E(RHF) =  -303.528110698     A.U. after   14 cycles
 Normal termination of Gaussian 16 at Sun Apr  6 08:06:53 2025.
 Gaussian 16:  ES64L-G16RevC.01  3-Jul-2019

 ----------------------------------------------------------------------
 #t hf aug-cc-pvdz iop(5/13=1,5/36=2,99/5=2) pseudo=read geom=check gue
 ss=(read,tcheck) scf=(maxcycle=1)
 ----------------------------------------------------------------------
 -----
 title
 -----
 Structure from the checkpoint file:  "4-methylene-2-oxetanone.chk"
 Charge =  0 Multiplicity = 1

                         Standard orientation:
 ---------------------------------------------------------------------
 Center     Atomic      Atomic             Coordinates (Angstroms)
 Number     Number       Type             X           Y           Z
 ---------------------------------------------------------------------
      1          6           0        0.232599    2.252569    0.000000
      2          1           0        1.240702    2.639284    0.000000
      3          1           0       -0.591492    2.949028    0.000000
      4          8           0        0.964439   -0.073898    0.000000
      5          6           0       -0.031516   -1.052379    0.000000
      6          8           0        0.109849   -2.226036    0.000000
      7          6           0       -1.150253   -0.013443    0.000000
      8          1           0       -1.774247   -0.027961    0.891486
      9          1           0       -1.774247   -0.027961   -0.891486
     10          6           0        0.000000    0.957768    0.000000
 ---------------------------------------------------------------------

 SCF Done:  E(RHF) =  -304.852144989     A.U. after    2 cycles

 The electronic state is 1-A'.
 Alpha  occ. eigenvalues --  -21.11325 -21.08235 -11.54990 -11.49317 -11.44682
 Alpha  occ. eigenvalues --  -11.40073  -1.87434  -1.70207  -1.18520  -1.09810
 Alpha  occ. eigenvalues --   -0.82405  -0.76711  -0.67875  -0.66810  -0.62970
 Alpha  occ. eigenvalues --   -0.57166  -0.52302  -0.49405  -0.44438  -0.43044
 Alpha  occ. eigenvalues --   -0.30972  -0.30421
 Alpha virt. eigenvalues --    0.02703   0.04806   0.05658   0.05760   0.08502
 Alpha virt. eigenvalues --    0.09773   0.10887   0.10921   0.11764   0.12609
 Alpha virt. eigenvalues --    0.13280   0.13805   0.14300   0.16079   0.17546

 Mulliken charges:
               1
     1  C   -4.240368
     2  H    1.450247
     3  H    1.285894
     4  O   -3.341313
     5  C    5.258602
     6  O   -3.111761
     7  C   -4.315687
     8  H    1.208683
     9  H    1.208683
    10  C    4.597020
 Sum of Mulliken charges =   0.00000

 Dipole moment (field-independent basis, Debye):
    X=             -1.0850    Y=              1.3849    Z=              0.0000  Tot=              1.7593

 Test job not archived.
 1\1\GINC-SE209\SP\RHF\Aug-CC-pVDZ\C4H4O2\OHZDE\06-Apr-2025\0\\#t hf au
 g-cc-pvdz iop(5/13=1,5/36=2,99/5=2) pseudo=read geom=check guess=(read
 ,tcheck) scf=(maxcycle=1)\\title\\0,1\C,0,0.232599,2.252569,0.\H,0,1.2
 40702,2.639284,0.\H,0,-0.591492,2.949028,0.\O,0,0.964439,-0.073898,0.\
 C,0,-0.031516,-1.052379,0.\O,0,0.109849,-2.226036,0.\C,0,-1.150253,-0.
 013443,0.\H,0,-1.774247,-0.027961,0.891486\H,0,-1.774247,-0.027961,-0.
 891486\C,0,0.,0.957768,0.\\Version=ES64L-G16RevC.01\State=1-A'\HF=-304
 .852145\RMSD=6.562e-01\Dipole=-0.4268663,0.5448761,0.\Quadrupole=1.730

 Normal termination of Gaussian 16 at Sun Apr  6 08:06:57 2025.
