 Gaussian 16, Revision C.01,

 ----------------------------------------------------------------------
 #t hf aug-cc-pvdz symm=none int=(grid=ultrafine) guess=(read,tcheck) s
 table=(opt,rrhf)
 ----------------------------------------------------------------------
 -----
 title
 -----
 Symbolic Z-matrix:
 Charge =  0 Multiplicity = 1

 SCF Done:  E(RHF) =  -285.767298788     A.U. after   14 cycles
 Normal termination of Gaussian 16 at Sun Apr  6 08:06:37 2025.
 Gaussian 16:  ES64L-G16RevC.01  3-Jul-2019

 ----------------------------------------------------------------------
 #t hf aug-cc-pvdz iop(5/13=1,5/36=2,99/5=2) pseudo=read geom=check gue
 ss=(read,tcheck) scf=(maxcycle=1)
 ----------------------------------------------------------------------
 -----
 title
 -----
 Structure from the checkpoint file:  "4-methylpyridine.chk"
 Charge =  0 Multiplicity = 1

                         Standard orientation:
 ---------------------------------------------------------------------
 Center     Atomic      Atomic             Coordinates (Angstroms)
 Number     Number       Type             X           Y           Z
 ---------------------------------------------------------------------
      1          6           0        0.170112    1.186351   -0.008143
      2          6           0        0.170422   -1.186190   -0.008142
      3          6           0       -1.217953    1.135555    0.002250
      4          6           0       -1.217513   -1.135808    0.002253
      5          6           0        0.901466    0.000262   -0.011063
      6          6           0        2.404775    0.000161    0.007281
      7          7           0       -1.916745   -0.000180    0.008110
      8          1           0        0.673396    2.144679   -0.017182
      9          1           0        0.673970   -2.144393   -0.017199
     10          1           0       -1.795666    2.053142    0.003167
     11          1           0       -1.794994   -2.053533    0.003164
     12          1           0        2.808502   -0.876247   -0.498790
     13          1           0        2.808455    0.891635   -0.471579
     14          1           0        2.775701   -0.016004    1.035029
 ---------------------------------------------------------------------

 SCF Done:  E(RHF) =  -287.138104386     A.U. after    2 cycles

 The electronic state is 1-A.
 Alpha  occ. eigenvalues --  -15.73004 -11.47665 -11.44299 -11.43808 -11.41150
 Alpha  occ. eigenvalues --  -11.39814 -11.36949  -1.44678  -1.22697  -1.10916
 Alpha  occ. eigenvalues --   -1.03686  -0.88746  -0.85031  -0.70022  -0.65084
 Alpha  occ. eigenvalues --   -0.62495  -0.58970  -0.58718  -0.54060  -0.52412
 Alpha  occ. eigenvalues --   -0.51340  -0.45681  -0.35315  -0.35260  -0.33783
 Alpha virt. eigenvalues --    0.03197   0.04694   0.05254   0.05975   0.06043
 Alpha virt. eigenvalues --    0.06525   0.07876   0.09522   0.10908   0.11436
 Alpha virt. eigenvalues --    0.12295   0.12870   0.12942   0.13145   0.13652

 Mulliken charges:
               1
     1  C   -1.895343
     2  C   -1.891552
     3  C   -1.141384
     4  C   -1.136312
     5  C    5.411818
     6  C   -5.246563
     7  N   -3.846762
     8  H    1.577703
     9  H    1.579088
    10  H    1.498625
    11  H    1.498674
    12  H    1.191321
    13  H    1.201722
    14  H    1.198965
 Sum of Mulliken charges =  -0.00000

 Dipole moment (field-independent basis, Debye):
    X=              2.2872    Y=             -0.0013    Z=              0.0265  Tot=              2.2874

 Test job not archived.
 1\1\GINC-SE223\SP\RHF\Aug-CC-pVDZ\C6H7N1\OHZDE\06-Apr-2025\0\\#t hf au
 g-cc-pvdz iop(5/13=1,5/36=2,99/5=2) pseudo=read geom=check guess=(read
 ,tcheck) scf=(maxcycle=1)\\title\\0,1\C,0,0.170112,1.186351,-0.008143\
 C,0,0.170422,-1.18619,-0.008142\C,0,-1.217953,1.135555,0.00225\C,0,-1.
 217513,-1.135808,0.002253\C,0,0.901466,0.000262,-0.011063\C,0,2.404775
 ,0.000161,0.007281\N,0,-1.916745,-0.00018,0.00811\H,0,0.673396,2.14467
 9,-0.017182\H,0,0.67397,-2.144393,-0.017199\H,0,-1.795666,2.053142,0.0
 03167\H,0,-1.794994,-2.053533,0.003164\H,0,2.808502,-0.876247,-0.49879

 Normal termination of Gaussian 16 at Sun Apr  6 08:06:48 2025.
