 Gaussian 16, Revision C.01,

 ----------------------------------------------------------------------
 #t hf aug-cc-pvdz symm=none int=(grid=ultrafine) guess=(read,tcheck) s
 table=(opt,rrhf)
 ----------------------------------------------------------------------
 -----
 title
 -----
 Symbolic Z-matrix:
 Charge =  0 Multiplicity = 1

 SCF Done:  E(RHF) =  -606.376820228     A.U. after   16 cycles
 Normal termination of Gaussian 16 at Sun Apr  6 08:06:59 2025.
 Gaussian 16:  ES64L-G16RevC.01  3-Jul-2019

 ----------------------------------------------------------------------
 #t hf aug-cc-pvdz iop(5/13=1,5/36=2,99/5=2) pseudo=read geom=check gue
 ss=(read,tcheck) scf=(maxcycle=1)
 ----------------------------------------------------------------------
 -----
 title
 -----
 Structure from the checkpoint file:  "4-methyl-1-3-thiazole.chk"
 Charge =  0 Multiplicity = 1

                         Standard orientation:
 ---------------------------------------------------------------------
 Center     Atomic      Atomic             Coordinates (Angstroms)
 Number     Number       Type             X           Y           Z
 ---------------------------------------------------------------------
      1          1           0        1.956440   -1.637058    0.000000
      2          6           0        0.000000    0.950174    0.000000
      3          6           0        1.120691   -0.954132    0.000000
      4          1           0        0.432261    2.850247    0.878324
      5          1           0       -1.103247    2.790379    0.000000
      6          1           0        0.432261    2.850247   -0.878324
      7          6           0       -0.071430    2.443743    0.000000
      8         16           0       -0.511579   -1.544954    0.000000
      9          7           0        1.234040    0.335533    0.000000
     10          1           0       -2.109532    0.327724    0.000000
     11          6           0       -1.059462    0.091715    0.000000
 ---------------------------------------------------------------------

 SCF Done:  E(RHF) =  -607.598470285     A.U. after    2 cycles

 The electronic state is 1-A'.
 Alpha  occ. eigenvalues --  -75.71956 -15.74116 -13.17247 -13.14791 -13.03642
 Alpha  occ. eigenvalues --  -11.45357 -11.43871 -11.40696 -11.37605  -8.06519
 Alpha  occ. eigenvalues --   -1.48195  -1.17987  -1.14585  -0.98970  -0.84271
 Alpha  occ. eigenvalues --   -0.75571  -0.67696  -0.59451  -0.57333  -0.52724
 Alpha  occ. eigenvalues --   -0.51823  -0.50806  -0.41402  -0.35018  -0.34626
 Alpha  occ. eigenvalues --   -0.27774
 Alpha virt. eigenvalues --    0.03284   0.04244   0.05174   0.06454   0.07117
 Alpha virt. eigenvalues --    0.07847   0.10036   0.11095   0.11390   0.12382
 Alpha virt. eigenvalues --    0.12678   0.13341   0.13878   0.14728   0.15547

 Mulliken charges:
               1
     1  H    1.611354
     2  C    4.123633
     3  C   -0.910490
     4  H    1.196068
     5  H    1.244736
     6  H    1.196068
     7  C   -4.738014
     8  S    1.732598
     9  N   -3.487548
    10  H    1.216948
    11  C   -3.185354
 Sum of Mulliken charges =  -0.00000

 Dipole moment (field-independent basis, Debye):
    X=             -2.1622    Y=             -2.0584    Z=             -0.0000  Tot=              2.9853

 Test job not archived.
 1\1\GINC-SE200\SP\RHF\Aug-CC-pVDZ\C4H5N1S1\OHZDE\06-Apr-2025\0\\#t hf
 aug-cc-pvdz iop(5/13=1,5/36=2,99/5=2) pseudo=read geom=check guess=(re
 ad,tcheck) scf=(maxcycle=1)\\title\\0,1\H,0,1.95644,-1.637058,0.\C,0,0
 .,0.950174,0.\C,0,1.120691,-0.954132,0.\H,0,0.432261,2.850247,0.878324
 \H,0,-1.103247,2.790379,0.\H,0,0.432261,2.850247,-0.878324\C,0,-0.0714
 3,2.443743,0.\S,0,-0.511579,-1.544954,0.\N,0,1.23404,0.335533,0.\H,0,-
 2.109532,0.327724,0.\C,0,-1.059462,0.091715,0.\\Version=ES64L-G16RevC.
 01\State=1-A'\HF=-607.5984703\RMSD=8.330e-01\Dipole=-0.8506794,-0.8098

 Normal termination of Gaussian 16 at Sun Apr  6 08:07:06 2025.
