 Gaussian 16, Revision C.01,

 ----------------------------------------------------------------------
 #t hf aug-cc-pvdz symm=none int=(grid=ultrafine) guess=(read,tcheck) s
 table=(opt,rrhf)
 ----------------------------------------------------------------------
 -----
 title
 -----
 Symbolic Z-matrix:
 Charge =  0 Multiplicity = 1

 SCF Done:  E(RHF) =  -590.490128365     A.U. after   17 cycles
 Normal termination of Gaussian 16 at Sun Apr  6 08:11:23 2025.
 Gaussian 16:  ES64L-G16RevC.01  3-Jul-2019

 ----------------------------------------------------------------------
 #t hf aug-cc-pvdz iop(5/13=1,5/36=2,99/5=2) pseudo=read geom=check gue
 ss=(read,tcheck) scf=(maxcycle=1)
 ----------------------------------------------------------------------
 -----
 title
 -----
 Structure from the checkpoint file:  "4-methoxy-N-N-dimethylbenzamide.chk"
 Charge =  0 Multiplicity = 1

                         Standard orientation:
 ---------------------------------------------------------------------
 Center     Atomic      Atomic             Coordinates (Angstroms)
 Number     Number       Type             X           Y           Z
 ---------------------------------------------------------------------
      1          6           0       -0.490195    1.181024    0.380923
      2          6           0       -0.087273   -0.940362   -0.656437
      3          6           0       -1.855971    0.926677    0.397595
      4          6           0       -1.445482   -1.198966   -0.668128
      5          6           0        0.414573    0.251972   -0.124372
      6          6           0       -2.340707   -0.270667   -0.129777
      7          6           0        1.862691    0.635548   -0.187993
      8          6           0        4.207575    0.027914   -0.102161
      9          6           0        2.582085   -1.485876    0.935530
     10          6           0       -4.617266    0.290682    0.342564
     11          7           0        2.808906   -0.316370    0.101874
     12          8           0        2.178901    1.768129   -0.533865
     13          8           0       -3.654834   -0.618058   -0.172296
     14          1           0       -0.115377    2.122535    0.757231
     15          1           0        0.588383   -1.664528   -1.090945
     16          1           0       -2.526213    1.665397    0.809027
     17          1           0       -1.837104   -2.111604   -1.095000
     18          1           0        4.753810   -0.863416   -0.414276
     19          1           0        4.664605    0.410445    0.816274
     20          1           0        4.282830    0.793784   -0.866477
     21          1           0        3.181135   -1.412773    1.848519
     22          1           0        2.873534   -2.401982    0.415066
     23          1           0        1.539541   -1.562042    1.221072
     24          1           0       -4.602392    1.237341   -0.202758
     25          1           0       -4.455250    0.481757    1.406130
     26          1           0       -5.582559   -0.188564    0.205851
 ---------------------------------------------------------------------

 SCF Done:  E(RHF) =  -593.233511779     A.U. after    2 cycles

 The electronic state is 1-A.
 Alpha  occ. eigenvalues --  -21.08115 -21.00974 -15.74017 -11.54115 -11.50265
 Alpha  occ. eigenvalues --  -11.46850 -11.44956 -11.43394 -11.41924 -11.41085
 Alpha  occ. eigenvalues --  -11.40442 -11.38890 -11.37318  -1.79645  -1.69703
 Alpha  occ. eigenvalues --   -1.42384  -1.32628  -1.11584  -1.10705  -1.04769
 Alpha  occ. eigenvalues --   -1.01516  -0.97514  -0.88232  -0.85563  -0.76615
 Alpha  occ. eigenvalues --   -0.70319  -0.67072  -0.65690  -0.63861  -0.63079
 Alpha  occ. eigenvalues --   -0.62237  -0.61301  -0.58877  -0.57105  -0.55518
 Alpha  occ. eigenvalues --   -0.54217  -0.52649  -0.51850  -0.50461  -0.48306
 Alpha  occ. eigenvalues --   -0.45413  -0.44547  -0.40527  -0.39678  -0.34162
 Alpha  occ. eigenvalues --   -0.29322  -0.28410  -0.25456
 Alpha virt. eigenvalues --    0.03081   0.04683   0.04827   0.05245   0.05604
 Alpha virt. eigenvalues --    0.05652   0.06261   0.06722   0.06794   0.07108
 Alpha virt. eigenvalues --    0.07775   0.08268   0.09298   0.09758   0.10978

 Mulliken charges:
               1
     1  C   -1.661744
     2  C    0.160528
     3  C   -2.823121
     4  C   -4.947493
     5  C    2.942067
     6  C    4.565626
     7  C    4.036366
     8  C   -3.761862
     9  C   -3.939506
    10  C   -3.855646
    11  N   -3.333210
    12  O   -3.568383
    13  O   -4.771385
    14  H    1.740919
    15  H    2.111983
    16  H    1.836134
    17  H    1.927484
    18  H    1.528194
    19  H    1.381839
    20  H    1.483162
    21  H    1.409078
    22  H    1.368877
    23  H    1.913478
    24  H    1.409915
    25  H    1.409158
    26  H    1.437543
 Sum of Mulliken charges =  -0.00000

 Dipole moment (field-independent basis, Debye):
    X=             -1.4676    Y=             -1.7332    Z=              1.0546  Tot=              2.5040

 Test job not archived.
 1\1\GINC-SE177\SP\RHF\Aug-CC-pVDZ\C10H13N1O2\OHZDE\06-Apr-2025\0\\#t h
 f aug-cc-pvdz iop(5/13=1,5/36=2,99/5=2) pseudo=read geom=check guess=(
 read,tcheck) scf=(maxcycle=1)\\title\\0,1\C,0,-0.490195,1.181024,0.380
 923\C,0,-0.087273,-0.940362,-0.656437\C,0,-1.855971,0.926677,0.397595\
 C,0,-1.445482,-1.198966,-0.668128\C,0,0.414573,0.251972,-0.124372\C,0,
 -2.340707,-0.270667,-0.129777\C,0,1.862691,0.635548,-0.187993\C,0,4.20
 7575,0.027914,-0.102161\C,0,2.582085,-1.485876,0.93553\C,0,-4.617266,0
 .290682,0.342564\N,0,2.808906,-0.31637,0.101874\O,0,2.178901,1.768129,

 Normal termination of Gaussian 16 at Sun Apr  6 08:11:45 2025.
