 Gaussian 16, Revision C.01,

 ----------------------------------------------------------------------
 #t hf aug-cc-pvdz symm=none int=(grid=ultrafine) guess=(read,tcheck) s
 table=(opt,rrhf)
 ----------------------------------------------------------------------
 -----
 title
 -----
 Symbolic Z-matrix:
 Charge =  0 Multiplicity = 1

 SCF Done:  E(RHF) =  -509.109203606     A.U. after   16 cycles
 Normal termination of Gaussian 16 at Sun Apr  6 08:07:13 2025.
 Gaussian 16:  ES64L-G16RevC.01  3-Jul-2019

 ----------------------------------------------------------------------
 #t hf aug-cc-pvdz iop(5/13=1,5/36=2,99/5=2) pseudo=read geom=check gue
 ss=(read,tcheck) scf=(maxcycle=1)
 ----------------------------------------------------------------------
 -----
 title
 -----
 Structure from the checkpoint file:  "4-nitrophenol.chk"
 Charge =  0 Multiplicity = 1

                         Standard orientation:
 ---------------------------------------------------------------------
 Center     Atomic      Atomic             Coordinates (Angstroms)
 Number     Number       Type             X           Y           Z
 ---------------------------------------------------------------------
      1          6           0       -1.206951    0.001465    0.000000
      2          6           0        1.216264    0.012824    0.000000
      3          6           0       -1.196872   -1.382293    0.000000
      4          6           0        1.225228   -1.368685    0.000000
      5          6           0        0.000000    0.687846    0.000000
      6          6           0        0.018081   -2.070366    0.000000
      7          7           0       -0.009275    2.152677    0.000000
      8          8           0       -1.096069    2.717197    0.000000
      9          8           0        1.070131    2.730377    0.000000
     10          8           0        0.088467   -3.425739    0.000000
     11          1           0       -2.133281    0.554066    0.000000
     12          1           0        2.135640    0.576959    0.000000
     13          1           0       -2.130792   -1.930246    0.000000
     14          1           0        2.153866   -1.920498    0.000000
     15          1           0       -0.795242   -3.808449    0.000000
 ---------------------------------------------------------------------

 SCF Done:  E(RHF) =  -511.341056518     A.U. after    2 cycles

 The electronic state is 1-A'.
 Alpha  occ. eigenvalues --  -21.13555 -21.08907 -21.08799 -15.99718 -11.56143
 Alpha  occ. eigenvalues --  -11.49706 -11.47292 -11.46625 -11.43626 -11.40567
 Alpha  occ. eigenvalues --   -1.99515  -1.79197  -1.68591  -1.36627  -1.16852
 Alpha  occ. eigenvalues --   -1.13751  -0.98756  -0.92140  -0.83637  -0.74978
 Alpha  occ. eigenvalues --   -0.70683  -0.67506  -0.66645  -0.64176  -0.62245
 Alpha  occ. eigenvalues --   -0.59501  -0.56887  -0.54493  -0.49427  -0.45929
 Alpha  occ. eigenvalues --   -0.45191  -0.37086  -0.35614  -0.31049  -0.30712
 Alpha  occ. eigenvalues --   -0.30420
 Alpha virt. eigenvalues --    0.02621   0.04405   0.05483   0.06490   0.06775
 Alpha virt. eigenvalues --    0.08748   0.08858   0.09442   0.11591   0.12179
 Alpha virt. eigenvalues --    0.12328   0.12511   0.13053   0.13082   0.14020

 Mulliken charges:
               1
     1  C   -1.539245
     2  C   -1.846736
     3  C   -2.718496
     4  C   -1.351301
     5  C    2.304766
     6  C    4.462928
     7  N    3.009264
     8  O   -2.966497
     9  O   -2.960368
    10  O   -4.492598
    11  H    1.788299
    12  H    1.863196
    13  H    1.677183
    14  H    1.739009
    15  H    1.030597
 Sum of Mulliken charges =  -0.00000

 Dipole moment (field-independent basis, Debye):
    X=             -0.5987    Y=             -4.1368    Z=              0.0000  Tot=              4.1799

 Test job not archived.
 1\1\GINC-SE047\SP\RHF\Aug-CC-pVDZ\C6H5N1O3\OHZDE\06-Apr-2025\0\\#t hf
 aug-cc-pvdz iop(5/13=1,5/36=2,99/5=2) pseudo=read geom=check guess=(re
 ad,tcheck) scf=(maxcycle=1)\\title\\0,1\C,0,-1.206951,0.001465,0.\C,0,
 1.216264,0.012824,0.\C,0,-1.196872,-1.382293,0.\C,0,1.225228,-1.368685
 ,0.\C,0,0.,0.687846,0.\C,0,0.018081,-2.070366,0.\N,0,-0.009275,2.15267
 7,0.\O,0,-1.096069,2.717197,0.\O,0,1.070131,2.730377,0.\O,0,0.088467,-
 3.425739,0.\H,0,-2.133281,0.554066,0.\H,0,2.13564,0.576959,0.\H,0,-2.1
 30792,-1.930246,0.\H,0,2.153866,-1.920498,0.\H,0,-0.795242,-3.808449,0

 Normal termination of Gaussian 16 at Sun Apr  6 08:07:20 2025.
