 Gaussian 16, Revision C.01,

 ----------------------------------------------------------------------
 #t hf aug-cc-pvdz symm=none int=(grid=ultrafine) guess=(read,tcheck) s
 table=(opt,rrhf)
 ----------------------------------------------------------------------
 -----
 title
 -----
 Symbolic Z-matrix:
 Charge =  0 Multiplicity = 1

 SCF Done:  E(RHF) =  -504.085726373     A.U. after   17 cycles
 Normal termination of Gaussian 16 at Sun Apr  6 08:07:39 2025.
 Gaussian 16:  ES64L-G16RevC.01  3-Jul-2019

 ----------------------------------------------------------------------
 #t hf aug-cc-pvdz iop(5/13=1,5/36=2,99/5=2) pseudo=read geom=check gue
 ss=(read,tcheck) scf=(maxcycle=1)
 ----------------------------------------------------------------------
 -----
 title
 -----
 Structure from the checkpoint file:  "4-nitro-1H-pyrrole-2-carbonitrile.chk"
 Charge =  0 Multiplicity = 1

                         Standard orientation:
 ---------------------------------------------------------------------
 Center     Atomic      Atomic             Coordinates (Angstroms)
 Number     Number       Type             X           Y           Z
 ---------------------------------------------------------------------
      1          8           0        2.409384   -1.476771   -0.000003
      2          8           0        2.963804    0.626484    0.000002
      3          7           0       -1.062861    1.308586    0.000003
      4          7           0        2.141777   -0.283046   -0.000000
      5          7           0       -3.957177   -0.642796   -0.000002
      6          6           0        0.751730    0.081376   -0.000000
      7          6           0       -0.341936   -0.807462   -0.000002
      8          6           0        0.284912    1.380757    0.000003
      9          6           0       -1.469753   -0.017320   -0.000000
     10          6           0       -2.836470   -0.370988   -0.000001
     11          1           0       -0.303559   -1.881146   -0.000005
     12          1           0        0.823963    2.309913    0.000006
     13          1           0       -1.688970    2.096140    0.000005
 ---------------------------------------------------------------------

 SCF Done:  E(RHF) =  -506.284206662     A.U. after    2 cycles

 The electronic state is 1-A.
 Alpha  occ. eigenvalues --  -21.10374 -21.10023 -16.01552 -15.86118 -15.79010
 Alpha  occ. eigenvalues --  -11.54899 -11.51821 -11.49402 -11.46871 -11.44148
 Alpha  occ. eigenvalues --   -2.00908  -1.69942  -1.58193  -1.33257  -1.24913
 Alpha  occ. eigenvalues --   -1.15574  -1.03755  -0.92835  -0.84723  -0.78872
 Alpha  occ. eigenvalues --   -0.69968  -0.68997  -0.67547  -0.63887  -0.63262
 Alpha  occ. eigenvalues --   -0.61940  -0.56259  -0.53933  -0.50067  -0.46648
 Alpha  occ. eigenvalues --   -0.39547  -0.37021  -0.34361  -0.32127  -0.32109
 Alpha virt. eigenvalues --    0.02101   0.04828   0.05466   0.07627   0.08158
 Alpha virt. eigenvalues --    0.08444   0.08870   0.10165   0.11197   0.11632
 Alpha virt. eigenvalues --    0.12119   0.12685   0.12711   0.13917   0.13961

 Mulliken charges:
               1
     1  O   -2.850210
     2  O   -2.878169
     3  N   -4.098169
     4  N    2.905955
     5  N   -2.620781
     6  C    3.510631
     7  C   -3.309001
     8  C   -0.385067
     9  C    4.239196
    10  C    1.606259
    11  H    1.584985
    12  H    1.493705
    13  H    0.800666
 Sum of Mulliken charges =  -0.00000

 Dipole moment (field-independent basis, Debye):
    X=             -0.4202    Y=              3.3464    Z=              0.0000  Tot=              3.3727

 Test job not archived.
 1\1\GINC-SE046\SP\RHF\Aug-CC-pVDZ\C5H3N3O2\OHZDE\06-Apr-2025\0\\#t hf
 aug-cc-pvdz iop(5/13=1,5/36=2,99/5=2) pseudo=read geom=check guess=(re
 ad,tcheck) scf=(maxcycle=1)\\title\\0,1\O,0,2.409384,-1.476771,-0.0000
 03\O,0,2.963804,0.626484,0.000002\N,0,-1.062861,1.308586,0.000003\N,0,
 2.141777,-0.283046,0.\N,0,-3.957177,-0.642796,-0.000002\C,0,0.75173,0.
 081376,0.\C,0,-0.341936,-0.807462,-0.000002\C,0,0.284912,1.380757,0.00
 0003\C,0,-1.469753,-0.01732,0.\C,0,-2.83647,-0.370988,-0.000001\H,0,-0
 .303559,-1.881146,-0.000005\H,0,0.823963,2.309913,0.000006\H,0,-1.6889

 Normal termination of Gaussian 16 at Sun Apr  6 08:07:46 2025.
