 Gaussian 16, Revision C.01,

 ----------------------------------------------------------------------
 #t hf aug-cc-pvdz symm=none int=(grid=ultrafine) guess=(read,tcheck) s
 table=(opt,rrhf)
 ----------------------------------------------------------------------
 -----
 title
 -----
 Symbolic Z-matrix:
 Charge =  0 Multiplicity = 1

 SCF Done:  E(RHF) =  -733.946123502     A.U. after   17 cycles
 Normal termination of Gaussian 16 at Sun Apr  6 08:07:01 2025.
 Gaussian 16:  ES64L-G16RevC.01  3-Jul-2019

 ----------------------------------------------------------------------
 #t hf aug-cc-pvdz iop(5/13=1,5/36=2,99/5=2) pseudo=read geom=check gue
 ss=(read,tcheck) scf=(maxcycle=1)
 ----------------------------------------------------------------------
 -----
 title
 -----
 Structure from the checkpoint file:  "4-oxo-4-5-dihydro-1-3-thiazole-2-carbonitrile.chk"
 Charge =  0 Multiplicity = 1

                         Standard orientation:
 ---------------------------------------------------------------------
 Center     Atomic      Atomic             Coordinates (Angstroms)
 Number     Number       Type             X           Y           Z
 ---------------------------------------------------------------------
      1         16           0        0.234585    1.466163    0.000019
      2          8           0       -2.496898   -1.266018   -0.000007
      3          7           0       -0.187033   -1.159171   -0.000015
      4          7           0        3.238743   -0.724713   -0.000024
      5          6           0       -1.499104    0.930285    0.000020
      6          6           0       -1.494441   -0.611498   -0.000002
      7          6           0        0.703863   -0.238954   -0.000007
      8          6           0        2.103888   -0.535976   -0.000017
      9          1           0       -2.012693    1.296805   -0.885980
     10          1           0       -2.012684    1.296780    0.886036
 ---------------------------------------------------------------------

 SCF Done:  E(RHF) =  -735.626863443     A.U. after    2 cycles

 The electronic state is 1-A.
 Alpha  occ. eigenvalues --  -75.75684 -21.08868 -15.81728 -15.79681 -13.19613
 Alpha  occ. eigenvalues --  -13.19564 -13.08300 -11.55730 -11.54599 -11.47977
 Alpha  occ. eigenvalues --  -11.45782  -8.09977  -1.75559  -1.50241  -1.34307
 Alpha  occ. eigenvalues --   -1.23878  -1.11524  -0.96714  -0.81752  -0.74306
 Alpha  occ. eigenvalues --   -0.68661  -0.60648  -0.59078  -0.59078  -0.54399
 Alpha  occ. eigenvalues --   -0.50410  -0.50097  -0.46995  -0.43080  -0.40898
 Alpha  occ. eigenvalues --   -0.32206  -0.28758
 Alpha virt. eigenvalues --    0.01871   0.04759   0.05044   0.05255   0.06249
 Alpha virt. eigenvalues --    0.08762   0.09598   0.10287   0.11182   0.11399
 Alpha virt. eigenvalues --    0.11889   0.12797   0.13518   0.14097   0.15088

 Mulliken charges:
               1
     1  S    1.389139
     2  O   -3.234231
     3  N   -3.183626
     4  N   -2.233430
     5  C   -4.287033
     6  C    5.336636
     7  C    1.753207
     8  C    1.608471
     9  H    1.425434
    10  H    1.425434
 Sum of Mulliken charges =  -0.00000

 Dipole moment (field-independent basis, Debye):
    X=             -1.5675    Y=              4.8381    Z=              0.0001  Tot=              5.0857

 Test job not archived.
 1\1\GINC-SE047\SP\RHF\Aug-CC-pVDZ\C4H2N2O1S1\OHZDE\06-Apr-2025\0\\#t h
 f aug-cc-pvdz iop(5/13=1,5/36=2,99/5=2) pseudo=read geom=check guess=(
 read,tcheck) scf=(maxcycle=1)\\title\\0,1\S,0,0.234585,1.466163,0.0000
 19\O,0,-2.496898,-1.266018,-0.000007\N,0,-0.187033,-1.159171,-0.000015
 \N,0,3.238743,-0.724713,-0.000024\C,0,-1.499104,0.930285,0.00002\C,0,-
 1.494441,-0.611498,-0.000002\C,0,0.703863,-0.238954,-0.000007\C,0,2.10
 3888,-0.535976,-0.000017\H,0,-2.012693,1.296805,-0.88598\H,0,-2.012684
 ,1.29678,0.886036\\Version=ES64L-G16RevC.01\State=1-A\HF=-735.6268634\

 Normal termination of Gaussian 16 at Sun Apr  6 08:07:06 2025.
