 Gaussian 16, Revision C.01,

 ----------------------------------------------------------------------
 #t hf aug-cc-pvdz symm=none int=(grid=ultrafine) guess=(read,tcheck) s
 table=(opt,rrhf)
 ----------------------------------------------------------------------
 -----
 title
 -----
 Symbolic Z-matrix:
 Charge =  0 Multiplicity = 1

 SCF Done:  E(RHF) =  -422.719186372     A.U. after   15 cycles

 1\1\GINC-SE084\Stability\RHF\Aug-CC-pVDZ\C9H12O1\OHZDE\06-Apr-2025\0\\
 #t hf aug-cc-pvdz symm=none int=(grid=ultrafine) guess=(read,tcheck) s
 table=(opt,rrhf)\\title\\0,1\C,0,-0.358008,-1.192497,-0.280254\C,0,-0.
 343198,1.192831,-0.28215\C,0,-1.721958,-1.189747,-0.010477\C,0,-1.7040
 67,1.215219,-0.013027\C,0,0.359997,-0.006025,-0.42022\C,0,-2.398815,0.
 017812,0.125458\C,0,4.192562,-0.004905,0.338317\C,0,1.847021,-0.015398
 ,-0.674427\C,0,2.689971,0.002765,0.610921\O,0,-3.741651,0.0889,0.38808
 8\H,0,0.152278,-2.141809,-0.388206\H,0,0.18303,2.133209,-0.392492\H,0,

 Normal termination of Gaussian 16 at Sun Apr  6 08:08:45 2025.
 Gaussian 16:  ES64L-G16RevC.01  3-Jul-2019

 ----------------------------------------------------------------------
 #t hf aug-cc-pvdz iop(5/13=1,5/36=2,99/5=2) pseudo=read geom=check gue
 ss=(read,tcheck) scf=(maxcycle=1)
 ----------------------------------------------------------------------
 -----
 title
 -----
 Structure from the checkpoint file:  "4-propylphenol.chk"
 Charge =  0 Multiplicity = 1

                         Standard orientation:
 ---------------------------------------------------------------------
 Center     Atomic      Atomic             Coordinates (Angstroms)
 Number     Number       Type             X           Y           Z
 ---------------------------------------------------------------------
      1          6           0       -0.358008   -1.192497   -0.280254
      2          6           0       -0.343198    1.192831   -0.282150
      3          6           0       -1.721958   -1.189747   -0.010477
      4          6           0       -1.704067    1.215219   -0.013027
      5          6           0        0.359997   -0.006025   -0.420220
      6          6           0       -2.398815    0.017812    0.125458
      7          6           0        4.192562   -0.004905    0.338317
      8          6           0        1.847021   -0.015398   -0.674427
      9          6           0        2.689971    0.002765    0.610921
     10          8           0       -3.741651    0.088900    0.388088
     11          1           0        0.152278   -2.141809   -0.388206
     12          1           0        0.183030    2.133209   -0.392492
     13          1           0       -2.257935   -2.126629    0.088883
     14          1           0       -2.239210    2.149244    0.086996
     15          1           0        4.489024   -0.895456   -0.219839
     16          1           0        4.492677    0.865907   -0.248259
     17          1           0        4.763947    0.008939    1.267358
     18          1           0        2.112002   -0.900851   -1.258622
     19          1           0        2.117837    0.849206   -1.286581
     20          1           0        2.424357    0.886004    1.197601
     21          1           0        2.420111   -0.860563    1.224708
     22          1           0       -4.105938   -0.798727    0.458901
 ---------------------------------------------------------------------

 SCF Done:  E(RHF) =  -424.748503192     A.U. after    2 cycles

 The electronic state is 1-A.
 Alpha  occ. eigenvalues --  -21.09865 -11.51686 -11.44962 -11.43286 -11.43063
 Alpha  occ. eigenvalues --  -11.41422 -11.39937 -11.38660 -11.36197 -11.34931
 Alpha  occ. eigenvalues --   -1.75146  -1.34066  -1.20386  -1.09395  -1.08079
 Alpha  occ. eigenvalues --   -0.97587  -0.87772  -0.85559  -0.81473  -0.69539
 Alpha  occ. eigenvalues --   -0.65864  -0.64571  -0.60894  -0.58038  -0.57672
 Alpha  occ. eigenvalues --   -0.56185  -0.54141  -0.52672  -0.50472  -0.47027
 Alpha  occ. eigenvalues --   -0.46589  -0.44889  -0.43043  -0.41045  -0.39871
 Alpha  occ. eigenvalues --   -0.33160  -0.26018
 Alpha virt. eigenvalues --    0.03552   0.04738   0.04970   0.05630   0.05866
 Alpha virt. eigenvalues --    0.05967   0.06248   0.06595   0.06972   0.07635
 Alpha virt. eigenvalues --    0.08045   0.10205   0.10481   0.11637   0.12438

 Mulliken charges:
               1
     1  C   -0.375549
     2  C   -0.721544
     3  C   -4.764973
     4  C   -3.682566
     5  C    3.380265
     6  C    4.481750
     7  C   -3.916591
     8  C   -4.219884
     9  C   -3.098694
    10  O   -4.462667
    11  H    1.668872
    12  H    1.773276
    13  H    1.662449
    14  H    1.750927
    15  H    1.246806
    16  H    1.256309
    17  H    1.116396
    18  H    1.362198
    19  H    1.312273
    20  H    1.597117
    21  H    1.605866
    22  H    1.027966
 Sum of Mulliken charges =   0.00000

 Dipole moment (field-independent basis, Debye):
    X=             -0.0846    Y=             -0.5808    Z=              0.1276  Tot=              0.6007

 Test job not archived.
 1\1\GINC-SE084\SP\RHF\Aug-CC-pVDZ\C9H12O1\OHZDE\06-Apr-2025\0\\#t hf a
 ug-cc-pvdz iop(5/13=1,5/36=2,99/5=2) pseudo=read geom=check guess=(rea
 d,tcheck) scf=(maxcycle=1)\\title\\0,1\C,0,-0.358008,-1.192497,-0.2802
 54\C,0,-0.343198,1.192831,-0.28215\C,0,-1.721958,-1.189747,-0.010477\C
 ,0,-1.704067,1.215219,-0.013027\C,0,0.359997,-0.006025,-0.42022\C,0,-2
 .398815,0.017812,0.125458\C,0,4.192562,-0.004905,0.338317\C,0,1.847021
 ,-0.015398,-0.674427\C,0,2.689971,0.002765,0.610921\O,0,-3.741651,0.08
 89,0.388088\H,0,0.152278,-2.141809,-0.388206\H,0,0.18303,2.133209,-0.3

 Normal termination of Gaussian 16 at Sun Apr  6 08:08:58 2025.
