 Gaussian 16, Revision C.01,

 ----------------------------------------------------------------------
 #t hf aug-cc-pvdz symm=none int=(grid=ultrafine) guess=(read,tcheck) s
 table=(opt,rrhf)
 ----------------------------------------------------------------------
 -----
 title
 -----
 Symbolic Z-matrix:
 Charge =  0 Multiplicity = 1

 SCF Done:  E(RHF) =  -321.602293435     A.U. after   14 cycles
 Normal termination of Gaussian 16 at Sun Apr  6 08:06:23 2025.
 Gaussian 16:  ES64L-G16RevC.01  3-Jul-2019

 ----------------------------------------------------------------------
 #t hf aug-cc-pvdz iop(5/13=1,5/36=2,99/5=2) pseudo=read geom=check gue
 ss=(read,tcheck) scf=(maxcycle=1)
 ----------------------------------------------------------------------
 -----
 title
 -----
 Structure from the checkpoint file:  "4-pyridinol.chk"
 Charge =  0 Multiplicity = 1

                         Standard orientation:
 ---------------------------------------------------------------------
 Center     Atomic      Atomic             Coordinates (Angstroms)
 Number     Number       Type             X           Y           Z
 ---------------------------------------------------------------------
      1          7           0        0.022052   -1.868589    0.000000
      2          6           0       -1.118779   -1.180044    0.000000
      3          6           0       -1.190003    0.206824    0.000000
      4          6           0        0.000000    0.928441    0.000000
      5          6           0        1.202363    0.228588    0.000000
      6          6           0        1.152339   -1.156758    0.000000
      7          8           0        0.047471    2.286339    0.000000
      8          1           0       -2.032661   -1.763240    0.000000
      9          1           0       -2.150092    0.708021    0.000000
     10          1           0        2.143131    0.759763    0.000000
     11          1           0        2.074927   -1.725725    0.000000
     12          1           0       -0.844958    2.648295    0.000000
 ---------------------------------------------------------------------

 SCF Done:  E(RHF) =  -323.058542039     A.U. after    2 cycles

 The electronic state is 1-A'.
 Alpha  occ. eigenvalues --  -21.12258 -15.72950 -11.50837 -11.45226 -11.45065
 Alpha  occ. eigenvalues --  -11.40901 -11.38418  -1.77835  -1.43718  -1.16328
 Alpha  occ. eigenvalues --   -1.11999  -0.90611  -0.87555  -0.72651  -0.67058
 Alpha  occ. eigenvalues --   -0.64469  -0.59708  -0.57450  -0.56757  -0.50273
 Alpha  occ. eigenvalues --   -0.46866  -0.44370  -0.35981  -0.34819  -0.30181
 Alpha virt. eigenvalues --    0.03028   0.04826   0.05828   0.06034   0.06527
 Alpha virt. eigenvalues --    0.10062   0.10602   0.11443   0.12064   0.12712
 Alpha virt. eigenvalues --    0.13150   0.13410   0.13901   0.14084   0.14549

 Mulliken charges:
               1
     1  N   -3.539309
     2  C   -0.724108
     3  C   -2.198295
     4  C    5.669690
     5  C   -1.363345
     6  C   -0.821264
     7  O   -4.175328
     8  H    1.513789
     9  H    1.534614
    10  H    1.568444
    11  H    1.527673
    12  H    1.007438
 Sum of Mulliken charges =   0.00000

 Dipole moment (field-independent basis, Debye):
    X=             -0.6561    Y=              2.3647    Z=              0.0000  Tot=              2.4540

 Test job not archived.
 1\1\GINC-SE085\SP\RHF\Aug-CC-pVDZ\C5H5N1O1\OHZDE\06-Apr-2025\0\\#t hf
 aug-cc-pvdz iop(5/13=1,5/36=2,99/5=2) pseudo=read geom=check guess=(re
 ad,tcheck) scf=(maxcycle=1)\\title\\0,1\N,0,0.022052,-1.868589,0.\C,0,
 -1.118779,-1.180044,0.\C,0,-1.190003,0.206824,0.\C,0,0.,0.928441,0.\C,
 0,1.202363,0.228588,0.\C,0,1.152339,-1.156758,0.\O,0,0.047471,2.286339
 ,0.\H,0,-2.032661,-1.76324,0.\H,0,-2.150092,0.708021,0.\H,0,2.143131,0
 .759763,0.\H,0,2.074927,-1.725725,0.\H,0,-0.844958,2.648295,0.\\Versio
 n=ES64L-G16RevC.01\State=1-A'\HF=-323.058542\RMSD=1.497e+00\Dipole=-0.

 Normal termination of Gaussian 16 at Sun Apr  6 08:06:48 2025.
