 Gaussian 16, Revision C.01,

 ----------------------------------------------------------------------
 #t hf aug-cc-pvdz symm=none int=(grid=ultrafine) guess=(read,tcheck) s
 table=(opt,rrhf)
 ----------------------------------------------------------------------
 -----
 title
 -----
 Symbolic Z-matrix:
 Charge =  0 Multiplicity = 1

 SCF Done:  E(RHF) =  -1056.60060720     A.U. after   16 cycles
 Normal termination of Gaussian 16 at Sun Apr  6 08:07:04 2025.
 Gaussian 16:  ES64L-G16RevC.01  3-Jul-2019

 ----------------------------------------------------------------------
 #t hf aug-cc-pvdz iop(5/13=1,5/36=2,99/5=2) pseudo=read geom=check gue
 ss=(read,tcheck) scf=(maxcycle=1)
 ----------------------------------------------------------------------
 -----
 title
 -----
 Structure from the checkpoint file:  "4-sulfanyl-1-3-thiazole-5-carbonitrile.chk"
 Charge =  0 Multiplicity = 1

                         Standard orientation:
 ---------------------------------------------------------------------
 Center     Atomic      Atomic             Coordinates (Angstroms)
 Number     Number       Type             X           Y           Z
 ---------------------------------------------------------------------
      1         16           0        1.958243    0.228807    0.000000
      2         16           0       -2.220685   -0.683816   -0.000001
      3          7           0        0.289940   -1.729567   -0.000001
      4          7           0       -0.650712    2.984496    0.000000
      5          6           0        0.252301    0.588485    0.000000
      6          6           0       -0.464268   -0.591163    0.000000
      7          6           0        1.558175   -1.448494    0.000000
      8          6           0       -0.241588    1.904998    0.000000
      9          1           0       -2.237266   -2.028192   -0.000001
     10          1           0        2.334026   -2.199110    0.000000
 ---------------------------------------------------------------------

 SCF Done:  E(RHF) =  -1058.21374567     A.U. after    2 cycles

 The electronic state is 1-A.
 Alpha  occ. eigenvalues --  -75.76338 -75.72990 -15.78391 -15.77527 -13.25696
 Alpha  occ. eigenvalues --  -13.19730 -13.17990 -13.16514 -13.08377 -13.04397
 Alpha  occ. eigenvalues --  -11.52372 -11.48347 -11.47014 -11.44623  -8.10816
 Alpha  occ. eigenvalues --   -8.07052  -1.53497  -1.32693  -1.22870  -1.21092
 Alpha  occ. eigenvalues --   -1.07600  -0.92794  -0.83194  -0.72470  -0.61376
 Alpha  occ. eigenvalues --   -0.61295  -0.59934  -0.52528  -0.51072  -0.49974
 Alpha  occ. eigenvalues --   -0.45095  -0.40896  -0.38883  -0.38449  -0.34936
 Alpha  occ. eigenvalues --   -0.24401
 Alpha virt. eigenvalues --    0.02160   0.03651   0.05861   0.06563   0.07081
 Alpha virt. eigenvalues --    0.07944   0.09055   0.10172   0.11241   0.12031
 Alpha virt. eigenvalues --    0.12209   0.12494   0.13387   0.14103   0.14427

 Mulliken charges:
               1
     1  S    1.425815
     2  S   -0.123257
     3  N   -3.481970
     4  N   -2.110382
     5  C    1.543993
     6  C    0.352273
     7  C   -1.047278
     8  C    0.802768
     9  H    1.001902
    10  H    1.636135
 Sum of Mulliken charges =  -0.00000

 Dipole moment (field-independent basis, Debye):
    X=              2.5423    Y=             -0.7344    Z=             -0.0000  Tot=              2.6463

 Test job not archived.
 1\1\GINC-SE085\SP\RHF\Aug-CC-pVDZ\C4H2N2S2\OHZDE\06-Apr-2025\0\\#t hf
 aug-cc-pvdz iop(5/13=1,5/36=2,99/5=2) pseudo=read geom=check guess=(re
 ad,tcheck) scf=(maxcycle=1)\\title\\0,1\S,0,-1.958243,0.228807,0.\S,0,
 2.220685,-0.683816,0.000001\N,0,-0.28994,-1.729567,0.000001\N,0,0.6507
 12,2.984496,0.\C,0,-0.252301,0.588485,0.\C,0,0.464268,-0.591163,0.\C,0
 ,-1.558175,-1.448494,0.\C,0,0.241588,1.904998,0.\H,0,2.237266,-2.02819
 2,0.000001\H,0,-2.334026,-2.19911,0.\\Version=ES64L-G16RevC.01\State=1
 -A\HF=-1058.2137457\RMSD=1.641e+00\Dipole=-1.0002333,-0.2889371,0.0000

 Normal termination of Gaussian 16 at Sun Apr  6 08:07:09 2025.
