 Gaussian 16, Revision C.01,

 ----------------------------------------------------------------------
 #t hf aug-cc-pvdz symm=none int=(grid=ultrafine) guess=(read,tcheck) s
 table=(opt,rrhf)
 ----------------------------------------------------------------------
 -----
 title
 -----
 Symbolic Z-matrix:
 Charge =  0 Multiplicity = 1

 SCF Done:  E(RHF) =  -754.935562499     A.U. after   16 cycles
 Normal termination of Gaussian 16 at Sun Apr  6 08:06:26 2025.
 Gaussian 16:  ES64L-G16RevC.01  3-Jul-2019

 ----------------------------------------------------------------------
 #t hf aug-cc-pvdz iop(5/13=1,5/36=2,99/5=2) pseudo=read geom=check gue
 ss=(read,tcheck) scf=(maxcycle=1)
 ----------------------------------------------------------------------
 -----
 title
 -----
 Structure from the checkpoint file:  "4-thioxomethylene-1-3-oxazolidin-2-one.chk"
 Charge =  0 Multiplicity = 1

                         Standard orientation:
 ---------------------------------------------------------------------
 Center     Atomic      Atomic             Coordinates (Angstroms)
 Number     Number       Type             X           Y           Z
 ---------------------------------------------------------------------
      1         16           0       -3.117372   -0.219151   -0.000042
      2          8           0        1.880210    1.021564   -0.000017
      3          8           0        3.047958   -0.924185    0.000000
      4          7           0        0.735994   -0.877231    0.000067
      5          6           0       -0.262689    0.101627    0.000020
      6          6           0        2.003640   -0.340666    0.000015
      7          6           0        0.502611    1.419673    0.000015
      8          6           0       -1.560452   -0.063026   -0.000009
      9          1           0        0.587091   -1.870027    0.000039
     10          1           0        0.307433    2.016200   -0.890818
     11          1           0        0.307471    2.016180    0.890870
 ---------------------------------------------------------------------

 SCF Done:  E(RHF) =  -756.685685157     A.U. after    2 cycles

 The electronic state is 1-A.
 Alpha  occ. eigenvalues --  -75.73157 -21.11503 -21.05594 -15.81409 -13.25709
 Alpha  occ. eigenvalues --  -13.05336 -13.04620 -11.54979 -11.52073 -11.49752
 Alpha  occ. eigenvalues --  -11.46304  -8.07269  -1.88168  -1.69212  -1.45029
 Alpha  occ. eigenvalues --   -1.24067  -1.12520  -0.98101  -0.87552  -0.79761
 Alpha  occ. eigenvalues --   -0.70780  -0.66688  -0.60594  -0.59554  -0.55053
 Alpha  occ. eigenvalues --   -0.51772  -0.51579  -0.46632  -0.39386  -0.37563
 Alpha  occ. eigenvalues --   -0.33770  -0.31899  -0.21664
 Alpha virt. eigenvalues --    0.02045   0.05128   0.05375   0.05612   0.05730
 Alpha virt. eigenvalues --    0.07684   0.08752   0.10453   0.10909   0.11301
 Alpha virt. eigenvalues --    0.11760   0.12865   0.14218   0.14596   0.14923

 Mulliken charges:
               1
     1  S    1.169511
     2  O   -3.008234
     3  O   -3.368638
     4  N   -2.783611
     5  C   -0.958307
     6  C    5.855709
     7  C   -0.545322
     8  C    0.240878
     9  H    0.695685
    10  H    1.351166
    11  H    1.351162
 Sum of Mulliken charges =  -0.00000

 Dipole moment (field-independent basis, Debye):
    X=             -4.3370    Y=              0.3341    Z=             -0.0001  Tot=              4.3499

 Test job not archived.
 1\1\GINC-SE086\SP\RHF\Aug-CC-pVDZ\C4H3N1O2S1\OHZDE\06-Apr-2025\0\\#t h
 f aug-cc-pvdz iop(5/13=1,5/36=2,99/5=2) pseudo=read geom=check guess=(
 read,tcheck) scf=(maxcycle=1)\\title\\0,1\S,0,-3.117372,-0.219151,-0.0
 00042\O,0,1.88021,1.021564,-0.000017\O,0,3.047958,-0.924185,0.\N,0,0.7
 35994,-0.877231,0.000067\C,0,-0.262689,0.101627,0.00002\C,0,2.00364,-0
 .340666,0.000015\C,0,0.502611,1.419673,0.000015\C,0,-1.560452,-0.06302
 6,-0.000009\H,0,0.587091,-1.870027,0.000039\H,0,0.307433,2.0162,-0.890
 818\H,0,0.307471,2.01618,0.89087\\Version=ES64L-G16RevC.01\State=1-A\H

 Normal termination of Gaussian 16 at Sun Apr  6 08:06:48 2025.
