 Gaussian 16, Revision C.01,

 ----------------------------------------------------------------------
 #t hf aug-cc-pvdz symm=none int=(grid=ultrafine) guess=(read,tcheck) s
 table=(opt,rrhf)
 ----------------------------------------------------------------------
 -----
 title
 -----
 Symbolic Z-matrix:
 Charge =  0 Multiplicity = 1

 SCF Done:  E(RHF) =  -1039.78222416     A.U. after   15 cycles
 Normal termination of Gaussian 16 at Sun Apr  6 08:06:21 2025.
 Gaussian 16:  ES64L-G16RevC.01  3-Jul-2019

 ----------------------------------------------------------------------
 #t hf aug-cc-pvdz iop(5/13=1,5/36=2,99/5=2) pseudo=read geom=check gue
 ss=(read,tcheck) scf=(maxcycle=1)
 ----------------------------------------------------------------------
 -----
 title
 -----
 Structure from the checkpoint file:  "4-thioxo-1-3-thiazolidin-2-one.chk"
 Charge =  0 Multiplicity = 1

                         Standard orientation:
 ---------------------------------------------------------------------
 Center     Atomic      Atomic             Coordinates (Angstroms)
 Number     Number       Type             X           Y           Z
 ---------------------------------------------------------------------
      1         16           0        1.535241    1.076974    0.000006
      2         16           0       -2.578025   -0.232305    0.000005
      3          8           0        2.214634   -1.515497   -0.000019
      4          7           0       -0.028314   -1.003049   -0.000009
      5          6           0       -0.279530    1.342985    0.000012
      6          6           0       -0.953928   -0.011648    0.000002
      7          6           0        1.338317   -0.698704   -0.000010
      8          1           0       -0.577310    1.904471   -0.882290
      9          1           0       -0.577306    1.904457    0.882325
     10          1           0       -0.308867   -1.974111   -0.000017
 ---------------------------------------------------------------------

 SCF Done:  E(RHF) =  -1041.29784640     A.U. after    2 cycles

 The electronic state is 1-A.
 Alpha  occ. eigenvalues --  -75.73437 -75.67365 -21.08652 -15.83744 -13.19955
 Alpha  occ. eigenvalues --  -13.16504 -13.15053 -13.06110 -13.02006 -12.98568
 Alpha  occ. eigenvalues --  -11.54932 -11.53816 -11.45591  -8.07698  -8.01554
 Alpha  occ. eigenvalues --   -1.76243  -1.51743  -1.23981  -1.18295  -1.02505
 Alpha  occ. eigenvalues --   -0.88065  -0.86128  -0.68184  -0.65500  -0.61523
 Alpha  occ. eigenvalues --   -0.59735  -0.54785  -0.51780  -0.45971  -0.42620
 Alpha  occ. eigenvalues --   -0.31755  -0.29570  -0.26981  -0.23716
 Alpha virt. eigenvalues --    0.01842   0.05035   0.05159   0.06226   0.07574
 Alpha virt. eigenvalues --    0.07842   0.07895   0.09865   0.11732   0.12065
 Alpha virt. eigenvalues --    0.12881   0.13477   0.13713   0.14412   0.15919

 Mulliken charges:
               1
     1  S    1.587475
     2  S    1.489779
     3  O   -2.806782
     4  N   -2.599154
     5  C   -3.982499
     6  C    0.082330
     7  C    2.502903
     8  H    1.477674
     9  H    1.477674
    10  H    0.770600
 Sum of Mulliken charges =  -0.00000

 Dipole moment (field-independent basis, Debye):
    X=             -0.5416    Y=              1.8018    Z=              0.0000  Tot=              1.8814

 Test job not archived.
 1\1\GINC-SE086\SP\RHF\Aug-CC-pVDZ\C3H3N1O1S2\OHZDE\06-Apr-2025\0\\#t h
 f aug-cc-pvdz iop(5/13=1,5/36=2,99/5=2) pseudo=read geom=check guess=(
 read,tcheck) scf=(maxcycle=1)\\title\\0,1\S,0,1.535241,1.076974,0.0000
 06\S,0,-2.578025,-0.232305,0.000005\O,0,2.214634,-1.515497,-0.000019\N
 ,0,-0.028314,-1.003049,-0.000009\C,0,-0.27953,1.342985,0.000012\C,0,-0
 .953928,-0.011648,0.000002\C,0,1.338317,-0.698704,-0.00001\H,0,-0.5773
 1,1.904471,-0.88229\H,0,-0.577306,1.904457,0.882325\H,0,-0.308867,-1.9
 74111,-0.000017\\Version=ES64L-G16RevC.01\State=1-A\HF=-1041.2978464\R

 Normal termination of Gaussian 16 at Sun Apr  6 08:06:48 2025.
