 Gaussian 16, Revision C.01,

 ----------------------------------------------------------------------
 #t hf aug-cc-pvdz symm=none int=(grid=ultrafine) guess=(read,tcheck) s
 table=(opt,rrhf)
 ----------------------------------------------------------------------
 -----
 title
 -----
 Symbolic Z-matrix:
 Charge =  0 Multiplicity = 1

 SCF Done:  E(RHF) =  -321.596200421     A.U. after   15 cycles
 Normal termination of Gaussian 16 at Sun Apr  6 08:06:59 2025.
 Gaussian 16:  ES64L-G16RevC.01  3-Jul-2019

 ----------------------------------------------------------------------
 #t hf aug-cc-pvdz iop(5/13=1,5/36=2,99/5=2) pseudo=read geom=check gue
 ss=(read,tcheck) scf=(maxcycle=1)
 ----------------------------------------------------------------------
 -----
 title
 -----
 Structure from the checkpoint file:  "41H-pyridinone.chk"
 Charge =  0 Multiplicity = 1

                         Standard orientation:
 ---------------------------------------------------------------------
 Center     Atomic      Atomic             Coordinates (Angstroms)
 Number     Number       Type             X           Y           Z
 ---------------------------------------------------------------------
      1          6           0        0.000000    1.224565    0.305825
      2          6           0       -0.000000   -1.224565    0.305825
      3          6           0        0.000000    1.188942   -1.044134
      4          6           0       -0.000000   -1.188942   -1.044134
      5          6           0        0.000000   -0.000000    1.104808
      6          7           0        0.000000    0.000000   -1.722199
      7          8           0        0.000000   -0.000000    2.335063
      8          1           0        0.000000    2.171811    0.824427
      9          1           0       -0.000000   -2.171811    0.824427
     10          1           0        0.000000    2.077841   -1.658455
     11          1           0       -0.000000   -2.077841   -1.658455
     12          1           0        0.000000    0.000000   -2.726202
 ---------------------------------------------------------------------

 SCF Done:  E(RHF) =  -323.048822007     A.U. after    2 cycles

 The electronic state is 1-A1.
 Alpha  occ. eigenvalues --  -21.00217 -15.81669 -11.50006 -11.47937 -11.46699
 Alpha  occ. eigenvalues --  -11.39333 -11.38287  -1.66610  -1.49444  -1.15958
 Alpha  occ. eigenvalues --   -1.14598  -0.90961  -0.87993  -0.78354  -0.67057
 Alpha  occ. eigenvalues --   -0.64330  -0.62343  -0.58872  -0.57848  -0.49626
 Alpha  occ. eigenvalues --   -0.45960  -0.45133  -0.38089  -0.25633  -0.25595
 Alpha virt. eigenvalues --    0.02239   0.03930   0.04504   0.06801   0.07060
 Alpha virt. eigenvalues --    0.09425   0.09996   0.10707   0.11443   0.11715
 Alpha virt. eigenvalues --    0.12225   0.13633   0.13810   0.14638   0.15007

 Mulliken charges:
               1
     1  C   -1.082178
     2  C   -1.082178
     3  C   -0.643895
     4  C   -0.643895
     5  C    4.093426
     6  N   -3.540240
     7  O   -3.737016
     8  H    1.528090
     9  H    1.528090
    10  H    1.429007
    11  H    1.429007
    12  H    0.721780
 Sum of Mulliken charges =  -0.00000

 Dipole moment (field-independent basis, Debye):
    X=             -0.0000    Y=              0.0000    Z=             -5.7247  Tot=              5.7247

 Test job not archived.
 1\1\GINC-SE011\SP\RHF\Aug-CC-pVDZ\C5H5N1O1\OHZDE\06-Apr-2025\0\\#t hf
 aug-cc-pvdz iop(5/13=1,5/36=2,99/5=2) pseudo=read geom=check guess=(re
 ad,tcheck) scf=(maxcycle=1)\\title\\0,1\C,0,0.,1.224565,0.305825\C,0,0
 .,-1.224565,0.305825\C,0,0.,1.188942,-1.044134\C,0,0.,-1.188942,-1.044
 134\C,0,0.,0.,1.104808\N,0,0.,0.,-1.722199\O,0,0.,0.,2.335063\H,0,0.,2
 .171811,0.824427\H,0,0.,-2.171811,0.824427\H,0,0.,2.077841,-1.658455\H
 ,0,0.,-2.077841,-1.658455\H,0,0.,0.,-2.726202\\Version=ES64L-G16RevC.0
 1\State=1-A1\HF=-323.048822\RMSD=1.063e+00\Dipole=0.,0.,-2.2522779\Qua

 Normal termination of Gaussian 16 at Sun Apr  6 08:07:03 2025.
