 Gaussian 16, Revision C.01,

 ----------------------------------------------------------------------
 #t hf aug-cc-pvdz symm=none int=(grid=ultrafine) guess=(read,tcheck) s
 table=(opt,rrhf)
 ----------------------------------------------------------------------
 -----
 title
 -----
 Symbolic Z-matrix:
 Charge =  0 Multiplicity = 1

 SCF Done:  E(RHF) =  -337.618373176     A.U. after   15 cycles
 Normal termination of Gaussian 16 at Sun Apr  6 08:06:59 2025.
 Gaussian 16:  ES64L-G16RevC.01  3-Jul-2019

 ----------------------------------------------------------------------
 #t hf aug-cc-pvdz iop(5/13=1,5/36=2,99/5=2) pseudo=read geom=check gue
 ss=(read,tcheck) scf=(maxcycle=1)
 ----------------------------------------------------------------------
 -----
 title
 -----
 Structure from the checkpoint file:  "43H-pyrimidinone.chk"
 Charge =  0 Multiplicity = 1

                         Standard orientation:
 ---------------------------------------------------------------------
 Center     Atomic      Atomic             Coordinates (Angstroms)
 Number     Number       Type             X           Y           Z
 ---------------------------------------------------------------------
      1          6           0        1.232892    0.302834   -0.000000
      2          6           0        1.206555   -1.054025   -0.000000
      3          6           0       -1.049356   -1.149467   -0.000000
      4          6           0       -0.000000    1.055988    0.000000
      5          7           0        0.061359   -1.812046   -0.000000
      6          7           0       -1.126414    0.202125    0.000000
      7          8           0       -0.144293    2.264784    0.000000
      8          1           0        2.159160    0.856946   -0.000000
      9          1           0        2.129679   -1.620129   -0.000000
     10          1           0       -1.994198   -1.680952    0.000000
     11          1           0       -2.025462    0.663333    0.000000
 ---------------------------------------------------------------------

 SCF Done:  E(RHF) =  -339.111376396     A.U. after    2 cycles

 The electronic state is 1-A'.
 Alpha  occ. eigenvalues --  -21.03334 -15.81721 -15.74822 -11.52053 -11.48977
 Alpha  occ. eigenvalues --  -11.47245 -11.39952  -1.71721  -1.52182  -1.33548
 Alpha  occ. eigenvalues --   -1.16472  -0.95786  -0.91294  -0.76418  -0.70752
 Alpha  occ. eigenvalues --   -0.67103  -0.63653  -0.62417  -0.53034  -0.50779
 Alpha  occ. eigenvalues --   -0.48066  -0.42693  -0.39809  -0.29964  -0.28636
 Alpha virt. eigenvalues --    0.02677   0.04824   0.05899   0.06318   0.08560
 Alpha virt. eigenvalues --    0.09480   0.09702   0.10507   0.12048   0.12486
 Alpha virt. eigenvalues --    0.12716   0.13970   0.14286   0.15222   0.16079

 Mulliken charges:
               1
     1  C   -1.038372
     2  C   -0.100030
     3  C    1.150880
     4  C    4.279522
     5  N   -3.372878
     6  N   -2.789065
     7  O   -3.529027
     8  H    1.399477
     9  H    1.534379
    10  H    1.675374
    11  H    0.789741
 Sum of Mulliken charges =   0.00000

 Dipole moment (field-independent basis, Debye):
    X=             -1.5989    Y=             -1.0810    Z=             -0.0000  Tot=              1.9301

 Test job not archived.
 1\1\GINC-SE012\SP\RHF\Aug-CC-pVDZ\C4H4N2O1\OHZDE\06-Apr-2025\0\\#t hf
 aug-cc-pvdz iop(5/13=1,5/36=2,99/5=2) pseudo=read geom=check guess=(re
 ad,tcheck) scf=(maxcycle=1)\\title\\0,1\C,0,1.232892,0.302834,0.\C,0,1
 .206555,-1.054025,0.\C,0,-1.049356,-1.149467,0.\C,0,0.,1.055988,0.\N,0
 ,0.061359,-1.812046,0.\N,0,-1.126414,0.202125,0.\O,0,-0.144293,2.26478
 4,0.\H,0,2.15916,0.856946,0.\H,0,2.129679,-1.620129,0.\H,0,-1.994198,-
 1.680952,0.\H,0,-2.025462,0.663333,0.\\Version=ES64L-G16RevC.01\State=
 1-A'\HF=-339.1113764\RMSD=6.461e-01\Dipole=-0.6290678,-0.4252916,0.\Qu

 Normal termination of Gaussian 16 at Sun Apr  6 08:07:05 2025.
