 Gaussian 16, Revision C.01,

 ----------------------------------------------------------------------
 #t hf aug-cc-pvdz symm=none int=(grid=ultrafine) guess=(read,tcheck) s
 table=(opt,rrhf)
 ----------------------------------------------------------------------
 -----
 title
 -----
 Symbolic Z-matrix:
 Charge =  0 Multiplicity = 1

 SCF Done:  E(RHF) =  -321.574842578     A.U. after   15 cycles
 Normal termination of Gaussian 16 at Sun Apr  6 08:07:01 2025.
 Gaussian 16:  ES64L-G16RevC.01  3-Jul-2019

 ----------------------------------------------------------------------
 #t hf aug-cc-pvdz iop(5/13=1,5/36=2,99/5=2) pseudo=read geom=check gue
 ss=(read,tcheck) scf=(maxcycle=1)
 ----------------------------------------------------------------------
 -----
 title
 -----
 Structure from the checkpoint file:  "43H-pyridinone.chk"
 Charge =  0 Multiplicity = 1

                         Standard orientation:
 ---------------------------------------------------------------------
 Center     Atomic      Atomic             Coordinates (Angstroms)
 Number     Number       Type             X           Y           Z
 ---------------------------------------------------------------------
      1          7           0        1.836314    0.047911   -0.000037
      2          6           0        1.226255   -1.073102   -0.000001
      3          6           0       -0.257423   -1.256683    0.000068
      4          6           0       -1.075456    0.025969   -0.000044
      5          6           0       -0.291026    1.257772    0.000051
      6          6           0        1.053818    1.213993   -0.000020
      7          8           0       -2.292236    0.003283   -0.000067
      8          1           0        1.839628   -1.972339   -0.000073
      9          1           0       -0.551220   -1.860885    0.865345
     10          1           0       -0.825378    2.197611    0.000125
     11          1           0        1.634483    2.127729    0.000039
     12          1           0       -0.550829   -1.861455   -0.864964
 ---------------------------------------------------------------------

 SCF Done:  E(RHF) =  -323.017601579     A.U. after    2 cycles

 The electronic state is 1-A.
 Alpha  occ. eigenvalues --  -21.04880 -15.75710 -11.51415 -11.47759 -11.47155
 Alpha  occ. eigenvalues --  -11.41712 -11.39806  -1.70741  -1.44647  -1.15936
 Alpha  occ. eigenvalues --   -1.14800  -0.92626  -0.85812  -0.69860  -0.68243
 Alpha  occ. eigenvalues --   -0.64304  -0.64287  -0.60232  -0.50913  -0.50306
 Alpha  occ. eigenvalues --   -0.50135  -0.46440  -0.37985  -0.31611  -0.28611
 Alpha virt. eigenvalues --    0.02674   0.04859   0.05929   0.06095   0.06393
 Alpha virt. eigenvalues --    0.06631   0.08537   0.10520   0.10797   0.12137
 Alpha virt. eigenvalues --    0.12607   0.13610   0.13665   0.13967   0.14605

 Mulliken charges:
               1
     1  N   -3.607816
     2  C   -0.119612
     3  C   -3.012664
     4  C    4.326488
     5  C   -1.051758
     6  C   -0.279247
     7  O   -3.504795
     8  H    1.611834
     9  H    1.296317
    10  H    1.523305
    11  H    1.521542
    12  H    1.296404
 Sum of Mulliken charges =  -0.00000

 Dipole moment (field-independent basis, Debye):
    X=              0.6657    Y=             -0.8830    Z=              0.0002  Tot=              1.1058

 Test job not archived.
 1\1\GINC-SE014\SP\RHF\Aug-CC-pVDZ\C5H5N1O1\OHZDE\06-Apr-2025\0\\#t hf
 aug-cc-pvdz iop(5/13=1,5/36=2,99/5=2) pseudo=read geom=check guess=(re
 ad,tcheck) scf=(maxcycle=1)\\title\\0,1\N,0,1.836314,0.047911,-0.00003
 7\C,0,1.226255,-1.073102,-0.000001\C,0,-0.257423,-1.256683,0.000068\C,
 0,-1.075456,0.025969,-0.000044\C,0,-0.291026,1.257772,0.000051\C,0,1.0
 53818,1.213993,-0.00002\O,0,-2.292236,0.003283,-0.000067\H,0,1.839628,
 -1.972339,-0.000073\H,0,-0.55122,-1.860885,0.865345\H,0,-0.825378,2.19
 7611,0.000125\H,0,1.634483,2.127729,0.000039\H,0,-0.550829,-1.861455,-

 Normal termination of Gaussian 16 at Sun Apr  6 08:07:05 2025.
