 Gaussian 16, Revision C.01,

 ----------------------------------------------------------------------
 #t hf aug-cc-pvdz symm=none int=(grid=ultrafine) guess=(read,tcheck) s
 table=(opt,rrhf)
 ----------------------------------------------------------------------
 -----
 title
 -----
 Symbolic Z-matrix:
 Charge =  0 Multiplicity = 1

 SCF Done:  E(RHF) =  -224.829231011     A.U. after   14 cycles
 Normal termination of Gaussian 16 at Sun Apr  6 08:06:54 2025.
 Gaussian 16:  ES64L-G16RevC.01  3-Jul-2019

 ----------------------------------------------------------------------
 #t hf aug-cc-pvdz iop(5/13=1,5/36=2,99/5=2) pseudo=read geom=check gue
 ss=(read,tcheck) scf=(maxcycle=1)
 ----------------------------------------------------------------------
 -----
 title
 -----
 Structure from the checkpoint file:  "4H-imidazole.chk"
 Charge =  0 Multiplicity = 1

                         Standard orientation:
 ---------------------------------------------------------------------
 Center     Atomic      Atomic             Coordinates (Angstroms)
 Number     Number       Type             X           Y           Z
 ---------------------------------------------------------------------
      1          7           0       -1.193024    0.354700    0.000000
      2          6           0        0.000000    1.136486    0.000000
      3          7           0        1.111424    0.505412    0.000000
      4          6           0        0.730867   -0.899567    0.000000
      5          6           0       -0.764372   -0.854862    0.000000
      6          1           0       -0.075334    2.215149    0.000000
      7          1           0        1.139796   -1.410552    0.877155
      8          1           0        1.139796   -1.410552   -0.877155
      9          1           0       -1.432029   -1.707173    0.000000
 ---------------------------------------------------------------------

 SCF Done:  E(RHF) =  -225.862158981     A.U. after    2 cycles

 The electronic state is 1-A'.
 Alpha  occ. eigenvalues --  -15.74801 -15.73289 -11.46773 -11.43088 -11.40767
 Alpha  occ. eigenvalues --   -1.53525  -1.25491  -1.08782  -0.84629  -0.80020
 Alpha  occ. eigenvalues --   -0.70326  -0.65104  -0.56225  -0.53538  -0.47841
 Alpha  occ. eigenvalues --   -0.41422  -0.38311  -0.36815
 Alpha virt. eigenvalues --    0.03291   0.05390   0.05873   0.06172   0.09147
 Alpha virt. eigenvalues --    0.09523   0.10943   0.11121   0.11511   0.13280
 Alpha virt. eigenvalues --    0.14450   0.14936   0.15545   0.16743   0.18875

 Mulliken charges:
               1
     1  N   -3.032476
     2  C    1.429939
     3  N   -2.301178
     4  C   -2.363035
     5  C    0.608218
     6  H    1.572459
     7  H    1.338432
     8  H    1.338432
     9  H    1.409211
 Sum of Mulliken charges =  -0.00000

 Dipole moment (field-independent basis, Debye):
    X=             -0.0967    Y=             -1.7705    Z=             -0.0000  Tot=              1.7731

 Test job not archived.
 1\1\GINC-SE012\SP\RHF\Aug-CC-pVDZ\C3H4N2\OHZDE\06-Apr-2025\0\\#t hf au
 g-cc-pvdz iop(5/13=1,5/36=2,99/5=2) pseudo=read geom=check guess=(read
 ,tcheck) scf=(maxcycle=1)\\title\\0,1\N,0,-1.193024,0.3547,0.\C,0,0.,1
 .136486,0.\N,0,1.111424,0.505412,0.\C,0,0.730867,-0.899567,0.\C,0,-0.7
 64372,-0.854862,0.\H,0,-0.075334,2.215149,0.\H,0,1.139796,-1.410552,0.
 877155\H,0,1.139796,-1.410552,-0.877155\H,0,-1.432029,-1.707173,0.\\Ve
 rsion=ES64L-G16RevC.01\State=1-A'\HF=-225.862159\RMSD=3.125e-01\Dipole
 =-0.0380518,-0.6965493,0.\Quadrupole=-4.2100979,3.84707,0.3630278,-0.5

 Normal termination of Gaussian 16 at Sun Apr  6 08:06:57 2025.
