 Gaussian 16, Revision C.01,

 ----------------------------------------------------------------------
 #t hf aug-cc-pvdz symm=none int=(grid=ultrafine) guess=(read,tcheck) s
 table=(opt,rrhf)
 ----------------------------------------------------------------------
 -----
 title
 -----
 Symbolic Z-matrix:
 Charge =  0 Multiplicity = 1

 SCF Done:  E(RHF) =  -488.162222307     A.U. after   13 cycles
 Normal termination of Gaussian 16 at Sun Apr  6 08:06:58 2025.
 Gaussian 16:  ES64L-G16RevC.01  3-Jul-2019

 ----------------------------------------------------------------------
 #t hf aug-cc-pvdz iop(5/13=1,5/36=2,99/5=2) pseudo=read geom=check gue
 ss=(read,tcheck) scf=(maxcycle=1)
 ----------------------------------------------------------------------
 -----
 title
 -----
 Structure from the checkpoint file:  "5-5-5-trifluoro-1-3-pentadiyne.chk"
 Charge =  0 Multiplicity = 1

                         Standard orientation:
 ---------------------------------------------------------------------
 Center     Atomic      Atomic             Coordinates (Angstroms)
 Number     Number       Type             X           Y           Z
 ---------------------------------------------------------------------
      1          6           0        0.151624    1.390687    0.000000
      2          6           0        0.020289    0.194427    0.000000
      3          6           0        0.300477    2.743694    0.000000
      4          6           0       -0.137549   -1.254142    0.000000
      5          6           0        0.432336    3.940048    0.000000
      6          1           0        0.548834    4.995753    0.000000
      7          9           0        0.432336   -1.811612    1.085585
      8          9           0        0.432336   -1.811612   -1.085585
      9          9           0       -1.437103   -1.608337    0.000000
 ---------------------------------------------------------------------

 SCF Done:  E(RHF) =  -490.035993215     A.U. after    2 cycles

 The electronic state is 1-A'.
 Alpha  occ. eigenvalues --  -29.32239 -29.32239 -29.32188 -11.68646 -11.51590
 Alpha  occ. eigenvalues --  -11.47426 -11.46092 -11.45553  -1.45603  -1.21883
 Alpha  occ. eigenvalues --   -1.08910  -0.91901  -0.90064  -0.90063  -0.81185
 Alpha  occ. eigenvalues --   -0.71067  -0.51164  -0.51164  -0.48876  -0.44503
 Alpha  occ. eigenvalues --   -0.44502  -0.40295  -0.40293  -0.34345  -0.34343
 Alpha  occ. eigenvalues --   -0.34001  -0.26169  -0.26168  -0.22336
 Alpha virt. eigenvalues --    0.02570   0.06726   0.08977   0.08978   0.09489
 Alpha virt. eigenvalues --    0.10425   0.12838   0.12839   0.13173   0.14099
 Alpha virt. eigenvalues --    0.14099   0.14839   0.14839   0.16424   0.19756

 Mulliken charges:
               1
     1  C    4.662757
     2  C   -2.290222
     3  C    2.723698
     4  C   -0.729632
     5  C   -5.407929
     6  H    0.413952
     7  F    0.209170
     8  F    0.209170
     9  F    0.209037
 Sum of Mulliken charges =  -0.00000

 Dipole moment (field-independent basis, Debye):
    X=             -0.1116    Y=             -1.0511    Z=              0.0000  Tot=              1.0570

 Test job not archived.
 1\1\GINC-SE013\SP\RHF\Aug-CC-pVDZ\C5H1F3\OHZDE\06-Apr-2025\0\\#t hf au
 g-cc-pvdz iop(5/13=1,5/36=2,99/5=2) pseudo=read geom=check guess=(read
 ,tcheck) scf=(maxcycle=1)\\title\\0,1\C,0,0.151624,1.390687,0.\C,0,0.0
 20289,0.194427,0.\C,0,0.300477,2.743694,0.\C,0,-0.137549,-1.254142,0.\
 C,0,0.432336,3.940048,0.\H,0,0.548834,4.995753,0.\F,0,0.432336,-1.8116
 12,1.085585\F,0,0.432336,-1.811612,-1.085585\F,0,-1.437103,-1.608337,0
 .\\Version=ES64L-G16RevC.01\State=1-A'\HF=-490.0359932\RMSD=4.057e+00\
 Dipole=-0.0439096,-0.4135452,0.\Quadrupole=-4.0364378,8.2229777,-4.186

 Normal termination of Gaussian 16 at Sun Apr  6 08:07:03 2025.
