 Gaussian 16, Revision C.01,

 ----------------------------------------------------------------------
 #t hf aug-cc-pvdz symm=none int=(grid=ultrafine) guess=(read,tcheck) s
 table=(opt,rrhf)
 ----------------------------------------------------------------------
 -----
 title
 -----
 Symbolic Z-matrix:
 Charge =  0 Multiplicity = 1

 SCF Done:  E(RHF) =  -1568.29314987     A.U. after   14 cycles

 1\1\GINC-SE013\Stability\RHF\Aug-CC-pVDZ\C5H1Cl3\OHZDE\06-Apr-2025\0\\
 #t hf aug-cc-pvdz symm=none int=(grid=ultrafine) guess=(read,tcheck) s
 table=(opt,rrhf)\\title\\0,1\C,0,1.977238,-0.001331,0.\C,0,0.770993,0.
 001118,0.\C,0,3.336251,-0.004812,0.\C,0,-0.659885,0.00164,0.\C,0,4.540
 805,-0.008521,0.\H,0,5.602698,-0.011921,0.\Cl,0,-1.282257,-0.846315,1.
 468789\Cl,0,-1.282257,-0.846315,-1.468789\Cl,0,-1.282257,1.697533,0.\\
 Version=ES64L-G16RevC.01\HF=-1568.2931499\RMSD=8.698e-09\Dipole=0.8852
 106,-0.0021514,0.\Quadrupole=8.113875,-4.0567057,-4.0571693,-0.0332959

 Normal termination of Gaussian 16 at Sun Apr  6 08:07:00 2025.
 Gaussian 16:  ES64L-G16RevC.01  3-Jul-2019

 ----------------------------------------------------------------------
 #t hf aug-cc-pvdz iop(5/13=1,5/36=2,99/5=2) pseudo=read geom=check gue
 ss=(read,tcheck) scf=(maxcycle=1)
 ----------------------------------------------------------------------
 -----
 title
 -----
 Structure from the checkpoint file:  "5-5-5-trichloro-1-3-pentadiyne.chk"
 Charge =  0 Multiplicity = 1

                         Standard orientation:
 ---------------------------------------------------------------------
 Center     Atomic      Atomic             Coordinates (Angstroms)
 Number     Number       Type             X           Y           Z
 ---------------------------------------------------------------------
      1          6           0        1.977238   -0.001331   -0.000000
      2          6           0        0.770993    0.001118   -0.000000
      3          6           0        3.336251   -0.004812   -0.000000
      4          6           0       -0.659885    0.001640    0.000000
      5          6           0        4.540805   -0.008521   -0.000000
      6          1           0        5.602698   -0.011921   -0.000000
      7         17           0       -1.282257   -0.846315    1.468789
      8         17           0       -1.282257   -0.846315   -1.468789
      9         17           0       -1.282257    1.697533    0.000000
 ---------------------------------------------------------------------

 SCF Done:  E(RHF) =  -1569.90887587     A.U. after    2 cycles

 The electronic state is 1-A'.
 Alpha  occ. eigenvalues --  -99.92463 -99.92462 -99.92458 -11.60552 -11.50798
 Alpha  occ. eigenvalues --  -11.46916 -11.46123 -11.44901 -10.49940 -10.49610
 Alpha  occ. eigenvalues --  -10.49604  -9.69731  -9.69728  -9.69471  -9.68894
 Alpha  occ. eigenvalues --   -9.68855  -9.68854  -9.68805  -9.68674  -9.68673
 Alpha  occ. eigenvalues --   -1.47432  -1.30936  -1.30930  -1.22140  -1.11629
 Alpha  occ. eigenvalues --   -1.01089  -0.86500  -0.76308  -0.71643  -0.71642
 Alpha  occ. eigenvalues --   -0.70011  -0.57451  -0.57449  -0.52737  -0.51656
 Alpha  occ. eigenvalues --   -0.51656  -0.50552  -0.49499  -0.49498  -0.36162
 Alpha  occ. eigenvalues --   -0.36161
 Alpha virt. eigenvalues --   -0.01039   0.02637   0.03750   0.03751   0.05889
 Alpha virt. eigenvalues --    0.08355   0.09143   0.09143   0.10905   0.10906
 Alpha virt. eigenvalues --    0.11323   0.12733   0.12743   0.13232   0.14914

 Mulliken charges:
               1
     1  C    3.048700
     2  C    3.115550
     3  C    3.350216
     4  C   -5.517994
     5  C   -4.979889
     6  H    0.283378
     7  Cl   0.232983
     8  Cl   0.232983
     9  Cl   0.234072
 Sum of Mulliken charges =   0.00000

 Dipole moment (field-independent basis, Debye):
    X=              2.9238    Y=             -0.0067    Z=             -0.0000  Tot=              2.9238

 Test job not archived.
 1\1\GINC-SE013\SP\RHF\Aug-CC-pVDZ\C5H1Cl3\OHZDE\06-Apr-2025\0\\#t hf a
 ug-cc-pvdz iop(5/13=1,5/36=2,99/5=2) pseudo=read geom=check guess=(rea
 d,tcheck) scf=(maxcycle=1)\\title\\0,1\C,0,1.977238,-0.001331,0.\C,0,0
 .770993,0.001118,0.\C,0,3.336251,-0.004812,0.\C,0,-0.659885,0.00164,0.
 \C,0,4.540805,-0.008521,0.\H,0,5.602698,-0.011921,0.\Cl,0,-1.282257,-0
 .846315,1.468789\Cl,0,-1.282257,-0.846315,-1.468789\Cl,0,-1.282257,1.6
 97533,0.\\Version=ES64L-G16RevC.01\State=1-A'\HF=-1569.9088759\RMSD=2.
 589e+00\Dipole=1.1503012,-0.0026375,0.\Quadrupole=8.1294317,-4.0643322

 Normal termination of Gaussian 16 at Sun Apr  6 08:07:05 2025.
