 Gaussian 16, Revision C.01,

 ----------------------------------------------------------------------
 #t hf aug-cc-pvdz symm=none int=(grid=ultrafine) guess=(read,tcheck) s
 table=(opt,rrhf)
 ----------------------------------------------------------------------
 -----
 title
 -----
 Symbolic Z-matrix:
 Charge =  0 Multiplicity = 1

 SCF Done:  E(RHF) =  -344.596843562     A.U. after   13 cycles
 Normal termination of Gaussian 16 at Sun Apr  6 08:06:53 2025.
 Gaussian 16:  ES64L-G16RevC.01  3-Jul-2019

 ----------------------------------------------------------------------
 #t hf aug-cc-pvdz iop(5/13=1,5/36=2,99/5=2) pseudo=read geom=check gue
 ss=(read,tcheck) scf=(maxcycle=1)
 ----------------------------------------------------------------------
 -----
 title
 -----
 Structure from the checkpoint file:  "5-6-dihydro-4H-cyclopentacfuran.chk"
 Charge =  0 Multiplicity = 1

                         Standard orientation:
 ---------------------------------------------------------------------
 Center     Atomic      Atomic             Coordinates (Angstroms)
 Number     Number       Type             X           Y           Z
 ---------------------------------------------------------------------
      1          6           0        0.056743   -1.403063    1.105281
      2          6           0        0.056743   -1.403063   -1.105281
      3          6           0        0.056743   -0.108428    0.714480
      4          6           0        0.056743   -0.108428   -0.714480
      5          6           0        0.061614    1.293990    1.248837
      6          6           0        0.061614    1.293990   -1.248837
      7          6           0       -0.362168    2.121493   -0.000000
      8          8           0        0.055843   -2.213536    0.000000
      9          1           0        0.050540   -1.910773    2.052548
     10          1           0        0.050540   -1.910773   -2.052548
     11          1           0       -0.610306    1.450561    2.092349
     12          1           0        1.064430    1.578481    1.579793
     13          1           0        1.064430    1.578481   -1.579793
     14          1           0       -0.610306    1.450561   -2.092349
     15          1           0       -1.447985    2.228635   -0.000000
     16          1           0        0.063723    3.124156   -0.000000
 ---------------------------------------------------------------------

 SCF Done:  E(RHF) =  -346.228534866     A.U. after    2 cycles

 The electronic state is 1-A'.
 Alpha  occ. eigenvalues --  -21.09781 -11.47017 -11.45316 -11.43892 -11.43240
 Alpha  occ. eigenvalues --  -11.39210 -11.37728 -11.34988  -1.82592  -1.32838
 Alpha  occ. eigenvalues --   -1.09367  -1.07884  -0.99120  -0.86159  -0.80580
 Alpha  occ. eigenvalues --   -0.73455  -0.69525  -0.65068  -0.56555  -0.55920
 Alpha  occ. eigenvalues --   -0.54755  -0.52790  -0.49892  -0.47066  -0.45314
 Alpha  occ. eigenvalues --   -0.43924  -0.39221  -0.30519  -0.30497
 Alpha virt. eigenvalues --    0.03675   0.04797   0.05222   0.05557   0.05902
 Alpha virt. eigenvalues --    0.06447   0.06524   0.06687   0.10881   0.11134
 Alpha virt. eigenvalues --    0.11480   0.11658   0.13326   0.13471   0.13985

 Mulliken charges:
               1
     1  C   -0.397618
     2  C   -0.397618
     3  C    2.344176
     4  C    2.344176
     5  C   -3.591494
     6  C   -3.591494
     7  C   -3.019818
     8  O   -4.103983
     9  H    1.422895
    10  H    1.422895
    11  H    1.226296
    12  H    1.242164
    13  H    1.242164
    14  H    1.226296
    15  H    1.347535
    16  H    1.283426
 Sum of Mulliken charges =   0.00000

 Dipole moment (field-independent basis, Debye):
    X=             -0.0087    Y=              0.6688    Z=             -0.0000  Tot=              0.6689

 Test job not archived.
 1\1\GINC-SE106\SP\RHF\Aug-CC-pVDZ\C7H8O1\OHZDE\06-Apr-2025\0\\#t hf au
 g-cc-pvdz iop(5/13=1,5/36=2,99/5=2) pseudo=read geom=check guess=(read
 ,tcheck) scf=(maxcycle=1)\\title\\0,1\C,0,0.056743,-1.403063,1.105281\
 C,0,0.056743,-1.403063,-1.105281\C,0,0.056743,-0.108428,0.71448\C,0,0.
 056743,-0.108428,-0.71448\C,0,0.061614,1.29399,1.248837\C,0,0.061614,1
 .29399,-1.248837\C,0,-0.362168,2.121493,0.\O,0,0.055843,-2.213536,0.\H
 ,0,0.05054,-1.910773,2.052548\H,0,0.05054,-1.910773,-2.052548\H,0,-0.6
 10306,1.450561,2.092349\H,0,1.06443,1.578481,1.579793\H,0,1.06443,1.57

 Normal termination of Gaussian 16 at Sun Apr  6 08:06:58 2025.
