 Gaussian 16, Revision C.01,

 ----------------------------------------------------------------------
 #t hf aug-cc-pvdz symm=none int=(grid=ultrafine) guess=(read,tcheck) s
 table=(opt,rrhf)
 ----------------------------------------------------------------------
 -----
 title
 -----
 Symbolic Z-matrix:
 Charge =  0 Multiplicity = 1

 SCF Done:  E(RHF) =  -1019.91019528     A.U. after   15 cycles
 Normal termination of Gaussian 16 at Sun Apr  6 08:07:00 2025.
 Gaussian 16:  ES64L-G16RevC.01  3-Jul-2019

 ----------------------------------------------------------------------
 #t hf aug-cc-pvdz iop(5/13=1,5/36=2,99/5=2) pseudo=read geom=check gue
 ss=(read,tcheck) scf=(maxcycle=1)
 ----------------------------------------------------------------------
 -----
 title
 -----
 Structure from the checkpoint file:  "5-amino-1-3-thiazole-23H-thione.chk"
 Charge =  0 Multiplicity = 1

                         Standard orientation:
 ---------------------------------------------------------------------
 Center     Atomic      Atomic             Coordinates (Angstroms)
 Number     Number       Type             X           Y           Z
 ---------------------------------------------------------------------
      1          7           0        2.935965   -0.304877   -0.073828
      2          6           0        1.606186    0.090118    0.012997
      3         16           0        0.316726   -1.115816   -0.018860
      4          6           0       -0.949684    0.127458   -0.004415
      5         16           0       -2.581806   -0.148817    0.010440
      6          6           0        1.075661    1.327803    0.016693
      7          7           0       -0.317561    1.323933   -0.009342
      8          1           0        3.193890   -1.060264    0.544728
      9          1           0        3.594248    0.457458   -0.006269
     10          1           0        1.603851    2.266439    0.028808
     11          1           0       -0.872523    2.164827   -0.002006
 ---------------------------------------------------------------------

 SCF Done:  E(RHF) =  -1021.39535171     A.U. after    2 cycles

 The electronic state is 1-A.
 Alpha  occ. eigenvalues --  -75.73237 -75.63434 -15.81793 -15.79219 -13.18255
 Alpha  occ. eigenvalues --  -13.16707 -13.12657 -13.05103 -12.96868 -12.94435
 Alpha  occ. eigenvalues --  -11.49631 -11.48854 -11.42649  -8.07644  -7.97551
 Alpha  occ. eigenvalues --   -1.53978  -1.38132  -1.19673  -1.15133  -1.02027
 Alpha  occ. eigenvalues --   -0.84250  -0.83150  -0.72708  -0.68413  -0.62449
 Alpha  occ. eigenvalues --   -0.59625  -0.56317  -0.49759  -0.44485  -0.41808
 Alpha  occ. eigenvalues --   -0.35729  -0.31918  -0.20952  -0.19497
 Alpha virt. eigenvalues --    0.01832   0.03945   0.05093   0.06360   0.07380
 Alpha virt. eigenvalues --    0.08561   0.09230   0.09992   0.10234   0.10871
 Alpha virt. eigenvalues --    0.12673   0.13423   0.14686   0.15514   0.15759

 Mulliken charges:
               1
     1  N   -3.470040
     2  C    1.877335
     3  S    1.819518
     4  C   -1.231417
     5  S    1.408635
     6  C   -0.679756
     7  N   -3.230040
     8  H    0.581501
     9  H    0.666199
    10  H    1.476718
    11  H    0.781347
 Sum of Mulliken charges =   0.00000

 Dipole moment (field-independent basis, Debye):
    X=              3.3382    Y=             -0.1843    Z=              0.6763  Tot=              3.4110

 Test job not archived.
 1\1\GINC-SE106\SP\RHF\Aug-CC-pVDZ\C3H4N2S2\OHZDE\06-Apr-2025\0\\#t hf
 aug-cc-pvdz iop(5/13=1,5/36=2,99/5=2) pseudo=read geom=check guess=(re
 ad,tcheck) scf=(maxcycle=1)\\title\\0,1\N,0,2.935965,-0.304877,-0.0738
 28\C,0,1.606186,0.090118,0.012997\S,0,0.316726,-1.115816,-0.01886\C,0,
 -0.949684,0.127458,-0.004415\S,0,-2.581806,-0.148817,0.01044\C,0,1.075
 661,1.327803,0.016693\N,0,-0.317561,1.323933,-0.009342\H,0,3.19389,-1.
 060264,0.544728\H,0,3.594248,0.457458,-0.006269\H,0,1.603851,2.266439,
 0.028808\H,0,-0.872523,2.164827,-0.002006\\Version=ES64L-G16RevC.01\St

 Normal termination of Gaussian 16 at Sun Apr  6 08:07:06 2025.
