 Gaussian 16, Revision C.01,

 ----------------------------------------------------------------------
 #t hf aug-cc-pvdz symm=none int=(grid=ultrafine) guess=(read,tcheck) s
 table=(opt,rrhf)
 ----------------------------------------------------------------------
 -----
 title
 -----
 Symbolic Z-matrix:
 Charge =  0 Multiplicity = 1

 SCF Done:  E(RHF) =  -820.518021039     A.U. after   14 cycles
 Normal termination of Gaussian 16 at Sun Apr  6 08:06:59 2025.
 Gaussian 16:  ES64L-G16RevC.01  3-Jul-2019

 ----------------------------------------------------------------------
 #t hf aug-cc-pvdz iop(5/13=1,5/36=2,99/5=2) pseudo=read geom=check gue
 ss=(read,tcheck) scf=(maxcycle=1)
 ----------------------------------------------------------------------
 -----
 title
 -----
 Structure from the checkpoint file:  "5-chloro-2-fluoropyrimidine.chk"
 Charge =  0 Multiplicity = 1

                         Standard orientation:
 ---------------------------------------------------------------------
 Center     Atomic      Atomic             Coordinates (Angstroms)
 Number     Number       Type             X           Y           Z
 ---------------------------------------------------------------------
      1         17           0        0.000000    0.000000    2.639630
      2          9           0        0.000000    0.000000   -3.046511
      3          7           0        0.000000    1.187688   -1.149552
      4          7           0       -0.000000   -1.187688   -1.149552
      5          6           0        0.000000    0.000000   -1.718678
      6          6           0        0.000000    0.000000    0.901715
      7          6           0        0.000000    1.186904    0.181469
      8          6           0       -0.000000   -1.186904    0.181469
      9          1           0        0.000000    2.147124    0.681378
     10          1           0       -0.000000   -2.147124    0.681378
 ---------------------------------------------------------------------

 SCF Done:  E(RHF) =  -822.277563607     A.U. after    2 cycles

 The electronic state is 1-A1.
 Alpha  occ. eigenvalues --  -99.92417 -29.31014 -15.77753 -15.77714 -11.52870
 Alpha  occ. eigenvalues --  -11.50450 -11.50188 -11.44899 -10.49799  -9.69843
 Alpha  occ. eigenvalues --   -9.68867  -9.68717  -1.58087  -1.37732  -1.35681
 Alpha  occ. eigenvalues --   -1.20387  -0.99952  -0.98336  -0.83586  -0.72085
 Alpha  occ. eigenvalues --   -0.70107  -0.65702  -0.63305  -0.61498  -0.58203
 Alpha  occ. eigenvalues --   -0.54106  -0.47966  -0.44423  -0.44250  -0.40862
 Alpha  occ. eigenvalues --   -0.38209  -0.30222  -0.28199
 Alpha virt. eigenvalues --    0.03011   0.05051   0.06335   0.07226   0.08549
 Alpha virt. eigenvalues --    0.09258   0.10822   0.10909   0.11135   0.12042
 Alpha virt. eigenvalues --    0.13141   0.13152   0.13170   0.14175   0.14407

 Mulliken charges:
               1
     1  Cl  -0.499176
     2  F    0.980566
     3  N   -3.557626
     4  N   -3.557626
     5  C    1.828705
     6  C    0.247283
     7  C    0.556940
     8  C    0.556940
     9  H    1.721998
    10  H    1.721998
 Sum of Mulliken charges =  -0.00000

 Dipole moment (field-independent basis, Debye):
    X=             -0.0000    Y=             -0.0000    Z=             -2.1906  Tot=              2.1906

 Test job not archived.
 1\1\GINC-SE107\SP\RHF\Aug-CC-pVDZ\C4H2Cl1F1N2\OHZDE\06-Apr-2025\0\\#t
 hf aug-cc-pvdz iop(5/13=1,5/36=2,99/5=2) pseudo=read geom=check guess=
 (read,tcheck) scf=(maxcycle=1)\\title\\0,1\Cl,0,0.,0.,2.63963\F,0,0.,0
 .,-3.046511\N,0,0.,1.187688,-1.149552\N,0,0.,-1.187688,-1.149552\C,0,0
 .,0.,-1.718678\C,0,0.,0.,0.901715\C,0,0.,1.186904,0.181469\C,0,0.,-1.1
 86904,0.181469\H,0,0.,2.147124,0.681378\H,0,0.,-2.147124,0.681378\\Ver
 sion=ES64L-G16RevC.01\State=1-A1\HF=-822.2775636\RMSD=7.950e-01\Dipole
 =0.,0.,-0.8618359\Quadrupole=-1.8598742,-1.6608375,3.5207117,0.,0.,0.\

 Normal termination of Gaussian 16 at Sun Apr  6 08:07:04 2025.
