 Gaussian 16, Revision C.01,

 ----------------------------------------------------------------------
 #t hf aug-cc-pvdz symm=none int=(grid=ultrafine) guess=(read,tcheck) s
 table=(opt,rrhf)
 ----------------------------------------------------------------------
 -----
 title
 -----
 Symbolic Z-matrix:
 Charge =  0 Multiplicity = 1

 SCF Done:  E(RHF) =  -854.076791118     A.U. after   16 cycles
 Normal termination of Gaussian 16 at Sun Apr  6 08:07:12 2025.
 Gaussian 16:  ES64L-G16RevC.01  3-Jul-2019

 ----------------------------------------------------------------------
 #t hf aug-cc-pvdz iop(5/13=1,5/36=2,99/5=2) pseudo=read geom=check gue
 ss=(read,tcheck) scf=(maxcycle=1)
 ----------------------------------------------------------------------
 -----
 title
 -----
 Structure from the checkpoint file:  "5-chloro-2-furylmethylidyneazane_oxide.chk"
 Charge =  0 Multiplicity = 1

                         Standard orientation:
 ---------------------------------------------------------------------
 Center     Atomic      Atomic             Coordinates (Angstroms)
 Number     Number       Type             X           Y           Z
 ---------------------------------------------------------------------
      1         17           0       -2.933937   -0.850434   -0.000044
      2          8           0       -0.346846   -0.549858   -0.000006
      3          8           0        4.235353   -0.675671   -0.000125
      4          7           0        3.080676   -0.335472   -0.000056
      5          6           0        0.058308    1.657615    0.000110
      6          6           0        0.637991    0.420462    0.000047
      7          6           0       -1.349070    1.455584    0.000089
      8          6           0       -1.524517    0.108140    0.000020
      9          6           0        1.968174   -0.006252    0.000050
     10          1           0        0.583129    2.596701    0.000164
     11          1           0       -2.124310    2.199912    0.000120
 ---------------------------------------------------------------------

 SCF Done:  E(RHF) =  -856.063144308     A.U. after    2 cycles

 The electronic state is 1-A.
 Alpha  occ. eigenvalues --  -99.94028 -21.16333 -21.08039 -15.93400 -11.55414
 Alpha  occ. eigenvalues --  -11.52304 -11.50576 -11.48588 -11.42492 -10.51454
 Alpha  occ. eigenvalues --   -9.71551  -9.70435  -9.70324  -1.90474  -1.84303
 Alpha  occ. eigenvalues --   -1.38155  -1.30989  -1.24621  -1.11162  -0.91227
 Alpha  occ. eigenvalues --   -0.85125  -0.79575  -0.67654  -0.66862  -0.63881
 Alpha  occ. eigenvalues --   -0.62790  -0.62198  -0.61160  -0.57173  -0.55779
 Alpha  occ. eigenvalues --   -0.52743  -0.48211  -0.39884  -0.38135  -0.30868
 Alpha  occ. eigenvalues --   -0.27438
 Alpha virt. eigenvalues --    0.02452   0.04643   0.05817   0.07466   0.08622
 Alpha virt. eigenvalues --    0.08952   0.09284   0.09586   0.09721   0.11396
 Alpha virt. eigenvalues --    0.12356   0.12685   0.12786   0.13796   0.14235

 Mulliken charges:
               1
     1  Cl  -0.250852
     2  O   -4.106065
     3  O   -3.026461
     4  N    0.466869
     5  C   -2.276717
     6  C    3.861424
     7  C   -0.450228
     8  C    0.126149
     9  C    2.832915
    10  H    1.315502
    11  H    1.507464
 Sum of Mulliken charges =   0.00000

 Dipole moment (field-independent basis, Debye):
    X=             -0.3667    Y=              1.4771    Z=              0.0000  Tot=              1.5219

 Test job not archived.
 1\1\GINC-SE107\SP\RHF\Aug-CC-pVDZ\C5H2Cl1N1O2\OHZDE\06-Apr-2025\0\\#t
 hf aug-cc-pvdz iop(5/13=1,5/36=2,99/5=2) pseudo=read geom=check guess=
 (read,tcheck) scf=(maxcycle=1)\\title\\0,1\Cl,0,-2.933937,-0.850434,-0
 .000044\O,0,-0.346846,-0.549858,-0.000006\O,0,4.235353,-0.675671,-0.00
 0125\N,0,3.080676,-0.335472,-0.000056\C,0,0.058308,1.657615,0.00011\C,
 0,0.637991,0.420462,0.000047\C,0,-1.34907,1.455584,0.000089\C,0,-1.524
 517,0.10814,0.00002\C,0,1.968174,-0.006252,0.00005\H,0,0.583129,2.5967
 01,0.000164\H,0,-2.12431,2.199912,0.00012\\Version=ES64L-G16RevC.01\St

 Normal termination of Gaussian 16 at Sun Apr  6 08:07:18 2025.
