 Gaussian 16, Revision C.01,

 ----------------------------------------------------------------------
 #t hf aug-cc-pvdz symm=none int=(grid=ultrafine) guess=(read,tcheck) s
 table=(opt,rrhf)
 ----------------------------------------------------------------------
 -----
 title
 -----
 Symbolic Z-matrix:
 Charge =  0 Multiplicity = 1

 SCF Done:  E(RHF) =  -1081.29678915     A.U. after   15 cycles
 Normal termination of Gaussian 16 at Sun Apr  6 08:06:58 2025.
 Gaussian 16:  ES64L-G16RevC.01  3-Jul-2019

 ----------------------------------------------------------------------
 #t hf aug-cc-pvdz iop(5/13=1,5/36=2,99/5=2) pseudo=read geom=check gue
 ss=(read,tcheck) scf=(maxcycle=1)
 ----------------------------------------------------------------------
 -----
 title
 -----
 Structure from the checkpoint file:  "5-chloromethyl-1-2-4-thiadiazole.chk"
 Charge =  0 Multiplicity = 1

                         Standard orientation:
 ---------------------------------------------------------------------
 Center     Atomic      Atomic             Coordinates (Angstroms)
 Number     Number       Type             X           Y           Z
 ---------------------------------------------------------------------
      1         17           0       -2.472282   -0.267612   -0.000030
      2         16           0        0.639929   -1.110653    0.000024
      3          7           0        1.179481    1.352505   -0.000015
      4          7           0        2.252013   -0.695943   -0.000013
      5          6           0        0.152322    0.548818    0.000016
      6          6           0        2.324073    0.610198   -0.000029
      7          6           0       -1.251803    1.057260    0.000047
      8          1           0        3.286720    1.101720   -0.000055
      9          1           0       -1.432399    1.662317   -0.884472
     10          1           0       -1.432404    1.662208    0.884642
 ---------------------------------------------------------------------

 SCF Done:  E(RHF) =  -1082.79055238     A.U. after    2 cycles

 The electronic state is 1-A.
 Alpha  occ. eigenvalues --  -99.90662 -75.75142 -15.76588 -15.76114 -13.22788
 Alpha  occ. eigenvalues --  -13.20251 -13.06559 -11.50712 -11.46222 -11.44456
 Alpha  occ. eigenvalues --  -10.47934  -9.67877  -9.67155  -9.66991  -8.09695
 Alpha  occ. eigenvalues --   -1.56631  -1.36277  -1.29904  -1.16818  -1.05072
 Alpha  occ. eigenvalues --   -0.85271  -0.80410  -0.70158  -0.68890  -0.63672
 Alpha  occ. eigenvalues --   -0.58950  -0.58629  -0.51558  -0.50647  -0.47022
 Alpha  occ. eigenvalues --   -0.41799  -0.39727  -0.37012  -0.30605
 Alpha virt. eigenvalues --    0.02762   0.04680   0.05860   0.05919   0.07922
 Alpha virt. eigenvalues --    0.09168   0.09468   0.09943   0.10464   0.11788
 Alpha virt. eigenvalues --    0.12355   0.14095   0.14472   0.14797   0.15701

 Mulliken charges:
               1
     1  Cl   0.203958
     2  S    1.940795
     3  N   -3.315945
     4  N   -2.827802
     5  C    2.229547
     6  C    1.949760
     7  C   -4.903824
     8  H    1.682954
     9  H    1.520280
    10  H    1.520277
 Sum of Mulliken charges =   0.00000

 Dipole moment (field-independent basis, Debye):
    X=             -0.8662    Y=             -0.9811    Z=              0.0001  Tot=              1.3087

 Test job not archived.
 1\1\GINC-SE169\SP\RHF\Aug-CC-pVDZ\C3H3Cl1N2S1\OHZDE\06-Apr-2025\0\\#t
 hf aug-cc-pvdz iop(5/13=1,5/36=2,99/5=2) pseudo=read geom=check guess=
 (read,tcheck) scf=(maxcycle=1)\\title\\0,1\Cl,0,-2.472282,-0.267612,-0
 .00003\S,0,0.639929,-1.110653,0.000024\N,0,1.179481,1.352505,-0.000015
 \N,0,2.252013,-0.695943,-0.000013\C,0,0.152322,0.548818,0.000016\C,0,2
 .324073,0.610198,-0.000029\C,0,-1.251803,1.05726,0.000047\H,0,3.28672,
 1.10172,-0.000055\H,0,-1.432399,1.662317,-0.884472\H,0,-1.432404,1.662
 208,0.884642\\Version=ES64L-G16RevC.01\State=1-A\HF=-1082.7905524\RMSD

 Normal termination of Gaussian 16 at Sun Apr  6 08:07:04 2025.
