 Gaussian 16, Revision C.01,

 ----------------------------------------------------------------------
 #t hf aug-cc-pvdz symm=none int=(grid=ultrafine) guess=(read,tcheck) s
 table=(opt,rrhf)
 ----------------------------------------------------------------------
 -----
 title
 -----
 Symbolic Z-matrix:
 Charge =  0 Multiplicity = 1

 SCF Done:  E(RHF) =  -814.470888217     A.U. after   16 cycles
 Normal termination of Gaussian 16 at Sun Apr  6 08:07:35 2025.
 Gaussian 16:  ES64L-G16RevC.01  3-Jul-2019

 ----------------------------------------------------------------------
 #t hf aug-cc-pvdz iop(5/13=1,5/36=2,99/5=2) pseudo=read geom=check gue
 ss=(read,tcheck) scf=(maxcycle=1)
 ----------------------------------------------------------------------
 -----
 title
 -----
 Structure from the checkpoint file:  "5-chloro-3-ethynyl-1-methyl-1H-1-2-4-triazole.chk"
 Charge =  0 Multiplicity = 1

                         Standard orientation:
 ---------------------------------------------------------------------
 Center     Atomic      Atomic             Coordinates (Angstroms)
 Number     Number       Type             X           Y           Z
 ---------------------------------------------------------------------
      1         17           0       -2.273721   -1.145016    0.000007
      2          7           0       -0.545925    0.931210   -0.000361
      3          7           0        0.780358    1.189764   -0.000206
      4          7           0        0.415924   -1.046068    0.000109
      5          6           0       -1.507346    2.016770    0.000250
      6          6           0       -0.725032   -0.407416   -0.000057
      7          6           0        1.323326   -0.022938    0.000027
      8          6           0        2.726873   -0.228945    0.000057
      9          6           0        3.911599   -0.413981    0.000075
     10          1           0       -1.359292    2.633377   -0.883814
     11          1           0       -2.508410    1.598147   -0.006840
     12          1           0       -1.368588    2.625200    0.891548
     13          1           0        4.960520   -0.576746    0.000087
 ---------------------------------------------------------------------

 SCF Done:  E(RHF) =  -816.343098582     A.U. after    2 cycles

 The electronic state is 1-A.
 Alpha  occ. eigenvalues --  -99.93577 -15.82848 -15.77378 -15.74993 -11.51627
 Alpha  occ. eigenvalues --  -11.49614 -11.43868 -11.43079 -11.41413 -10.51007
 Alpha  occ. eigenvalues --   -9.71072  -9.70122  -9.69901  -1.69229  -1.39307
 Alpha  occ. eigenvalues --   -1.36453  -1.22871  -1.12578  -1.04441  -0.90254
 Alpha  occ. eigenvalues --   -0.83948  -0.77296  -0.71052  -0.70834  -0.62859
 Alpha  occ. eigenvalues --   -0.61867  -0.60877  -0.57488  -0.56232  -0.55423
 Alpha  occ. eigenvalues --   -0.47579  -0.44090  -0.41235  -0.38932  -0.38448
 Alpha  occ. eigenvalues --   -0.32419
 Alpha virt. eigenvalues --    0.02988   0.04523   0.05460   0.06126   0.07277
 Alpha virt. eigenvalues --    0.08394   0.09279   0.10684   0.11132   0.11549
 Alpha virt. eigenvalues --    0.11690   0.11858   0.12961   0.13257   0.14602

 Mulliken charges:
               1
     1  Cl   0.278941
     2  N   -1.573127
     3  N   -1.628044
     4  N   -3.078365
     5  C   -2.946982
     6  C    1.219339
     7  C    3.783798
     8  C    2.976232
     9  C   -3.941175
    10  H    1.483876
    11  H    1.406881
    12  H    1.482768
    13  H    0.535858
 Sum of Mulliken charges =   0.00000

 Dipole moment (field-independent basis, Debye):
    X=             -1.4279    Y=              2.3776    Z=             -0.0001  Tot=              2.7734

 Test job not archived.
 1\1\GINC-SE108\SP\RHF\Aug-CC-pVDZ\C5H4Cl1N3\OHZDE\06-Apr-2025\0\\#t hf
  aug-cc-pvdz iop(5/13=1,5/36=2,99/5=2) pseudo=read geom=check guess=(r
 ead,tcheck) scf=(maxcycle=1)\\title\\0,1\Cl,0,-2.273721,-1.145016,0.00
 0007\N,0,-0.545925,0.93121,-0.000361\N,0,0.780358,1.189764,-0.000206\N
 ,0,0.415924,-1.046068,0.000109\C,0,-1.507346,2.01677,0.00025\C,0,-0.72
 5032,-0.407416,-0.000057\C,0,1.323326,-0.022938,0.000027\C,0,2.726873,
 -0.228945,0.000057\C,0,3.911599,-0.413981,0.000075\H,0,-1.359292,2.633
 377,-0.883814\H,0,-2.50841,1.598147,-0.00684\H,0,-1.368588,2.6252,0.89

 Normal termination of Gaussian 16 at Sun Apr  6 08:07:41 2025.
