 Gaussian 16, Revision C.01,

 ----------------------------------------------------------------------
 #t hf aug-cc-pvdz symm=none int=(grid=ultrafine) guess=(read,tcheck) s
 table=(opt,rrhf)
 ----------------------------------------------------------------------
 -----
 title
 -----
 Symbolic Z-matrix:
 Charge =  0 Multiplicity = 1

 SCF Done:  E(RHF) =  -1081.24637528     A.U. after   16 cycles
 Normal termination of Gaussian 16 at Sun Apr  6 08:06:59 2025.
 Gaussian 16:  ES64L-G16RevC.01  3-Jul-2019

 ----------------------------------------------------------------------
 #t hf aug-cc-pvdz iop(5/13=1,5/36=2,99/5=2) pseudo=read geom=check gue
 ss=(read,tcheck) scf=(maxcycle=1)
 ----------------------------------------------------------------------
 -----
 title
 -----
 Structure from the checkpoint file:  "5-chloro-4-methyl-1-2-3-thiadiazole.chk"
 Charge =  0 Multiplicity = 1

                         Standard orientation:
 ---------------------------------------------------------------------
 Center     Atomic      Atomic             Coordinates (Angstroms)
 Number     Number       Type             X           Y           Z
 ---------------------------------------------------------------------
      1         17           0       -2.008971   -0.645634   -0.000016
      2         16           0        0.916996   -1.382670    0.000044
      3          7           0        1.562136    1.012519   -0.000064
      4          7           0        2.104548   -0.138902    0.000000
      5          6           0       -0.342527   -0.225321   -0.000029
      6          6           0        0.192585    1.037355   -0.000081
      7          6           0       -0.528303    2.343259    0.000042
      8          1           0       -0.251763    2.929510   -0.876767
      9          1           0       -1.605450    2.196555   -0.004895
     10          1           0       -0.259522    2.925361    0.882074
 ---------------------------------------------------------------------

 SCF Done:  E(RHF) =  -1082.75503380     A.U. after    2 cycles

 The electronic state is 1-A.
 Alpha  occ. eigenvalues --  -99.93592 -75.75674 -15.82030 -15.80190 -13.22519
 Alpha  occ. eigenvalues --  -13.19614 -13.06891 -11.50208 -11.44643 -11.40155
 Alpha  occ. eigenvalues --  -10.50970  -9.70966  -9.70066  -9.69861  -8.10194
 Alpha  occ. eigenvalues --   -1.61535  -1.38878  -1.22579  -1.19578  -1.03971
 Alpha  occ. eigenvalues --   -0.88147  -0.80022  -0.67983  -0.64624  -0.61238
 Alpha  occ. eigenvalues --   -0.58275  -0.57898  -0.55413  -0.54963  -0.49980
 Alpha  occ. eigenvalues --   -0.43614  -0.37987  -0.34042  -0.30765
 Alpha virt. eigenvalues --    0.02806   0.05531   0.06151   0.06758   0.07259
 Alpha virt. eigenvalues --    0.07494   0.07874   0.09239   0.11895   0.12552
 Alpha virt. eigenvalues --    0.12666   0.13398   0.13467   0.14606   0.15782

 Mulliken charges:
               1
     1  Cl  -0.327210
     2  S    1.806177
     3  N   -1.785949
     4  N   -1.647386
     5  C   -1.742078
     6  C    4.029359
     7  C   -3.860214
     8  H    1.106797
     9  H    1.314179
    10  H    1.106326
 Sum of Mulliken charges =   0.00000

 Dipole moment (field-independent basis, Debye):
    X=             -0.7874    Y=             -2.1293    Z=              0.0006  Tot=              2.2702

 Test job not archived.
 1\1\GINC-SE108\SP\RHF\Aug-CC-pVDZ\C3H3Cl1N2S1\OHZDE\06-Apr-2025\0\\#t
 hf aug-cc-pvdz iop(5/13=1,5/36=2,99/5=2) pseudo=read geom=check guess=
 (read,tcheck) scf=(maxcycle=1)\\title\\0,1\Cl,0,-2.008972,-0.645633,-0
 .000016\S,0,0.916995,-1.38267,0.000044\N,0,1.562136,1.012518,-0.000064
 \N,0,2.104548,-0.138903,0.\C,0,-0.342527,-0.225321,-0.000029\C,0,0.192
 585,1.037355,-0.000081\C,0,-0.528302,2.343259,0.000042\H,0,-0.251761,2
 .92951,-0.876767\H,0,-1.605449,2.196556,-0.004895\H,0,-0.25952,2.92536
 1,0.882074\\Version=ES64L-G16RevC.01\State=1-A\HF=-1082.7550338\RMSD=8

 Normal termination of Gaussian 16 at Sun Apr  6 08:07:04 2025.
