 Gaussian 16, Revision C.01,

 ----------------------------------------------------------------------
 #t hf aug-cc-pvdz symm=none int=(grid=ultrafine) guess=(read,tcheck) s
 table=(opt,rrhf)
 ----------------------------------------------------------------------
 -----
 title
 -----
 Symbolic Z-matrix:
 Charge =  0 Multiplicity = 1

 SCF Done:  E(RHF) =  -1201.49899422     A.U. after   14 cycles
 Normal termination of Gaussian 16 at Sun Apr  6 08:06:28 2025.
 Gaussian 16:  ES64L-G16RevC.01  3-Jul-2019

 ----------------------------------------------------------------------
 #t hf aug-cc-pvdz iop(5/13=1,5/36=2,99/5=2) pseudo=read geom=check gue
 ss=(read,tcheck) scf=(maxcycle=1)
 ----------------------------------------------------------------------
 -----
 title
 -----
 Structure from the checkpoint file:  "5-dichloromethyl-1-2-oxazole.chk"
 Charge =  0 Multiplicity = 1

                         Standard orientation:
 ---------------------------------------------------------------------
 Center     Atomic      Atomic             Coordinates (Angstroms)
 Number     Number       Type             X           Y           Z
 ---------------------------------------------------------------------
      1         17           0       -1.769018   -1.402538    0.178117
      2         17           0       -1.547273    1.487912   -0.423243
      3          8           0        1.460798    0.667411    0.845353
      4          7           0        2.756231    0.418539    0.391564
      5          6           0        0.598785   -0.083649    0.134479
      6          6           0       -0.831962    0.092960    0.483695
      7          6           0        1.270958   -0.829507   -0.776098
      8          6           0        2.623928   -0.463831   -0.561859
      9          1           0       -0.948218    0.336127    1.532441
     10          1           0        0.868419   -1.532812   -1.480568
     11          1           0        3.506494   -0.819577   -1.069811
 ---------------------------------------------------------------------

 SCF Done:  E(RHF) =  -1203.25155936     A.U. after    2 cycles

 The electronic state is 1-A.
 Alpha  occ. eigenvalues --  -99.91912 -99.91333 -21.14244 -15.79578 -11.54653
 Alpha  occ. eigenvalues --  -11.50885 -11.47230 -11.41590 -10.49222 -10.48564
 Alpha  occ. eigenvalues --   -9.69147  -9.68519  -9.68394  -9.68264  -9.67736
 Alpha  occ. eigenvalues --   -9.67657  -1.91777  -1.41929  -1.30250  -1.29583
 Alpha  occ. eigenvalues --   -1.18774  -1.03616  -0.85017  -0.82624  -0.76026
 Alpha  occ. eigenvalues --   -0.70471  -0.67868  -0.61046  -0.60338  -0.57114
 Alpha  occ. eigenvalues --   -0.54263  -0.52806  -0.50805  -0.49503  -0.46106
 Alpha  occ. eigenvalues --   -0.43371  -0.38169  -0.35905
 Alpha virt. eigenvalues --    0.02163   0.03389   0.05137   0.05500   0.06457
 Alpha virt. eigenvalues --    0.08573   0.09446   0.10190   0.11041   0.11192
 Alpha virt. eigenvalues --    0.12201   0.13040   0.13697   0.14375   0.14547

 Mulliken charges:
               1
     1  Cl   0.229694
     2  Cl   0.315038
     3  O   -3.255145
     4  N   -1.062869
     5  C    6.711510
     6  C   -4.251992
     7  C   -3.181691
     8  C    0.230224
     9  H    1.651345
    10  H    1.209560
    11  H    1.404324
 Sum of Mulliken charges =   0.00000

 Dipole moment (field-independent basis, Debye):
    X=              0.6062    Y=             -1.0779    Z=             -0.1089  Tot=              1.2415

 Test job not archived.
 1\1\GINC-SE170\SP\RHF\Aug-CC-pVDZ\C4H3Cl2N1O1\OHZDE\06-Apr-2025\0\\#t
 hf aug-cc-pvdz iop(5/13=1,5/36=2,99/5=2) pseudo=read geom=check guess=
 (read,tcheck) scf=(maxcycle=1)\\title\\0,1\Cl,0,-1.769018,-1.402538,0.
 178117\Cl,0,-1.547273,1.487912,-0.423243\O,0,1.460798,0.667411,0.84535
 3\N,0,2.756231,0.418539,0.391564\C,0,0.598785,-0.083649,0.134479\C,0,-
 0.831962,0.09296,0.483695\C,0,1.270958,-0.829507,-0.776098\C,0,2.62392
 8,-0.463831,-0.561859\H,0,-0.948218,0.336127,1.532441\H,0,0.868419,-1.
 532812,-1.480568\H,0,3.506494,-0.819577,-1.069811\\Version=ES64L-G16Re

 Normal termination of Gaussian 16 at Sun Apr  6 08:06:49 2025.
