 Gaussian 16, Revision C.01,

 ----------------------------------------------------------------------
 #t hf aug-cc-pvdz symm=none int=(grid=ultrafine) guess=(read,tcheck) s
 table=(opt,rrhf)
 ----------------------------------------------------------------------
 -----
 title
 -----
 Symbolic Z-matrix:
 Charge =  0 Multiplicity = 1

 SCF Done:  E(RHF) =  -587.436563465     A.U. after   14 cycles
 Normal termination of Gaussian 16 at Sun Apr  6 08:07:46 2025.
 Gaussian 16:  ES64L-G16RevC.01  3-Jul-2019

 ----------------------------------------------------------------------
 #t hf aug-cc-pvdz iop(5/13=1,5/36=2,99/5=2) pseudo=read geom=check gue
 ss=(read,tcheck) scf=(maxcycle=1)
 ----------------------------------------------------------------------
 -----
 title
 -----
 Structure from the checkpoint file:  "5-fluoro-6-hydroxydihydro-2-41H-3H-pyrimidinedione.chk"
 Charge =  0 Multiplicity = 1

                         Standard orientation:
 ---------------------------------------------------------------------
 Center     Atomic      Atomic             Coordinates (Angstroms)
 Number     Number       Type             X           Y           Z
 ---------------------------------------------------------------------
      1          9           0        2.375832    0.341649   -0.121397
      2          8           0        1.124163   -2.287866    0.174880
      3          8           0        0.695969    2.490935   -0.051098
      4          8           0       -2.942224   -0.245940    0.022644
      5          7           0       -0.875008   -1.207874    0.004582
      6          7           0       -1.112015    1.111674   -0.020101
      7          6           0        1.090406    0.142282    0.334810
      8          6           0        0.527478   -1.113100   -0.322479
      9          6           0        0.238552    1.381307    0.053108
     10          6           0       -1.735828   -0.146180    0.002266
     11          1           0        1.129546   -0.014071    1.416546
     12          1           0        0.692280   -1.042947   -1.407061
     13          1           0        2.004927   -2.374716   -0.205212
     14          1           0       -1.307982   -2.113080   -0.090426
     15          1           0       -1.739008    1.900491   -0.090282
 ---------------------------------------------------------------------

 SCF Done:  E(RHF) =  -589.854645313     A.U. after    2 cycles

 The electronic state is 1-A.
 Alpha  occ. eigenvalues --  -29.29378 -21.11927 -21.07367 -21.05321 -15.81235
 Alpha  occ. eigenvalues --  -15.79479 -11.56274 -11.55089 -11.54285 -11.47801
 Alpha  occ. eigenvalues --   -1.78840  -1.75436  -1.74289  -1.47377  -1.36819
 Alpha  occ. eigenvalues --   -1.24928  -0.99204  -0.93764  -0.86901  -0.79628
 Alpha  occ. eigenvalues --   -0.74586  -0.67152  -0.66467  -0.64270  -0.63229
 Alpha  occ. eigenvalues --   -0.62403  -0.55518  -0.52280  -0.50445  -0.47296
 Alpha  occ. eigenvalues --   -0.41562  -0.38876  -0.36915  -0.35009  -0.33341
 Alpha  occ. eigenvalues --   -0.31190  -0.28422  -0.27931
 Alpha virt. eigenvalues --    0.03583   0.04931   0.05344   0.05827   0.06372
 Alpha virt. eigenvalues --    0.09395   0.10281   0.10382   0.11168   0.11849
 Alpha virt. eigenvalues --    0.12819   0.13589   0.13746   0.14257   0.14721

 Mulliken charges:
               1
     1  F    0.367197
     2  O   -3.105662
     3  O   -3.307842
     4  O   -3.297164
     5  N   -2.387170
     6  N   -2.533067
     7  C   -1.824755
     8  C    1.517173
     9  C    4.299634
    10  C    5.059568
    11  H    1.673264
    12  H    1.662112
    13  H    0.724819
    14  H    0.515665
    15  H    0.636229
 Sum of Mulliken charges =  -0.00000

 Dipole moment (field-independent basis, Debye):
    X=              2.9290    Y=             -1.3789    Z=             -0.8928  Tot=              3.3582

 Test job not archived.
 1\1\GINC-SE046\SP\RHF\Aug-CC-pVDZ\C4H5F1N2O3\OHZDE\06-Apr-2025\0\\#t h
 f aug-cc-pvdz iop(5/13=1,5/36=2,99/5=2) pseudo=read geom=check guess=(
 read,tcheck) scf=(maxcycle=1)\\title\\0,1\F,0,2.375832,0.341649,-0.121
 397\O,0,1.124163,-2.287866,0.17488\O,0,0.695969,2.490935,-0.051098\O,0
 ,-2.942224,-0.24594,0.022644\N,0,-0.875008,-1.207874,0.004582\N,0,-1.1
 12015,1.111674,-0.020101\C,0,1.090406,0.142282,0.33481\C,0,0.527478,-1
 .1131,-0.322479\C,0,0.238552,1.381307,0.053108\C,0,-1.735828,-0.14618,
 0.002266\H,0,1.129546,-0.014071,1.416546\H,0,0.69228,-1.042947,-1.4070

 Normal termination of Gaussian 16 at Sun Apr  6 08:07:53 2025.
