 Gaussian 16, Revision C.01,

 ----------------------------------------------------------------------
 #t hf aug-cc-pvdz symm=none int=(grid=ultrafine) guess=(read,tcheck) s
 table=(opt,rrhf)
 ----------------------------------------------------------------------
 -----
 title
 -----
 Symbolic Z-matrix:
 Charge =  0 Multiplicity = 1

 SCF Done:  E(RHF) =  -741.921895171     A.U. after   16 cycles
 Normal termination of Gaussian 16 at Sun Apr  6 08:07:03 2025.
 Gaussian 16:  ES64L-G16RevC.01  3-Jul-2019

 ----------------------------------------------------------------------
 #t hf aug-cc-pvdz iop(5/13=1,5/36=2,99/5=2) pseudo=read geom=check gue
 ss=(read,tcheck) scf=(maxcycle=1)
 ----------------------------------------------------------------------
 -----
 title
 -----
 Structure from the checkpoint file:  "5-fluoro-3-thiophenecarbonitrile.chk"
 Charge =  0 Multiplicity = 1

                         Standard orientation:
 ---------------------------------------------------------------------
 Center     Atomic      Atomic             Coordinates (Angstroms)
 Number     Number       Type             X           Y           Z
 ---------------------------------------------------------------------
      1         16           0        1.303707    1.137937   -0.000005
      2          9           0        2.339801   -1.305984    0.000004
      3          7           0       -3.545099   -0.372952    0.000002
      4          6           0       -0.996543   -0.005333    0.000000
      5          6           0       -0.047454   -1.079338    0.000004
      6          6           0       -0.415563    1.234811   -0.000005
      7          6           0        1.215353   -0.596779    0.000002
      8          6           0       -2.404958   -0.204569    0.000001
      9          1           0       -0.299796   -2.127042    0.000008
     10          1           0       -0.907038    2.191826   -0.000008
 ---------------------------------------------------------------------

 SCF Done:  E(RHF) =  -743.592729023     A.U. after    2 cycles

 The electronic state is 1-A.
 Alpha  occ. eigenvalues --  -75.75774 -29.33243 -15.77377 -13.20965 -13.19388
 Alpha  occ. eigenvalues --  -13.07440 -11.53391 -11.50988 -11.47316 -11.45414
 Alpha  occ. eigenvalues --  -11.42647  -8.10330  -1.44497  -1.31320  -1.16373
 Alpha  occ. eigenvalues --   -1.14398  -0.93980  -0.89029  -0.78430  -0.67392
 Alpha  occ. eigenvalues --   -0.59769  -0.59576  -0.57157  -0.53538  -0.50690
 Alpha  occ. eigenvalues --   -0.46740  -0.43240  -0.42450  -0.42120  -0.31201
 Alpha  occ. eigenvalues --   -0.29570  -0.25192
 Alpha virt. eigenvalues --    0.02459   0.05521   0.06687   0.07580   0.08331
 Alpha virt. eigenvalues --    0.09175   0.10000   0.10376   0.11677   0.12396
 Alpha virt. eigenvalues --    0.12782   0.13354   0.13703   0.13971   0.14418

 Mulliken charges:
               1
     1  S    1.558602
     2  F    0.902588
     3  N   -2.304422
     4  C    5.808787
     5  C   -4.825581
     6  C   -4.243911
     7  C   -1.049019
     8  C    1.299709
     9  H    1.554984
    10  H    1.298262
 Sum of Mulliken charges =   0.00000

 Dipole moment (field-independent basis, Debye):
    X=              7.3833    Y=              0.8574    Z=             -0.0000  Tot=              7.4329

 Test job not archived.
 1\1\GINC-SE167\SP\RHF\Aug-CC-pVDZ\C5H2F1N1S1\OHZDE\06-Apr-2025\0\\#t h
 f aug-cc-pvdz iop(5/13=1,5/36=2,99/5=2) pseudo=read geom=check guess=(
 read,tcheck) scf=(maxcycle=1)\\title\\0,1\S,0,1.303707,1.137937,-0.000
 005\F,0,2.339801,-1.305984,0.000004\N,0,-3.545099,-0.372952,0.000002\C
 ,0,-0.996543,-0.005333,0.\C,0,-0.047454,-1.079338,0.000004\C,0,-0.4155
 63,1.234811,-0.000005\C,0,1.215353,-0.596779,0.000002\C,0,-2.404958,-0
 .204569,0.000001\H,0,-0.299796,-2.127042,0.000008\H,0,-0.907038,2.1918
 26,-0.000008\\Version=ES64L-G16RevC.01\State=1-A\HF=-743.592729\RMSD=1

 Normal termination of Gaussian 16 at Sun Apr  6 08:07:07 2025.
