 Gaussian 16, Revision C.01,

 ----------------------------------------------------------------------
 #t hf aug-cc-pvdz symm=none int=(grid=ultrafine) guess=(read,tcheck) s
 table=(opt,rrhf)
 ----------------------------------------------------------------------
 -----
 title
 -----
 Symbolic Z-matrix:
 Charge =  0 Multiplicity = 1

 SCF Done:  E(RHF) =  -415.012567675     A.U. after   16 cycles
 Normal termination of Gaussian 16 at Sun Apr  6 08:07:07 2025.
 Gaussian 16:  ES64L-G16RevC.01  3-Jul-2019

 ----------------------------------------------------------------------
 #t hf aug-cc-pvdz iop(5/13=1,5/36=2,99/5=2) pseudo=read geom=check gue
 ss=(read,tcheck) scf=(maxcycle=1)
 ----------------------------------------------------------------------
 -----
 title
 -----
 Structure from the checkpoint file:  "5-hydroxypenta-2-4-diynoic_acid.chk"
 Charge =  0 Multiplicity = 1

                         Standard orientation:
 ---------------------------------------------------------------------
 Center     Atomic      Atomic             Coordinates (Angstroms)
 Number     Number       Type             X           Y           Z
 ---------------------------------------------------------------------
      1          8           0        2.917786   -1.157943   -0.000019
      2          8           0        2.935541    1.069886   -0.000044
      3          8           0       -4.203167    0.107734    0.000034
      4          6           0        2.298217   -0.130187   -0.000019
      5          6           0        0.859664   -0.051301    0.000006
      6          6           0       -0.350583   -0.022132    0.000009
      7          6           0       -1.705579    0.003733    0.000014
      8          6           0       -2.911532    0.002168    0.000026
      9          1           0        2.290340    1.788517   -0.000042
     10          1           0       -4.632743   -0.759617    0.000060
 ---------------------------------------------------------------------

 SCF Done:  E(RHF) =  -416.757738311     A.U. after    2 cycles

 The electronic state is 1-A.
 Alpha  occ. eigenvalues --  -21.19411 -21.13480 -21.06480 -11.57328 -11.52859
 Alpha  occ. eigenvalues --  -11.49215 -11.45441 -11.44871  -1.83566  -1.83139
 Alpha  occ. eigenvalues --   -1.66524  -1.21834  -1.09343  -0.94533  -0.82450
 Alpha  occ. eigenvalues --   -0.75281  -0.72087  -0.60743  -0.58815  -0.56569
 Alpha  occ. eigenvalues --   -0.56556  -0.50020  -0.46798  -0.44913  -0.35227
 Alpha  occ. eigenvalues --   -0.35014  -0.31582  -0.31147
 Alpha virt. eigenvalues --    0.01623   0.04615   0.06759   0.08554   0.09526
 Alpha virt. eigenvalues --    0.09918   0.10060   0.11078   0.11357   0.12582
 Alpha virt. eigenvalues --    0.12987   0.13560   0.14474   0.14754   0.15566

 Mulliken charges:
               1
     1  O   -3.037894
     2  O   -2.882603
     3  O   -3.964579
     4  C    4.496182
     5  C   -4.067544
     6  C    6.043800
     7  C    0.624369
     8  C    0.922126
     9  H    1.065952
    10  H    0.800191
 Sum of Mulliken charges =   0.00000

 Dipole moment (field-independent basis, Debye):
    X=             -4.3570    Y=              0.7814    Z=              0.0000  Tot=              4.4265

 Test job not archived.
 1\1\GINC-SE084\SP\RHF\Aug-CC-pVDZ\C5H2O3\OHZDE\06-Apr-2025\0\\#t hf au
 g-cc-pvdz iop(5/13=1,5/36=2,99/5=2) pseudo=read geom=check guess=(read
 ,tcheck) scf=(maxcycle=1)\\title\\0,1\O,0,2.917786,-1.157943,-0.000019
 \O,0,2.935541,1.069886,-0.000044\O,0,-4.203167,0.107734,0.000034\C,0,2
 .298217,-0.130187,-0.000019\C,0,0.859664,-0.051301,0.000006\C,0,-0.350
 583,-0.022132,0.000009\C,0,-1.705579,0.003733,0.000014\C,0,-2.911532,0
 .002168,0.000026\H,0,2.29034,1.788517,-0.000042\H,0,-4.632743,-0.75961
 7,0.00006\\Version=ES64L-G16RevC.01\State=1-A\HF=-416.7577383\RMSD=4.1

 Normal termination of Gaussian 16 at Sun Apr  6 08:07:12 2025.
