 Gaussian 16, Revision C.01,

 ----------------------------------------------------------------------
 #t hf aug-cc-pvdz symm=none int=(grid=ultrafine) guess=(read,tcheck) s
 table=(opt,rrhf)
 ----------------------------------------------------------------------
 -----
 title
 -----
 Symbolic Z-matrix:
 Charge =  0 Multiplicity = 1

 SCF Done:  E(RHF) =  -627.363821413     A.U. after   14 cycles
 Normal termination of Gaussian 16 at Sun Apr  6 08:07:03 2025.
 Gaussian 16:  ES64L-G16RevC.01  3-Jul-2019

 ----------------------------------------------------------------------
 #t hf aug-cc-pvdz iop(5/13=1,5/36=2,99/5=2) pseudo=read geom=check gue
 ss=(read,tcheck) scf=(maxcycle=1)
 ----------------------------------------------------------------------
 -----
 title
 -----
 Structure from the checkpoint file:  "5-hydroxy-2-3-dihydrothiophene.chk"
 Charge =  0 Multiplicity = 1

                         Standard orientation:
 ---------------------------------------------------------------------
 Center     Atomic      Atomic             Coordinates (Angstroms)
 Number     Number       Type             X           Y           Z
 ---------------------------------------------------------------------
      1         16           0        0.063989   -1.268775   -0.106157
      2          6           0       -0.855000    0.245265    0.022198
      3          6           0       -0.124232    1.361916    0.026050
      4          6           0        1.350841    1.127767   -0.161767
      5          6           0        1.614187   -0.331939    0.244577
      6          8           0       -2.200117    0.086741    0.072454
      7          1           0       -0.557766    2.351675    0.076223
      8          1           0        1.963153    1.798750    0.443646
      9          1           0        1.811188   -0.410906    1.312550
     10          1           0        1.639154    1.290532   -1.207061
     11          1           0        2.432239   -0.791139   -0.303764
     12          1           0       -2.625644    0.949514    0.010935
 ---------------------------------------------------------------------

 SCF Done:  E(RHF) =  -628.656358570     A.U. after    2 cycles

 The electronic state is 1-A.
 Alpha  occ. eigenvalues --  -75.68292 -21.11519 -13.12518 -13.11163 -13.01369
 Alpha  occ. eigenvalues --  -11.47483 -11.43606 -11.39715 -11.36524  -8.02513
 Alpha  occ. eigenvalues --   -1.76696  -1.31324  -1.07736  -1.04181  -0.85421
 Alpha  occ. eigenvalues --   -0.77233  -0.67859  -0.64934  -0.58659  -0.53062
 Alpha  occ. eigenvalues --   -0.50860  -0.49827  -0.45978  -0.41323  -0.37480
 Alpha  occ. eigenvalues --   -0.30751  -0.21505
 Alpha virt. eigenvalues --    0.03277   0.04695   0.05633   0.06032   0.06194
 Alpha virt. eigenvalues --    0.06474   0.08395   0.10892   0.12398   0.12516
 Alpha virt. eigenvalues --    0.14101   0.14232   0.14493   0.15282   0.15532

 Mulliken charges:
               1
     1  S    1.329940
     2  C    3.192258
     3  C   -2.109851
     4  C   -3.035314
     5  C   -3.454850
     6  O   -3.818986
     7  H    1.524027
     8  H    1.212708
     9  H    1.500211
    10  H    1.294532
    11  H    1.353738
    12  H    1.011589
 Sum of Mulliken charges =   0.00000

 Dipole moment (field-independent basis, Debye):
    X=              0.0928    Y=             -0.5058    Z=             -0.1665  Tot=              0.5405

 Test job not archived.
 1\1\GINC-SE010\SP\RHF\Aug-CC-pVDZ\C4H6O1S1\OHZDE\06-Apr-2025\0\\#t hf
 aug-cc-pvdz iop(5/13=1,5/36=2,99/5=2) pseudo=read geom=check guess=(re
 ad,tcheck) scf=(maxcycle=1)\\title\\0,1\S,0,0.063989,-1.268775,-0.1061
 57\C,0,-0.855,0.245265,0.022198\C,0,-0.124231,1.361916,0.02605\C,0,1.3
 50842,1.127767,-0.161767\C,0,1.614187,-0.33194,0.244577\O,0,-2.200117,
 0.086742,0.072454\H,0,-0.557765,2.351675,0.076223\H,0,1.963154,1.79874
 9,0.443646\H,0,1.811188,-0.410907,1.31255\H,0,1.639155,1.290531,-1.207
 061\H,0,2.432239,-0.79114,-0.303764\H,0,-2.625644,0.949515,0.010935\\V

 Normal termination of Gaussian 16 at Sun Apr  6 08:07:07 2025.
