 Gaussian 16, Revision C.01,

 ----------------------------------------------------------------------
 #t hf aug-cc-pvdz symm=none int=(grid=ultrafine) guess=(read,tcheck) s
 table=(opt,rrhf)
 ----------------------------------------------------------------------
 -----
 title
 -----
 Symbolic Z-matrix:
 Charge =  0 Multiplicity = 1

 SCF Done:  E(RHF) =  -411.248828412     A.U. after   15 cycles
 Normal termination of Gaussian 16 at Sun Apr  6 08:07:07 2025.
 Gaussian 16:  ES64L-G16RevC.01  3-Jul-2019

 ----------------------------------------------------------------------
 #t hf aug-cc-pvdz iop(5/13=1,5/36=2,99/5=2) pseudo=read geom=check gue
 ss=(read,tcheck) scf=(maxcycle=1)
 ----------------------------------------------------------------------
 -----
 title
 -----
 Structure from the checkpoint file:  "5-isocyanato-1-2-oxazole.chk"
 Charge =  0 Multiplicity = 1

                         Standard orientation:
 ---------------------------------------------------------------------
 Center     Atomic      Atomic             Coordinates (Angstroms)
 Number     Number       Type             X           Y           Z
 ---------------------------------------------------------------------
      1          8           0        0.546539   -0.953762   -0.000000
      2          8           0       -3.228086   -0.349170   -0.000000
      3          7           0       -1.101796    0.691502   -0.000000
      4          7           0        1.947764   -1.059792   -0.000000
      5          6           0        0.218242    0.351741   -0.000000
      6          6           0        1.335896    1.124727   -0.000000
      7          6           0        2.382875    0.171585   -0.000000
      8          6           0       -2.155264    0.095523   -0.000000
      9          1           0        1.392435    2.196850   -0.000000
     10          1           0        3.447671    0.343180    0.000001
 ---------------------------------------------------------------------

 SCF Done:  E(RHF) =  -413.006307195     A.U. after    2 cycles

 The electronic state is 1-A.
 Alpha  occ. eigenvalues --  -21.16015 -21.13791 -15.81068 -15.78827 -11.62481
 Alpha  occ. eigenvalues --  -11.54074 -11.47188 -11.40955  -1.91427  -1.80447
 Alpha  occ. eigenvalues --   -1.44823  -1.29453  -1.16261  -0.92465  -0.84565
 Alpha  occ. eigenvalues --   -0.77701  -0.66766  -0.66350  -0.63757  -0.60249
 Alpha  occ. eigenvalues --   -0.60088  -0.56006  -0.46666  -0.45586  -0.44556
 Alpha  occ. eigenvalues --   -0.38332  -0.36266  -0.31713
 Alpha virt. eigenvalues --    0.03041   0.05063   0.06725   0.09399   0.09700
 Alpha virt. eigenvalues --    0.09749   0.10868   0.11062   0.11606   0.13028
 Alpha virt. eigenvalues --    0.13162   0.13568   0.14407   0.14686   0.16056

 Mulliken charges:
               1
     1  O   -2.908191
     2  O   -2.713025
     3  N   -3.222914
     4  N   -0.934346
     5  C    5.343095
     6  C   -2.481387
     7  C    0.246234
     8  C    3.985970
     9  H    1.235708
    10  H    1.448855
 Sum of Mulliken charges =  -0.00000

 Dipole moment (field-independent basis, Debye):
    X=             -0.9069    Y=              0.9575    Z=              0.0000  Tot=              1.3188

 Test job not archived.
 1\1\GINC-SE223\SP\RHF\Aug-CC-pVDZ\C4H2N2O2\OHZDE\06-Apr-2025\0\\#t hf
 aug-cc-pvdz iop(5/13=1,5/36=2,99/5=2) pseudo=read geom=check guess=(re
 ad,tcheck) scf=(maxcycle=1)\\title\\0,1\O,0,0.546539,-0.953762,0.\O,0,
 -3.228086,-0.34917,0.\N,0,-1.101796,0.691502,0.\N,0,1.947764,-1.059792
 ,0.\C,0,0.218242,0.351741,0.\C,0,1.335896,1.124727,0.\C,0,2.382875,0.1
 71585,0.\C,0,-2.155264,0.095523,0.\H,0,1.392435,2.19685,0.\H,0,3.44767
 1,0.34318,0.000001\\Version=ES64L-G16RevC.01\State=1-A\HF=-413.0063072
 \RMSD=8.425e-01\Dipole=-0.356784,0.3767249,0.0000003\Quadrupole=3.2898

 Normal termination of Gaussian 16 at Sun Apr  6 08:07:11 2025.
