 Gaussian 16, Revision C.01,

 ----------------------------------------------------------------------
 #t hf aug-cc-pvdz symm=none int=(grid=ultrafine) guess=(read,tcheck) s
 table=(opt,rrhf)
 ----------------------------------------------------------------------
 -----
 title
 -----
 Symbolic Z-matrix:
 Charge =  0 Multiplicity = 1

 SCF Done:  E(RHF) =  -295.844758025     A.U. after   16 cycles
 Normal termination of Gaussian 16 at Sun Apr  6 08:07:01 2025.
 Gaussian 16:  ES64L-G16RevC.01  3-Jul-2019

 ----------------------------------------------------------------------
 #t hf aug-cc-pvdz iop(5/13=1,5/36=2,99/5=2) pseudo=read geom=check gue
 ss=(read,tcheck) scf=(maxcycle=1)
 ----------------------------------------------------------------------
 -----
 title
 -----
 Structure from the checkpoint file:  "5-methyl-2H-tetrazole.chk"
 Charge =  0 Multiplicity = 1

                         Standard orientation:
 ---------------------------------------------------------------------
 Center     Atomic      Atomic             Coordinates (Angstroms)
 Number     Number       Type             X           Y           Z
 ---------------------------------------------------------------------
      1          7           0       -1.139760   -0.058016    0.000000
      2          6           0        0.000000    0.597494    0.000000
      3          6           0        0.176443    2.072182    0.000000
      4          1           0        0.723233    2.405707    0.882916
      5          1           0        0.723233    2.405707   -0.882916
      6          1           0       -0.803151    2.542233    0.000000
      7          7           0        0.988808   -0.317104    0.000000
      8          7           0        0.447343   -1.553756    0.000000
      9          7           0       -0.823573   -1.381071    0.000000
     10          1           0        1.988304   -0.202077    0.000000
 ---------------------------------------------------------------------

 SCF Done:  E(RHF) =  -297.179988216     A.U. after    2 cycles

 The electronic state is 1-A'.
 Alpha  occ. eigenvalues --  -15.83750 -15.80514 -15.78944 -15.75085 -11.48297
 Alpha  occ. eigenvalues --  -11.41433  -1.74244  -1.37170  -1.31375  -1.09832
 Alpha  occ. eigenvalues --   -0.90518  -0.85654  -0.73434  -0.68672  -0.60342
 Alpha  occ. eigenvalues --   -0.59492  -0.57773  -0.50092  -0.41102  -0.40895
 Alpha  occ. eigenvalues --   -0.40767  -0.37475
 Alpha virt. eigenvalues --    0.02267   0.04677   0.05300   0.06203   0.09404
 Alpha virt. eigenvalues --    0.11388   0.12012   0.12117   0.13430   0.13997
 Alpha virt. eigenvalues --    0.14684   0.15518   0.16807   0.16941   0.18045

 Mulliken charges:
               1
     1  N   -2.184941
     2  C    4.117021
     3  C   -3.636294
     4  H    1.160057
     5  H    1.160057
     6  H    1.249263
     7  N   -2.019235
     8  N   -0.538006
     9  N   -0.228491
    10  H    0.920570
 Sum of Mulliken charges =  -0.00000

 Dipole moment (field-independent basis, Debye):
    X=              3.8203    Y=              3.5758    Z=             -0.0000  Tot=              5.2327

 Test job not archived.
 1\1\GINC-SE167\SP\RHF\Aug-CC-pVDZ\C2H4N4\OHZDE\06-Apr-2025\0\\#t hf au
 g-cc-pvdz iop(5/13=1,5/36=2,99/5=2) pseudo=read geom=check guess=(read
 ,tcheck) scf=(maxcycle=1)\\title\\0,1\N,0,-1.13976,-0.058016,0.\C,0,0.
 ,0.597494,0.\C,0,0.176443,2.072182,0.\H,0,0.723233,2.405707,0.882916\H
 ,0,0.723233,2.405707,-0.882916\H,0,-0.803151,2.542233,0.\N,0,0.988808,
 -0.317104,0.\N,0,0.447343,-1.553756,0.\N,0,-0.823573,-1.381071,0.\H,0,
 1.988304,-0.202077,0.\\Version=ES64L-G16RevC.01\State=1-A'\HF=-297.179
 9882\RMSD=1.883e-01\Dipole=1.503024,1.4068357,0.\Quadrupole=0.8348192,

 Normal termination of Gaussian 16 at Sun Apr  6 08:07:04 2025.
