 Gaussian 16, Revision C.01,

 ----------------------------------------------------------------------
 #t hf aug-cc-pvdz symm=none int=(grid=ultrafine) guess=(read,tcheck) s
 table=(opt,rrhf)
 ----------------------------------------------------------------------
 -----
 title
 -----
 Symbolic Z-matrix:
 Charge =  0 Multiplicity = 1

 SCF Done:  E(RHF) =  -985.820266954     A.U. after   16 cycles
 Normal termination of Gaussian 16 at Sun Apr  6 08:07:01 2025.
 Gaussian 16:  ES64L-G16RevC.01  3-Jul-2019

 ----------------------------------------------------------------------
 #t hf aug-cc-pvdz iop(5/13=1,5/36=2,99/5=2) pseudo=read geom=check gue
 ss=(read,tcheck) scf=(maxcycle=1)
 ----------------------------------------------------------------------
 -----
 title
 -----
 Structure from the checkpoint file:  "5-methyl-1-2-3-oxadithiole.chk"
 Charge =  0 Multiplicity = 1

                         Standard orientation:
 ---------------------------------------------------------------------
 Center     Atomic      Atomic             Coordinates (Angstroms)
 Number     Number       Type             X           Y           Z
 ---------------------------------------------------------------------
      1         16           0       -1.381222    0.952357    0.131158
      2         16           0       -1.060922   -1.105763   -0.180184
      3          8           0        0.561045   -1.063545    0.339172
      4          6           0        1.148044    0.146398   -0.006454
      5          6           0        2.633844    0.082759   -0.038161
      6          6           0        0.357752    1.202401   -0.188373
      7          1           0        2.975948   -0.613159   -0.805738
      8          1           0        3.010492   -0.275655    0.922250
      9          1           0        3.055424    1.065713   -0.234875
     10          1           0        0.706232    2.196611   -0.412681
 ---------------------------------------------------------------------

 SCF Done:  E(RHF) =  -987.134886561     A.U. after    2 cycles

 The electronic state is 1-A.
 Alpha  occ. eigenvalues --  -75.75595 -75.72041 -21.10137 -13.20025 -13.14085
 Alpha  occ. eigenvalues --  -13.12785 -13.09758 -13.07675 -13.03783 -11.48019
 Alpha  occ. eigenvalues --  -11.42076 -11.39732  -8.09133  -8.06067  -1.80876
 Alpha  occ. eigenvalues --   -1.24404  -1.17833  -1.03376  -0.92637  -0.78121
 Alpha  occ. eigenvalues --   -0.65835  -0.61471  -0.59913  -0.52135  -0.50608
 Alpha  occ. eigenvalues --   -0.45034  -0.42750  -0.39770  -0.32416  -0.30517
 Alpha  occ. eigenvalues --   -0.17242
 Alpha virt. eigenvalues --    0.02728   0.04493   0.05533   0.05897   0.06446
 Alpha virt. eigenvalues --    0.06811   0.09895   0.11201   0.12017   0.12600
 Alpha virt. eigenvalues --    0.13588   0.13975   0.14609   0.15144   0.16191

 Mulliken charges:
               1
     1  S    0.156298
     2  S    0.687914
     3  O   -2.953772
     4  C    3.881975
     5  C   -4.199979
     6  C   -2.364160
     7  H    1.201932
     8  H    1.133058
     9  H    1.200529
    10  H    1.256204
 Sum of Mulliken charges =   0.00000

 Dipole moment (field-independent basis, Debye):
    X=              0.0115    Y=              0.1658    Z=             -0.0050  Tot=              0.1663

 Test job not archived.
 1\1\GINC-SE086\SP\RHF\Aug-CC-pVDZ\C3H4O1S2\OHZDE\06-Apr-2025\0\\#t hf
 aug-cc-pvdz iop(5/13=1,5/36=2,99/5=2) pseudo=read geom=check guess=(re
 ad,tcheck) scf=(maxcycle=1)\\title\\0,1\S,0,-1.381222,0.952356,0.13115
 8\S,0,-1.060922,-1.105763,-0.180184\O,0,0.561045,-1.063545,0.339172\C,
 0,1.148044,0.146398,-0.006454\C,0,2.633844,0.082759,-0.038161\C,0,0.35
 7752,1.202401,-0.188373\H,0,2.975948,-0.613159,-0.805738\H,0,3.010492,
 -0.275655,0.92225\H,0,3.055424,1.065713,-0.234875\H,0,0.706231,2.19661
 1,-0.412681\\Version=ES64L-G16RevC.01\State=1-A\HF=-987.1348866\RMSD=6

 Normal termination of Gaussian 16 at Sun Apr  6 08:07:05 2025.
