 Gaussian 16, Revision C.01,

 ----------------------------------------------------------------------
 #t hf aug-cc-pvdz symm=none int=(grid=ultrafine) guess=(read,tcheck) s
 table=(opt,rrhf)
 ----------------------------------------------------------------------
 -----
 title
 -----
 Symbolic Z-matrix:
 Charge =  0 Multiplicity = 1

 SCF Done:  E(RHF) =  -283.670032628     A.U. after   15 cycles
 Normal termination of Gaussian 16 at Sun Apr  6 08:07:01 2025.
 Gaussian 16:  ES64L-G16RevC.01  3-Jul-2019

 ----------------------------------------------------------------------
 #t hf aug-cc-pvdz iop(5/13=1,5/36=2,99/5=2) pseudo=read geom=check gue
 ss=(read,tcheck) scf=(maxcycle=1)
 ----------------------------------------------------------------------
 -----
 title
 -----
 Structure from the checkpoint file:  "5-methyl-1-2-oxazole.chk"
 Charge =  0 Multiplicity = 1

                         Standard orientation:
 ---------------------------------------------------------------------
 Center     Atomic      Atomic             Coordinates (Angstroms)
 Number     Number       Type             X           Y           Z
 ---------------------------------------------------------------------
      1          6           0       -0.346200    2.073702    0.000000
      2          1           0       -0.936846    2.330581    0.880543
      3          1           0        0.558932    2.676627    0.000000
      4          1           0       -0.936846    2.330581   -0.880543
      5          6           0        0.000000    0.630252    0.000000
      6          8           0       -1.025177   -0.242897    0.000000
      7          7           0       -0.522613   -1.551143    0.000000
      8          6           0        0.774494   -1.414513    0.000000
      9          1           0        1.390657   -2.299799    0.000000
     10          6           0        1.173944   -0.053727    0.000000
     11          1           0        2.170386    0.348899    0.000000
 ---------------------------------------------------------------------

 SCF Done:  E(RHF) =  -284.962290190     A.U. after    2 cycles

 The electronic state is 1-A'.
 Alpha  occ. eigenvalues --  -21.11566 -15.77068 -11.48222 -11.45101 -11.41574
 Alpha  occ. eigenvalues --  -11.38591  -1.88823  -1.27594  -1.19521  -1.05109
 Alpha  occ. eigenvalues --   -0.82290  -0.79140  -0.70472  -0.62833  -0.60086
 Alpha  occ. eigenvalues --   -0.55911  -0.53530  -0.51372  -0.43325  -0.41150
 Alpha  occ. eigenvalues --   -0.35307  -0.33639
 Alpha virt. eigenvalues --    0.03054   0.04891   0.05134   0.06306   0.06435
 Alpha virt. eigenvalues --    0.09278   0.11120   0.11568   0.12080   0.12395
 Alpha virt. eigenvalues --    0.13362   0.14297   0.14867   0.15517   0.16145

 Mulliken charges:
               1
     1  C   -4.527845
     2  H    1.143969
     3  H    1.137215
     4  H    1.143969
     5  C    5.798304
     6  O   -3.158481
     7  N   -1.050379
     8  C    0.102446
     9  H    1.417970
    10  C   -3.139410
    11  H    1.132242
 Sum of Mulliken charges =  -0.00000

 Dipole moment (field-independent basis, Debye):
    X=              1.2607    Y=              2.0594    Z=             -0.0000  Tot=              2.4146

 Test job not archived.
 1\1\GINC-SE086\SP\RHF\Aug-CC-pVDZ\C4H5N1O1\OHZDE\06-Apr-2025\0\\#t hf
 aug-cc-pvdz iop(5/13=1,5/36=2,99/5=2) pseudo=read geom=check guess=(re
 ad,tcheck) scf=(maxcycle=1)\\title\\0,1\C,0,-0.3462,2.073702,0.\H,0,-0
 .936846,2.330581,0.880543\H,0,0.558932,2.676627,0.\H,0,-0.936846,2.330
 581,-0.880543\C,0,0.,0.630252,0.\O,0,-1.025177,-0.242897,0.\N,0,-0.522
 613,-1.551143,0.\C,0,0.774494,-1.414513,0.\H,0,1.390658,-2.299799,0.\C
 ,0,1.173944,-0.053727,0.\H,0,2.170386,0.348899,0.\\Version=ES64L-G16Re
 vC.01\State=1-A'\HF=-284.9622902\RMSD=1.118e+00\Dipole=0.4959809,0.810

 Normal termination of Gaussian 16 at Sun Apr  6 08:07:05 2025.
