 Gaussian 16, Revision C.01,

 ----------------------------------------------------------------------
 #t hf aug-cc-pvdz symm=none int=(grid=ultrafine) guess=(read,tcheck) s
 table=(opt,rrhf)
 ----------------------------------------------------------------------
 -----
 title
 -----
 Symbolic Z-matrix:
 Charge =  0 Multiplicity = 1

 SCF Done:  E(RHF) =  -492.299101319     A.U. after   16 cycles

 1\1\GINC-SE169\Stability\RHF\Aug-CC-pVDZ\C10H8N2\OHZDE\06-Apr-2025\0\\
 #t hf aug-cc-pvdz symm=none int=(grid=ultrafine) guess=(read,tcheck) s
 table=(opt,rrhf)\\title\\0,1\C,0,0.,0.,-0.75843\C,0,-0.75412,0.903797,
 -1.510292\C,0,0.75412,-0.903797,-1.510292\N,0,-0.757576,0.915186,-2.84
 0582\C,0,0.,0.,-3.441454\N,0,0.757576,-0.915186,-2.840582\C,0,0.,0.,0.
 718089\C,0,0.,1.201904,1.434398\C,0,-0.000714,1.201397,2.82281\C,0,0.,
 0.,3.522386\C,0,0.000714,-1.201397,2.82281\C,0,0.,-1.201904,1.434398\H
 ,0,0.,0.,-4.524887\H,0,-1.389638,1.632242,-1.018874\H,0,1.389638,-1.63

 Normal termination of Gaussian 16 at Sun Apr  6 08:09:19 2025.
 Gaussian 16:  ES64L-G16RevC.01  3-Jul-2019

 ----------------------------------------------------------------------
 #t hf aug-cc-pvdz iop(5/13=1,5/36=2,99/5=2) pseudo=read geom=check gue
 ss=(read,tcheck) scf=(maxcycle=1)
 ----------------------------------------------------------------------
 -----
 title
 -----
 Structure from the checkpoint file:  "5-phenylpyrimidine.chk"
 Charge =  0 Multiplicity = 1

                         Standard orientation:
 ---------------------------------------------------------------------
 Center     Atomic      Atomic             Coordinates (Angstroms)
 Number     Number       Type             X           Y           Z
 ---------------------------------------------------------------------
      1          6           0       -0.000000    0.000000   -0.758430
      2          6           0       -0.754120    0.903797   -1.510292
      3          6           0        0.754120   -0.903797   -1.510292
      4          7           0       -0.757576    0.915186   -2.840582
      5          6           0       -0.000000    0.000000   -3.441454
      6          7           0        0.757576   -0.915186   -2.840582
      7          6           0        0.000000   -0.000000    0.718089
      8          6           0        0.000000    1.201904    1.434398
      9          6           0       -0.000714    1.201397    2.822810
     10          6           0        0.000000   -0.000000    3.522386
     11          6           0        0.000714   -1.201397    2.822810
     12          6           0       -0.000000   -1.201904    1.434398
     13          1           0       -0.000000    0.000000   -4.524887
     14          1           0       -1.389638    1.632242   -1.018874
     15          1           0        1.389638   -1.632242   -1.018874
     16          1           0       -0.006602   -2.140956    3.358639
     17          1           0        0.000000   -0.000000    4.603795
     18          1           0        0.006602    2.140956    3.358639
     19          1           0        0.024377    2.142989    0.901579
     20          1           0       -0.024377   -2.142989    0.901579
 ---------------------------------------------------------------------

 SCF Done:  E(RHF) =  -494.604638814     A.U. after    2 cycles

 The electronic state is 1-A.
 Alpha  occ. eigenvalues --  -15.74741 -15.74722 -11.53201 -11.48782 -11.47196
 Alpha  occ. eigenvalues --  -11.44741 -11.44545 -11.43585 -11.42227 -11.41640
 Alpha  occ. eigenvalues --  -11.41306 -11.37535  -1.52143  -1.36104  -1.30553
 Alpha  occ. eigenvalues --   -1.19578  -1.10468  -1.08270  -0.93522  -0.93225
 Alpha  occ. eigenvalues --   -0.87034  -0.84800  -0.75570  -0.71977  -0.66904
 Alpha  occ. eigenvalues --   -0.65055  -0.59638  -0.59573  -0.59241  -0.57045
 Alpha  occ. eigenvalues --   -0.56866  -0.56045  -0.51544  -0.48180  -0.45856
 Alpha  occ. eigenvalues --   -0.40860  -0.40400  -0.39496  -0.34710  -0.34169
 Alpha  occ. eigenvalues --   -0.30912
 Alpha virt. eigenvalues --    0.02964   0.04813   0.04985   0.05323   0.05745
 Alpha virt. eigenvalues --    0.06646   0.06719   0.07346   0.08270   0.09312
 Alpha virt. eigenvalues --    0.09831   0.10619   0.10742   0.11274   0.11963

 Mulliken charges:
               1
     1  C    3.468016
     2  C   -1.702677
     3  C   -1.702677
     4  N   -3.729905
     5  C    1.070914
     6  N   -3.729905
     7  C    6.426787
     8  C   -2.618757
     9  C   -2.457377
    10  C   -2.980599
    11  C   -2.457377
    12  C   -2.618757
    13  H    1.646804
    14  H    1.527719
    15  H    1.527719
    16  H    1.494748
    17  H    1.550982
    18  H    1.494748
    19  H    1.894796
    20  H    1.894796
 Sum of Mulliken charges =  -0.00000

 Dipole moment (field-independent basis, Debye):
    X=              0.0000    Y=             -0.0000    Z=              2.4133  Tot=              2.4133

 Test job not archived.
 1\1\GINC-SE169\SP\RHF\Aug-CC-pVDZ\C10H8N2\OHZDE\06-Apr-2025\0\\#t hf a
 ug-cc-pvdz iop(5/13=1,5/36=2,99/5=2) pseudo=read geom=check guess=(rea
 d,tcheck) scf=(maxcycle=1)\\title\\0,1\C,0,0.,0.,-0.75843\C,0,-0.75412
 ,0.903797,-1.510292\C,0,0.75412,-0.903797,-1.510292\N,0,-0.757576,0.91
 5186,-2.840582\C,0,0.,0.,-3.441454\N,0,0.757576,-0.915186,-2.840582\C,
 0,0.,0.,0.718089\C,0,0.,1.201904,1.434398\C,0,-0.000714,1.201397,2.822
 81\C,0,0.,0.,3.522386\C,0,0.000714,-1.201397,2.82281\C,0,0.,-1.201904,
 1.434398\H,0,0.,0.,-4.524887\H,0,-1.389638,1.632242,-1.018874\H,0,1.38

 Normal termination of Gaussian 16 at Sun Apr  6 08:10:12 2025.
