 Gaussian 16, Revision C.01,

 ----------------------------------------------------------------------
 #t hf aug-cc-pvdz symm=none int=(grid=ultrafine) guess=(read,tcheck) s
 table=(opt,rrhf)
 ----------------------------------------------------------------------
 -----
 title
 -----
 Symbolic Z-matrix:
 Charge =  0 Multiplicity = 1

 SCF Done:  E(RHF) =  -604.221839823     A.U. after   16 cycles
 Normal termination of Gaussian 16 at Sun Apr  6 08:06:59 2025.
 Gaussian 16:  ES64L-G16RevC.01  3-Jul-2019

 ----------------------------------------------------------------------
 #t hf aug-cc-pvdz iop(5/13=1,5/36=2,99/5=2) pseudo=read geom=check gue
 ss=(read,tcheck) scf=(maxcycle=1)
 ----------------------------------------------------------------------
 -----
 title
 -----
 Structure from the checkpoint file:  "5H-1-2-5-oxathiazole.chk"
 Charge =  0 Multiplicity = 1

                         Standard orientation:
 ---------------------------------------------------------------------
 Center     Atomic      Atomic             Coordinates (Angstroms)
 Number     Number       Type             X           Y           Z
 ---------------------------------------------------------------------
      1         16           0       -1.220858    0.001998    0.091689
      2          8           0       -0.018734   -1.194169   -0.271412
      3          7           0        1.276449   -0.701292    0.081978
      4          6           0        0.008231    1.252585   -0.070218
      5          6           0        1.225589    0.721438   -0.045189
      6          1           0        1.431922   -0.961286    1.061342
      7          1           0       -0.249835    2.295344   -0.144943
      8          1           0        2.163454    1.252241   -0.093527
 ---------------------------------------------------------------------

 SCF Done:  E(RHF) =  -605.360245708     A.U. after    2 cycles

 The electronic state is 1-A.
 Alpha  occ. eigenvalues --  -75.73832 -21.09306 -15.79448 -13.17309 -13.15449
 Alpha  occ. eigenvalues --  -13.05192 -11.46050 -11.40816  -8.07630  -1.82039
 Alpha  occ. eigenvalues --   -1.28719  -1.20052  -0.95081  -0.82468  -0.72770
 Alpha  occ. eigenvalues --   -0.65308  -0.54489  -0.50170  -0.44878  -0.43979
 Alpha  occ. eigenvalues --   -0.37406  -0.34270  -0.20190
 Alpha virt. eigenvalues --    0.03031   0.04685   0.05744   0.07231   0.09247
 Alpha virt. eigenvalues --    0.10719   0.11819   0.11970   0.13821   0.14531
 Alpha virt. eigenvalues --    0.15036   0.15546   0.16602   0.18022   0.19287

 Mulliken charges:
               1
     1  S    1.612476
     2  O   -2.222583
     3  N   -0.888399
     4  C   -1.635897
     5  C    0.020589
     6  H    0.619040
     7  H    1.197023
     8  H    1.297752
 Sum of Mulliken charges =  -0.00000

 Dipole moment (field-independent basis, Debye):
    X=             -0.5885    Y=              0.7816    Z=              0.8043  Tot=              1.2665

 Test job not archived.
 1\1\GINC-SE168\SP\RHF\Aug-CC-pVDZ\C2H3N1O1S1\OHZDE\06-Apr-2025\0\\#t h
 f aug-cc-pvdz iop(5/13=1,5/36=2,99/5=2) pseudo=read geom=check guess=(
 read,tcheck) scf=(maxcycle=1)\\title\\0,1\S,0,-1.220858,0.001998,0.091
 689\O,0,-0.018734,-1.194169,-0.271412\N,0,1.276449,-0.701292,0.081978\
 C,0,0.008231,1.252585,-0.070218\C,0,1.225589,0.721438,-0.045189\H,0,1.
 431922,-0.961286,1.061342\H,0,-0.249835,2.295344,-0.144943\H,0,2.16345
 4,1.252241,-0.093527\\Version=ES64L-G16RevC.01\State=1-A\HF=-605.36024
 57\RMSD=5.823e-01\Dipole=-0.2315319,0.3074986,0.3164267\Quadrupole=1.9

 Normal termination of Gaussian 16 at Sun Apr  6 08:07:02 2025.
