 Gaussian 16, Revision C.01,

 ----------------------------------------------------------------------
 #t hf aug-cc-pvdz symm=none int=(grid=ultrafine) guess=(read,tcheck) s
 table=(opt,rrhf)
 ----------------------------------------------------------------------
 -----
 title
 -----
 Symbolic Z-matrix:
 Charge =  0 Multiplicity = 1

 SCF Done:  E(RHF) =  -851.463840756     A.U. after   16 cycles
 Normal termination of Gaussian 16 at Sun Apr  6 08:08:07 2025.
 Gaussian 16:  ES64L-G16RevC.01  3-Jul-2019

 ----------------------------------------------------------------------
 #t hf aug-cc-pvdz iop(5/13=1,5/36=2,99/5=2) pseudo=read geom=check gue
 ss=(read,tcheck) scf=(maxcycle=1)
 ----------------------------------------------------------------------
 -----
 title
 -----
 Structure from the checkpoint file:  "6-chloro-N-hydroxy-3-pyridazinamine.chk"
 Charge =  0 Multiplicity = 1

                         Standard orientation:
 ---------------------------------------------------------------------
 Center     Atomic      Atomic             Coordinates (Angstroms)
 Number     Number       Type             X           Y           Z
 ---------------------------------------------------------------------
      1         17           0       -3.081143    0.085415    0.053858
      2          8           0        3.477026    0.490747    0.348644
      3          7           0        0.521246   -1.313680   -0.003582
      4          7           0       -0.801147   -1.191495    0.027950
      5          7           0        2.647107   -0.500843   -0.241609
      6          6           0        1.286485   -0.231016   -0.098672
      7          6           0       -1.337020    0.006725   -0.003734
      8          6           0        0.766362    1.071813   -0.120508
      9          6           0       -0.597170    1.192029   -0.066717
     10          1           0        4.072324    0.747301   -0.364548
     11          1           0        2.880061   -1.402555    0.159613
     12          1           0        1.418677    1.929694   -0.168056
     13          1           0       -1.090219    2.152346   -0.073288
 ---------------------------------------------------------------------

 SCF Done:  E(RHF) =  -853.453019946     A.U. after    2 cycles

 The electronic state is 1-A.
 Alpha  occ. eigenvalues --  -99.90319 -21.12484 -15.80369 -15.79100 -15.77646
 Alpha  occ. eigenvalues --  -11.52717 -11.49089 -11.47746 -11.41751 -10.47714
 Alpha  occ. eigenvalues --   -9.67747  -9.66796  -9.66625  -1.80709  -1.58263
 Alpha  occ. eigenvalues --   -1.36944  -1.30489  -1.21744  -1.12480  -0.96694
 Alpha  occ. eigenvalues --   -0.89815  -0.75269  -0.72044  -0.68676  -0.65913
 Alpha  occ. eigenvalues --   -0.61700  -0.60358  -0.58562  -0.57660  -0.53640
 Alpha  occ. eigenvalues --   -0.51100  -0.46437  -0.43220  -0.40821  -0.38115
 Alpha  occ. eigenvalues --   -0.36015  -0.31470
 Alpha virt. eigenvalues --    0.03086   0.04577   0.05472   0.06381   0.07920
 Alpha virt. eigenvalues --    0.08202   0.09581   0.10168   0.11137   0.12062
 Alpha virt. eigenvalues --    0.12668   0.12935   0.13493   0.14165   0.14240

 Mulliken charges:
               1
     1  Cl  -0.463553
     2  O   -2.257276
     3  N   -1.309946
     4  N   -2.414537
     5  N   -1.522166
     6  C    2.402099
     7  C   -0.934240
     8  C    0.253970
     9  C    1.103158
    10  H    0.786795
    11  H    0.812377
    12  H    1.830078
    13  H    1.713238
 Sum of Mulliken charges =   0.00000

 Dipole moment (field-independent basis, Debye):
    X=              3.6726    Y=              2.8954    Z=             -0.1515  Tot=              4.6791

 Test job not archived.
 1\1\GINC-SE028\SP\RHF\Aug-CC-pVDZ\C4H4Cl1N3O1\OHZDE\06-Apr-2025\0\\#t
 hf aug-cc-pvdz iop(5/13=1,5/36=2,99/5=2) pseudo=read geom=check guess=
 (read,tcheck) scf=(maxcycle=1)\\title\\0,1\Cl,0,-3.081143,0.085415,0.0
 53858\O,0,3.477026,0.490747,0.348644\N,0,0.521246,-1.31368,-0.003582\N
 ,0,-0.801147,-1.191495,0.02795\N,0,2.647107,-0.500843,-0.241609\C,0,1.
 286485,-0.231016,-0.098672\C,0,-1.33702,0.006725,-0.003734\C,0,0.76636
 2,1.071813,-0.120508\C,0,-0.59717,1.192029,-0.066717\H,0,4.072324,0.74
 7301,-0.364548\H,0,2.880061,-1.402555,0.159613\H,0,1.418677,1.929694,-

 Normal termination of Gaussian 16 at Sun Apr  6 08:08:13 2025.
