 Gaussian 16, Revision C.01,

 ----------------------------------------------------------------------
 #t hf aug-cc-pvdz symm=none int=(grid=ultrafine) guess=(read,tcheck) s
 table=(opt,rrhf)
 ----------------------------------------------------------------------
 -----
 title
 -----
 Symbolic Z-matrix:
 Charge =  0 Multiplicity = 1

 SCF Done:  E(RHF) =  -813.337777787     A.U. after   17 cycles
 Normal termination of Gaussian 16 at Sun Apr  6 08:07:43 2025.
 Gaussian 16:  ES64L-G16RevC.01  3-Jul-2019

 ----------------------------------------------------------------------
 #t hf aug-cc-pvdz iop(5/13=1,5/36=2,99/5=2) pseudo=read geom=check gue
 ss=(read,tcheck) scf=(maxcycle=1)
 ----------------------------------------------------------------------
 -----
 title
 -----
 Structure from the checkpoint file:  "6-chloro-3-pyridazinecarbonitrile.chk"
 Charge =  0 Multiplicity = 1

                         Standard orientation:
 ---------------------------------------------------------------------
 Center     Atomic      Atomic             Coordinates (Angstroms)
 Number     Number       Type             X           Y           Z
 ---------------------------------------------------------------------
      1         17           0        2.930400   -0.091791    0.000009
      2          7           0       -0.768407   -1.166317   -0.000008
      3          7           0        0.553379   -1.155933   -0.000004
      4          7           0       -4.016345   -0.114795   -0.000012
      5          6           0       -0.799758    1.241089    0.000003
      6          6           0        0.573371    1.246721    0.000007
      7          6           0       -1.433356   -0.007434   -0.000005
      8          6           0        1.197294   -0.000622    0.000004
      9          6           0       -2.865884   -0.095394   -0.000009
     10          1           0       -1.376813    2.154336    0.000005
     11          1           0        1.149618    2.159260    0.000013
 ---------------------------------------------------------------------

 SCF Done:  E(RHF) =  -815.168309755     A.U. after    2 cycles

 The electronic state is 1-A.
 Alpha  occ. eigenvalues --  -99.93028 -15.82825 -15.81529 -15.78821 -11.56249
 Alpha  occ. eigenvalues --  -11.52778 -11.50976 -11.46322 -11.44910 -10.50453
 Alpha  occ. eigenvalues --   -9.70482  -9.69500  -9.69338  -1.61811  -1.39305
 Alpha  occ. eigenvalues --   -1.34191  -1.26323  -1.22162  -1.00379  -0.97338
 Alpha  occ. eigenvalues --   -0.81956  -0.74197  -0.71885  -0.65671  -0.64367
 Alpha  occ. eigenvalues --   -0.61854  -0.57750  -0.55317  -0.53981  -0.49728
 Alpha  occ. eigenvalues --   -0.48807  -0.46978  -0.43468  -0.39035  -0.38779
 Alpha virt. eigenvalues --    0.02109   0.04755   0.05247   0.05985   0.06159
 Alpha virt. eigenvalues --    0.07411   0.09079   0.09544   0.10774   0.10975
 Alpha virt. eigenvalues --    0.11823   0.12071   0.12803   0.12923   0.13488

 Mulliken charges:
               1
     1  Cl  -0.468332
     2  N   -2.148949
     3  N   -1.836305
     4  N   -2.344605
     5  C   -0.505845
     6  C    1.324201
     7  C    2.863388
     8  C   -1.314765
     9  C    0.923443
    10  H    1.811565
    11  H    1.696204
 Sum of Mulliken charges =   0.00000

 Dipole moment (field-independent basis, Debye):
    X=              1.7779    Y=              3.6675    Z=              0.0000  Tot=              4.0758

 Test job not archived.
 1\1\GINC-SE023\SP\RHF\Aug-CC-pVDZ\C5H2Cl1N3\OHZDE\06-Apr-2025\0\\#t hf
  aug-cc-pvdz iop(5/13=1,5/36=2,99/5=2) pseudo=read geom=check guess=(r
 ead,tcheck) scf=(maxcycle=1)\\title\\0,1\Cl,0,2.9304,-0.091791,0.00000
 9\N,0,-0.768407,-1.166317,-0.000008\N,0,0.553379,-1.155933,-0.000004\N
 ,0,-4.016345,-0.114795,-0.000012\C,0,-0.799758,1.241089,0.000003\C,0,0
 .573371,1.246721,0.000007\C,0,-1.433356,-0.007434,-0.000005\C,0,1.1972
 94,-0.000622,0.000004\C,0,-2.865884,-0.095394,-0.000009\H,0,-1.376813,
 2.154336,0.000005\H,0,1.149618,2.15926,0.000013\\Version=ES64L-G16RevC

 Normal termination of Gaussian 16 at Sun Apr  6 08:07:50 2025.
