 Gaussian 16, Revision C.01,

 ----------------------------------------------------------------------
 #t hf aug-cc-pvdz symm=none int=(grid=ultrafine) guess=(read,tcheck) s
 table=(opt,rrhf)
 ----------------------------------------------------------------------
 -----
 title
 -----
 Symbolic Z-matrix:
 Charge =  0 Multiplicity = 1

 SCF Done:  E(RHF) =  -409.517900529     A.U. after   15 cycles
 Normal termination of Gaussian 16 at Sun Apr  6 08:08:04 2025.
 Gaussian 16:  ES64L-G16RevC.01  3-Jul-2019

 ----------------------------------------------------------------------
 #t hf aug-cc-pvdz iop(5/13=1,5/36=2,99/5=2) pseudo=read geom=check gue
 ss=(read,tcheck) scf=(maxcycle=1)
 ----------------------------------------------------------------------
 -----
 title
 -----
 Structure from the checkpoint file:  "7H-purine.chk"
 Charge =  0 Multiplicity = 1

                         Standard orientation:
 ---------------------------------------------------------------------
 Center     Atomic      Atomic             Coordinates (Angstroms)
 Number     Number       Type             X           Y           Z
 ---------------------------------------------------------------------
      1          6           0       -1.358848    0.996788    0.000000
      2          6           0       -1.701599   -1.270252    0.000000
      3          6           0        2.192531    0.578405    0.000000
      4          6           0        0.000000    0.735121    0.000000
      5          6           0        0.431371   -0.608939    0.000000
      6          7           0       -2.209140   -0.025435    0.000000
      7          7           0       -0.422841   -1.629439    0.000000
      8          7           0        1.809446   -0.668802    0.000000
      9          7           0        1.159397    1.480474    0.000000
     10          1           0       -1.773845    1.998833    0.000000
     11          1           0       -2.428333   -2.073138    0.000000
     12          1           0        3.219520    0.908175    0.000000
     13          1           0        1.243895    2.481808    0.000000
 ---------------------------------------------------------------------

 SCF Done:  E(RHF) =  -411.364074520     A.U. after    2 cycles

 The electronic state is 1-A'.
 Alpha  occ. eigenvalues --  -15.82219 -15.74163 -15.74138 -15.73927 -11.49727
 Alpha  occ. eigenvalues --  -11.47236 -11.46904 -11.43240 -11.41423  -1.61438
 Alpha  occ. eigenvalues --   -1.46658  -1.33924  -1.26425  -1.13972  -0.95376
 Alpha  occ. eigenvalues --   -0.90970  -0.86711  -0.76212  -0.70043  -0.66412
 Alpha  occ. eigenvalues --   -0.64975  -0.60895  -0.58785  -0.55246  -0.53763
 Alpha  occ. eigenvalues --   -0.45372  -0.43984  -0.40444  -0.34470  -0.34270
 Alpha  occ. eigenvalues --   -0.32896
 Alpha virt. eigenvalues --    0.02412   0.04077   0.05024   0.06126   0.08398
 Alpha virt. eigenvalues --    0.08934   0.10188   0.10517   0.11417   0.11542
 Alpha virt. eigenvalues --    0.11972   0.12586   0.12857   0.13626   0.14253

 Mulliken charges:
               1
     1  C   -0.492275
     2  C    0.763337
     3  C    0.951948
     4  C    3.331805
     5  C    3.812855
     6  N   -3.238749
     7  N   -3.579297
     8  N   -3.383029
     9  N   -3.758390
    10  H    1.496215
    11  H    1.639185
    12  H    1.638968
    13  H    0.817427
 Sum of Mulliken charges =  -0.00000

 Dipole moment (field-independent basis, Debye):
    X=              1.6407    Y=              5.0957    Z=              0.0000  Tot=              5.3533

 Test job not archived.
 1\1\GINC-SE047\SP\RHF\Aug-CC-pVDZ\C5H4N4\OHZDE\06-Apr-2025\0\\#t hf au
 g-cc-pvdz iop(5/13=1,5/36=2,99/5=2) pseudo=read geom=check guess=(read
 ,tcheck) scf=(maxcycle=1)\\title\\0,1\C,0,-1.358848,0.996788,0.\C,0,-1
 .701599,-1.270252,0.\C,0,2.192531,0.578405,0.\C,0,0.,0.735121,0.\C,0,0
 .431371,-0.608939,0.\N,0,-2.20914,-0.025435,0.\N,0,-0.422841,-1.629439
 ,0.\N,0,1.809446,-0.668802,0.\N,0,1.159397,1.480474,0.\H,0,-1.773845,1
 .998833,0.\H,0,-2.428333,-2.073138,0.\H,0,3.21952,0.908175,0.\H,0,1.24
 3895,2.481808,0.\\Version=ES64L-G16RevC.01\State=1-A'\HF=-411.3640745\

 Normal termination of Gaussian 16 at Sun Apr  6 08:08:10 2025.
