 Gaussian 16, Revision C.01,

 ----------------------------------------------------------------------
 #t hf aug-cc-pvdz symm=none int=(grid=ultrafine) guess=(read,tcheck) s
 table=(opt,rrhf)
 ----------------------------------------------------------------------
 -----
 title
 -----
 Symbolic Z-matrix:
 Charge =  0 Multiplicity = 1

 SCF Done:  E(RHF) =  -409.525258736     A.U. after   15 cycles
 Normal termination of Gaussian 16 at Sun Apr  6 08:08:04 2025.
 Gaussian 16:  ES64L-G16RevC.01  3-Jul-2019

 ----------------------------------------------------------------------
 #t hf aug-cc-pvdz iop(5/13=1,5/36=2,99/5=2) pseudo=read geom=check gue
 ss=(read,tcheck) scf=(maxcycle=1)
 ----------------------------------------------------------------------
 -----
 title
 -----
 Structure from the checkpoint file:  "9H-purine.chk"
 Charge =  0 Multiplicity = 1

                         Standard orientation:
 ---------------------------------------------------------------------
 Center     Atomic      Atomic             Coordinates (Angstroms)
 Number     Number       Type             X           Y           Z
 ---------------------------------------------------------------------
      1          6           0       -2.118438    0.068567   -0.000000
      2          7           0       -1.263191    1.092745   -0.000000
      3          6           0       -0.000000    0.698379   -0.000000
      4          6           0        0.447803   -0.635313    0.000000
      5          7           0        1.831505   -0.681693    0.000000
      6          6           0        2.197462    0.568529    0.000000
      7          7           0        1.143662    1.456527   -0.000000
      8          7           0       -1.827298   -1.239681   -0.000000
      9          6           0       -0.545581   -1.604990    0.000000
     10          1           0       -3.170670    0.323513   -0.000000
     11          1           0        3.218998    0.914021    0.000000
     12          1           0        1.191504    2.461120   -0.000000
     13          1           0       -0.320055   -2.664970    0.000000
 ---------------------------------------------------------------------

 SCF Done:  E(RHF) =  -411.370143547     A.U. after    2 cycles

 The electronic state is 1-A'.
 Alpha  occ. eigenvalues --  -15.81687 -15.75151 -15.74531 -15.73887 -11.49840
 Alpha  occ. eigenvalues --  -11.47312 -11.46060 -11.44165 -11.40404  -1.61567
 Alpha  occ. eigenvalues --   -1.46739  -1.33917  -1.26988  -1.13394  -0.95264
 Alpha  occ. eigenvalues --   -0.90453  -0.87048  -0.76915  -0.70772  -0.65132
 Alpha  occ. eigenvalues --   -0.63942  -0.60182  -0.57720  -0.56511  -0.53655
 Alpha  occ. eigenvalues --   -0.46345  -0.45358  -0.40049  -0.35433  -0.34258
 Alpha  occ. eigenvalues --   -0.32202
 Alpha virt. eigenvalues --    0.02998   0.04787   0.05137   0.06303   0.08731
 Alpha virt. eigenvalues --    0.09153   0.09871   0.10857   0.11263   0.11622
 Alpha virt. eigenvalues --    0.11745   0.12618   0.13442   0.13980   0.14372

 Mulliken charges:
               1
     1  C    0.704319
     2  N   -3.486629
     3  C    3.395116
     4  C    3.637289
     5  N   -3.728872
     6  C    0.998914
     7  N   -3.353472
     8  N   -3.232716
     9  C   -0.667692
    10  H    1.601328
    11  H    1.645332
    12  H    0.892430
    13  H    1.594654
 Sum of Mulliken charges =   0.00000

 Dipole moment (field-independent basis, Debye):
    X=              2.0687    Y=              2.7811    Z=              0.0000  Tot=              3.4661

 Test job not archived.
 1\1\GINC-SE101\SP\RHF\Aug-CC-pVDZ\C5H4N4\OHZDE\06-Apr-2025\0\\#t hf au
 g-cc-pvdz iop(5/13=1,5/36=2,99/5=2) pseudo=read geom=check guess=(read
 ,tcheck) scf=(maxcycle=1)\\title\\0,1\C,0,-2.118438,0.068567,0.\N,0,-1
 .263191,1.092745,0.\C,0,0.,0.698379,0.\C,0,0.447803,-0.635313,0.\N,0,1
 .831505,-0.681693,0.\C,0,2.197462,0.568529,0.\N,0,1.143662,1.456527,0.
 \N,0,-1.827298,-1.239681,0.\C,0,-0.545581,-1.60499,0.\H,0,-3.17067,0.3
 23513,0.\H,0,3.218998,0.914021,0.\H,0,1.191504,2.46112,0.\H,0,-0.32005
 5,-2.66497,0.\\Version=ES64L-G16RevC.01\State=1-A'\HF=-411.3701435\RMS

 Normal termination of Gaussian 16 at Sun Apr  6 08:08:10 2025.
