 Gaussian 16, Revision C.01,

 ----------------------------------------------------------------------
 #t hf aug-cc-pvdz symm=none int=(grid=ultrafine) guess=(read,tcheck) s
 table=(opt,rrhf)
 ----------------------------------------------------------------------
 -----
 title
 -----
 Symbolic Z-matrix:
 Charge =  0 Multiplicity = 1

 SCF Done:  E(RHF) =  -634.219537960     A.U. after   16 cycles
 Normal termination of Gaussian 16 at Sun Apr  6 08:09:11 2025.
 Gaussian 16:  ES64L-G16RevC.01  3-Jul-2019

 ----------------------------------------------------------------------
 #t hf aug-cc-pvdz iop(5/13=1,5/36=2,99/5=2) pseudo=read geom=check gue
 ss=(read,tcheck) scf=(maxcycle=1)
 ----------------------------------------------------------------------
 -----
 title
 -----
 Structure from the checkpoint file:  "9H-purine-2-6-8-trione.chk"
 Charge =  0 Multiplicity = 1

                         Standard orientation:
 ---------------------------------------------------------------------
 Center     Atomic      Atomic             Coordinates (Angstroms)
 Number     Number       Type             X           Y           Z
 ---------------------------------------------------------------------
      1          6           0        0.000000    0.690260    0.000000
      2          6           0        0.612433   -0.524322    0.000000
      3          6           0       -1.421181    0.815858    0.000000
      4          6           0        2.250868    1.064696    0.000000
      5          6           0       -1.472895   -1.715075    0.000000
      6          7           0        1.008530    1.656063    0.000000
      7          7           0        1.963364   -0.327181    0.000000
      8          7           0       -0.075505   -1.702376    0.000000
      9          7           0       -2.045569   -0.457319    0.000000
     10          8           0       -2.078366    1.839915    0.000000
     11          8           0        3.351110    1.564725    0.000000
     12          8           0       -2.104133   -2.748954    0.000000
     13          1           0        0.868938    2.650817    0.000000
     14          1           0        2.693788   -1.017316    0.000000
     15          1           0        0.372696   -2.603452    0.000000
     16          1           0       -3.055399   -0.448350    0.000000
 ---------------------------------------------------------------------

 SCF Done:  E(RHF) =  -636.925682135     A.U. after    2 cycles

 The electronic state is 1-A'.
 Alpha  occ. eigenvalues --  -21.06206 -21.05549 -21.05034 -15.84207 -15.83470
 Alpha  occ. eigenvalues --  -15.81213 -15.80887 -11.57425 -11.56469 -11.55980
 Alpha  occ. eigenvalues --  -11.53814 -11.44820  -1.77037  -1.74725  -1.73112
 Alpha  occ. eigenvalues --   -1.59732  -1.47015  -1.39653  -1.34197  -1.14582
 Alpha  occ. eigenvalues --   -0.97330  -0.94900  -0.90635  -0.83381  -0.75693
 Alpha  occ. eigenvalues --   -0.71763  -0.71201  -0.67039  -0.63875  -0.63660
 Alpha  occ. eigenvalues --   -0.62446  -0.55558  -0.55151  -0.52855  -0.51111
 Alpha  occ. eigenvalues --   -0.50117  -0.44693  -0.38155  -0.35950  -0.34451
 Alpha  occ. eigenvalues --   -0.32528  -0.30957  -0.25103
 Alpha virt. eigenvalues --    0.02167   0.05310   0.05490   0.06537   0.07593
 Alpha virt. eigenvalues --    0.08973   0.09278   0.10173   0.10173   0.10486
 Alpha virt. eigenvalues --    0.11742   0.12592   0.12724   0.13180   0.13293

 Mulliken charges:
               1
     1  C    1.645454
     2  C    3.046775
     3  C    6.167954
     4  C    5.218916
     5  C    4.795351
     6  N   -3.582210
     7  N   -3.380383
     8  N   -3.199888
     9  N   -2.667027
    10  O   -3.950751
    11  O   -3.576151
    12  O   -3.405108
    13  H    0.747138
    14  H    0.853454
    15  H    0.730827
    16  H    0.555649
 Sum of Mulliken charges =  -0.00000

 Dipole moment (field-independent basis, Debye):
    X=              1.2819    Y=             -2.2108    Z=              0.0000  Tot=              2.5556

 Test job not archived.
 1\1\GINC-SE050\SP\RHF\Aug-CC-pVDZ\C5H4N4O3\OHZDE\06-Apr-2025\0\\#t hf
 aug-cc-pvdz iop(5/13=1,5/36=2,99/5=2) pseudo=read geom=check guess=(re
 ad,tcheck) scf=(maxcycle=1)\\title\\0,1\C,0,0.,0.69026,0.\C,0,0.612433
 ,-0.524322,0.\C,0,-1.421181,0.815858,0.\C,0,2.250868,1.064696,0.\C,0,-
 1.472895,-1.715075,0.\N,0,1.00853,1.656063,0.\N,0,1.963364,-0.327181,0
 .\N,0,-0.075505,-1.702376,0.\N,0,-2.045569,-0.457319,0.\O,0,-2.078366,
 1.839915,0.\O,0,3.35111,1.564725,0.\O,0,-2.104133,-2.748954,0.\H,0,0.8
 68938,2.650817,0.\H,0,2.693788,-1.017316,0.\H,0,0.372696,-2.603452,0.\

 Normal termination of Gaussian 16 at Sun Apr  6 08:10:14 2025.
