 Gaussian 16, Revision C.01,

 ----------------------------------------------------------------------
 #t hf aug-cc-pvdz symm=none int=(grid=ultrafine) guess=(read,tcheck) s
 table=(opt,rrhf)
 ----------------------------------------------------------------------
 -----
 title
 -----
 Symbolic Z-matrix:
 Charge =  0 Multiplicity = 1

 SCF Done:  E(RHF) =  -459.119552830     A.U. after   16 cycles
 Normal termination of Gaussian 16 at Sun Apr  6 08:10:38 2025.
 Gaussian 16:  ES64L-G16RevC.01  3-Jul-2019

 ----------------------------------------------------------------------
 #t hf aug-cc-pvdz iop(5/13=1,5/36=2,99/5=2) pseudo=read geom=check gue
 ss=(read,tcheck) scf=(maxcycle=1)
 ----------------------------------------------------------------------
 -----
 title
 -----
 Structure from the checkpoint file:  "acenaphthylene.chk"
 Charge =  0 Multiplicity = 1

                         Standard orientation:
 ---------------------------------------------------------------------
 Center     Atomic      Atomic             Coordinates (Angstroms)
 Number     Number       Type             X           Y           Z
 ---------------------------------------------------------------------
      1          6           0       -0.000000    0.000000   -0.139949
      2          6           0        0.000000   -0.000000    1.250982
      3          6           0        0.000000    1.278325    1.873143
      4          6           0       -0.000000   -1.278325    1.873143
      5          6           0        0.000000    1.157671   -0.947530
      6          6           0       -0.000000   -1.157671   -0.947530
      7          6           0        0.000000    2.419948    1.100100
      8          6           0       -0.000000   -2.419948    1.100100
      9          6           0        0.000000    2.381426   -0.319988
     10          6           0       -0.000000   -2.381426   -0.319988
     11          6           0        0.000000    0.679125   -2.336932
     12          6           0       -0.000000   -0.679125   -2.336932
     13          1           0        0.000000    3.385258    1.589050
     14          1           0       -0.000000   -3.385258    1.589050
     15          1           0        0.000000    1.356296    2.952947
     16          1           0       -0.000000   -1.356296    2.952947
     17          1           0        0.000000    3.310213   -0.876427
     18          1           0       -0.000000   -3.310213   -0.876427
     19          1           0        0.000000    1.311632   -3.211425
     20          1           0       -0.000000   -1.311632   -3.211425
 ---------------------------------------------------------------------

 SCF Done:  E(RHF) =  -461.304818491     A.U. after    2 cycles

 The electronic state is 1-A1.
 Alpha  occ. eigenvalues --  -11.50604 -11.49731 -11.46629 -11.44093 -11.43236
 Alpha  occ. eigenvalues --  -11.43024 -11.42089 -11.41301 -11.40390 -11.39982
 Alpha  occ. eigenvalues --  -11.39845 -11.37322  -1.44239  -1.24254  -1.23942
 Alpha  occ. eigenvalues --   -1.08725  -1.05401  -1.03504  -0.91861  -0.87882
 Alpha  occ. eigenvalues --   -0.82228  -0.81140  -0.72438  -0.68400  -0.65800
 Alpha  occ. eigenvalues --   -0.63899  -0.59808  -0.56021  -0.55678  -0.54416
 Alpha  occ. eigenvalues --   -0.52029  -0.50035  -0.46697  -0.44842  -0.44338
 Alpha  occ. eigenvalues --   -0.41814  -0.40641  -0.31537  -0.29146  -0.28837
 Alpha virt. eigenvalues --    0.03285   0.04474   0.04627   0.05784   0.06184
 Alpha virt. eigenvalues --    0.06331   0.06389   0.06498   0.08627   0.09517
 Alpha virt. eigenvalues --    0.10190   0.10731   0.11222   0.11599   0.12039

 Mulliken charges:
               1
     1  C    4.892342
     2  C    5.534478
     3  C   -2.604722
     4  C   -2.604722
     5  C    2.827887
     6  C    2.827887
     7  C   -4.072490
     8  C   -4.072490
     9  C   -2.352939
    10  C   -2.352939
    11  C   -5.011259
    12  C   -5.011259
    13  H    1.437168
    14  H    1.437168
    15  H    1.576442
    16  H    1.576442
    17  H    1.566862
    18  H    1.566862
    19  H    1.419641
    20  H    1.419641
 Sum of Mulliken charges =   0.00000

 Dipole moment (field-independent basis, Debye):
    X=             -0.0000    Y=              0.0000    Z=              0.2397  Tot=              0.2397

 Test job not archived.
 1\1\GINC-SE270\SP\RHF\Aug-CC-pVDZ\C12H8\OHZDE\06-Apr-2025\0\\#t hf aug
 -cc-pvdz iop(5/13=1,5/36=2,99/5=2) pseudo=read geom=check guess=(read,
 tcheck) scf=(maxcycle=1)\\title\\0,1\C,0,0.,0.,-0.139949\C,0,0.,0.,1.2
 50982\C,0,0.,1.278325,1.873143\C,0,0.,-1.278325,1.873143\C,0,0.,1.1576
 71,-0.94753\C,0,0.,-1.157671,-0.94753\C,0,0.,2.419948,1.1001\C,0,0.,-2
 .419948,1.1001\C,0,0.,2.381426,-0.319988\C,0,0.,-2.381426,-0.319988\C,
 0,0.,0.679125,-2.336932\C,0,0.,-0.679125,-2.336932\H,0,0.,3.385258,1.5
 8905\H,0,0.,-3.385258,1.58905\H,0,0.,1.356296,2.952947\H,0,0.,-1.35629

 Normal termination of Gaussian 16 at Sun Apr  6 08:10:51 2025.
