 Gaussian 16, Revision C.01,

 ----------------------------------------------------------------------
 #t hf aug-cc-pvdz symm=none int=(grid=ultrafine) guess=(read,tcheck) s
 table=(opt,rrhf)
 ----------------------------------------------------------------------
 -----
 title
 -----
 Symbolic Z-matrix:
 Charge =  0 Multiplicity = 1

 SCF Done:  E(RHF) =  -460.305851129     A.U. after   16 cycles
 Normal termination of Gaussian 16 at Sun Apr  6 08:11:24 2025.
 Gaussian 16:  ES64L-G16RevC.01  3-Jul-2019

 ----------------------------------------------------------------------
 #t hf aug-cc-pvdz iop(5/13=1,5/36=2,99/5=2) pseudo=read geom=check gue
 ss=(read,tcheck) scf=(maxcycle=1)
 ----------------------------------------------------------------------
 -----
 title
 -----
 Structure from the checkpoint file:  "acenaphthene.chk"
 Charge =  0 Multiplicity = 1

                         Standard orientation:
 ---------------------------------------------------------------------
 Center     Atomic      Atomic             Coordinates (Angstroms)
 Number     Number       Type             X           Y           Z
 ---------------------------------------------------------------------
      1          6           0        0.000000    2.417403    1.181934
      2          6           0       -0.000000   -2.417403    1.181934
      3          6           0        0.000000    1.271044    1.944423
      4          6           0       -0.000000   -1.271044    1.944423
      5          6           0        0.000000    2.386884   -0.235954
      6          6           0       -0.000000   -2.386884   -0.235954
      7          6           0       -0.000000   -0.000000    1.317592
      8          6           0        0.000000    0.000000   -0.091156
      9          6           0        0.000000    1.171139   -0.870305
     10          6           0       -0.000000   -1.171139   -0.870305
     11          6           0        0.000000    0.782271   -2.334961
     12          6           0       -0.000000   -0.782271   -2.334961
     13          1           0        0.000000    3.379258    1.678463
     14          1           0       -0.000000   -3.379258    1.678463
     15          1           0        0.000000    1.338083    3.024941
     16          1           0       -0.000000   -1.338083    3.024941
     17          1           0        0.000000    3.317350   -0.789309
     18          1           0       -0.000000   -3.317350   -0.789309
     19          1           0       -0.874591    1.180702   -2.852112
     20          1           0        0.874591    1.180702   -2.852112
     21          1           0        0.874591   -1.180702   -2.852112
     22          1           0       -0.874591   -1.180702   -2.852112
 ---------------------------------------------------------------------

 SCF Done:  E(RHF) =  -462.527596483     A.U. after    2 cycles

 The electronic state is 1-A1.
 Alpha  occ. eigenvalues --  -11.51350 -11.49336 -11.47053 -11.44427 -11.42931
 Alpha  occ. eigenvalues --  -11.42150 -11.41156 -11.40950 -11.40145 -11.39028
 Alpha  occ. eigenvalues --  -11.39008 -11.36122  -1.43107  -1.23479  -1.23134
 Alpha  occ. eigenvalues --   -1.07855  -1.05593  -1.04557  -0.93316  -0.87465
 Alpha  occ. eigenvalues --   -0.84450  -0.81366  -0.71741  -0.67110  -0.65951
 Alpha  occ. eigenvalues --   -0.63893  -0.61432  -0.58565  -0.54742  -0.53442
 Alpha  occ. eigenvalues --   -0.52302  -0.52052  -0.51605  -0.45998  -0.45078
 Alpha  occ. eigenvalues --   -0.42896  -0.40692  -0.40567  -0.37060  -0.30994
 Alpha  occ. eigenvalues --   -0.26037
 Alpha virt. eigenvalues --    0.03433   0.04557   0.04642   0.06121   0.06247
 Alpha virt. eigenvalues --    0.06310   0.06421   0.06516   0.06582   0.08620
 Alpha virt. eigenvalues --    0.08812   0.10584   0.11033   0.11477   0.11596

 Mulliken charges:
               1
     1  C   -3.323682
     2  C   -3.323682
     3  C   -2.205984
     4  C   -2.205984
     5  C   -3.125424
     6  C   -3.125424
     7  C    6.178670
     8  C    5.702096
     9  C    2.483667
    10  C    2.483667
    11  C   -6.493315
    12  C   -6.493315
    13  H    1.491145
    14  H    1.491145
    15  H    1.598205
    16  H    1.598205
    17  H    1.765732
    18  H    1.765732
    19  H    0.934636
    20  H    0.934636
    21  H    0.934636
    22  H    0.934636
 Sum of Mulliken charges =  -0.00000

 Dipole moment (field-independent basis, Debye):
    X=             -0.0000    Y=             -0.0000    Z=             -0.9467  Tot=              0.9467

 Test job not archived.
 1\1\GINC-SE249\SP\RHF\Aug-CC-pVDZ\C12H10\OHZDE\06-Apr-2025\0\\#t hf au
 g-cc-pvdz iop(5/13=1,5/36=2,99/5=2) pseudo=read geom=check guess=(read
 ,tcheck) scf=(maxcycle=1)\\title\\0,1\C,0,0.,2.417403,1.181934\C,0,0.,
 -2.417403,1.181934\C,0,0.,1.271044,1.944423\C,0,0.,-1.271044,1.944423\
 C,0,0.,2.386884,-0.235954\C,0,0.,-2.386884,-0.235954\C,0,0.,0.,1.31759
 2\C,0,0.,0.,-0.091156\C,0,0.,1.171139,-0.870305\C,0,0.,-1.171139,-0.87
 0305\C,0,0.,0.782271,-2.334961\C,0,0.,-0.782271,-2.334961\H,0,0.,3.379
 258,1.678463\H,0,0.,-3.379258,1.678463\H,0,0.,1.338083,3.024941\H,0,0.

 Normal termination of Gaussian 16 at Sun Apr  6 08:11:40 2025.
