 Gaussian 16, Revision C.01,

 ----------------------------------------------------------------------
 #t hf aug-cc-pvdz symm=none int=(grid=ultrafine) guess=(read,tcheck) s
 table=(opt,rrhf)
 ----------------------------------------------------------------------
 -----
 title
 -----
 Symbolic Z-matrix:
 Charge =  0 Multiplicity = 1

 SCF Done:  E(RHF) =  -251.832597723     A.U. after   13 cycles
 Normal termination of Gaussian 16 at Sun Apr  6 08:10:09 2025.
 Gaussian 16:  ES64L-G16RevC.01  3-Jul-2019

 ----------------------------------------------------------------------
 #t hf aug-cc-pvdz iop(5/13=1,5/36=2,99/5=2) pseudo=read geom=check gue
 ss=(read,tcheck) scf=(maxcycle=1)
 ----------------------------------------------------------------------
 -----
 title
 -----
 Structure from the checkpoint file:  "acetyl_fluoride.chk"
 Charge =  0 Multiplicity = 1

                         Standard orientation:
 ---------------------------------------------------------------------
 Center     Atomic      Atomic             Coordinates (Angstroms)
 Number     Number       Type             X           Y           Z
 ---------------------------------------------------------------------
      1          6           0        0.000000    0.188237    0.000000
      2          6           0        1.066415   -0.856832    0.000000
      3          8           0        0.099011    1.365638    0.000000
      4          9           0       -1.237794   -0.393574    0.000000
      5          1           0        2.044346   -0.386602    0.000000
      6          1           0        0.952609   -1.492385    0.878134
      7          1           0        0.952609   -1.492385   -0.878134
 ---------------------------------------------------------------------

 SCF Done:  E(RHF) =  -252.840330249     A.U. after    2 cycles

 The electronic state is 1-A'.
 Alpha  occ. eigenvalues --  -29.29758 -21.08946 -11.55927 -11.41819  -1.76473
 Alpha  occ. eigenvalues --   -1.18793  -0.95773  -0.69863  -0.64286  -0.61637
 Alpha  occ. eigenvalues --   -0.55549  -0.50588  -0.42990  -0.30954  -0.29713
 Alpha  occ. eigenvalues --   -0.27294
 Alpha virt. eigenvalues --    0.03362   0.05721   0.06050   0.09668   0.11602
 Alpha virt. eigenvalues --    0.11798   0.12204   0.13743   0.15236   0.16528
 Alpha virt. eigenvalues --    0.17956   0.21134   0.23299   0.25432   0.26141

 Mulliken charges:
               1
     1  C    2.031964
     2  C   -3.655504
     3  O   -2.821203
     4  F    0.714780
     5  H    1.219729
     6  H    1.255117
     7  H    1.255117
 Sum of Mulliken charges =   0.00000

 Dipole moment (field-independent basis, Debye):
    X=             -1.3393    Y=             -2.7550    Z=             -0.0000  Tot=              3.0633

 Test job not archived.
 1\1\GINC-SE101\SP\RHF\Aug-CC-pVDZ\C2H3F1O1\OHZDE\06-Apr-2025\0\\#t hf
 aug-cc-pvdz iop(5/13=1,5/36=2,99/5=2) pseudo=read geom=check guess=(re
 ad,tcheck) scf=(maxcycle=1)\\title\\0,1\C,0,0.,0.188237,0.\C,0,1.06641
 4,-0.856833,0.\O,0,0.099012,1.365638,0.\F,0,-1.237794,-0.393573,0.\H,0
 ,2.044346,-0.386604,0.\H,0,0.952608,-1.492386,0.878134\H,0,0.952608,-1
 .492386,-0.878134\\Version=ES64L-G16RevC.01\State=1-A'\HF=-252.8403302
 \RMSD=1.682e-01\Dipole=-0.5269094,-1.0838947,0.\Quadrupole=1.468562,-2
 .1162715,0.6477095,-0.0278038,0.,0.\PG=CS [SG(C2H1F1O1),X(H2)]\\@

 Normal termination of Gaussian 16 at Sun Apr  6 08:10:46 2025.
