 Gaussian 16, Revision C.01,

 ----------------------------------------------------------------------
 #t hf aug-cc-pvdz symm=none int=(grid=ultrafine) guess=(read,tcheck) s
 table=(opt,rrhf)
 ----------------------------------------------------------------------
 -----
 title
 -----
 Symbolic Z-matrix:
 Charge =  0 Multiplicity = 1

 SCF Done:  E(RHF) =  -474.362011413     A.U. after   13 cycles
 Normal termination of Gaussian 16 at Sun Apr  6 08:10:07 2025.
 Gaussian 16:  ES64L-G16RevC.01  3-Jul-2019

 ----------------------------------------------------------------------
 #t hf aug-cc-pvdz iop(5/13=1,5/36=2,99/5=2) pseudo=read geom=check gue
 ss=(read,tcheck) scf=(maxcycle=1)
 ----------------------------------------------------------------------
 -----
 title
 -----
 Structure from the checkpoint file:  "acetylenethiol.chk"
 Charge =  0 Multiplicity = 1

                         Standard orientation:
 ---------------------------------------------------------------------
 Center     Atomic      Atomic             Coordinates (Angstroms)
 Number     Number       Type             X           Y           Z
 ---------------------------------------------------------------------
      1         16           0        1.039913   -0.088153   -0.000004
      2          6           0       -0.650468    0.025724    0.000041
      3          6           0       -1.852794    0.003642   -0.000042
      4          1           0        1.294484    1.236611   -0.000009
      5          1           0       -2.913523   -0.002355    0.000079
 ---------------------------------------------------------------------

 SCF Done:  E(RHF) =  -474.945330020     A.U. after    2 cycles

 The electronic state is 1-A.
 Alpha  occ. eigenvalues --  -75.73461 -13.20364 -13.15231 -13.04786 -11.42351
 Alpha  occ. eigenvalues --  -11.41238  -8.07438  -1.22351  -1.04307  -0.74669
 Alpha  occ. eigenvalues --   -0.59872  -0.49074  -0.44127  -0.37831  -0.24879
 Alpha virt. eigenvalues --    0.02249   0.04560   0.07337   0.08564   0.11032
 Alpha virt. eigenvalues --    0.11231   0.13828   0.14803   0.15249   0.15693
 Alpha virt. eigenvalues --    0.17193   0.17860   0.19926   0.22638   0.24284

 Mulliken charges:
               1
     1  S   -0.717208
     2  C    0.640186
     3  C   -1.822670
     4  H    1.119131
     5  H    0.780561
 Sum of Mulliken charges =   0.00000

 Dipole moment (field-independent basis, Debye):
    X=              0.8548    Y=             -0.8812    Z=              0.0001  Tot=              1.2277

 Test job not archived.
 1\1\GINC-SE150\SP\RHF\Aug-CC-pVDZ\C2H2S1\OHZDE\06-Apr-2025\0\\#t hf au
 g-cc-pvdz iop(5/13=1,5/36=2,99/5=2) pseudo=read geom=check guess=(read
 ,tcheck) scf=(maxcycle=1)\\title\\0,1\S,0,1.039913,-0.088153,-0.000004
 \C,0,-0.650468,0.025724,0.000041\C,0,-1.852794,0.003642,-0.000042\H,0,
 1.294484,1.236611,-0.000009\H,0,-2.913523,-0.002355,0.000079\\Version=
 ES64L-G16RevC.01\State=1-A\HF=-474.94533\RMSD=1.049e+00\Dipole=0.33629
 16,-0.3467079,0.0000351\Quadrupole=4.8073789,-0.7474902,-4.0598887,-0.
 169491,-0.0004282,0.0000086\PG=C01 [X(C2H2S1)]\\@

 Normal termination of Gaussian 16 at Sun Apr  6 08:10:46 2025.
