 Gaussian 16, Revision C.01,

 ----------------------------------------------------------------------
 #t hf aug-cc-pvdz symm=none int=(grid=ultrafine) guess=(read,tcheck) s
 table=(opt,rrhf)
 ----------------------------------------------------------------------
 -----
 title
 -----
 Symbolic Z-matrix:
 Charge =  0 Multiplicity = 1

 SCF Done:  E(RHF) =  -379.633785340     A.U. after   13 cycles
 Normal termination of Gaussian 16 at Sun Apr  6 08:08:42 2025.
 Gaussian 16:  ES64L-G16RevC.01  3-Jul-2019

 ----------------------------------------------------------------------
 #t hf aug-cc-pvdz iop(5/13=1,5/36=2,99/5=2) pseudo=read geom=check gue
 ss=(read,tcheck) scf=(maxcycle=1)
 ----------------------------------------------------------------------
 -----
 title
 -----
 Structure from the checkpoint file:  "acetic_anhydride.chk"
 Charge =  0 Multiplicity = 1

                         Standard orientation:
 ---------------------------------------------------------------------
 Center     Atomic      Atomic             Coordinates (Angstroms)
 Number     Number       Type             X           Y           Z
 ---------------------------------------------------------------------
      1          6           0        0.000000    2.369460    0.740351
      2          6           0       -0.343853    1.165080   -0.083876
      3          8           0       -0.878029    1.154247   -1.148636
      4          1           0       -0.405130    3.260516    0.271345
      5          1           0       -0.391201    2.260041    1.751197
      6          1           0        1.085006    2.452696    0.818365
      7          8           0       -0.000000   -0.000000    0.602333
      8          6           0        0.343853   -1.165080   -0.083876
      9          6           0       -0.000000   -2.369460    0.740351
     10          8           0        0.878029   -1.154247   -1.148636
     11          1           0        0.391201   -2.260041    1.751197
     12          1           0        0.405130   -3.260516    0.271345
     13          1           0       -1.085006   -2.452696    0.818365
 ---------------------------------------------------------------------

 SCF Done:  E(RHF) =  -381.267741839     A.U. after    2 cycles

 The electronic state is 1-A.
 Alpha  occ. eigenvalues --  -21.10923 -21.06932 -21.06916 -11.54450 -11.53825
 Alpha  occ. eigenvalues --  -11.40598 -11.40512  -1.87825  -1.72700  -1.66102
 Alpha  occ. eigenvalues --   -1.14676  -1.10477  -0.86990  -0.71796  -0.65061
 Alpha  occ. eigenvalues --   -0.64968  -0.63500  -0.60357  -0.59411  -0.57381
 Alpha  occ. eigenvalues --   -0.52243  -0.49417  -0.48200  -0.43351  -0.33521
 Alpha  occ. eigenvalues --   -0.31700  -0.29240
 Alpha virt. eigenvalues --    0.02949   0.04758   0.05273   0.05722   0.06286
 Alpha virt. eigenvalues --    0.06826   0.08588   0.11259   0.12115   0.12680
 Alpha virt. eigenvalues --    0.13315   0.13354   0.13945   0.14191   0.14688

 Mulliken charges:
               1
     1  C   -4.270274
     2  C    5.087403
     3  O   -2.951818
     4  H    1.228299
     5  H    1.310249
     6  H    1.299867
     7  O   -3.407454
     8  C    5.087403
     9  C   -4.270274
    10  O   -2.951818
    11  H    1.310249
    12  H    1.228299
    13  H    1.299867
 Sum of Mulliken charges =  -0.00000

 Dipole moment (field-independent basis, Debye):
    X=             -0.0000    Y=              0.0000    Z=              1.9607  Tot=              1.9607

 Test job not archived.
 1\1\GINC-SE422\SP\RHF\Aug-CC-pVDZ\C4H6O3\OHZDE\06-Apr-2025\0\\#t hf au
 g-cc-pvdz iop(5/13=1,5/36=2,99/5=2) pseudo=read geom=check guess=(read
 ,tcheck) scf=(maxcycle=1)\\title\\0,1\C,0,0.,2.36946,0.740351\C,0,-0.3
 43853,1.16508,-0.083876\O,0,-0.878029,1.154247,-1.148636\H,0,-0.40513,
 3.260516,0.271345\H,0,-0.391201,2.260041,1.751197\H,0,1.085006,2.45269
 6,0.818365\O,0,0.,0.,0.602333\C,0,0.343853,-1.16508,-0.083876\C,0,0.,-
 2.36946,0.740351\O,0,0.878029,-1.154247,-1.148636\H,0,0.391201,-2.2600
 41,1.751197\H,0,0.40513,-3.260516,0.271345\H,0,-1.085006,-2.452696,0.8

 Normal termination of Gaussian 16 at Sun Apr  6 08:08:45 2025.
