 Gaussian 16, Revision C.01,

 ----------------------------------------------------------------------
 #t hf aug-cc-pvdz symm=none int=(grid=ultrafine) guess=(read,tcheck) s
 table=(opt,rrhf)
 ----------------------------------------------------------------------
 -----
 title
 -----
 Symbolic Z-matrix:
 Charge =  0 Multiplicity = 1

 SCF Done:  E(RHF) =  -152.938907546     A.U. after   12 cycles
 Normal termination of Gaussian 16 at Sun Apr  6 08:08:22 2025.
 Gaussian 16:  ES64L-G16RevC.01  3-Jul-2019

 ----------------------------------------------------------------------
 #t hf aug-cc-pvdz iop(5/13=1,5/36=2,99/5=2) pseudo=read geom=check gue
 ss=(read,tcheck) scf=(maxcycle=1)
 ----------------------------------------------------------------------
 -----
 title
 -----
 Structure from the checkpoint file:  "acetaldehyde.chk"
 Charge =  0 Multiplicity = 1

                         Standard orientation:
 ---------------------------------------------------------------------
 Center     Atomic      Atomic             Coordinates (Angstroms)
 Number     Number       Type             X           Y           Z
 ---------------------------------------------------------------------
      1          6           0       -0.000000    0.459417    0.000000
      2          6           0        0.930230   -0.717881    0.000000
      3          8           0       -1.202256    0.385590    0.000000
      4          1           0        0.496537    1.452118    0.000000
      5          1           0        1.581866   -0.666235    0.876217
      6          1           0        0.376395   -1.653588    0.000000
      7          1           0        1.581866   -0.666235   -0.876217
 ---------------------------------------------------------------------

 SCF Done:  E(RHF) =  -153.625918371     A.U. after    2 cycles

 The electronic state is 1-A'.
 Alpha  occ. eigenvalues --  -21.06395 -11.48129 -11.39122  -1.70884  -1.11828
 Alpha  occ. eigenvalues --   -0.81982  -0.64349  -0.59647  -0.56237  -0.49999
 Alpha  occ. eigenvalues --   -0.42649  -0.29663
 Alpha virt. eigenvalues --    0.03288   0.05389   0.05845   0.06633   0.11098
 Alpha virt. eigenvalues --    0.11262   0.12053   0.14025   0.14642   0.16327
 Alpha virt. eigenvalues --    0.16400   0.17107   0.19584   0.25556   0.26283

 Mulliken charges:
               1
     1  C    1.310653
     2  C   -3.777668
     3  O   -2.577099
     4  H    1.369670
     5  H    1.258514
     6  H    1.157415
     7  H    1.258514
 Sum of Mulliken charges =   0.00000

 Dipole moment (field-independent basis, Debye):
    X=              1.3990    Y=             -0.2267    Z=              0.0000  Tot=              1.4172

 Test job not archived.
 1\1\GINC-SE273\SP\RHF\Aug-CC-pVDZ\C2H4O1\OHZDE\06-Apr-2025\0\\#t hf au
 g-cc-pvdz iop(5/13=1,5/36=2,99/5=2) pseudo=read geom=check guess=(read
 ,tcheck) scf=(maxcycle=1)\\title\\0,1\C,0,0.,0.459417,0.\C,0,0.930231,
 -0.71788,0.\O,0,-1.202256,0.38559,0.\H,0,0.496537,1.452118,0.\H,0,1.58
 1867,-0.666234,0.876217\H,0,0.376396,-1.653588,0.\H,0,1.581867,-0.6662
 34,-0.876217\\Version=ES64L-G16RevC.01\State=1-A'\HF=-153.6259184\RMSD
 =1.555e-01\Dipole=0.5503964,-0.0891766,0.\Quadrupole=-0.9118864,0.1820
 48,0.7298384,0.3769696,0.,0.\PG=CS [SG(C2H2O1),X(H2)]\\@

 Normal termination of Gaussian 16 at Sun Apr  6 08:08:23 2025.
