 Gaussian 16, Revision C.01,

 ----------------------------------------------------------------------
 #t hf aug-cc-pvdz symm=none int=(grid=ultrafine) guess=(read,tcheck) s
 table=(opt,rrhf)
 ----------------------------------------------------------------------
 -----
 title
 -----
 Symbolic Z-matrix:
 Charge =  0 Multiplicity = 1

 SCF Done:  E(RHF) =  -227.849661643     A.U. after   13 cycles
 Normal termination of Gaussian 16 at Sun Apr  6 08:08:23 2025.
 Gaussian 16:  ES64L-G16RevC.01  3-Jul-2019

 ----------------------------------------------------------------------
 #t hf aug-cc-pvdz iop(5/13=1,5/36=2,99/5=2) pseudo=read geom=check gue
 ss=(read,tcheck) scf=(maxcycle=1)
 ----------------------------------------------------------------------
 -----
 title
 -----
 Structure from the checkpoint file:  "acetic_acid.chk"
 Charge =  0 Multiplicity = 1

                         Standard orientation:
 ---------------------------------------------------------------------
 Center     Atomic      Atomic             Coordinates (Angstroms)
 Number     Number       Type             X           Y           Z
 ---------------------------------------------------------------------
      1          6           0       -0.000000    0.155267    0.000000
      2          6           0        1.069205   -0.899340    0.000000
      3          8           0        0.178355    1.345599    0.000000
      4          8           0       -1.241854   -0.392585    0.000000
      5          1           0        0.960615   -1.536193    0.877879
      6          1           0        0.960615   -1.536193   -0.877879
      7          1           0        2.046305   -0.427879    0.000000
      8          1           0       -1.874777    0.340589    0.000000
 ---------------------------------------------------------------------

 SCF Done:  E(RHF) =  -228.825817452     A.U. after    2 cycles

 The electronic state is 1-A'.
 Alpha  occ. eigenvalues --  -21.12270 -21.05514 -11.52158 -11.39784  -1.82720
 Alpha  occ. eigenvalues --   -1.65279  -1.11645  -0.80296  -0.63946  -0.62208
 Alpha  occ. eigenvalues --   -0.60861  -0.54501  -0.50081  -0.45997  -0.34128
 Alpha  occ. eigenvalues --   -0.29902
 Alpha virt. eigenvalues --    0.03262   0.05612   0.06250   0.06626   0.10212
 Alpha virt. eigenvalues --    0.11999   0.12224   0.13303   0.15289   0.15648
 Alpha virt. eigenvalues --    0.16716   0.18329   0.18575   0.21794   0.22813

 Mulliken charges:
               1
     1  C    4.957308
     2  C   -3.903206
     3  O   -2.857606
     4  O   -2.767629
     5  H    1.233066
     6  H    1.233066
     7  H    1.222710
     8  H    0.882292
 Sum of Mulliken charges =   0.00000

 Dipole moment (field-independent basis, Debye):
    X=             -0.2508    Y=             -1.2661    Z=              0.0000  Tot=              1.2907

 Test job not archived.
 1\1\GINC-SE412\SP\RHF\Aug-CC-pVDZ\C2H4O2\OHZDE\06-Apr-2025\0\\#t hf au
 g-cc-pvdz iop(5/13=1,5/36=2,99/5=2) pseudo=read geom=check guess=(read
 ,tcheck) scf=(maxcycle=1)\\title\\0,1\C,0,0.,0.155267,0.\C,0,1.069204,
 -0.899341,0.\O,0,0.178356,1.345599,0.\O,0,-1.241854,-0.392584,0.\H,0,0
 .960614,-1.536194,0.877879\H,0,0.960614,-1.536194,-0.877879\H,0,2.0463
 05,-0.427881,0.\H,0,-1.874777,0.34059,0.\\Version=ES64L-G16RevC.01\Sta
 te=1-A'\HF=-228.8258175\RMSD=1.679e-01\Dipole=-0.0986692,-0.4981232,0.
 \Quadrupole=1.8479361,-2.0504159,0.2024798,-1.8637199,0.,0.\PG=CS [SG(

 Normal termination of Gaussian 16 at Sun Apr  6 08:08:25 2025.
