 Gaussian 16, Revision C.01,

 ----------------------------------------------------------------------
 #t hf aug-cc-pvdz symm=none int=(grid=ultrafine) guess=(read,tcheck) s
 table=(opt,rrhf)
 ----------------------------------------------------------------------
 -----
 title
 -----
 Symbolic Z-matrix:
 Charge =  0 Multiplicity = 1

 SCF Done:  E(RHF) =  -131.870647955     A.U. after   13 cycles
 Normal termination of Gaussian 16 at Sun Apr  6 08:10:48 2025.
 Gaussian 16:  ES64L-G16RevC.01  3-Jul-2019

 ----------------------------------------------------------------------
 #t hf aug-cc-pvdz iop(5/13=1,5/36=2,99/5=2) pseudo=read geom=check gue
 ss=(read,tcheck) scf=(maxcycle=1)
 ----------------------------------------------------------------------
 -----
 title
 -----
 Structure from the checkpoint file:  "acetylenamine.chk"
 Charge =  0 Multiplicity = 1

                         Standard orientation:
 ---------------------------------------------------------------------
 Center     Atomic      Atomic             Coordinates (Angstroms)
 Number     Number       Type             X           Y           Z
 ---------------------------------------------------------------------
      1          7           0        0.090626   -1.183995   -0.000000
      2          6           0        0.000000    0.161705    0.000000
      3          6           0       -0.019053    1.362621    0.000000
      4          1           0       -0.239895   -1.640016    0.837356
      5          1           0       -0.239895   -1.640016   -0.837356
      6          1           0       -0.040274    2.422038    0.000000
 ---------------------------------------------------------------------

 SCF Done:  E(RHF) =  -132.489986403     A.U. after    2 cycles

 The electronic state is 1-A'.
 Alpha  occ. eigenvalues --  -15.78942 -11.42569 -11.38023  -1.36943  -1.04731
 Alpha  occ. eigenvalues --   -0.76055  -0.69135  -0.64746  -0.50185  -0.37127
 Alpha  occ. eigenvalues --   -0.30849
 Alpha virt. eigenvalues --    0.02955   0.05127   0.06147   0.11041   0.12648
 Alpha virt. eigenvalues --    0.12828   0.13423   0.14760   0.15623   0.16946
 Alpha virt. eigenvalues --    0.18856   0.19625   0.21917   0.24551   0.26593

 Mulliken charges:
               1
     1  N   -2.777708
     2  C    0.982879
     3  C   -0.409973
     4  H    0.668409
     5  H    0.668409
     6  H    0.867985
 Sum of Mulliken charges =   0.00000

 Dipole moment (field-independent basis, Debye):
    X=             -0.8263    Y=             -1.3021    Z=              0.0000  Tot=              1.5421

 Test job not archived.
 1\1\GINC-SE136\SP\RHF\Aug-CC-pVDZ\C2H3N1\OHZDE\06-Apr-2025\0\\#t hf au
 g-cc-pvdz iop(5/13=1,5/36=2,99/5=2) pseudo=read geom=check guess=(read
 ,tcheck) scf=(maxcycle=1)\\title\\0,1\N,0,0.090626,-1.183995,0.\C,0,0.
 ,0.161705,0.\C,0,-0.019053,1.362621,0.\H,0,-0.239895,-1.640016,0.83735
 6\H,0,-0.239895,-1.640016,-0.837356\H,0,-0.040274,2.422038,0.\\Version
 =ES64L-G16RevC.01\State=1-A'\HF=-132.4899864\RMSD=7.557e-01\Dipole=-0.
 3250794,-0.5122917,0.\Quadrupole=-2.9764102,3.3230186,-0.3466084,1.256
 3408,0.,0.\PG=CS [SG(C2H1N1),X(H2)]\\@

 Normal termination of Gaussian 16 at Sun Apr  6 08:10:52 2025.
