 Gaussian 16, Revision C.01,

 ----------------------------------------------------------------------
 #t hf aug-cc-pvdz symm=none int=(grid=ultrafine) guess=(read,tcheck) s
 table=(opt,rrhf)
 ----------------------------------------------------------------------
 -----
 title
 -----
 Symbolic Z-matrix:
 Charge =  0 Multiplicity = 1

 SCF Done:  E(RHF) =  -131.943651182     A.U. after   11 cycles
 Normal termination of Gaussian 16 at Sun Apr  6 08:08:23 2025.
 Gaussian 16:  ES64L-G16RevC.01  3-Jul-2019

 ----------------------------------------------------------------------
 #t hf aug-cc-pvdz iop(5/13=1,5/36=2,99/5=2) pseudo=read geom=check gue
 ss=(read,tcheck) scf=(maxcycle=1)
 ----------------------------------------------------------------------
 -----
 title
 -----
 Structure from the checkpoint file:  "acetonitrile.chk"
 Charge =  0 Multiplicity = 1

                         Standard orientation:
 ---------------------------------------------------------------------
 Center     Atomic      Atomic             Coordinates (Angstroms)
 Number     Number       Type             X           Y           Z
 ---------------------------------------------------------------------
      1          6           0        0.000000    0.280675    0.000000
      2          6           0        0.000000   -1.174129    0.000000
      3          7           0        0.000000    1.430070    0.000000
      4          1           0       -1.022452   -1.549923    0.000000
      5          1           0        0.511226   -1.549923    0.885470
      6          1           0        0.511226   -1.549923   -0.885470
 ---------------------------------------------------------------------

 SCF Done:  E(RHF) =  -132.556996663     A.U. after    2 cycles

 The electronic state is 1-A'.
 Alpha  occ. eigenvalues --  -15.75757 -11.45557 -11.42118  -1.31618  -1.12024
 Alpha  occ. eigenvalues --   -0.69728  -0.62627  -0.62627  -0.51660  -0.43444
 Alpha  occ. eigenvalues --   -0.43444
 Alpha virt. eigenvalues --    0.02089   0.05821   0.05821   0.08254   0.11730
 Alpha virt. eigenvalues --    0.12494   0.12494   0.13039   0.15125   0.15125
 Alpha virt. eigenvalues --    0.19548   0.19548   0.20905   0.24430   0.25732

 Mulliken charges:
               1
     1  C    2.127762
     2  C   -3.620955
     3  N   -2.307862
     4  H    1.267018
     5  H    1.267018
     6  H    1.267018
 Sum of Mulliken charges =   0.00000

 Dipole moment (field-independent basis, Debye):
    X=             -0.0000    Y=             -3.5876    Z=             -0.0000  Tot=              3.5876

 Test job not archived.
 1\1\GINC-SE253\SP\RHF\Aug-CC-pVDZ\C2H3N1\OHZDE\06-Apr-2025\0\\#t hf au
 g-cc-pvdz iop(5/13=1,5/36=2,99/5=2) pseudo=read geom=check guess=(read
 ,tcheck) scf=(maxcycle=1)\\title\\0,1\C,0,0.,0.,0.280675\C,0,0.,0.,-1.
 174129\N,0,0.,0.,1.43007\H,0,0.,1.022452,-1.549923\H,0,-0.88547,-0.511
 226,-1.549923\H,0,0.88547,-0.511226,-1.549923\\Version=ES64L-G16RevC.0
 1\State=1-A'\HF=-132.5569967\RMSD=1.921e-01\Dipole=0.,0.0000002,-1.411
 456\Quadrupole=0.6504775,0.6504759,-1.3009534,0.,0.,-0.0000008\PG=CS [
 SG(C2H1N1),X(H2)]\\@

 Normal termination of Gaussian 16 at Sun Apr  6 08:08:25 2025.
