 Gaussian 16, Revision C.01,

 ----------------------------------------------------------------------
 #t hf aug-cc-pvdz symm=none int=(grid=ultrafine) guess=(read,tcheck) s
 table=(opt,rrhf)
 ----------------------------------------------------------------------
 -----
 title
 -----
 Symbolic Z-matrix:
 Charge =  0 Multiplicity = 1

 SCF Done:  E(RHF) =  -207.921413437     A.U. after   13 cycles
 Normal termination of Gaussian 16 at Sun Apr  6 08:08:24 2025.
 Gaussian 16:  ES64L-G16RevC.01  3-Jul-2019

 ----------------------------------------------------------------------
 #t hf aug-cc-pvdz iop(5/13=1,5/36=2,99/5=2) pseudo=read geom=check gue
 ss=(read,tcheck) scf=(maxcycle=1)
 ----------------------------------------------------------------------
 -----
 title
 -----
 Structure from the checkpoint file:  "acetaldoxime.chk"
 Charge =  0 Multiplicity = 1

                         Standard orientation:
 ---------------------------------------------------------------------
 Center     Atomic      Atomic             Coordinates (Angstroms)
 Number     Number       Type             X           Y           Z
 ---------------------------------------------------------------------
      1          6           0       -1.285321    1.316376    0.000000
      2          6           0        0.000000    0.560718    0.000000
      3          7           0       -0.003088   -0.706431    0.000000
      4          8           0        1.307613   -1.225774    0.000000
      5          1           0        1.160285   -2.176767    0.000000
      6          1           0       -2.132483    0.633899    0.000000
      7          1           0       -1.349609    1.963012    0.878124
      8          1           0       -1.349609    1.963012   -0.878124
      9          1           0        0.944054    1.105492    0.000000
 ---------------------------------------------------------------------

 SCF Done:  E(RHF) =  -208.861702856     A.U. after    2 cycles

 The electronic state is 1-A'.
 Alpha  occ. eigenvalues --  -21.09143 -15.77538 -11.43211 -11.38018  -1.77642
 Alpha  occ. eigenvalues --   -1.27981  -1.05396  -0.79911  -0.66684  -0.59118
 Alpha  occ. eigenvalues --   -0.59076  -0.52737  -0.50580  -0.49647  -0.35844
 Alpha  occ. eigenvalues --   -0.29563
 Alpha virt. eigenvalues --    0.03788   0.05531   0.06160   0.06244   0.06995
 Alpha virt. eigenvalues --    0.11330   0.11364   0.13593   0.14696   0.15117
 Alpha virt. eigenvalues --    0.17110   0.17156   0.18091   0.18940   0.20738

 Mulliken charges:
               1
     1  C   -3.520725
     2  C    0.361993
     3  N   -0.624000
     4  O   -2.374864
     5  H    0.874098
     6  H    1.236315
     7  H    1.205481
     8  H    1.205481
     9  H    1.636221
 Sum of Mulliken charges =   0.00000

 Dipole moment (field-independent basis, Debye):
    X=              0.2102    Y=              0.6454    Z=              0.0000  Tot=              0.6788

 Test job not archived.
 1\1\GINC-SE276\SP\RHF\Aug-CC-pVDZ\C2H5N1O1\OHZDE\06-Apr-2025\0\\#t hf
 aug-cc-pvdz iop(5/13=1,5/36=2,99/5=2) pseudo=read geom=check guess=(re
 ad,tcheck) scf=(maxcycle=1)\\title\\0,1\C,0,-1.285321,1.316376,0.\C,0,
 0.,0.560718,0.\N,0,-0.003088,-0.706431,0.\O,0,1.307613,-1.225774,0.\H,
 0,1.160285,-2.176767,0.\H,0,-2.132483,0.633899,0.\H,0,-1.349609,1.9630
 12,0.878124\H,0,-1.349609,1.963012,-0.878124\H,0,0.944054,1.105492,0.\
 \Version=ES64L-G16RevC.01\State=1-A'\HF=-208.8617029\RMSD=1.760e-01\Di
 pole=0.0827161,0.2539146,0.\Quadrupole=-0.985788,2.3851986,-1.3994106,

 Normal termination of Gaussian 16 at Sun Apr  6 08:08:26 2025.
