 Gaussian 16, Revision C.01,

 ----------------------------------------------------------------------
 #t hf aug-cc-pvdz symm=none int=(grid=ultrafine) guess=(read,tcheck) s
 table=(opt,rrhf)
 ----------------------------------------------------------------------
 -----
 title
 -----
 Symbolic Z-matrix:
 Charge =  0 Multiplicity = 1

 SCF Done:  E(RHF) =  -208.012593552     A.U. after   13 cycles
 Normal termination of Gaussian 16 at Sun Apr  6 08:08:24 2025.
 Gaussian 16:  ES64L-G16RevC.01  3-Jul-2019

 ----------------------------------------------------------------------
 #t hf aug-cc-pvdz iop(5/13=1,5/36=2,99/5=2) pseudo=read geom=check gue
 ss=(read,tcheck) scf=(maxcycle=1)
 ----------------------------------------------------------------------
 -----
 title
 -----
 Structure from the checkpoint file:  "acetamide.chk"
 Charge =  0 Multiplicity = 1

                         Standard orientation:
 ---------------------------------------------------------------------
 Center     Atomic      Atomic             Coordinates (Angstroms)
 Number     Number       Type             X           Y           Z
 ---------------------------------------------------------------------
      1          6           0       -0.074379    0.144688   -0.000004
      2          6           0        1.359129   -0.348133   -0.000001
      3          7           0       -1.037040   -0.821835    0.000088
      4          8           0       -0.350668    1.329673   -0.000014
      5          1           0        1.862975    0.053388   -0.878184
      6          1           0        1.862897    0.053118    0.878352
      7          1           0        1.450574   -1.433311   -0.000159
      8          1           0       -2.001439   -0.536726   -0.000165
      9          1           0       -0.818879   -1.800341   -0.000316
 ---------------------------------------------------------------------

 SCF Done:  E(RHF) =  -208.952595632     A.U. after    2 cycles

 The electronic state is 1-A.
 Alpha  occ. eigenvalues --  -21.01742 -15.77942 -11.49644 -11.38742  -1.69801
 Alpha  occ. eigenvalues --   -1.34518  -1.09076  -0.80856  -0.71223  -0.62953
 Alpha  occ. eigenvalues --   -0.60683  -0.54310  -0.49018  -0.47717  -0.32019
 Alpha  occ. eigenvalues --   -0.28373
 Alpha virt. eigenvalues --    0.02978   0.04972   0.05473   0.06781   0.07157
 Alpha virt. eigenvalues --    0.10807   0.12582   0.12762   0.14502   0.15353
 Alpha virt. eigenvalues --    0.15557   0.17256   0.17995   0.19019   0.19466

 Mulliken charges:
               1
     1  C    4.503039
     2  C   -3.840388
     3  N   -2.678976
     4  O   -3.143186
     5  H    1.185517
     6  H    1.185505
     7  H    1.372330
     8  H    0.704521
     9  H    0.711637
 Sum of Mulliken charges =   0.00000

 Dipole moment (field-independent basis, Debye):
    X=             -0.0946    Y=             -2.6708    Z=             -0.0008  Tot=              2.6725

 Test job not archived.
 1\1\GINC-SE343\SP\RHF\Aug-CC-pVDZ\C2H5N1O1\OHZDE\06-Apr-2025\0\\#t hf
 aug-cc-pvdz iop(5/13=1,5/36=2,99/5=2) pseudo=read geom=check guess=(re
 ad,tcheck) scf=(maxcycle=1)\\title\\0,1\C,0,-0.074379,0.144688,-0.0000
 04\C,0,1.359129,-0.348132,-0.000001\N,0,-1.03704,-0.821835,0.000088\O,
 0,-0.350669,1.329673,-0.000014\H,0,1.862975,0.053389,-0.878184\H,0,1.8
 62897,0.053119,0.878352\H,0,1.450574,-1.43331,-0.000159\H,0,-2.001439,
 -0.536727,-0.000165\H,0,-0.818878,-1.800341,-0.000316\\Version=ES64L-G
 16RevC.01\State=1-A\HF=-208.9525956\RMSD=1.695e-01\Dipole=-0.0372089,-

 Normal termination of Gaussian 16 at Sun Apr  6 08:08:26 2025.
