 Gaussian 16, Revision C.01,

 ----------------------------------------------------------------------
 #t hf aug-cc-pvdz symm=none int=(grid=ultrafine) guess=(read,tcheck) s
 table=(opt,rrhf)
 ----------------------------------------------------------------------
 -----
 title
 -----
 Symbolic Z-matrix:
 Charge =  0 Multiplicity = 1

 SCF Done:  E(RHF) =  -382.520362625     A.U. after   15 cycles
 Normal termination of Gaussian 16 at Sun Apr  6 08:11:09 2025.
 Gaussian 16:  ES64L-G16RevC.01  3-Jul-2019

 ----------------------------------------------------------------------
 #t hf aug-cc-pvdz iop(5/13=1,5/36=2,99/5=2) pseudo=read geom=check gue
 ss=(read,tcheck) scf=(maxcycle=1)
 ----------------------------------------------------------------------
 -----
 title
 -----
 Structure from the checkpoint file:  "acetophenone.chk"
 Charge =  0 Multiplicity = 1

                         Standard orientation:
 ---------------------------------------------------------------------
 Center     Atomic      Atomic             Coordinates (Angstroms)
 Number     Number       Type             X           Y           Z
 ---------------------------------------------------------------------
      1          6           0        0.597275   -2.517032    0.000000
      2          6           0       -0.727050   -2.095954    0.000000
      3          6           0        1.625448   -1.577546    0.000000
      4          6           0       -1.024386   -0.738517    0.000000
      5          6           0        1.328876   -0.224101    0.000000
      6          6           0        0.000000    0.211798    0.000000
      7          6           0       -0.267977    1.685966    0.000000
      8          6           0       -1.703332    2.168927    0.000000
      9          8           0        0.649583    2.482840    0.000000
     10          1           0        0.828859   -3.573768    0.000000
     11          1           0       -1.527757   -2.822995    0.000000
     12          1           0        2.656503   -1.904436    0.000000
     13          1           0       -2.058803   -0.426121    0.000000
     14          1           0        2.113187    0.519224    0.000000
     15          1           0       -2.237541    1.804545    0.879154
     16          1           0       -2.237541    1.804545   -0.879154
     17          1           0       -1.706693    3.255036    0.000000
 ---------------------------------------------------------------------

 SCF Done:  E(RHF) =  -384.304406309     A.U. after    2 cycles

 The electronic state is 1-A'.
 Alpha  occ. eigenvalues --  -21.04559 -11.52861 -11.50090 -11.44458 -11.43558
 Alpha  occ. eigenvalues --  -11.41955 -11.41546 -11.39622 -11.37309  -1.70633
 Alpha  occ. eigenvalues --   -1.35354  -1.14816  -1.10400  -1.07407  -0.90387
 Alpha  occ. eigenvalues --   -0.87250  -0.77695  -0.71549  -0.64727  -0.61941
 Alpha  occ. eigenvalues --   -0.59942  -0.59783  -0.58852  -0.53439  -0.51959
 Alpha  occ. eigenvalues --   -0.50177  -0.45697  -0.44415  -0.43395  -0.34054
 Alpha  occ. eigenvalues --   -0.32398  -0.28390
 Alpha virt. eigenvalues --    0.03005   0.04684   0.04990   0.05750   0.06242
 Alpha virt. eigenvalues --    0.06677   0.07415   0.08339   0.08516   0.09126
 Alpha virt. eigenvalues --    0.11091   0.11252   0.13036   0.13168   0.13302

 Mulliken charges:
               1
     1  C   -3.372015
     2  C   -2.093580
     3  C   -1.454648
     4  C    0.914882
     5  C   -3.394876
     6  C    3.217796
     7  C    3.551458
     8  C   -5.295216
     9  O   -3.838175
    10  H    1.520358
    11  H    1.491251
    12  H    1.470551
    13  H    1.851439
    14  H    1.796116
    15  H    1.256473
    16  H    1.256473
    17  H    1.121713
 Sum of Mulliken charges =  -0.00000

 Dipole moment (field-independent basis, Debye):
    X=             -0.7432    Y=             -1.4177    Z=             -0.0000  Tot=              1.6007

 Test job not archived.
 1\1\GINC-SE023\SP\RHF\Aug-CC-pVDZ\C8H8O1\OHZDE\06-Apr-2025\0\\#t hf au
 g-cc-pvdz iop(5/13=1,5/36=2,99/5=2) pseudo=read geom=check guess=(read
 ,tcheck) scf=(maxcycle=1)\\title\\0,1\C,0,0.597274,-2.517032,0.\C,0,-0
 .727051,-2.095954,0.\C,0,1.625447,-1.577546,0.\C,0,-1.024386,-0.738517
 ,0.\C,0,1.328876,-0.224101,0.\C,0,0.,0.211798,0.\C,0,-0.267977,1.68596
 6,0.\C,0,-1.703331,2.168928,0.\O,0,0.649584,2.48284,0.\H,0,0.828858,-3
 .573768,0.\H,0,-1.527758,-2.822994,0.\H,0,2.656502,-1.904437,0.\H,0,-2
 .058803,-0.42612,0.\H,0,2.113187,0.519223,0.\H,0,-2.237541,1.804546,0.

 Normal termination of Gaussian 16 at Sun Apr  6 08:11:18 2025.
