 Gaussian 16, Revision C.01,

 ----------------------------------------------------------------------
 #t hf aug-cc-pvdz symm=none int=(grid=ultrafine) guess=(read,tcheck) s
 table=(opt,rrhf)
 ----------------------------------------------------------------------
 -----
 title
 -----
 Symbolic Z-matrix:
 Charge =  0 Multiplicity = 1

 SCF Done:  E(RHF) =  -611.878206649     A.U. after   13 cycles
 Normal termination of Gaussian 16 at Sun Apr  6 08:10:48 2025.
 Gaussian 16:  ES64L-G16RevC.01  3-Jul-2019

 ----------------------------------------------------------------------
 #t hf aug-cc-pvdz iop(5/13=1,5/36=2,99/5=2) pseudo=read geom=check gue
 ss=(read,tcheck) scf=(maxcycle=1)
 ----------------------------------------------------------------------
 -----
 title
 -----
 Structure from the checkpoint file:  "acetyl_chloride.chk"
 Charge =  0 Multiplicity = 1

                         Standard orientation:
 ---------------------------------------------------------------------
 Center     Atomic      Atomic             Coordinates (Angstroms)
 Number     Number       Type             X           Y           Z
 ---------------------------------------------------------------------
      1          6           0        0.000000    0.543632    0.000000
      2          6           0        1.484355    0.734756    0.000000
      3          8           0       -0.843840    1.368109    0.000000
      4         17           0       -0.452456   -1.230552    0.000000
      5          1           0        1.710473    1.798078    0.000000
      6          1           0        1.912935    0.253054    0.877971
      7          1           0        1.912935    0.253054   -0.877971
 ---------------------------------------------------------------------

 SCF Done:  E(RHF) =  -612.797626071     A.U. after    2 cycles

 The electronic state is 1-A'.
 Alpha  occ. eigenvalues --  -99.89776 -21.10645 -11.55535 -11.42013 -10.47083
 Alpha  occ. eigenvalues --   -9.66905  -9.66229  -9.66143  -1.76589  -1.32065
 Alpha  occ. eigenvalues --   -1.13488  -0.81542  -0.67468  -0.64117  -0.61788
 Alpha  occ. eigenvalues --   -0.54641  -0.54505  -0.50310  -0.44969  -0.35137
 Alpha virt. eigenvalues --    0.02780   0.05760   0.06055   0.08327   0.08611
 Alpha virt. eigenvalues --    0.11694   0.12305   0.12517   0.12840   0.13428
 Alpha virt. eigenvalues --    0.14837   0.14936   0.18178   0.18358   0.18812

 Mulliken charges:
               1
     1  C    1.881194
     2  C   -3.187692
     3  O   -2.514811
     4  Cl  -0.060978
     5  H    1.248945
     6  H    1.316671
     7  H    1.316671
 Sum of Mulliken charges =  -0.00000

 Dipole moment (field-independent basis, Debye):
    X=              1.7654    Y=              2.2228    Z=              0.0000  Tot=              2.8386

 Test job not archived.
 1\1\GINC-SE038\SP\RHF\Aug-CC-pVDZ\C2H3Cl1O1\OHZDE\06-Apr-2025\0\\#t hf
  aug-cc-pvdz iop(5/13=1,5/36=2,99/5=2) pseudo=read geom=check guess=(r
 ead,tcheck) scf=(maxcycle=1)\\title\\0,1\C,0,0.,0.543632,0.\C,0,1.4843
 55,0.734756,0.\O,0,-0.84384,1.368109,0.\Cl,0,-0.452456,-1.230552,0.\H,
 0,1.710473,1.798078,0.\H,0,1.912935,0.253054,0.877971\H,0,1.912935,0.2
 53054,-0.877971\\Version=ES64L-G16RevC.01\State=1-A'\HF=-612.7976261\R
 MSD=1.376e-01\Dipole=0.6945666,0.874516,0.\Quadrupole=0.6078747,-0.601
 9812,-0.0058934,0.7174737,0.,0.\PG=CS [SG(C2H1Cl1O1),X(H2)]\\@

 Normal termination of Gaussian 16 at Sun Apr  6 08:10:51 2025.
