 Gaussian 16, Revision C.01,

 ----------------------------------------------------------------------
 #t hf aug-cc-pvdz symm=none int=(grid=ultrafine) guess=(read,tcheck) s
 table=(opt,rrhf)
 ----------------------------------------------------------------------
 -----
 title
 -----
 Symbolic Z-matrix:
 Charge =  0 Multiplicity = 1

 SCF Done:  E(RHF) =  -188.154762373     A.U. after   13 cycles
 Normal termination of Gaussian 16 at Sun Apr  6 08:08:25 2025.
 Gaussian 16:  ES64L-G16RevC.01  3-Jul-2019

 ----------------------------------------------------------------------
 #t hf aug-cc-pvdz iop(5/13=1,5/36=2,99/5=2) pseudo=read geom=check gue
 ss=(read,tcheck) scf=(maxcycle=1)
 ----------------------------------------------------------------------
 -----
 title
 -----
 Structure from the checkpoint file:  "acetamidine.chk"
 Charge =  0 Multiplicity = 1

                         Standard orientation:
 ---------------------------------------------------------------------
 Center     Atomic      Atomic             Coordinates (Angstroms)
 Number     Number       Type             X           Y           Z
 ---------------------------------------------------------------------
      1          6           0       -0.078977    0.122141    0.000466
      2          6           0        1.411558   -0.089218    0.001120
      3          7           0       -0.551943    1.306982    0.008721
      4          7           0       -0.819018   -1.045939   -0.060148
      5          1           0        1.910930    0.874019    0.006173
      6          1           0        1.722529   -0.656815    0.881242
      7          1           0        1.720668   -0.651511   -0.881909
      8          1           0       -1.571786    1.312846    0.003132
      9          1           0       -1.803736   -0.993261    0.139354
     10          1           0       -0.377363   -1.910115    0.202483
 ---------------------------------------------------------------------

 SCF Done:  E(RHF) =  -189.056164085     A.U. after    2 cycles

 The electronic state is 1-A.
 Alpha  occ. eigenvalues --  -15.76796 -15.70257 -11.46270 -11.37337  -1.42849
 Alpha  occ. eigenvalues --   -1.22716  -1.06956  -0.79838  -0.69138  -0.66764
 Alpha  occ. eigenvalues --   -0.59607  -0.53405  -0.50434  -0.47534  -0.37582
 Alpha  occ. eigenvalues --   -0.32623
 Alpha virt. eigenvalues --    0.03136   0.05144   0.05594   0.06381   0.07156
 Alpha virt. eigenvalues --    0.07688   0.11028   0.12796   0.13798   0.14789
 Alpha virt. eigenvalues --    0.16165   0.16310   0.16599   0.18380   0.18867

 Mulliken charges:
               1
     1  C    3.794390
     2  C   -3.323277
     3  N   -3.209491
     4  N   -2.934888
     5  H    1.223177
     6  H    1.182284
     7  H    1.194387
     8  H    0.703245
     9  H    0.629964
    10  H    0.740209
 Sum of Mulliken charges =   0.00000

 Dipole moment (field-independent basis, Debye):
    X=             -0.4705    Y=             -2.9933    Z=              0.5433  Tot=              3.0784

 Test job not archived.
 1\1\GINC-SE398\SP\RHF\Aug-CC-pVDZ\C2H6N2\OHZDE\06-Apr-2025\0\\#t hf au
 g-cc-pvdz iop(5/13=1,5/36=2,99/5=2) pseudo=read geom=check guess=(read
 ,tcheck) scf=(maxcycle=1)\\title\\0,1\C,0,-0.078977,0.122141,0.000466\
 C,0,1.411558,-0.08922,0.00112\N,0,-0.551941,1.306983,0.008721\N,0,-0.8
 1902,-1.045938,-0.060148\H,0,1.910931,0.874016,0.006173\H,0,1.722528,-
 0.656817,0.881242\H,0,1.720667,-0.651513,-0.881909\H,0,-1.571784,1.312
 848,0.003132\H,0,-1.803738,-0.993258,0.139354\H,0,-0.377366,-1.910114,
 0.202483\\Version=ES64L-G16RevC.01\State=1-A\HF=-189.0561641\RMSD=2.01

 Normal termination of Gaussian 16 at Sun Apr  6 08:08:27 2025.
