 Gaussian 16, Revision C.01,

 ----------------------------------------------------------------------
 #t hf aug-cc-pvdz symm=none int=(grid=ultrafine) guess=(read,tcheck) s
 table=(opt,rrhf)
 ----------------------------------------------------------------------
 -----
 title
 -----
 Symbolic Z-matrix:
 Charge =  0 Multiplicity = 1

 SCF Done:  E(RHF) =  -191.988840535     A.U. after   13 cycles
 Normal termination of Gaussian 16 at Sun Apr  6 08:08:25 2025.
 Gaussian 16:  ES64L-G16RevC.01  3-Jul-2019

 ----------------------------------------------------------------------
 #t hf aug-cc-pvdz iop(5/13=1,5/36=2,99/5=2) pseudo=read geom=check gue
 ss=(read,tcheck) scf=(maxcycle=1)
 ----------------------------------------------------------------------
 -----
 title
 -----
 Structure from the checkpoint file:  "acetone.chk"
 Charge =  0 Multiplicity = 1

                         Standard orientation:
 ---------------------------------------------------------------------
 Center     Atomic      Atomic             Coordinates (Angstroms)
 Number     Number       Type             X           Y           Z
 ---------------------------------------------------------------------
      1          6           0        0.000000    0.184262   -0.000004
      2          6           0        1.287739   -0.611432   -0.001319
      3          6           0       -1.287736   -0.611435    0.001318
      4          8           0       -0.000003    1.394523    0.000000
      5          1           0        1.360865   -1.200217    0.916077
      6          1           0        1.300040   -1.319506   -0.832407
      7          1           0        2.141095    0.057451   -0.072065
      8          1           0       -2.141098    0.057436    0.072061
      9          1           0       -1.300032   -1.319486    0.832420
     10          1           0       -1.360868   -1.200234   -0.916065
 ---------------------------------------------------------------------

 SCF Done:  E(RHF) =  -192.882502269     A.U. after    2 cycles

 The electronic state is 1-A.
 Alpha  occ. eigenvalues --  -21.04752 -11.48219 -11.39198 -11.37886  -1.70304
 Alpha  occ. eigenvalues --   -1.15669  -1.03798  -0.75024  -0.61962  -0.61798
 Alpha  occ. eigenvalues --   -0.60208  -0.55563  -0.51304  -0.47351  -0.40747
 Alpha  occ. eigenvalues --   -0.28178
 Alpha virt. eigenvalues --    0.02884   0.05490   0.05675   0.06052   0.06907
 Alpha virt. eigenvalues --    0.07032   0.10099   0.12093   0.13742   0.13827
 Alpha virt. eigenvalues --    0.14901   0.15849   0.16293   0.17115   0.17223

 Mulliken charges:
               1
     1  C    3.370070
     2  C   -3.948540
     3  C   -3.948531
     4  O   -3.131562
     5  H    1.258992
     6  H    1.294413
     7  H    1.275873
     8  H    1.275874
     9  H    1.294412
    10  H    1.259000
 Sum of Mulliken charges =  -0.00000

 Dipole moment (field-independent basis, Debye):
    X=             -0.0000    Y=             -1.5485    Z=              0.0000  Tot=              1.5485

 Test job not archived.
 1\1\GINC-SE422\SP\RHF\Aug-CC-pVDZ\C3H6O1\OHZDE\06-Apr-2025\0\\#t hf au
 g-cc-pvdz iop(5/13=1,5/36=2,99/5=2) pseudo=read geom=check guess=(read
 ,tcheck) scf=(maxcycle=1)\\title\\0,1\C,0,0.,0.184262,-0.000004\C,0,1.
 287739,-0.611432,-0.001319\C,0,-1.287736,-0.611435,0.001318\O,0,-0.000
 003,1.394523,0.\H,0,1.360865,-1.200218,0.916077\H,0,1.30004,-1.319506,
 -0.832407\H,0,2.141095,0.05745,-0.072065\H,0,-2.141098,0.057436,0.0720
 61\H,0,-1.300032,-1.319486,0.83242\H,0,-1.360868,-1.200234,-0.916065\\
 Version=ES64L-G16RevC.01\State=1-A\HF=-192.8825023\RMSD=1.871e-01\Dipo

 Normal termination of Gaussian 16 at Sun Apr  6 08:08:28 2025.
