 Gaussian 16, Revision C.01,

 ----------------------------------------------------------------------
 #t hf aug-cc-pvdz symm=none int=(grid=ultrafine) guess=(read,tcheck) s
 table=(opt,rrhf)
 ----------------------------------------------------------------------
 -----
 title
 -----
 Symbolic Z-matrix:
 Charge =  0 Multiplicity = 1

 SCF Done:  E(RHF) =  -190.790135202     A.U. after   13 cycles
 Normal termination of Gaussian 16 at Sun Apr  6 08:10:10 2025.
 Gaussian 16:  ES64L-G16RevC.01  3-Jul-2019

 ----------------------------------------------------------------------
 #t hf aug-cc-pvdz iop(5/13=1,5/36=2,99/5=2) pseudo=read geom=check gue
 ss=(read,tcheck) scf=(maxcycle=1)
 ----------------------------------------------------------------------
 -----
 title
 -----
 Structure from the checkpoint file:  "acrolein.chk"
 Charge =  0 Multiplicity = 1

                         Standard orientation:
 ---------------------------------------------------------------------
 Center     Atomic      Atomic             Coordinates (Angstroms)
 Number     Number       Type             X           Y           Z
 ---------------------------------------------------------------------
      1          6           0       -0.146975   -0.745307    0.000000
      2          6           0       -0.000000    0.717816   -0.000000
      3          6           0        1.203301    1.287661    0.000000
      4          8           0       -1.208534   -1.324424   -0.000000
      5          1           0        0.808295   -1.308935    0.000000
      6          1           0       -0.915368    1.296860   -0.000000
      7          1           0        1.332889    2.360924    0.000000
      8          1           0        2.104499    0.685522    0.000000
 ---------------------------------------------------------------------

 SCF Done:  E(RHF) =  -191.641516797     A.U. after    2 cycles

 The electronic state is 1-A'.
 Alpha  occ. eigenvalues --  -21.06323 -11.48536 -11.44090 -11.40280  -1.70778
 Alpha  occ. eigenvalues --   -1.19945  -0.92309  -0.80949  -0.65062  -0.63055
 Alpha  occ. eigenvalues --   -0.53980  -0.50177  -0.49130  -0.35857  -0.29842
 Alpha virt. eigenvalues --    0.03146   0.05190   0.05492   0.06665   0.08570
 Alpha virt. eigenvalues --    0.10966   0.11206   0.11957   0.14205   0.14240
 Alpha virt. eigenvalues --    0.15372   0.15431   0.16272   0.17175   0.18894

 Mulliken charges:
               1
     1  C    0.799813
     2  C   -0.632707
     3  C   -2.868257
     4  O   -2.752195
     5  H    1.336637
     6  H    1.323050
     7  H    1.329947
     8  H    1.463712
 Sum of Mulliken charges =  -0.00000

 Dipole moment (field-independent basis, Debye):
    X=              1.3512    Y=              1.3275    Z=              0.0000  Tot=              1.8942

 Test job not archived.
 1\1\GINC-SE165\SP\RHF\Aug-CC-pVDZ\C3H4O1\OHZDE\06-Apr-2025\0\\#t hf au
 g-cc-pvdz iop(5/13=1,5/36=2,99/5=2) pseudo=read geom=check guess=(read
 ,tcheck) scf=(maxcycle=1)\\title\\0,1\C,0,-0.146975,-0.745307,0.\C,0,0
 .,0.717816,0.\C,0,1.203301,1.287661,0.\O,0,-1.208534,-1.324424,0.\H,0,
 0.808295,-1.308935,0.\H,0,-0.915368,1.29686,0.\H,0,1.332889,2.360924,0
 .\H,0,2.104499,0.685522,0.\\Version=ES64L-G16RevC.01\State=1-A'\HF=-19
 1.6415168\RMSD=4.316e-01\Dipole=0.5316112,0.5222835,0.\Quadrupole=0.41
 48202,0.4086208,-0.8234409,-0.8303161,0.,0.\PG=CS [SG(C3H4O1)]\\@

 Normal termination of Gaussian 16 at Sun Apr  6 08:10:47 2025.
