 Gaussian 16, Revision C.01,

 ----------------------------------------------------------------------
 #t hf aug-cc-pvdz symm=none int=(grid=ultrafine) guess=(read,tcheck) s
 table=(opt,rrhf)
 ----------------------------------------------------------------------
 -----
 title
 -----
 Symbolic Z-matrix:
 Charge =  0 Multiplicity = 1

 SCF Done:  E(RHF) =  -245.861059887     A.U. after   14 cycles
 Normal termination of Gaussian 16 at Sun Apr  6 08:10:54 2025.
 Gaussian 16:  ES64L-G16RevC.01  3-Jul-2019

 ----------------------------------------------------------------------
 #t hf aug-cc-pvdz iop(5/13=1,5/36=2,99/5=2) pseudo=read geom=check gue
 ss=(read,tcheck) scf=(maxcycle=1)
 ----------------------------------------------------------------------
 -----
 title
 -----
 Structure from the checkpoint file:  "acrylamide.chk"
 Charge =  0 Multiplicity = 1

                         Standard orientation:
 ---------------------------------------------------------------------
 Center     Atomic      Atomic             Coordinates (Angstroms)
 Number     Number       Type             X           Y           Z
 ---------------------------------------------------------------------
      1          6           0       -0.802490   -0.641917   -0.000049
      2          6           0        0.476208    0.129519   -0.000019
      3          7           0        1.603597   -0.640957   -0.000091
      4          8           0        0.524695    1.347317   -0.000004
      5          6           0       -1.976832   -0.024715    0.000041
      6          1           0       -0.744777   -1.724573   -0.000141
      7          1           0        2.497946   -0.182204    0.000312
      8          1           0        1.570738   -1.643448    0.000506
      9          1           0       -2.020997    1.056447    0.000120
     10          1           0       -2.906961   -0.575387    0.000032
 ---------------------------------------------------------------------

 SCF Done:  E(RHF) =  -246.967064732     A.U. after    2 cycles

 The electronic state is 1-A.
 Alpha  occ. eigenvalues --  -21.01756 -15.77990 -11.50435 -11.42868 -11.39000
 Alpha  occ. eigenvalues --   -1.69927  -1.34804  -1.16651  -0.91548  -0.77125
 Alpha  occ. eigenvalues --   -0.71165  -0.68016  -0.55742  -0.54846  -0.54682
 Alpha  occ. eigenvalues --   -0.47118  -0.37703  -0.31473  -0.28825
 Alpha virt. eigenvalues --    0.03192   0.04629   0.05235   0.06933   0.07314
 Alpha virt. eigenvalues --    0.08960   0.11557   0.12818   0.13128   0.14054
 Alpha virt. eigenvalues --    0.14256   0.14457   0.15505   0.16727   0.17381

 Mulliken charges:
               1
     1  C   -1.147491
     2  C    4.193543
     3  N   -3.151375
     4  O   -3.364739
     5  C   -2.378322
     6  H    1.469540
     7  H    0.788312
     8  H    0.768859
     9  H    1.442906
    10  H    1.378766
 Sum of Mulliken charges =  -0.00000

 Dipole moment (field-independent basis, Debye):
    X=              0.1512    Y=             -2.3212    Z=              0.0013  Tot=              2.3261

 Test job not archived.
 1\1\GINC-SE212\SP\RHF\Aug-CC-pVDZ\C3H5N1O1\OHZDE\06-Apr-2025\0\\#t hf
 aug-cc-pvdz iop(5/13=1,5/36=2,99/5=2) pseudo=read geom=check guess=(re
 ad,tcheck) scf=(maxcycle=1)\\title\\0,1\C,0,-0.80249,-0.641917,-0.0000
 49\C,0,0.476208,0.129519,-0.000019\N,0,1.603597,-0.640957,-0.000091\O,
 0,0.524695,1.347317,-0.000004\C,0,-1.976832,-0.024715,0.000041\H,0,-0.
 744777,-1.724573,-0.000141\H,0,2.497946,-0.182204,0.000312\H,0,1.57073
 8,-1.643448,0.000506\H,0,-2.020997,1.056447,0.00012\H,0,-2.906961,-0.5
 75387,0.000032\\Version=ES64L-G16RevC.01\State=1-A\HF=-246.9670647\RMS

 Normal termination of Gaussian 16 at Sun Apr  6 08:11:00 2025.
