 Gaussian 16, Revision C.01,

 ----------------------------------------------------------------------
 #t hf aug-cc-pvdz symm=none int=(grid=ultrafine) guess=(read,tcheck) s
 table=(opt,rrhf)
 ----------------------------------------------------------------------
 -----
 title
 -----
 Symbolic Z-matrix:
 Charge =  0 Multiplicity = 1

 SCF Done:  E(RHF) =  -265.697307115     A.U. after   14 cycles
 Normal termination of Gaussian 16 at Sun Apr  6 08:10:50 2025.
 Gaussian 16:  ES64L-G16RevC.01  3-Jul-2019

 ----------------------------------------------------------------------
 #t hf aug-cc-pvdz iop(5/13=1,5/36=2,99/5=2) pseudo=read geom=check gue
 ss=(read,tcheck) scf=(maxcycle=1)
 ----------------------------------------------------------------------
 -----
 title
 -----
 Structure from the checkpoint file:  "acrylic_acid.chk"
 Charge =  0 Multiplicity = 1

                         Standard orientation:
 ---------------------------------------------------------------------
 Center     Atomic      Atomic             Coordinates (Angstroms)
 Number     Number       Type             X           Y           Z
 ---------------------------------------------------------------------
      1          6           0        0.434679   -1.920126    0.000000
      2          6           0       -0.444755   -0.925478    0.000000
      3          6           0        0.000000    0.486809    0.000000
      4          8           0        1.141969    0.875860    0.000000
      5          8           0       -1.059533    1.335003    0.000000
      6          1           0        1.497057   -1.715390    0.000000
      7          1           0        0.116438   -2.953067    0.000000
      8          1           0       -1.511645   -1.100215    0.000000
      9          1           0       -0.700884    2.234531    0.000000
 ---------------------------------------------------------------------

 SCF Done:  E(RHF) =  -266.839981147     A.U. after    2 cycles

 The electronic state is 1-A'.
 Alpha  occ. eigenvalues --  -21.12407 -21.05160 -11.52896 -11.43857 -11.40118
 Alpha  occ. eigenvalues --   -1.82786  -1.65265  -1.18712  -0.93255  -0.76060
 Alpha  occ. eigenvalues --   -0.68946  -0.61831  -0.56475  -0.56014  -0.54387
 Alpha  occ. eigenvalues --   -0.45913  -0.38387  -0.33323  -0.30167
 Alpha virt. eigenvalues --    0.03419   0.05399   0.05721   0.06604   0.08250
 Alpha virt. eigenvalues --    0.11255   0.12240   0.12412   0.13136   0.14238
 Alpha virt. eigenvalues --    0.14403   0.16199   0.16430   0.16606   0.19655

 Mulliken charges:
               1
     1  C   -2.470664
     2  C   -1.594707
     3  C    5.072723
     4  O   -3.180018
     5  O   -3.213909
     6  H    1.468102
     7  H    1.376679
     8  H    1.448611
     9  H    1.093182
 Sum of Mulliken charges =   0.00000

 Dipole moment (field-independent basis, Debye):
    X=             -0.9090    Y=             -0.7856    Z=              0.0000  Tot=              1.2015

 Test job not archived.
 1\1\GINC-SE222\SP\RHF\Aug-CC-pVDZ\C3H4O2\OHZDE\06-Apr-2025\0\\#t hf au
 g-cc-pvdz iop(5/13=1,5/36=2,99/5=2) pseudo=read geom=check guess=(read
 ,tcheck) scf=(maxcycle=1)\\title\\0,1\C,0,0.434679,-1.920126,0.\C,0,-0
 .444755,-0.925478,0.\C,0,0.,0.486809,0.\O,0,1.141969,0.87586,0.\O,0,-1
 .059533,1.335003,0.\H,0,1.497057,-1.71539,0.\H,0,0.116437,-2.953067,0.
 \H,0,-1.511645,-1.100215,0.\H,0,-0.700884,2.234531,0.\\Version=ES64L-G
 16RevC.01\State=1-A'\HF=-266.8399811\RMSD=4.332e-01\Dipole=-0.3576349,
 -0.3090815,0.\Quadrupole=-1.8995356,3.7675374,-1.8680018,-1.5183051,0.

 Normal termination of Gaussian 16 at Sun Apr  6 08:10:54 2025.
