 Gaussian 16, Revision C.01,

 ----------------------------------------------------------------------
 #t hf aug-cc-pvdz symm=none int=(grid=ultrafine) guess=(read,tcheck) s
 table=(opt,rrhf)
 ----------------------------------------------------------------------
 -----
 title
 -----
 Symbolic Z-matrix:
 Charge =  0 Multiplicity = 1

 SCF Done:  E(RHF) =  -169.788507401     A.U. after   14 cycles
 Normal termination of Gaussian 16 at Sun Apr  6 08:10:49 2025.
 Gaussian 16:  ES64L-G16RevC.01  3-Jul-2019

 ----------------------------------------------------------------------
 #t hf aug-cc-pvdz iop(5/13=1,5/36=2,99/5=2) pseudo=read geom=check gue
 ss=(read,tcheck) scf=(maxcycle=1)
 ----------------------------------------------------------------------
 -----
 title
 -----
 Structure from the checkpoint file:  "acrylonitrile.chk"
 Charge =  0 Multiplicity = 1

                         Standard orientation:
 ---------------------------------------------------------------------
 Center     Atomic      Atomic             Coordinates (Angstroms)
 Number     Number       Type             X           Y           Z
 ---------------------------------------------------------------------
      1          6           0       -0.574872   -0.536672   -0.000000
      2          7           0       -1.065007   -1.579735   -0.000000
      3          6           0        0.000000    0.768522   -0.000000
      4          1           0       -0.704356    1.590862   -0.000000
      5          6           0        1.313391    0.985354    0.000000
      6          1           0        2.024361    0.171397    0.000000
      7          1           0        1.703931    1.992659    0.000000
 ---------------------------------------------------------------------

 SCF Done:  E(RHF) =  -170.567495267     A.U. after    2 cycles

 The electronic state is 1-A'.
 Alpha  occ. eigenvalues --  -15.76499 -11.47276 -11.44075 -11.42489  -1.32749
 Alpha  occ. eigenvalues --   -1.18941  -0.91904  -0.73168  -0.64032  -0.57593
 Alpha  occ. eigenvalues --   -0.51425  -0.50749  -0.44364  -0.37162
 Alpha virt. eigenvalues --    0.02580   0.05033   0.05711   0.07367   0.10067
 Alpha virt. eigenvalues --    0.10573   0.12750   0.12824   0.13153   0.13870
 Alpha virt. eigenvalues --    0.14577   0.16036   0.16252   0.18355   0.19499

 Mulliken charges:
               1
     1  C    1.328112
     2  N   -2.206491
     3  C   -0.481283
     4  H    1.423804
     5  C   -2.909794
     6  H    1.476439
     7  H    1.369213
 Sum of Mulliken charges =   0.00000

 Dipole moment (field-independent basis, Debye):
    X=              1.8960    Y=              3.1249    Z=              0.0000  Tot=              3.6551

 Test job not archived.
 1\1\GINC-SE223\SP\RHF\Aug-CC-pVDZ\C3H3N1\OHZDE\06-Apr-2025\0\\#t hf au
 g-cc-pvdz iop(5/13=1,5/36=2,99/5=2) pseudo=read geom=check guess=(read
 ,tcheck) scf=(maxcycle=1)\\title\\0,1\C,0,-0.574872,-0.536672,0.\N,0,-
 1.065007,-1.579735,0.\C,0,0.,0.768522,0.\H,0,-0.704356,1.590862,0.\C,0
 ,1.313391,0.985354,0.\H,0,2.024361,0.171397,0.\H,0,1.703931,1.992659,0
 .\\Version=ES64L-G16RevC.01\State=1-A'\HF=-170.5674953\RMSD=3.864e-01\
 Dipole=0.7459335,1.2294214,0.\Quadrupole=1.5509522,-0.8218011,-0.72915
 11,-1.6886558,0.,0.\PG=CS [SG(C3H3N1)]\\@

 Normal termination of Gaussian 16 at Sun Apr  6 08:10:51 2025.
