 Gaussian 16, Revision C.01,

 ----------------------------------------------------------------------
 #t hf aug-cc-pvdz symm=none int=(grid=ultrafine) guess=(read,tcheck) s
 table=(opt,rrhf)
 ----------------------------------------------------------------------
 -----
 title
 -----
 Symbolic Z-matrix:
 Charge =  0 Multiplicity = 1

 SCF Done:  E(RHF) =  -388.065171971     A.U. after   11 cycles
 Normal termination of Gaussian 16 at Sun Apr  6 08:15:15 2025.
 Gaussian 16:  ES64L-G16RevC.01  3-Jul-2019

 ----------------------------------------------------------------------
 #t hf aug-cc-pvdz iop(5/13=1,5/36=2,99/5=2) pseudo=read geom=check gue
 ss=(read,tcheck) scf=(maxcycle=1)
 ----------------------------------------------------------------------
 -----
 title
 -----
 Structure from the checkpoint file:  "adamantane.chk"
 Charge =  0 Multiplicity = 1

                         Standard orientation:
 ---------------------------------------------------------------------
 Center     Atomic      Atomic             Coordinates (Angstroms)
 Number     Number       Type             X           Y           Z
 ---------------------------------------------------------------------
      1          6           0       -0.889735    0.889735    0.889735
      2          6           0        0.000000    0.000000    1.775473
      3          6           0        0.000000    1.775473   -0.000000
      4          6           0        0.889735   -0.889735    0.889735
      5          6           0       -1.775473    0.000000   -0.000000
      6          6           0       -0.889735   -0.889735   -0.889735
      7          6           0       -0.000000   -1.775473    0.000000
      8          6           0        0.889735    0.889735   -0.889735
      9          6           0        0.000000   -0.000000   -1.775473
     10          6           0        1.775473   -0.000000    0.000000
     11          1           0        1.520690   -1.520690    1.520690
     12          1           0       -1.520690   -1.520690   -1.520690
     13          1           0       -1.520690    1.520690    1.520690
     14          1           0        2.427208   -0.621055   -0.621055
     15          1           0        1.520690    1.520690   -1.520690
     16          1           0       -2.427208    0.621055   -0.621055
     17          1           0        0.621055   -0.621055   -2.427208
     18          1           0        2.427208    0.621055    0.621055
     19          1           0        0.621055   -2.427208   -0.621055
     20          1           0        0.621055    2.427208    0.621055
     21          1           0       -0.621055   -2.427208    0.621055
     22          1           0        0.621055    0.621055    2.427208
     23          1           0       -0.621055    0.621055   -2.427208
     24          1           0       -0.621055    2.427208   -0.621055
     25          1           0       -2.427208   -0.621055    0.621055
     26          1           0       -0.621055   -0.621055    2.427208
 ---------------------------------------------------------------------

 SCF Done:  E(RHF) =  -390.048498784     A.U. after    2 cycles

 The electronic state is 1-A1.
 Alpha  occ. eigenvalues --  -11.46567 -11.46567 -11.46567 -11.40461 -11.40461
 Alpha  occ. eigenvalues --  -11.39584 -11.37535 -11.37535 -11.37535 -11.32606
 Alpha  occ. eigenvalues --   -1.40655  -1.14708  -1.14708  -1.14708  -0.97474
 Alpha  occ. eigenvalues --   -0.97474  -0.83337  -0.83337  -0.83337  -0.72743
 Alpha  occ. eigenvalues --   -0.64712  -0.62263  -0.62263  -0.62263  -0.54948
 Alpha  occ. eigenvalues --   -0.54948  -0.54948  -0.54283  -0.54283  -0.54283
 Alpha  occ. eigenvalues --   -0.42296  -0.42296  -0.41705  -0.41705  -0.41705
 Alpha  occ. eigenvalues --   -0.35385  -0.35385  -0.35385
 Alpha virt. eigenvalues --    0.04102   0.04466   0.04466   0.04466   0.04543
 Alpha virt. eigenvalues --    0.04543   0.06912   0.06912   0.06912   0.07829
 Alpha virt. eigenvalues --    0.08318   0.08318   0.08318   0.08597   0.08597

 Mulliken charges:
               1
     1  C    2.274231
     2  C   -4.998227
     3  C   -4.998227
     4  C    2.274231
     5  C   -4.998227
     6  C    2.274231
     7  C   -4.998227
     8  C    2.274231
     9  C   -4.998227
    10  C   -4.998227
    11  H    1.595501
    12  H    1.595501
    13  H    1.595501
    14  H    1.209203
    15  H    1.595501
    16  H    1.209203
    17  H    1.209203
    18  H    1.209203
    19  H    1.209203
    20  H    1.209203
    21  H    1.209203
    22  H    1.209203
    23  H    1.209203
    24  H    1.209203
    25  H    1.209203
    26  H    1.209203
 Sum of Mulliken charges =   0.00000

 Dipole moment (field-independent basis, Debye):
    X=              0.0000    Y=             -0.0000    Z=             -0.0000  Tot=              0.0000

 Test job not archived.
 1\1\GINC-SE046\SP\RHF\Aug-CC-pVDZ\C10H16\OHZDE\06-Apr-2025\0\\#t hf au
 g-cc-pvdz iop(5/13=1,5/36=2,99/5=2) pseudo=read geom=check guess=(read
 ,tcheck) scf=(maxcycle=1)\\title\\0,1\C,0,-0.889735,0.889735,0.889735\
 C,0,0.,0.,1.775473\C,0,0.,1.775473,0.\C,0,0.889735,-0.889735,0.889735\
 C,0,-1.775473,0.,0.\C,0,-0.889735,-0.889735,-0.889735\C,0,0.,-1.775473
 ,0.\C,0,0.889735,0.889735,-0.889735\C,0,0.,0.,-1.775473\C,0,1.775473,0
 .,0.\H,0,1.52069,-1.52069,1.52069\H,0,-1.52069,-1.52069,-1.52069\H,0,-
 1.52069,1.52069,1.52069\H,0,2.427208,-0.621055,-0.621055\H,0,1.52069,1

 Normal termination of Gaussian 16 at Sun Apr  6 08:16:05 2025.
