 Gaussian 16, Revision C.01,

 ----------------------------------------------------------------------
 #t hf aug-cc-pvdz symm=none int=(grid=ultrafine) guess=(read,tcheck) s
 table=(opt,rrhf)
 ----------------------------------------------------------------------
 -----
 title
 -----
 Symbolic Z-matrix:
 Charge =  0 Multiplicity = 1

 SCF Done:  E(RHF) =  -321.912949170     A.U. after   14 cycles
 Normal termination of Gaussian 16 at Sun Apr  6 08:11:07 2025.
 Gaussian 16:  ES64L-G16RevC.01  3-Jul-2019

 ----------------------------------------------------------------------
 #t hf aug-cc-pvdz iop(5/13=1,5/36=2,99/5=2) pseudo=read geom=check gue
 ss=(read,tcheck) scf=(maxcycle=1)
 ----------------------------------------------------------------------
 -----
 title
 -----
 Structure from the checkpoint file:  "alanine.chk"
 Charge =  0 Multiplicity = 1

                         Standard orientation:
 ---------------------------------------------------------------------
 Center     Atomic      Atomic             Coordinates (Angstroms)
 Number     Number       Type             X           Y           Z
 ---------------------------------------------------------------------
      1          1           0       -2.372022    1.258779   -0.041328
      2          8           0        1.579853    0.982519    0.090040
      3          1           0        1.029092    1.754950    0.261797
      4          6           0        0.826544   -0.141556    0.027243
      5          8           0        1.341664   -1.193160   -0.229770
      6          6           0       -0.660281    0.015379    0.360045
      7          1           0       -0.675584    0.146310    1.454547
      8          6           0       -1.307277    1.254476   -0.272188
      9          1           0       -0.900543    2.193255    0.114105
     10          1           0       -1.199468    1.234270   -1.355735
     11          1           0       -2.167312   -1.374487    0.506707
     12          1           0       -0.734896   -1.985047   -0.035084
     13          7           0       -1.357902   -1.187528   -0.068252
 ---------------------------------------------------------------------

 SCF Done:  E(RHF) =  -323.348881719     A.U. after    2 cycles

 The electronic state is 1-A.
 Alpha  occ. eigenvalues --  -21.12768 -21.05253 -15.73804 -11.53191 -11.45505
 Alpha  occ. eigenvalues --  -11.39420  -1.82962  -1.66045  -1.36073  -1.11653
 Alpha  occ. eigenvalues --   -0.95677  -0.78235  -0.72928  -0.67775  -0.62075
 Alpha  occ. eigenvalues --   -0.58127  -0.55945  -0.53845  -0.50961  -0.48804
 Alpha  occ. eigenvalues --   -0.45073  -0.36580  -0.34080  -0.30276
 Alpha virt. eigenvalues --    0.03098   0.04781   0.05139   0.05356   0.06110
 Alpha virt. eigenvalues --    0.07338   0.08333   0.11058   0.11737   0.12001
 Alpha virt. eigenvalues --    0.13034   0.13890   0.14877   0.15247   0.16687

 Mulliken charges:
               1
     1  H    1.171770
     2  O   -3.180067
     3  H    1.105797
     4  C    5.900397
     5  O   -3.076273
     6  C   -1.470559
     7  H    1.628254
     8  C   -3.191369
     9  H    1.205890
    10  H    1.269407
    11  H    0.484917
    12  H    0.585131
    13  N   -2.433295
 Sum of Mulliken charges =   0.00000

 Dipole moment (field-independent basis, Debye):
    X=             -1.5539    Y=              1.3458    Z=              1.3644  Tot=              2.4673

 Test job not archived.
 1\1\GINC-SE047\SP\RHF\Aug-CC-pVDZ\C3H7N1O2\OHZDE\06-Apr-2025\0\\#t hf
 aug-cc-pvdz iop(5/13=1,5/36=2,99/5=2) pseudo=read geom=check guess=(re
 ad,tcheck) scf=(maxcycle=1)\\title\\0,1\H,0,-2.372022,1.258779,-0.0413
 28\O,0,1.579853,0.982519,0.09004\H,0,1.029092,1.75495,0.261797\C,0,0.8
 26544,-0.141556,0.027243\O,0,1.341664,-1.19316,-0.22977\C,0,-0.660281,
 0.015379,0.360045\H,0,-0.675584,0.14631,1.454547\C,0,-1.307277,1.25447
 6,-0.272188\H,0,-0.900542,2.193255,0.114105\H,0,-1.199468,1.23427,-1.3
 55735\H,0,-2.167312,-1.374487,0.506707\H,0,-0.734896,-1.985047,-0.0350

 Normal termination of Gaussian 16 at Sun Apr  6 08:11:11 2025.
