 Gaussian 16, Revision C.01,

 ----------------------------------------------------------------------
 #t hf aug-cc-pvdz symm=none int=(grid=ultrafine) guess=(read,tcheck) s
 table=(opt,rrhf)
 ----------------------------------------------------------------------
 -----
 title
 -----
 Symbolic Z-matrix:
 Charge =  0 Multiplicity = 1

 SCF Done:  E(RHF) =  -115.876845096     A.U. after   10 cycles
 Normal termination of Gaussian 16 at Sun Apr  6 08:10:07 2025.
 Gaussian 16:  ES64L-G16RevC.01  3-Jul-2019

 ----------------------------------------------------------------------
 #t hf aug-cc-pvdz iop(5/13=1,5/36=2,99/5=2) pseudo=read geom=check gue
 ss=(read,tcheck) scf=(maxcycle=1)
 ----------------------------------------------------------------------
 -----
 title
 -----
 Structure from the checkpoint file:  "allene.chk"
 Charge =  0 Multiplicity = 1

                         Standard orientation:
 ---------------------------------------------------------------------
 Center     Atomic      Atomic             Coordinates (Angstroms)
 Number     Number       Type             X           Y           Z
 ---------------------------------------------------------------------
      1          6           0        0.000000    0.000000    0.000000
      2          6           0        0.000000    0.000000    1.299944
      3          6           0        0.000000    0.000000   -1.299944
      4          1           0        0.000000    0.925401    1.862995
      5          1           0       -0.000000   -0.925401    1.862995
      6          1           0        0.925401   -0.000000   -1.862995
      7          1           0       -0.925401    0.000000   -1.862995
 ---------------------------------------------------------------------

 SCF Done:  E(RHF) =  -116.447232546     A.U. after    2 cycles

 The electronic state is 1-A1.
 Alpha  occ. eigenvalues --  -11.42706 -11.41318 -11.38714  -1.18683  -1.00571
 Alpha  occ. eigenvalues --   -0.72883  -0.60463  -0.60463  -0.58796  -0.35807
 Alpha  occ. eigenvalues --   -0.35807
 Alpha virt. eigenvalues --    0.03004   0.05406   0.06264   0.06264   0.09237
 Alpha virt. eigenvalues --    0.11403   0.11886   0.11886   0.14386   0.15802
 Alpha virt. eigenvalues --    0.16913   0.16913   0.20046   0.20046   0.23077

 Mulliken charges:
               1
     1  C    2.215142
     2  C   -3.574199
     3  C   -3.574199
     4  H    1.233314
     5  H    1.233314
     6  H    1.233314
     7  H    1.233314
 Sum of Mulliken charges =   0.00000

 Dipole moment (field-independent basis, Debye):
    X=              0.0000    Y=             -0.0000    Z=             -0.0000  Tot=              0.0000

 Test job not archived.
 1\1\GINC-SE047\SP\RHF\Aug-CC-pVDZ\C3H4\OHZDE\06-Apr-2025\0\\#t hf aug-
 cc-pvdz iop(5/13=1,5/36=2,99/5=2) pseudo=read geom=check guess=(read,t
 check) scf=(maxcycle=1)\\title\\0,1\C,0,0.,0.,0.\C,0,0.,0.,1.299944\C,
 0,0.,0.,-1.299944\H,0,0.,0.925401,1.862995\H,0,0.,-0.925401,1.862995\H
 ,0,0.925401,0.,-1.862995\H,0,-0.925401,0.,-1.862995\\Version=ES64L-G16
 RevC.01\State=1-A1\HF=-116.4472325\RMSD=6.678e-01\Dipole=0.,0.,0.\Quad
 rupole=-1.0034192,-1.0034192,2.0068383,0.,0.,0.\PG=D02D [O(C1),C2(C1.C
 1),2SGD(H2)]\\@

 Normal termination of Gaussian 16 at Sun Apr  6 08:10:46 2025.
