 Gaussian 16, Revision C.01,

 ----------------------------------------------------------------------
 #t hf aug-cc-pvdz symm=none int=(grid=ultrafine) guess=(read,tcheck) s
 table=(opt,rrhf)
 ----------------------------------------------------------------------
 -----
 title
 -----
 Symbolic Z-matrix:
 Charge =  0 Multiplicity = 1

 SCF Done:  E(RHF) =  -569.545676700     A.U. after   12 cycles

 1\1\GINC-SE084\Stability\RHF\Aug-CC-pVDZ\C5H10O5\OHZDE\06-Apr-2025\0\\
 #t hf aug-cc-pvdz symm=none int=(grid=ultrafine) guess=(read,tcheck) s
 table=(opt,rrhf)\\title\\0,1\C,0,-0.379463,-0.952795,0.667838\C,0,-1.2
 16504,-0.612725,-0.585325\C,0,0.778841,0.063866,0.600579\C,0,-0.988784
 ,0.890637,-0.69343\C,0,2.095188,-0.498544,0.089983\O,0,0.349765,1.1013
 51,-0.325741\O,0,-1.140863,-0.858323,1.860672\O,0,-0.69921,-1.200894,-
 1.77128\O,0,-1.886143,1.504898,0.226296\O,0,3.091379,0.506028,-0.02303
 8\H,0,-0.014736,-1.978871,0.624883\H,0,-2.268903,-0.855465,-0.435326\H

 Normal termination of Gaussian 16 at Sun Apr  6 08:12:30 2025.
 Gaussian 16:  ES64L-G16RevC.01  3-Jul-2019

 ----------------------------------------------------------------------
 #t hf aug-cc-pvdz iop(5/13=1,5/36=2,99/5=2) pseudo=read geom=check gue
 ss=(read,tcheck) scf=(maxcycle=1)
 ----------------------------------------------------------------------
 -----
 title
 -----
 Structure from the checkpoint file:  "alpha-l-arabinofuranose.chk"
 Charge =  0 Multiplicity = 1

                         Standard orientation:
 ---------------------------------------------------------------------
 Center     Atomic      Atomic             Coordinates (Angstroms)
 Number     Number       Type             X           Y           Z
 ---------------------------------------------------------------------
      1          6           0       -0.379463   -0.952795    0.667838
      2          6           0       -1.216504   -0.612725   -0.585325
      3          6           0        0.778841    0.063866    0.600579
      4          6           0       -0.988784    0.890637   -0.693430
      5          6           0        2.095188   -0.498544    0.089983
      6          8           0        0.349765    1.101351   -0.325741
      7          8           0       -1.140863   -0.858323    1.860672
      8          8           0       -0.699210   -1.200894   -1.771280
      9          8           0       -1.886143    1.504898    0.226296
     10          8           0        3.091379    0.506028   -0.023038
     11          1           0       -0.014736   -1.978871    0.624883
     12          1           0       -2.268903   -0.855465   -0.435326
     13          1           0        0.930469    0.517790    1.580985
     14          1           0       -1.123910    1.287185   -1.699521
     15          1           0        1.930774   -0.998818   -0.869860
     16          1           0        2.475020   -1.231156    0.803418
     17          1           0       -1.576805    0.003890    1.866101
     18          1           0       -0.895993   -2.142073   -1.764060
     19          1           0       -1.658150    2.439069    0.286412
     20          1           0        2.747131    1.191335   -0.606172
 ---------------------------------------------------------------------

 SCF Done:  E(RHF) =  -572.005552683     A.U. after    2 cycles

 The electronic state is 1-A.
 Alpha  occ. eigenvalues --  -21.09380 -21.09128 -21.07405 -21.06349 -21.05854
 Alpha  occ. eigenvalues --  -11.52581 -11.51157 -11.46942 -11.44510 -11.39644
 Alpha  occ. eigenvalues --   -1.84442  -1.73163  -1.71788  -1.70469  -1.67425
 Alpha  occ. eigenvalues --   -1.15255  -1.09874  -0.95860  -0.85202  -0.84089
 Alpha  occ. eigenvalues --   -0.74028  -0.70790  -0.67566  -0.61367  -0.60177
 Alpha  occ. eigenvalues --   -0.58586  -0.56012  -0.55138  -0.52669  -0.50135
 Alpha  occ. eigenvalues --   -0.49699  -0.46127  -0.43266  -0.40613  -0.38663
 Alpha  occ. eigenvalues --   -0.35408  -0.34797  -0.32587  -0.29832  -0.28087
 Alpha virt. eigenvalues --    0.03730   0.04253   0.04739   0.05376   0.05425
 Alpha virt. eigenvalues --    0.06206   0.06325   0.07022   0.07437   0.08816
 Alpha virt. eigenvalues --    0.11769   0.12255   0.12613   0.12982   0.14139

 Mulliken charges:
               1
     1  C    2.009334
     2  C   -0.052952
     3  C   -0.528269
     4  C    3.196940
     5  C   -0.669012
     6  O   -3.646255
     7  O   -3.785157
     8  O   -3.242654
     9  O   -3.184298
    10  O   -2.797631
    11  H    1.775170
    12  H    1.825540
    13  H    1.717040
    14  H    1.804279
    15  H    1.347559
    16  H    1.264275
    17  H    0.824367
    18  H    0.644258
    19  H    0.718558
    20  H    0.778908
 Sum of Mulliken charges =   0.00000

 Dipole moment (field-independent basis, Debye):
    X=             -1.0979    Y=             -0.0145    Z=             -0.7647  Tot=              1.3380

 Test job not archived.
 1\1\GINC-SE084\SP\RHF\Aug-CC-pVDZ\C5H10O5\OHZDE\06-Apr-2025\0\\#t hf a
 ug-cc-pvdz iop(5/13=1,5/36=2,99/5=2) pseudo=read geom=check guess=(rea
 d,tcheck) scf=(maxcycle=1)\\title\\0,1\C,0,-0.379463,-0.952795,0.66783
 8\C,0,-1.216504,-0.612725,-0.585325\C,0,0.778841,0.063866,0.600579\C,0
 ,-0.988784,0.890637,-0.69343\C,0,2.095188,-0.498544,0.089983\O,0,0.349
 765,1.101351,-0.325741\O,0,-1.140863,-0.858323,1.860672\O,0,-0.69921,-
 1.200894,-1.77128\O,0,-1.886143,1.504898,0.226296\O,0,3.091379,0.50602
 8,-0.023038\H,0,-0.014736,-1.978871,0.624883\H,0,-2.268903,-0.855465,-

 Normal termination of Gaussian 16 at Sun Apr  6 08:12:41 2025.
