 Gaussian 16, Revision C.01,

 ----------------------------------------------------------------------
 #t hf aug-cc-pvdz symm=none int=(grid=ultrafine) guess=(read,tcheck) s
 table=(opt,rrhf)
 ----------------------------------------------------------------------
 -----
 title
 -----
 Symbolic Z-matrix:
 Charge =  0 Multiplicity = 1

 SCF Done:  E(RHF) =  -206.726900337     A.U. after   13 cycles
 Normal termination of Gaussian 16 at Sun Apr  6 08:10:08 2025.
 Gaussian 16:  ES64L-G16RevC.01  3-Jul-2019

 ----------------------------------------------------------------------
 #t hf aug-cc-pvdz iop(5/13=1,5/36=2,99/5=2) pseudo=read geom=check gue
 ss=(read,tcheck) scf=(maxcycle=1)
 ----------------------------------------------------------------------
 -----
 title
 -----
 Structure from the checkpoint file:  "aminoethynol.chk"
 Charge =  0 Multiplicity = 1

                         Standard orientation:
 ---------------------------------------------------------------------
 Center     Atomic      Atomic             Coordinates (Angstroms)
 Number     Number       Type             X           Y           Z
 ---------------------------------------------------------------------
      1          8           0       -1.938443    0.000039   -0.123358
      2          7           0        1.923699    0.000027    0.086116
      3          6           0        0.571151   -0.000066   -0.003646
      4          6           0       -0.628026   -0.000043    0.028755
      5          1           0        2.378420    0.835039   -0.252203
      6          1           0        2.378550   -0.834876   -0.252294
      7          1           0       -2.374067   -0.000010    0.737900
 ---------------------------------------------------------------------

 SCF Done:  E(RHF) =  -207.636335636     A.U. after    2 cycles

 The electronic state is 1-A.
 Alpha  occ. eigenvalues --  -21.13647 -15.77962 -11.41929 -11.40357  -1.76794
 Alpha  occ. eigenvalues --   -1.35334  -1.02420  -0.74270  -0.68036  -0.65606
 Alpha  occ. eigenvalues --   -0.55851  -0.49790  -0.47210  -0.29897  -0.29452
 Alpha virt. eigenvalues --    0.02955   0.04995   0.06369   0.10770   0.11977
 Alpha virt. eigenvalues --    0.13104   0.13458   0.14219   0.15508   0.17415
 Alpha virt. eigenvalues --    0.18976   0.20458   0.22319   0.23441   0.24502

 Mulliken charges:
               1
     1  O   -3.341689
     2  N   -3.094672
     3  C    0.909785
     4  C    3.405050
     5  H    0.639604
     6  H    0.639705
     7  H    0.842217
 Sum of Mulliken charges =  -0.00000

 Dipole moment (field-independent basis, Debye):
    X=              0.5675    Y=              0.0002    Z=             -0.1159  Tot=              0.5792

 Test job not archived.
 1\1\GINC-SE085\SP\RHF\Aug-CC-pVDZ\C2H3N1O1\OHZDE\06-Apr-2025\0\\#t hf
 aug-cc-pvdz iop(5/13=1,5/36=2,99/5=2) pseudo=read geom=check guess=(re
 ad,tcheck) scf=(maxcycle=1)\\title\\0,1\O,0,-1.938443,0.000039,-0.1233
 58\N,0,1.923699,0.000027,0.086116\C,0,0.571151,-0.000066,-0.003646\C,0
 ,-0.628026,-0.000043,0.028755\H,0,2.37842,0.835039,-0.252203\H,0,2.378
 55,-0.834876,-0.252294\H,0,-2.374067,-0.00001,0.7379\\Version=ES64L-G1
 6RevC.01\State=1-A\HF=-207.6363356\RMSD=6.759e-01\Dipole=0.2232821,0.0
 000982,-0.0456028\Quadrupole=3.7864909,-1.3082064,-2.4782845,0.0002119

 Normal termination of Gaussian 16 at Sun Apr  6 08:10:46 2025.
