 Gaussian 16, Revision C.01,

 ----------------------------------------------------------------------
 #t hf aug-cc-pvdz symm=none int=(grid=ultrafine) guess=(read,tcheck) s
 table=(opt,rrhf)
 ----------------------------------------------------------------------
 -----
 title
 -----
 Symbolic Z-matrix:
 Charge =  0 Multiplicity = 1

 SCF Done:  E(RHF) =  -584.497484942     A.U. after   14 cycles
 Normal termination of Gaussian 16 at Sun Apr  6 08:10:11 2025.
 Gaussian 16:  ES64L-G16RevC.01  3-Jul-2019

 ----------------------------------------------------------------------
 #t hf aug-cc-pvdz iop(5/13=1,5/36=2,99/5=2) pseudo=read geom=check gue
 ss=(read,tcheck) scf=(maxcycle=1)
 ----------------------------------------------------------------------
 -----
 title
 -----
 Structure from the checkpoint file:  "aminoethylthiocyanate.chk"
 Charge =  0 Multiplicity = 1

                         Standard orientation:
 ---------------------------------------------------------------------
 Center     Atomic      Atomic             Coordinates (Angstroms)
 Number     Number       Type             X           Y           Z
 ---------------------------------------------------------------------
      1         16           0       -0.154598    0.797920   -0.000126
      2          7           0       -2.619333   -0.626920    0.000187
      3          7           0        2.422422   -0.270399    0.000050
      4          6           0       -1.619108   -0.044584    0.000062
      5          6           0        1.077109   -0.690019   -0.000032
      6          1           0        2.715554    0.220385    0.831850
      7          1           0        2.715654    0.220307   -0.831658
      8          1           0        0.836423   -1.259219   -0.891167
      9          1           0        0.836311   -1.259342    0.891152
 ---------------------------------------------------------------------

 SCF Done:  E(RHF) =  -585.581142637     A.U. after    2 cycles

 The electronic state is 1-A.
 Alpha  occ. eigenvalues --  -75.73076 -15.78243 -15.76476 -13.19983 -13.12906
 Alpha  occ. eigenvalues --  -13.05831 -11.46067 -11.43843  -8.07261  -1.39905
 Alpha  occ. eigenvalues --   -1.31494  -1.16639  -0.96249  -0.73088  -0.67819
 Alpha  occ. eigenvalues --   -0.62549  -0.58092  -0.54565  -0.48995  -0.48980
 Alpha  occ. eigenvalues --   -0.45110  -0.32681  -0.26465
 Alpha virt. eigenvalues --    0.02396   0.04466   0.04728   0.06283   0.07480
 Alpha virt. eigenvalues --    0.09086   0.11075   0.11329   0.13067   0.13706
 Alpha virt. eigenvalues --    0.14330   0.15278   0.15315   0.16771   0.18090

 Mulliken charges:
               1
     1  S    1.527136
     2  N   -1.980190
     3  N   -2.390554
     4  C    0.707440
     5  C   -2.228547
     6  H    0.636621
     7  H    0.636663
     8  H    1.545809
     9  H    1.545621
 Sum of Mulliken charges =  -0.00000

 Dipole moment (field-independent basis, Debye):
    X=              4.8866    Y=              2.1998    Z=             -0.0006  Tot=              5.3589

 Test job not archived.
 1\1\GINC-SE086\SP\RHF\Aug-CC-pVDZ\C2H4N2S1\OHZDE\06-Apr-2025\0\\#t hf
 aug-cc-pvdz iop(5/13=1,5/36=2,99/5=2) pseudo=read geom=check guess=(re
 ad,tcheck) scf=(maxcycle=1)\\title\\0,1\S,0,-0.154598,0.79792,-0.00012
 6\N,0,-2.619333,-0.62692,0.000187\N,0,2.422422,-0.270399,0.00005\C,0,-
 1.619108,-0.044584,0.000062\C,0,1.077109,-0.690019,-0.000032\H,0,2.715
 554,0.220385,0.83185\H,0,2.715654,0.220307,-0.831658\H,0,0.836423,-1.2
 59219,-0.891167\H,0,0.836311,-1.259342,0.891152\\Version=ES64L-G16RevC
 .01\State=1-A\HF=-585.5811426\RMSD=8.440e-02\Dipole=1.9225213,0.865477

 Normal termination of Gaussian 16 at Sun Apr  6 08:10:47 2025.
