 Gaussian 16, Revision C.01,

 ----------------------------------------------------------------------
 #t hf aug-cc-pvdz symm=none int=(grid=ultrafine) guess=(read,tcheck) s
 table=(opt,rrhf)
 ----------------------------------------------------------------------
 -----
 title
 -----
 Symbolic Z-matrix:
 Charge =  0 Multiplicity = 1

 SCF Done:  E(RHF) =  -285.770885018     A.U. after   15 cycles
 Normal termination of Gaussian 16 at Sun Apr  6 08:10:35 2025.
 Gaussian 16:  ES64L-G16RevC.01  3-Jul-2019

 ----------------------------------------------------------------------
 #t hf aug-cc-pvdz iop(5/13=1,5/36=2,99/5=2) pseudo=read geom=check gue
 ss=(read,tcheck) scf=(maxcycle=1)
 ----------------------------------------------------------------------
 -----
 title
 -----
 Structure from the checkpoint file:  "aniline.chk"
 Charge =  0 Multiplicity = 1

                         Standard orientation:
 ---------------------------------------------------------------------
 Center     Atomic      Atomic             Coordinates (Angstroms)
 Number     Number       Type             X           Y           Z
 ---------------------------------------------------------------------
      1          6           0       -0.003357   -1.874982   -0.000000
      2          6           0       -0.003231   -1.167816    1.197776
      3          6           0       -0.003231   -1.167816   -1.197776
      4          6           0       -0.003231    0.219824    1.202965
      5          6           0       -0.003231    0.219824   -1.202965
      6          6           0       -0.002373    0.934694    0.000000
      7          7           0       -0.059398    2.328540    0.000000
      8          1           0       -0.002994   -2.955765   -0.000000
      9          1           0       -0.002518   -1.699840    2.140057
     10          1           0       -0.002518   -1.699840   -2.140057
     11          1           0       -0.008370    0.757854    2.143040
     12          1           0       -0.008370    0.757854   -2.143040
     13          1           0        0.276236    2.778796   -0.835682
     14          1           0        0.276236    2.778796    0.835682
 ---------------------------------------------------------------------

 SCF Done:  E(RHF) =  -287.146140176     A.U. after    2 cycles

 The electronic state is 1-A'.
 Alpha  occ. eigenvalues --  -15.75613 -11.51048 -11.43967 -11.42084 -11.39318
 Alpha  occ. eigenvalues --  -11.39300 -11.35250  -1.40743  -1.26098  -1.08699
 Alpha  occ. eigenvalues --   -1.04734  -0.86543  -0.84270  -0.70816  -0.67063
 Alpha  occ. eigenvalues --   -0.65912  -0.57832  -0.57398  -0.53631  -0.52603
 Alpha  occ. eigenvalues --   -0.45692  -0.43748  -0.42409  -0.32699  -0.27029
 Alpha virt. eigenvalues --    0.03514   0.04866   0.04921   0.05953   0.06178
 Alpha virt. eigenvalues --    0.07362   0.08616   0.11495   0.11686   0.12795
 Alpha virt. eigenvalues --    0.13513   0.13794   0.14494   0.14584   0.14862

 Mulliken charges:
               1
     1  C   -2.671765
     2  C    0.054987
     3  C    0.054987
     4  C   -2.731224
     5  C   -2.731224
     6  C    2.961077
     7  N   -4.030750
     8  H    1.519931
     9  H    1.500926
    10  H    1.500926
    11  H    1.652142
    12  H    1.652142
    13  H    0.633923
    14  H    0.633923
 Sum of Mulliken charges =   0.00000

 Dipole moment (field-independent basis, Debye):
    X=              0.7564    Y=              1.1509    Z=              0.0000  Tot=              1.3772

 Test job not archived.
 1\1\GINC-SE085\SP\RHF\Aug-CC-pVDZ\C6H7N1\OHZDE\06-Apr-2025\0\\#t hf au
 g-cc-pvdz iop(5/13=1,5/36=2,99/5=2) pseudo=read geom=check guess=(read
 ,tcheck) scf=(maxcycle=1)\\title\\0,1\C,0,-0.003357,-1.874982,0.\C,0,-
 0.003231,-1.167816,1.197776\C,0,-0.003231,-1.167816,-1.197776\C,0,-0.0
 03231,0.219824,1.202965\C,0,-0.003231,0.219824,-1.202965\C,0,-0.002373
 ,0.934694,0.\N,0,-0.059398,2.32854,0.\H,0,-0.002994,-2.955765,0.\H,0,-
 0.002518,-1.69984,2.140057\H,0,-0.002518,-1.69984,-2.140057\H,0,-0.008
 37,0.757854,2.14304\H,0,-0.00837,0.757854,-2.14304\H,0,0.276236,2.7787

 Normal termination of Gaussian 16 at Sun Apr  6 08:10:47 2025.
