 Gaussian 16, Revision C.01,

 ----------------------------------------------------------------------
 #t hf aug-cc-pvdz symm=none int=(grid=ultrafine) guess=(read,tcheck) s
 table=(opt,rrhf)
 ----------------------------------------------------------------------
 -----
 title
 -----
 Symbolic Z-matrix:
 Charge =  0 Multiplicity = 1

 SCF Done:  E(RHF) =  -344.623736527     A.U. after   15 cycles
 Normal termination of Gaussian 16 at Sun Apr  6 08:11:31 2025.
 Gaussian 16:  ES64L-G16RevC.01  3-Jul-2019

 ----------------------------------------------------------------------
 #t hf aug-cc-pvdz iop(5/13=1,5/36=2,99/5=2) pseudo=read geom=check gue
 ss=(read,tcheck) scf=(maxcycle=1)
 ----------------------------------------------------------------------
 -----
 title
 -----
 Structure from the checkpoint file:  "anisole.chk"
 Charge =  0 Multiplicity = 1

                         Standard orientation:
 ---------------------------------------------------------------------
 Center     Atomic      Atomic             Coordinates (Angstroms)
 Number     Number       Type             X           Y           Z
 ---------------------------------------------------------------------
      1          6           0        0.893738   -2.119560    0.000000
      2          6           0       -0.463564   -1.836161    0.000000
      3          6           0        1.807314   -1.066569    0.000000
      4          6           0       -0.921006   -0.519558    0.000000
      5          6           0        1.369118    0.246605    0.000000
      6          6           0        0.000000    0.526996    0.000000
      7          6           0       -1.709890    2.199611    0.000000
      8          8           0       -0.335558    1.848902    0.000000
      9          1           0        1.239334   -3.143772    0.000000
     10          1           0       -1.185110   -2.642410    0.000000
     11          1           0        2.869659   -1.271259    0.000000
     12          1           0       -1.982692   -0.326351    0.000000
     13          1           0        2.067189    1.072124    0.000000
     14          1           0       -2.218233    1.823281    0.891490
     15          1           0       -2.218233    1.823281   -0.891490
     16          1           0       -1.741707    3.285711    0.000000
 ---------------------------------------------------------------------

 SCF Done:  E(RHF) =  -346.241851198     A.U. after    2 cycles

 The electronic state is 1-A'.
 Alpha  occ. eigenvalues --  -21.07161 -11.52638 -11.45258 -11.42340 -11.41472
 Alpha  occ. eigenvalues --  -11.40058 -11.39753 -11.35970  -1.78646  -1.31767
 Alpha  occ. eigenvalues --   -1.09666  -1.08314  -0.98701  -0.86815  -0.82877
 Alpha  occ. eigenvalues --   -0.71172  -0.65306  -0.62974  -0.62378  -0.59326
 Alpha  occ. eigenvalues --   -0.57719  -0.53331  -0.51912  -0.47179  -0.44758
 Alpha  occ. eigenvalues --   -0.40596  -0.38914  -0.33091  -0.25994
 Alpha virt. eigenvalues --    0.03381   0.04826   0.05206   0.05849   0.06382
 Alpha virt. eigenvalues --    0.06512   0.06973   0.08530   0.09742   0.11428
 Alpha virt. eigenvalues --    0.13064   0.13095   0.13420   0.13874   0.14119

 Mulliken charges:
               1
     1  C   -2.563842
     2  C   -0.060941
     3  C   -0.068997
     4  C   -3.495625
     5  C   -3.969644
     6  C    6.221601
     7  C   -3.605533
     8  O   -4.728778
     9  H    1.540515
    10  H    1.486650
    11  H    1.481316
    12  H    1.844258
    13  H    1.786581
    14  H    1.359735
    15  H    1.359735
    16  H    1.412968
 Sum of Mulliken charges =   0.00000

 Dipole moment (field-independent basis, Debye):
    X=             -0.7452    Y=              0.6195    Z=             -0.0000  Tot=              0.9691

 Test job not archived.
 1\1\GINC-SE107\SP\RHF\Aug-CC-pVDZ\C7H8O1\OHZDE\06-Apr-2025\0\\#t hf au
 g-cc-pvdz iop(5/13=1,5/36=2,99/5=2) pseudo=read geom=check guess=(read
 ,tcheck) scf=(maxcycle=1)\\title\\0,1\C,0,0.893738,-2.11956,0.\C,0,-0.
 463564,-1.836161,0.\C,0,1.807314,-1.066569,0.\C,0,-0.921006,-0.519558,
 0.\C,0,1.369118,0.246605,0.\C,0,0.,0.526996,0.\C,0,-1.70989,2.199611,0
 .\O,0,-0.335558,1.848902,0.\H,0,1.239334,-3.143772,0.\H,0,-1.18511,-2.
 64241,0.\H,0,2.869659,-1.271259,0.\H,0,-1.982692,-0.326351,0.\H,0,2.06
 7189,1.072124,0.\H,0,-2.218233,1.823281,0.89149\H,0,-2.218233,1.823281

 Normal termination of Gaussian 16 at Sun Apr  6 08:11:37 2025.
