 Gaussian 16, Revision C.01,

 ----------------------------------------------------------------------
 #t hf aug-cc-pvdz symm=none int=(grid=ultrafine) guess=(read,tcheck) s
 table=(opt,rrhf)
 ----------------------------------------------------------------------
 -----
 title
 -----
 Symbolic Z-matrix:
 Charge =  0 Multiplicity = 1

 SCF Done:  E(RHF) =  -536.051751064     A.U. after   14 cycles
 Normal termination of Gaussian 16 at Sun Apr  6 08:14:58 2025.
 Gaussian 16:  ES64L-G16RevC.01  3-Jul-2019

 ----------------------------------------------------------------------
 #t hf aug-cc-pvdz iop(5/13=1,5/36=2,99/5=2) pseudo=read geom=check gue
 ss=(read,tcheck) scf=(maxcycle=1)
 ----------------------------------------------------------------------
 -----
 title
 -----
 Structure from the checkpoint file:  "anthracene.chk"
 Charge =  0 Multiplicity = 1

                         Standard orientation:
 ---------------------------------------------------------------------
 Center     Atomic      Atomic             Coordinates (Angstroms)
 Number     Number       Type             X           Y           Z
 ---------------------------------------------------------------------
      1          6           0        0.000000    1.218890    0.719869
      2          6           0        0.000000    1.218890   -0.719869
      3          6           0        0.000000    0.000000    1.398321
      4          6           0        0.000000    2.470807    1.401530
      5          6           0        0.000000   -0.000000   -1.398321
      6          6           0        0.000000    2.470807   -1.401530
      7          6           0       -0.000000   -1.218890    0.719869
      8          6           0        0.000000    3.646151    0.710698
      9          6           0       -0.000000   -1.218890   -0.719869
     10          6           0        0.000000    3.646151   -0.710698
     11          6           0       -0.000000   -2.470807    1.401530
     12          6           0       -0.000000   -2.470807   -1.401530
     13          6           0       -0.000000   -3.646151    0.710698
     14          6           0       -0.000000   -3.646151   -0.710698
     15          1           0        0.000000    0.000000    2.481982
     16          1           0        0.000000    2.470066    2.484308
     17          1           0        0.000000   -0.000000   -2.481982
     18          1           0        0.000000    2.470066   -2.484308
     19          1           0        0.000000    4.588686    1.241764
     20          1           0        0.000000    4.588686   -1.241764
     21          1           0       -0.000000   -2.470066    2.484308
     22          1           0       -0.000000   -2.470066   -2.484308
     23          1           0       -0.000000   -4.588686    1.241764
     24          1           0       -0.000000   -4.588686   -1.241764
 ---------------------------------------------------------------------

 SCF Done:  E(RHF) =  -538.613475816     A.U. after    2 cycles

 The electronic state is 1-AG.
 Alpha  occ. eigenvalues --  -11.52355 -11.51033 -11.49124 -11.44589 -11.44418
 Alpha  occ. eigenvalues --  -11.43981 -11.42695 -11.42549 -11.42152 -11.41260
 Alpha  occ. eigenvalues --  -11.40401 -11.39947 -11.39184 -11.36576  -1.42287
 Alpha  occ. eigenvalues --   -1.31245  -1.18804  -1.16394  -1.10052  -1.07460
 Alpha  occ. eigenvalues --   -1.01743  -0.92393  -0.87793  -0.85393  -0.84597
 Alpha  occ. eigenvalues --   -0.76767  -0.70842  -0.68998  -0.65302  -0.63844
 Alpha  occ. eigenvalues --   -0.62176  -0.58022  -0.57638  -0.56712  -0.54912
 Alpha  occ. eigenvalues --   -0.51430  -0.50965  -0.50010  -0.49370  -0.44497
 Alpha  occ. eigenvalues --   -0.41538  -0.40887  -0.40783  -0.40510  -0.33791
 Alpha  occ. eigenvalues --   -0.30576  -0.24183
 Alpha virt. eigenvalues --    0.03270   0.04812   0.05048   0.05502   0.05504
 Alpha virt. eigenvalues --    0.06004   0.06698   0.06704   0.07940   0.08412
 Alpha virt. eigenvalues --    0.09498   0.09952   0.09963   0.10584   0.11571

 Mulliken charges:
               1
     1  C    4.121484
     2  C    4.121484
     3  C   -3.479139
     4  C   -3.422428
     5  C   -3.479139
     6  C   -3.422428
     7  C    4.121484
     8  C   -2.961443
     9  C    4.121484
    10  C   -2.961443
    11  C   -3.422428
    12  C   -3.422428
    13  C   -2.961443
    14  C   -2.961443
    15  H    1.889005
    16  H    1.583221
    17  H    1.889005
    18  H    1.583221
    19  H    1.474233
    20  H    1.474233
    21  H    1.583221
    22  H    1.583221
    23  H    1.474233
    24  H    1.474233
 Sum of Mulliken charges =  -0.00000

 Dipole moment (field-independent basis, Debye):
    X=              0.0000    Y=             -0.0000    Z=              0.0000  Tot=              0.0000

 Test job not archived.
 1\1\GINC-SE108\SP\RHF\Aug-CC-pVDZ\C14H10\OHZDE\06-Apr-2025\0\\#t hf au
 g-cc-pvdz iop(5/13=1,5/36=2,99/5=2) pseudo=read geom=check guess=(read
 ,tcheck) scf=(maxcycle=1)\\title\\0,1\C,0,0.,0.719869,1.21889\C,0,0.,-
 0.719869,1.21889\C,0,0.,1.398321,0.\C,0,0.,1.40153,2.470807\C,0,0.,-1.
 398321,0.\C,0,0.,-1.40153,2.470807\C,0,0.,0.719869,-1.21889\C,0,0.,0.7
 10698,3.646151\C,0,0.,-0.719869,-1.21889\C,0,0.,-0.710698,3.646151\C,0
 ,0.,1.40153,-2.470807\C,0,0.,-1.40153,-2.470807\C,0,0.,0.710698,-3.646
 151\C,0,0.,-0.710698,-3.646151\H,0,0.,2.481982,0.\H,0,0.,2.484308,2.47

 Normal termination of Gaussian 16 at Sun Apr  6 08:16:01 2025.
