 Gaussian 16, Revision C.01,

 ----------------------------------------------------------------------
 #t hf aug-cc-pvdz symm=none int=(grid=ultrafine) guess=(read,tcheck) s
 table=(opt,rrhf)
 ----------------------------------------------------------------------
 -----
 title
 -----
 Symbolic Z-matrix:
 Charge =  0 Multiplicity = 1

 SCF Done:  E(RHF) =  -309.869486483     A.U. after   11 cycles
 Normal termination of Gaussian 16 at Sun Apr  6 08:11:11 2025.
 Gaussian 16:  ES64L-G16RevC.01  3-Jul-2019

 ----------------------------------------------------------------------
 #t hf aug-cc-pvdz iop(5/13=1,5/36=2,99/5=2) pseudo=read geom=check gue
 ss=(read,tcheck) scf=(maxcycle=1)
 ----------------------------------------------------------------------
 -----
 title
 -----
 Structure from the checkpoint file:  "anti-tricyclo-4-2-0-0-octane.chk"
 Charge =  0 Multiplicity = 1

                         Standard orientation:
 ---------------------------------------------------------------------
 Center     Atomic      Atomic             Coordinates (Angstroms)
 Number     Number       Type             X           Y           Z
 ---------------------------------------------------------------------
      1          6           0       -0.418466    0.644989    0.791107
      2          6           0       -0.418466    0.644989   -0.791107
      3          6           0        0.418466   -0.644989    0.791107
      4          6           0        0.418466    1.946235    0.777144
      5          6           0        0.418466   -0.644989   -0.791107
      6          6           0        0.418466    1.946235   -0.777144
      7          6           0       -0.418466   -1.946235   -0.777144
      8          6           0       -0.418466   -1.946235    0.777144
      9          1           0       -1.320254    0.645883    1.403108
     10          1           0       -1.320254    0.645883   -1.403108
     11          1           0        1.320254   -0.645883    1.403108
     12          1           0       -0.103896    2.800429    1.206129
     13          1           0        1.394828    1.871332    1.257928
     14          1           0        1.320254   -0.645883   -1.403108
     15          1           0        1.394828    1.871332   -1.257928
     16          1           0       -0.103896    2.800429   -1.206129
     17          1           0       -1.394828   -1.871332   -1.257928
     18          1           0        0.103896   -2.800429   -1.206129
     19          1           0        0.103896   -2.800429    1.206129
     20          1           0       -1.394828   -1.871332    1.257928
 ---------------------------------------------------------------------

 SCF Done:  E(RHF) =  -311.439329089     A.U. after    2 cycles

 The electronic state is 1-AG.
 Alpha  occ. eigenvalues --  -11.58259 -11.50192 -11.46182 -11.40112 -11.37450
 Alpha  occ. eigenvalues --  -11.37177 -11.34607 -11.32337  -1.42381  -1.20898
 Alpha  occ. eigenvalues --   -1.00415  -0.99990  -0.91315  -0.86031  -0.79360
 Alpha  occ. eigenvalues --   -0.71363  -0.67597  -0.67327  -0.64651  -0.58036
 Alpha  occ. eigenvalues --   -0.53108  -0.51282  -0.50027  -0.47387  -0.43520
 Alpha  occ. eigenvalues --   -0.43210  -0.40607  -0.37728  -0.33944  -0.32994
 Alpha virt. eigenvalues --    0.04410   0.04528   0.04643   0.05444   0.05867
 Alpha virt. eigenvalues --    0.06015   0.06595   0.07152   0.07756   0.07972
 Alpha virt. eigenvalues --    0.08366   0.10745   0.11322   0.11903   0.12056

 Mulliken charges:
               1
     1  C   -1.192220
     2  C   -1.192220
     3  C   -1.192220
     4  C   -3.172995
     5  C   -1.192220
     6  C   -3.172995
     7  C   -3.172995
     8  C   -3.172995
     9  H    1.598763
    10  H    1.598763
    11  H    1.598763
    12  H    1.292009
    13  H    1.474443
    14  H    1.598763
    15  H    1.474443
    16  H    1.292009
    17  H    1.474443
    18  H    1.292009
    19  H    1.292009
    20  H    1.474443
 Sum of Mulliken charges =   0.00000

 Dipole moment (field-independent basis, Debye):
    X=              0.0000    Y=              0.0000    Z=              0.0000  Tot=              0.0000

 Test job not archived.
 1\1\GINC-SE106\SP\RHF\Aug-CC-pVDZ\C8H12\OHZDE\06-Apr-2025\0\\#t hf aug
 -cc-pvdz iop(5/13=1,5/36=2,99/5=2) pseudo=read geom=check guess=(read,
 tcheck) scf=(maxcycle=1)\\title\\0,1\C,0,-0.418466,0.644989,0.791107\C
 ,0,-0.418466,0.644989,-0.791107\C,0,0.418466,-0.644989,0.791107\C,0,0.
 418466,1.946235,0.777144\C,0,0.418466,-0.644989,-0.791107\C,0,0.418466
 ,1.946235,-0.777144\C,0,-0.418466,-1.946235,-0.777144\C,0,-0.418466,-1
 .946235,0.777144\H,0,-1.320254,0.645883,1.403108\H,0,-1.320254,0.64588
 3,-1.403108\H,0,1.320254,-0.645883,1.403108\H,0,-0.103896,2.800429,1.2

 Normal termination of Gaussian 16 at Sun Apr  6 08:11:18 2025.
