 Gaussian 16, Revision C.01,

 ----------------------------------------------------------------------
 #t hf aug-cc-pvdz symm=none int=(grid=ultrafine) guess=(read,tcheck) s
 table=(opt,rrhf)
 ----------------------------------------------------------------------
 -----
 title
 -----
 Symbolic Z-matrix:
 Charge =  0 Multiplicity = 1

 SCF Done:  E(RHF) =  -602.992426212     A.U. after   14 cycles
 Normal termination of Gaussian 16 at Sun Apr  6 08:13:51 2025.
 Gaussian 16:  ES64L-G16RevC.01  3-Jul-2019

 ----------------------------------------------------------------------
 #t hf aug-cc-pvdz iop(5/13=1,5/36=2,99/5=2) pseudo=read geom=check gue
 ss=(read,tcheck) scf=(maxcycle=1)
 ----------------------------------------------------------------------
 -----
 title
 -----
 Structure from the checkpoint file:  "arginine.chk"
 Charge =  0 Multiplicity = 1

                         Standard orientation:
 ---------------------------------------------------------------------
 Center     Atomic      Atomic             Coordinates (Angstroms)
 Number     Number       Type             X           Y           Z
 ---------------------------------------------------------------------
      1          7           0       -2.526983    1.644610    0.539401
      2          6           0       -2.309574    0.430804   -0.263716
      3          6           0       -3.543059   -0.493877   -0.155950
      4          8           0       -3.559770   -1.614822   -0.589237
      5          8           0       -4.602147    0.075386    0.430775
      6          1           0       -4.303472    0.974710    0.689949
      7          6           0       -1.025447   -0.342914    0.052142
      8          6           0        0.250781    0.404006   -0.330854
      9          6           0        1.510265   -0.390892    0.003386
     10          7           0        2.702104    0.351444   -0.372440
     11          6           0        3.997767    0.022671   -0.008400
     12          7           0        4.099684   -0.984055    0.943541
     13          7           0        5.063631    0.606486   -0.414314
     14          1           0       -2.286412    0.732459   -1.314703
     15          1           0       -1.014272   -0.576246    1.122559
     16          1           0       -1.076507   -1.298385   -0.469583
     17          1           0        0.232932    0.616099   -1.405631
     18          1           0        0.304202    1.368500    0.179891
     19          1           0        1.544459   -0.575336    1.078269
     20          1           0        1.458323   -1.369138   -0.495193
     21          1           0        2.638588    0.883680   -1.223524
     22          1           0        3.488801   -1.778017    0.839937
     23          1           0        5.061405   -1.240273    1.103040
     24          1           0        4.860793    1.403058   -1.010069
     25          1           0       -2.070153    1.586068    1.441314
     26          1           0       -2.196817    2.480125    0.078473
 ---------------------------------------------------------------------

 SCF Done:  E(RHF) =  -605.764204610     A.U. after    2 cycles

 The electronic state is 1-A.
 Alpha  occ. eigenvalues --  -21.10897 -21.04465 -15.77642 -15.76267 -15.75665
 Alpha  occ. eigenvalues --  -15.69024 -11.53251 -11.48178 -11.47611 -11.47232
 Alpha  occ. eigenvalues --  -11.43706 -11.39017  -1.82063  -1.65269  -1.50061
 Alpha  occ. eigenvalues --   -1.39339  -1.32540  -1.23859  -1.19091  -1.06971
 Alpha  occ. eigenvalues --   -0.96503  -0.87977  -0.83339  -0.78118  -0.73440
 Alpha  occ. eigenvalues --   -0.72736  -0.70450  -0.67656  -0.65726  -0.62439
 Alpha  occ. eigenvalues --   -0.60867  -0.59081  -0.57497  -0.55849  -0.53589
 Alpha  occ. eigenvalues --   -0.52465  -0.51189  -0.50134  -0.48972  -0.48339
 Alpha  occ. eigenvalues --   -0.43497  -0.40412  -0.38232  -0.36666  -0.32900
 Alpha  occ. eigenvalues --   -0.30640  -0.28705
 Alpha virt. eigenvalues --    0.03054   0.03767   0.04166   0.04389   0.04637
 Alpha virt. eigenvalues --    0.05456   0.05969   0.06208   0.06742   0.07863
 Alpha virt. eigenvalues --    0.08250   0.08404   0.08877   0.10045   0.11381

 Mulliken charges:
               1
     1  N   -2.617316
     2  C   -1.894209
     3  C    6.384636
     4  O   -3.347582
     5  O   -3.222896
     6  H    1.122431
     7  C   -2.424483
     8  C   -2.186031
     9  C   -2.899256
    10  N   -2.423631
    11  C    4.670045
    12  N   -2.742651
    13  N   -3.252990
    14  H    1.862533
    15  H    1.505611
    16  H    1.616542
    17  H    1.519066
    18  H    1.568169
    19  H    1.667239
    20  H    1.563577
    21  H    0.579968
    22  H    0.601532
    23  H    0.621695
    24  H    0.647342
    25  H    0.571408
    26  H    0.509251
 Sum of Mulliken charges =   0.00000

 Dipole moment (field-independent basis, Debye):
    X=             -1.1716    Y=              1.4062    Z=              0.2592  Tot=              1.8486

 Test job not archived.
 1\1\GINC-SE106\SP\RHF\Aug-CC-pVDZ\C6H14N4O2\OHZDE\06-Apr-2025\0\\#t hf
  aug-cc-pvdz iop(5/13=1,5/36=2,99/5=2) pseudo=read geom=check guess=(r
 ead,tcheck) scf=(maxcycle=1)\\title\\0,1\N,0,-2.526983,1.64461,0.53940
 1\C,0,-2.309574,0.430804,-0.263716\C,0,-3.543059,-0.493877,-0.15595\O,
 0,-3.55977,-1.614822,-0.589237\O,0,-4.602147,0.075386,0.430775\H,0,-4.
 303472,0.97471,0.689949\C,0,-1.025447,-0.342914,0.052142\C,0,0.250781,
 0.404006,-0.330854\C,0,1.510265,-0.390892,0.003386\N,0,2.702104,0.3514
 44,-0.37244\C,0,3.997767,0.022671,-0.0084\N,0,4.099684,-0.984055,0.943

 Normal termination of Gaussian 16 at Sun Apr  6 08:14:11 2025.
