 Gaussian 16, Revision C.01,

 ----------------------------------------------------------------------
 #t hf aug-cc-pvdz symm=none int=(grid=ultrafine) guess=(read,tcheck) s
 table=(opt,rrhf)
 ----------------------------------------------------------------------
 -----
 title
 -----
 Symbolic Z-matrix:
 Charge =  0 Multiplicity = 1

 SCF Done:  E(RHF) =  -489.736109003     A.U. after   14 cycles
 Normal termination of Gaussian 16 at Sun Apr  6 08:11:10 2025.
 Gaussian 16:  ES64L-G16RevC.01  3-Jul-2019

 ----------------------------------------------------------------------
 #t hf aug-cc-pvdz iop(5/13=1,5/36=2,99/5=2) pseudo=read geom=check gue
 ss=(read,tcheck) scf=(maxcycle=1)
 ----------------------------------------------------------------------
 -----
 title
 -----
 Structure from the checkpoint file:  "asparagine.chk"
 Charge =  0 Multiplicity = 1

                         Standard orientation:
 ---------------------------------------------------------------------
 Center     Atomic      Atomic             Coordinates (Angstroms)
 Number     Number       Type             X           Y           Z
 ---------------------------------------------------------------------
      1          7           0       -0.537636    1.634468   -0.311017
      2          6           0       -0.506076    0.174773   -0.439687
      3          6           0       -1.882737   -0.418460   -0.080577
      4          8           0       -2.175140   -1.564324   -0.298926
      5          8           0       -2.703547    0.449095    0.519188
      6          1           0       -2.201073    1.295665    0.555522
      7          6           0        0.530887   -0.449933    0.513055
      8          6           0        1.954459   -0.058137    0.153171
      9          8           0        2.308657    1.111421    0.104908
     10          7           0        2.806159   -1.080562   -0.108786
     11          1           0       -0.288369   -0.160572   -1.457832
     12          1           0        0.343314   -0.088713    1.526973
     13          1           0        0.392111   -1.529176    0.509676
     14          1           0        2.517736   -2.040866   -0.075861
     15          1           0        3.761371   -0.865241   -0.340502
     16          1           0        0.386763    1.982426   -0.073290
     17          1           0       -0.810476    2.070141   -1.183197
 ---------------------------------------------------------------------

 SCF Done:  E(RHF) =  -491.882615231     A.U. after    2 cycles

 The electronic state is 1-A.
 Alpha  occ. eigenvalues --  -21.10762 -21.04475 -21.04215 -15.80183 -15.75640
 Alpha  occ. eigenvalues --  -11.53574 -11.52604 -11.47682 -11.41823  -1.81996
 Alpha  occ. eigenvalues --   -1.72615  -1.65204  -1.38723  -1.35841  -1.15060
 Alpha  occ. eigenvalues --   -0.98878  -0.83036  -0.77808  -0.73850  -0.72275
 Alpha  occ. eigenvalues --   -0.69850  -0.66191  -0.61476  -0.58771  -0.56220
 Alpha  occ. eigenvalues --   -0.52933  -0.50335  -0.49965  -0.47739  -0.44908
 Alpha  occ. eigenvalues --   -0.39798  -0.34248  -0.33035  -0.30986  -0.28397
 Alpha virt. eigenvalues --    0.02983   0.04591   0.04751   0.05682   0.06317
 Alpha virt. eigenvalues --    0.06765   0.07410   0.08060   0.10472   0.10685
 Alpha virt. eigenvalues --    0.11817   0.12141   0.13068   0.13632   0.14022

 Mulliken charges:
               1
     1  N   -2.803250
     2  C   -1.278478
     3  C    6.960783
     4  O   -3.494107
     5  O   -3.350013
     6  H    1.085173
     7  C   -3.348861
     8  C    5.545462
     9  O   -3.377791
    10  N   -3.305229
    11  H    1.738370
    12  H    1.360239
    13  H    1.517730
    14  H    0.702095
    15  H    0.758973
    16  H    0.729685
    17  H    0.559218
 Sum of Mulliken charges =  -0.00000

 Dipole moment (field-independent basis, Debye):
    X=              2.8164    Y=             -0.0146    Z=             -0.6626  Tot=              2.8934

 Test job not archived.
 1\1\GINC-SE009\SP\RHF\Aug-CC-pVDZ\C4H8N2O3\OHZDE\06-Apr-2025\0\\#t hf
 aug-cc-pvdz iop(5/13=1,5/36=2,99/5=2) pseudo=read geom=check guess=(re
 ad,tcheck) scf=(maxcycle=1)\\title\\0,1\N,0,-0.537636,1.634468,-0.3110
 17\C,0,-0.506076,0.174773,-0.439687\C,0,-1.882737,-0.41846,-0.080577\O
 ,0,-2.17514,-1.564324,-0.298926\O,0,-2.703547,0.449095,0.519188\H,0,-2
 .201073,1.295665,0.555522\C,0,0.530887,-0.449933,0.513055\C,0,1.954459
 ,-0.058137,0.153171\O,0,2.308657,1.111421,0.104908\N,0,2.806159,-1.080
 562,-0.108786\H,0,-0.288369,-0.160572,-1.457832\H,0,0.343314,-0.088713

 Normal termination of Gaussian 16 at Sun Apr  6 08:11:18 2025.
