 Gaussian 16, Revision C.01,

 ----------------------------------------------------------------------
 #t hf aug-cc-pvdz symm=none int=(grid=ultrafine) guess=(read,tcheck) s
 table=(opt,rrhf)
 ----------------------------------------------------------------------
 -----
 title
 -----
 Symbolic Z-matrix:
 Charge =  0 Multiplicity = 1

 SCF Done:  E(RHF) =  -172.103281639     A.U. after   12 cycles
 Normal termination of Gaussian 16 at Sun Apr  6 08:10:53 2025.
 Gaussian 16:  ES64L-G16RevC.01  3-Jul-2019

 ----------------------------------------------------------------------
 #t hf aug-cc-pvdz iop(5/13=1,5/36=2,99/5=2) pseudo=read geom=check gue
 ss=(read,tcheck) scf=(maxcycle=1)
 ----------------------------------------------------------------------
 -----
 title
 -----
 Structure from the checkpoint file:  "azetidine.chk"
 Charge =  0 Multiplicity = 1

                         Standard orientation:
 ---------------------------------------------------------------------
 Center     Atomic      Atomic             Coordinates (Angstroms)
 Number     Number       Type             X           Y           Z
 ---------------------------------------------------------------------
      1          6           0        0.082897    1.078427   -0.000000
      2          6           0        0.082897   -0.051210    1.054630
      3          6           0        0.082897   -0.051210   -1.054630
      4          7           0       -0.374490   -0.989590    0.000000
      5          1           0       -0.845440    1.645623   -0.000000
      6          1           0        0.926741    1.763706   -0.000000
      7          1           0        1.090133   -0.261322    1.431487
      8          1           0       -0.597396    0.043257    1.901760
      9          1           0       -0.597396    0.043257   -1.901760
     10          1           0        1.090133   -0.261322   -1.431487
     11          1           0        0.062512   -1.902110    0.000000
 ---------------------------------------------------------------------

 SCF Done:  E(RHF) =  -172.958802396     A.U. after    2 cycles

 The electronic state is 1-A'.
 Alpha  occ. eigenvalues --  -15.70543 -11.43514 -11.40072 -11.35239  -1.42954
 Alpha  occ. eigenvalues --   -1.03963  -0.97064  -0.79768  -0.69294  -0.66019
 Alpha  occ. eigenvalues --   -0.54627  -0.50550  -0.50026  -0.43508  -0.42020
 Alpha  occ. eigenvalues --   -0.32543
 Alpha virt. eigenvalues --    0.04147   0.05745   0.05830   0.06228   0.06375
 Alpha virt. eigenvalues --    0.06409   0.06831   0.11148   0.11340   0.13652
 Alpha virt. eigenvalues --    0.13809   0.15176   0.15600   0.16422   0.18109

 Mulliken charges:
               1
     1  C   -2.899978
     2  C   -1.894490
     3  C   -1.894490
     4  N   -1.769736
     5  H    1.259917
     6  H    1.198776
     7  H    1.371531
     8  H    1.324888
     9  H    1.324888
    10  H    1.371531
    11  H    0.607161
 Sum of Mulliken charges =  -0.00000

 Dipole moment (field-independent basis, Debye):
    X=              1.0105    Y=              0.1038    Z=              0.0000  Tot=              1.0158

 Test job not archived.
 1\1\GINC-SE011\SP\RHF\Aug-CC-pVDZ\C3H7N1\OHZDE\06-Apr-2025\0\\#t hf au
 g-cc-pvdz iop(5/13=1,5/36=2,99/5=2) pseudo=read geom=check guess=(read
 ,tcheck) scf=(maxcycle=1)\\title\\0,1\C,0,0.082897,1.078427,0.\C,0,0.0
 82897,-0.05121,1.05463\C,0,0.082897,-0.05121,-1.05463\N,0,-0.37449,-0.
 98959,0.\H,0,-0.84544,1.645623,0.\H,0,0.926741,1.763706,0.\H,0,1.09013
 3,-0.261322,1.431487\H,0,-0.597396,0.043257,1.90176\H,0,-0.597396,0.04
 3257,-1.90176\H,0,1.090133,-0.261322,-1.431487\H,0,0.062512,-1.90211,0
 .\\Version=ES64L-G16RevC.01\State=1-A'\HF=-172.9588024\RMSD=5.366e-01\

 Normal termination of Gaussian 16 at Sun Apr  6 08:11:00 2025.
