 Gaussian 16, Revision C.01,

 ----------------------------------------------------------------------
 #t hf aug-cc-pvdz symm=none int=(grid=ultrafine) guess=(read,tcheck) s
 table=(opt,rrhf)
 ----------------------------------------------------------------------
 -----
 title
 -----
 Symbolic Z-matrix:
 Charge =  0 Multiplicity = 1

 SCF Done:  E(RHF) =  -133.059615408     A.U. after   11 cycles
 Normal termination of Gaussian 16 at Sun Apr  6 08:10:09 2025.
 Gaussian 16:  ES64L-G16RevC.01  3-Jul-2019

 ----------------------------------------------------------------------
 #t hf aug-cc-pvdz iop(5/13=1,5/36=2,99/5=2) pseudo=read geom=check gue
 ss=(read,tcheck) scf=(maxcycle=1)
 ----------------------------------------------------------------------
 -----
 title
 -----
 Structure from the checkpoint file:  "aziridine.chk"
 Charge =  0 Multiplicity = 1

                         Standard orientation:
 ---------------------------------------------------------------------
 Center     Atomic      Atomic             Coordinates (Angstroms)
 Number     Number       Type             X           Y           Z
 ---------------------------------------------------------------------
      1          7           0       -0.037940    0.872541   -0.000000
      2          1           0        0.888780    1.282744   -0.000000
      3          6           0       -0.037940   -0.397603    0.739990
      4          6           0       -0.037940   -0.397603   -0.739990
      5          1           0       -0.952512   -0.607514    1.278587
      6          1           0        0.868549   -0.702138    1.248293
      7          1           0       -0.952512   -0.607514   -1.278587
      8          1           0        0.868549   -0.702138   -1.248293
 ---------------------------------------------------------------------

 SCF Done:  E(RHF) =  -133.705427001     A.U. after    2 cycles

 The electronic state is 1-A'.
 Alpha  occ. eigenvalues --  -15.73096 -11.44092 -11.38314  -1.43438  -0.93782
 Alpha  occ. eigenvalues --   -0.88167  -0.70151  -0.63200  -0.51782  -0.45023
 Alpha  occ. eigenvalues --   -0.44292  -0.35120
 Alpha virt. eigenvalues --    0.04007   0.05511   0.05887   0.06328   0.06638
 Alpha virt. eigenvalues --    0.11436   0.11535   0.12799   0.14158   0.16660
 Alpha virt. eigenvalues --    0.17806   0.18719   0.19481   0.20351   0.20604

 Mulliken charges:
               1
     1  N   -1.815194
     2  H    0.686704
     3  C   -1.994458
     4  C   -1.994458
     5  H    1.313914
     6  H    1.244789
     7  H    1.313914
     8  H    1.244789
 Sum of Mulliken charges =   0.00000

 Dipole moment (field-independent basis, Debye):
    X=              1.0775    Y=             -0.7731    Z=             -0.0000  Tot=              1.3262

 Test job not archived.
 1\1\GINC-SE012\SP\RHF\Aug-CC-pVDZ\C2H5N1\OHZDE\06-Apr-2025\0\\#t hf au
 g-cc-pvdz iop(5/13=1,5/36=2,99/5=2) pseudo=read geom=check guess=(read
 ,tcheck) scf=(maxcycle=1)\\title\\0,1\N,0,-0.03794,0.872541,0.\H,0,0.8
 8878,1.282744,0.\C,0,-0.03794,-0.397603,0.73999\C,0,-0.03794,-0.397603
 ,-0.73999\H,0,-0.952512,-0.607514,1.278587\H,0,0.868549,-0.702138,1.24
 8293\H,0,-0.952512,-0.607514,-1.278587\H,0,0.868549,-0.702138,-1.24829
 3\\Version=ES64L-G16RevC.01\State=1-A'\HF=-133.705427\RMSD=5.137e-01\D
 ipole=0.4239141,-0.3041736,0.\Quadrupole=1.073681,-1.5361811,0.4625001

 Normal termination of Gaussian 16 at Sun Apr  6 08:10:46 2025.
