 Gaussian 16, Revision C.01,

 ----------------------------------------------------------------------
 #t hf aug-cc-pvdz symm=none int=(grid=ultrafine) guess=(read,tcheck) s
 table=(opt,rrhf)
 ----------------------------------------------------------------------
 -----
 title
 -----
 Symbolic Z-matrix:
 Charge =  0 Multiplicity = 1

 SCF Done:  E(RHF) =  -383.324824200     A.U. after   16 cycles
 Normal termination of Gaussian 16 at Sun Apr  6 08:12:15 2025.
 Gaussian 16:  ES64L-G16RevC.01  3-Jul-2019

 ----------------------------------------------------------------------
 #t hf aug-cc-pvdz iop(5/13=1,5/36=2,99/5=2) pseudo=read geom=check gue
 ss=(read,tcheck) scf=(maxcycle=1)
 ----------------------------------------------------------------------
 -----
 title
 -----
 Structure from the checkpoint file:  "azulene.chk"
 Charge =  0 Multiplicity = 1

                         Standard orientation:
 ---------------------------------------------------------------------
 Center     Atomic      Atomic             Coordinates (Angstroms)
 Number     Number       Type             X           Y           Z
 ---------------------------------------------------------------------
      1          6           0        0.000000    0.000000   -2.493269
      2          6           0        0.000000    1.260954   -1.903510
      3          6           0        0.000000    0.747825    0.551519
      4          6           0        0.000000    1.588911   -0.550232
      5          6           0        0.000000    0.000000    2.698578
      6          6           0        0.000000   -1.145715    1.894921
      7          6           0       -0.000000   -0.747825    0.551519
      8          6           0        0.000000    1.145715    1.894921
      9          6           0       -0.000000   -1.588911   -0.550232
     10          6           0       -0.000000   -1.260954   -1.903510
     11          1           0        0.000000    0.000000   -3.577631
     12          1           0        0.000000    2.098972   -2.589739
     13          1           0        0.000000    2.650420   -0.323058
     14          1           0        0.000000    0.000000    3.778585
     15          1           0        0.000000   -2.167642    2.240201
     16          1           0        0.000000    2.167642    2.240201
     17          1           0       -0.000000   -2.650420   -0.323058
     18          1           0       -0.000000   -2.098972   -2.589739
 ---------------------------------------------------------------------

 SCF Done:  E(RHF) =  -385.160210051     A.U. after    2 cycles

 The electronic state is 1-A1.
 Alpha  occ. eigenvalues --  -11.49091 -11.47701 -11.46349 -11.46136 -11.44000
 Alpha  occ. eigenvalues --  -11.42160 -11.41686 -11.39792 -11.39649 -11.36452
 Alpha  occ. eigenvalues --   -1.39152  -1.24572  -1.17020  -1.06899  -1.01588
 Alpha  occ. eigenvalues --   -0.92509  -0.88284  -0.77669  -0.75450  -0.70793
 Alpha  occ. eigenvalues --   -0.69034  -0.63575  -0.62095  -0.53055  -0.53008
 Alpha  occ. eigenvalues --   -0.52933  -0.48900  -0.48091  -0.45862  -0.44674
 Alpha  occ. eigenvalues --   -0.42556  -0.40203  -0.29098  -0.24308
 Alpha virt. eigenvalues --    0.03167   0.04773   0.04832   0.05867   0.05903
 Alpha virt. eigenvalues --    0.06430   0.06568   0.06856   0.08810   0.09003
 Alpha virt. eigenvalues --    0.10419   0.11433   0.11439   0.12188   0.13371

 Mulliken charges:
               1
     1  C   -1.063231
     2  C   -0.849640
     3  C    1.872530
     4  C    1.901746
     5  C   -4.946902
     6  C   -5.470328
     7  C    1.872530
     8  C   -5.470328
     9  C    1.901746
    10  C   -0.849640
    11  H    1.310054
    12  H    1.401138
    13  H    1.580076
    14  H    1.359813
    15  H    1.234610
    16  H    1.234610
    17  H    1.580076
    18  H    1.401138
 Sum of Mulliken charges =   0.00000

 Dipole moment (field-independent basis, Debye):
    X=             -0.0000    Y=              0.0000    Z=             -1.7634  Tot=              1.7634

 Test job not archived.
 1\1\GINC-SE168\SP\RHF\Aug-CC-pVDZ\C10H8\OHZDE\06-Apr-2025\0\\#t hf aug
 -cc-pvdz iop(5/13=1,5/36=2,99/5=2) pseudo=read geom=check guess=(read,
 tcheck) scf=(maxcycle=1)\\title\\0,1\C,0,0.,0.,-2.493269\C,0,0.,1.2609
 54,-1.90351\C,0,0.,0.747825,0.551519\C,0,0.,1.588911,-0.550232\C,0,0.,
 0.,2.698578\C,0,0.,-1.145715,1.894921\C,0,0.,-0.747825,0.551519\C,0,0.
 ,1.145715,1.894921\C,0,0.,-1.588911,-0.550232\C,0,0.,-1.260954,-1.9035
 1\H,0,0.,0.,-3.577631\H,0,0.,2.098972,-2.589739\H,0,0.,2.65042,-0.3230
 58\H,0,0.,0.,3.778585\H,0,0.,-2.167642,2.240201\H,0,0.,2.167642,2.2402

 Normal termination of Gaussian 16 at Sun Apr  6 08:12:23 2025.
