 Gaussian 16, Revision C.01,

 ----------------------------------------------------------------------
 #t hf aug-cc-pvdz symm=none int=(grid=ultrafine) guess=(read,tcheck) s
 table=(opt,rrhf)
 ----------------------------------------------------------------------
 -----
 title
 -----
 Symbolic Z-matrix:
 Charge =  0 Multiplicity = 1

 SCF Done:  E(RHF) =  -418.381410535     A.U. after   16 cycles
 Normal termination of Gaussian 16 at Sun Apr  6 08:11:34 2025.
 Gaussian 16:  ES64L-G16RevC.01  3-Jul-2019

 ----------------------------------------------------------------------
 #t hf aug-cc-pvdz iop(5/13=1,5/36=2,99/5=2) pseudo=read geom=check gue
 ss=(read,tcheck) scf=(maxcycle=1)
 ----------------------------------------------------------------------
 -----
 title
 -----
 Structure from the checkpoint file:  "benzoic_acid.chk"
 Charge =  0 Multiplicity = 1

                         Standard orientation:
 ---------------------------------------------------------------------
 Center     Atomic      Atomic             Coordinates (Angstroms)
 Number     Number       Type             X           Y           Z
 ---------------------------------------------------------------------
      1          6           0        0.307786   -2.544530    0.000000
      2          6           0        1.429809   -1.720826   -0.000000
      3          6           0       -0.966751   -1.987681    0.000000
      4          6           0        1.277760   -0.342753   -0.000000
      5          6           0       -1.123948   -0.608404    0.000000
      6          6           0       -0.000000    0.220374   -0.000000
      7          6           0       -0.110623    1.700856   -0.000000
      8          8           0        0.823931    2.465863   -0.000000
      9          8           0       -1.394622    2.140425    0.000000
     10          1           0        0.427050   -3.619739    0.000000
     11          1           0        2.420556   -2.154119   -0.000000
     12          1           0       -1.837930   -2.628373    0.000000
     13          1           0        2.135639    0.314086   -0.000000
     14          1           0       -2.111190   -0.171656    0.000000
     15          1           0       -1.352794    3.107284   -0.000000
 ---------------------------------------------------------------------

 SCF Done:  E(RHF) =  -420.247225320     A.U. after    2 cycles

 The electronic state is 1-A'.
 Alpha  occ. eigenvalues --  -21.12269 -21.05144 -11.53707 -11.52540 -11.44646
 Alpha  occ. eigenvalues --  -11.44184 -11.42491 -11.41774 -11.37706  -1.83029
 Alpha  occ. eigenvalues --   -1.65291  -1.35491  -1.12940  -1.10626  -0.93035
 Alpha  occ. eigenvalues --   -0.87822  -0.80368  -0.72256  -0.66339  -0.61696
 Alpha  occ. eigenvalues --   -0.61486  -0.59477  -0.57642  -0.55737  -0.49911
 Alpha  occ. eigenvalues --   -0.49198  -0.46146  -0.44359  -0.35534  -0.34222
 Alpha  occ. eigenvalues --   -0.32558  -0.29975
 Alpha virt. eigenvalues --    0.03090   0.04850   0.05101   0.05927   0.06926
 Alpha virt. eigenvalues --    0.07335   0.08695   0.10004   0.10949   0.11158
 Alpha virt. eigenvalues --    0.12470   0.12496   0.13264   0.13756   0.13784

 Mulliken charges:
               1
     1  C   -3.184090
     2  C   -1.069185
     3  C   -1.598352
     4  C   -2.454406
     5  C   -0.997931
     6  C    2.085413
     7  C    5.362821
     8  O   -3.580942
     9  O   -3.778567
    10  H    1.535588
    11  H    1.447717
    12  H    1.464553
    13  H    1.727946
    14  H    1.825992
    15  H    1.213443
 Sum of Mulliken charges =   0.00000

 Dipole moment (field-independent basis, Debye):
    X=             -0.8933    Y=             -1.3327    Z=              0.0000  Tot=              1.6044

 Test job not archived.
 1\1\GINC-SE398\SP\RHF\Aug-CC-pVDZ\C7H6O2\OHZDE\06-Apr-2025\0\\#t hf au
 g-cc-pvdz iop(5/13=1,5/36=2,99/5=2) pseudo=read geom=check guess=(read
 ,tcheck) scf=(maxcycle=1)\\title\\0,1\C,0,0.307786,-2.54453,0.\C,0,1.4
 29809,-1.720826,0.\C,0,-0.966751,-1.987681,0.\C,0,1.27776,-0.342753,0.
 \C,0,-1.123948,-0.608404,0.\C,0,0.,0.220374,0.\C,0,-0.110623,1.700856,
 0.\O,0,0.823931,2.465863,0.\O,0,-1.394622,2.140425,0.\H,0,0.427051,-3.
 619739,0.\H,0,2.420556,-2.154119,0.\H,0,-1.83793,-2.628373,0.\H,0,2.13
 5639,0.314086,0.\H,0,-2.11119,-0.171656,0.\H,0,-1.352794,3.107284,0.\\

 Normal termination of Gaussian 16 at Sun Apr  6 08:11:40 2025.
