 Gaussian 16, Revision C.01,

 ----------------------------------------------------------------------
 #t hf aug-cc-pvdz symm=none int=(grid=ultrafine) guess=(read,tcheck) s
 table=(opt,rrhf)
 ----------------------------------------------------------------------
 -----
 title
 -----
 Symbolic Z-matrix:
 Charge =  0 Multiplicity = 1

 SCF Done:  E(RHF) =  -379.284340741     A.U. after   12 cycles
 Normal termination of Gaussian 16 at Sun Apr  6 08:11:05 2025.
 Gaussian 16:  ES64L-G16RevC.01  3-Jul-2019

 ----------------------------------------------------------------------
 #t hf aug-cc-pvdz iop(5/13=1,5/36=2,99/5=2) pseudo=read geom=check gue
 ss=(read,tcheck) scf=(maxcycle=1)
 ----------------------------------------------------------------------
 -----
 title
 -----
 Structure from the checkpoint file:  "benzoquinone.chk"
 Charge =  0 Multiplicity = 1

                         Standard orientation:
 ---------------------------------------------------------------------
 Center     Atomic      Atomic             Coordinates (Angstroms)
 Number     Number       Type             X           Y           Z
 ---------------------------------------------------------------------
      1          6           0        0.000000    0.000000    1.438198
      2          6           0        0.000000    0.000000   -1.438198
      3          8           0        0.000000    0.000000    2.656988
      4          8           0        0.000000    0.000000   -2.656988
      5          6           0        0.000000    1.265716    0.667837
      6          6           0       -0.000000   -1.265716    0.667837
      7          6           0       -0.000000   -1.265716   -0.667837
      8          6           0        0.000000    1.265716   -0.667837
      9          1           0        0.000000    2.176019    1.252736
     10          1           0       -0.000000   -2.176019    1.252736
     11          1           0       -0.000000   -2.176019   -1.252736
     12          1           0        0.000000    2.176019   -1.252736
 ---------------------------------------------------------------------

 SCF Done:  E(RHF) =  -380.931516903     A.U. after    2 cycles

 The electronic state is 1-AG.
 Alpha  occ. eigenvalues --  -21.08299 -21.08280 -11.56455 -11.51214 -11.48232
 Alpha  occ. eigenvalues --  -11.47106 -11.43706 -11.41761  -1.74232  -1.72356
 Alpha  occ. eigenvalues --   -1.30525  -1.15533  -1.01995  -0.91524  -0.85146
 Alpha  occ. eigenvalues --   -0.67952  -0.67812  -0.66936  -0.63602  -0.57237
 Alpha  occ. eigenvalues --   -0.52794  -0.52213  -0.49407  -0.49155  -0.40326
 Alpha  occ. eigenvalues --   -0.34240  -0.31593  -0.31188
 Alpha virt. eigenvalues --    0.02616   0.04984   0.05425   0.05954   0.06288
 Alpha virt. eigenvalues --    0.08283   0.10293   0.11214   0.11238   0.12432
 Alpha virt. eigenvalues --    0.12545   0.12984   0.13392   0.13846   0.14062

 Mulliken charges:
               1
     1  C    2.918835
     2  C    2.918835
     3  O   -3.840600
     4  O   -3.840600
     5  C   -1.116052
     6  C   -1.116052
     7  C   -1.116052
     8  C   -1.116052
     9  H    1.576934
    10  H    1.576934
    11  H    1.576934
    12  H    1.576934
 Sum of Mulliken charges =   0.00000

 Dipole moment (field-independent basis, Debye):
    X=             -0.0000    Y=             -0.0000    Z=              0.0000  Tot=              0.0000

 Test job not archived.
 1\1\GINC-SE422\SP\RHF\Aug-CC-pVDZ\C6H4O2\OHZDE\06-Apr-2025\0\\#t hf au
 g-cc-pvdz iop(5/13=1,5/36=2,99/5=2) pseudo=read geom=check guess=(read
 ,tcheck) scf=(maxcycle=1)\\title\\0,1\C,0,0.,0.,1.438198\C,0,0.,0.,-1.
 438198\O,0,0.,0.,2.656988\O,0,0.,0.,-2.656988\C,0,0.,1.265716,0.667837
 \C,0,0.,-1.265716,0.667837\C,0,0.,-1.265716,-0.667837\C,0,0.,1.265716,
 -0.667837\H,0,0.,2.176019,1.252736\H,0,0.,-2.176019,1.252736\H,0,0.,-2
 .176019,-1.252736\H,0,0.,2.176019,-1.252736\\Version=ES64L-G16RevC.01\
 State=1-AG\HF=-380.9315169\RMSD=2.020e+00\Dipole=0.,0.,0.\Quadrupole=0

 Normal termination of Gaussian 16 at Sun Apr  6 08:11:09 2025.
