 Gaussian 16, Revision C.01,

 ----------------------------------------------------------------------
 #t hf aug-cc-pvdz symm=none int=(grid=ultrafine) guess=(read,tcheck) s
 table=(opt,rrhf)
 ----------------------------------------------------------------------
 -----
 title
 -----
 Symbolic Z-matrix:
 Charge =  0 Multiplicity = 1

 SCF Done:  E(RHF) =  -306.368413149     A.U. after   14 cycles
 Normal termination of Gaussian 16 at Sun Apr  6 08:10:40 2025.
 Gaussian 16:  ES64L-G16RevC.01  3-Jul-2019

 ----------------------------------------------------------------------
 #t hf aug-cc-pvdz iop(5/13=1,5/36=2,99/5=2) pseudo=read geom=check gue
 ss=(read,tcheck) scf=(maxcycle=1)
 ----------------------------------------------------------------------
 -----
 title
 -----
 Structure from the checkpoint file:  "benzocyclobutadiene.chk"
 Charge =  0 Multiplicity = 1

                         Standard orientation:
 ---------------------------------------------------------------------
 Center     Atomic      Atomic             Coordinates (Angstroms)
 Number     Number       Type             X           Y           Z
 ---------------------------------------------------------------------
      1          6           0        0.000000    1.439760   -0.621675
      2          6           0        0.000000    0.686345   -1.839508
      3          6           0       -0.000000   -0.686345   -1.839508
      4          6           0       -0.000000   -1.439760   -0.621675
      5          6           0        0.000000   -0.673165    2.041672
      6          6           0        0.000000    0.673165    2.041672
      7          6           0        0.000000    0.709390    0.520531
      8          6           0       -0.000000   -0.709390    0.520531
      9          1           0        0.000000    2.521064   -0.642939
     10          1           0        0.000000    1.216563   -2.782280
     11          1           0       -0.000000   -1.216563   -2.782280
     12          1           0       -0.000000   -2.521064   -0.642939
     13          1           0        0.000000   -1.421348    2.819103
     14          1           0        0.000000    1.421348    2.819103
 ---------------------------------------------------------------------

 SCF Done:  E(RHF) =  -307.835567562     A.U. after    2 cycles

 The electronic state is 1-A1.
 Alpha  occ. eigenvalues --  -11.51721 -11.46932 -11.43200 -11.42145 -11.41868
 Alpha  occ. eigenvalues --  -11.40715 -11.39644 -11.36331  -1.40356  -1.21570
 Alpha  occ. eigenvalues --   -1.08959  -0.99522  -0.87624  -0.85172  -0.77823
 Alpha  occ. eigenvalues --   -0.70555  -0.63297  -0.62907  -0.54963  -0.53687
 Alpha  occ. eigenvalues --   -0.53319  -0.50457  -0.42353  -0.41957  -0.41223
 Alpha  occ. eigenvalues --   -0.33720  -0.25443
 Alpha virt. eigenvalues --    0.03399   0.04566   0.05103   0.05938   0.06350
 Alpha virt. eigenvalues --    0.07004   0.07383   0.10280   0.11360   0.11610
 Alpha virt. eigenvalues --    0.11675   0.12459   0.13328   0.13808   0.14198

 Mulliken charges:
               1
     1  C   -3.186001
     2  C   -1.636539
     3  C   -1.636539
     4  C   -3.186001
     5  C   -3.378492
     6  C   -3.378492
     7  C    4.132661
     8  C    4.132661
     9  H    1.569316
    10  H    1.448159
    11  H    1.448159
    12  H    1.569316
    13  H    1.050896
    14  H    1.050896
 Sum of Mulliken charges =  -0.00000

 Dipole moment (field-independent basis, Debye):
    X=             -0.0000    Y=             -0.0000    Z=              0.8665  Tot=              0.8665

 Test job not archived.
 1\1\GINC-SE412\SP\RHF\Aug-CC-pVDZ\C8H6\OHZDE\06-Apr-2025\0\\#t hf aug-
 cc-pvdz iop(5/13=1,5/36=2,99/5=2) pseudo=read geom=check guess=(read,t
 check) scf=(maxcycle=1)\\title\\0,1\C,0,0.,1.43976,-0.621675\C,0,0.,0.
 686345,-1.839508\C,0,0.,-0.686345,-1.839508\C,0,0.,-1.43976,-0.621675\
 C,0,0.,-0.673165,2.041672\C,0,0.,0.673165,2.041672\C,0,0.,0.70939,0.52
 0531\C,0,0.,-0.70939,0.520531\H,0,0.,2.521064,-0.642939\H,0,0.,1.21656
 3,-2.78228\H,0,0.,-1.216563,-2.78228\H,0,0.,-2.521064,-0.642939\H,0,0.
 ,-1.421348,2.819103\H,0,0.,1.421348,2.819103\\Version=ES64L-G16RevC.01

 Normal termination of Gaussian 16 at Sun Apr  6 08:10:47 2025.
