 Gaussian 16, Revision C.01,

 ----------------------------------------------------------------------
 #t hf aug-cc-pvdz symm=none int=(grid=ultrafine) guess=(read,tcheck) s
 table=(opt,rrhf)
 ----------------------------------------------------------------------
 -----
 title
 -----
 Symbolic Z-matrix:
 Charge =  0 Multiplicity = 1

 SCF Done:  E(RHF) =  -381.330845280     A.U. after   17 cycles
 Normal termination of Gaussian 16 at Sun Apr  6 08:11:44 2025.
 Gaussian 16:  ES64L-G16RevC.01  3-Jul-2019

 ----------------------------------------------------------------------
 #t hf aug-cc-pvdz iop(5/13=1,5/36=2,99/5=2) pseudo=read geom=check gue
 ss=(read,tcheck) scf=(maxcycle=1)
 ----------------------------------------------------------------------
 -----
 title
 -----
 Structure from the checkpoint file:  "benzofuran.chk"
 Charge =  0 Multiplicity = 1

                         Standard orientation:
 ---------------------------------------------------------------------
 Center     Atomic      Atomic             Coordinates (Angstroms)
 Number     Number       Type             X           Y           Z
 ---------------------------------------------------------------------
      1          6           0        1.747263   -1.406167    0.000000
      2          6           0        2.223038   -0.087275    0.000000
      3          6           0        0.389336   -1.682725    0.000000
      4          6           0        1.351487    0.993360   -0.000000
      5          6           0       -1.940990   -0.463643   -0.000000
      6          6           0       -2.180642    0.864075   -0.000000
      7          6           0       -0.508089   -0.610981    0.000000
      8          6           0        0.000000    0.695937   -0.000000
      9          8           0       -1.024824    1.601092   -0.000000
     10          1           0        2.457684   -2.221739    0.000000
     11          1           0        3.289485    0.091942    0.000000
     12          1           0        0.033887   -2.704379    0.000000
     13          1           0        1.703212    2.015004   -0.000000
     14          1           0       -2.683681   -1.242643    0.000000
     15          1           0       -3.090416    1.437594   -0.000000
 ---------------------------------------------------------------------

 SCF Done:  E(RHF) =  -383.091371689     A.U. after    2 cycles

 The electronic state is 1-A'.
 Alpha  occ. eigenvalues --  -21.11027 -11.51579 -11.47400 -11.45052 -11.43417
 Alpha  occ. eigenvalues --  -11.42433 -11.41361 -11.40165 -11.36973  -1.84470
 Alpha  occ. eigenvalues --   -1.32966  -1.18450  -1.08461  -1.05134  -0.89118
 Alpha  occ. eigenvalues --   -0.83395  -0.81614  -0.70804  -0.66393  -0.65487
 Alpha  occ. eigenvalues --   -0.59168  -0.58932  -0.54737  -0.51798  -0.47592
 Alpha  occ. eigenvalues --   -0.46577  -0.46121  -0.41224  -0.38763  -0.30553
 Alpha  occ. eigenvalues --   -0.27674
 Alpha virt. eigenvalues --    0.03357   0.04598   0.05022   0.05845   0.06583
 Alpha virt. eigenvalues --    0.06965   0.10047   0.10056   0.10973   0.11084
 Alpha virt. eigenvalues --    0.12171   0.12902   0.13510   0.13780   0.14359

 Mulliken charges:
               1
     1  C   -2.276907
     2  C   -1.867217
     3  C    0.866669
     4  C   -5.040716
     5  C   -3.007178
     6  C   -0.492430
     7  C    2.403384
     8  C    5.418098
     9  O   -4.707736
    10  H    1.488896
    11  H    1.427599
    12  H    1.558723
    13  H    1.665320
    14  H    1.154668
    15  H    1.408828
 Sum of Mulliken charges =  -0.00000

 Dipole moment (field-independent basis, Debye):
    X=             -0.4816    Y=              0.1997    Z=              0.0000  Tot=              0.5214

 Test job not archived.
 1\1\GINC-SE398\SP\RHF\Aug-CC-pVDZ\C8H6O1\OHZDE\06-Apr-2025\0\\#t hf au
 g-cc-pvdz iop(5/13=1,5/36=2,99/5=2) pseudo=read geom=check guess=(read
 ,tcheck) scf=(maxcycle=1)\\title\\0,1\C,0,1.747263,-1.406167,0.\C,0,2.
 223038,-0.087275,0.\C,0,0.389336,-1.682725,0.\C,0,1.351487,0.99336,0.\
 C,0,-1.94099,-0.463643,0.\C,0,-2.180642,0.864075,0.\C,0,-0.508089,-0.6
 10981,0.\C,0,0.,0.695937,0.\O,0,-1.024824,1.601092,0.\H,0,2.457684,-2.
 221739,0.\H,0,3.289485,0.091942,0.\H,0,0.033887,-2.704379,0.\H,0,1.703
 212,2.015004,0.\H,0,-2.683681,-1.242643,0.\H,0,-3.090416,1.437594,0.\\

 Normal termination of Gaussian 16 at Sun Apr  6 08:11:51 2025.
