 Gaussian 16, Revision C.01,

 ----------------------------------------------------------------------
 #t hf aug-cc-pvdz symm=none int=(grid=ultrafine) guess=(read,tcheck) s
 table=(opt,rrhf)
 ----------------------------------------------------------------------
 -----
 title
 -----
 Symbolic Z-matrix:
 Charge =  0 Multiplicity = 1

 SCF Done:  E(RHF) =  -343.473603836     A.U. after   16 cycles
 Normal termination of Gaussian 16 at Sun Apr  6 08:10:45 2025.
 Gaussian 16:  ES64L-G16RevC.01  3-Jul-2019

 ----------------------------------------------------------------------
 #t hf aug-cc-pvdz iop(5/13=1,5/36=2,99/5=2) pseudo=read geom=check gue
 ss=(read,tcheck) scf=(maxcycle=1)
 ----------------------------------------------------------------------
 -----
 title
 -----
 Structure from the checkpoint file:  "benzaldehyde.chk"
 Charge =  0 Multiplicity = 1

                         Standard orientation:
 ---------------------------------------------------------------------
 Center     Atomic      Atomic             Coordinates (Angstroms)
 Number     Number       Type             X           Y           Z
 ---------------------------------------------------------------------
      1          6           0        0.571069   -2.149970   -0.000000
      2          6           0        1.611083   -1.227341   -0.000000
      3          6           0       -0.754728   -1.717051   -0.000000
      4          6           0        1.324206    0.131604    0.000000
      5          6           0       -1.041517   -0.362317   -0.000000
      6          6           0        0.000000    0.570512    0.000000
      7          6           0       -0.284070    2.020789    0.000000
      8          8           0       -1.388905    2.512174    0.000000
      9          1           0        0.790975   -3.209245   -0.000000
     10          1           0        2.637810   -1.566777   -0.000000
     11          1           0       -1.558218   -2.441065   -0.000000
     12          1           0        2.126678    0.859329    0.000000
     13          1           0       -2.060939   -0.001955   -0.000000
     14          1           0        0.618676    2.664963    0.000000
 ---------------------------------------------------------------------

 SCF Done:  E(RHF) =  -345.047863884     A.U. after    2 cycles

 The electronic state is 1-A'.
 Alpha  occ. eigenvalues --  -21.05981 -11.52687 -11.48651 -11.44945 -11.44043
 Alpha  occ. eigenvalues --  -11.42137 -11.41956 -11.37820  -1.70780  -1.35908
 Alpha  occ. eigenvalues --   -1.13312  -1.10947  -0.93511  -0.88154  -0.81465
 Alpha  occ. eigenvalues --   -0.72530  -0.67686  -0.61794  -0.59811  -0.57629
 Alpha  occ. eigenvalues --   -0.53679  -0.52455  -0.46778  -0.45569  -0.45521
 Alpha  occ. eigenvalues --   -0.34593  -0.32798  -0.29611
 Alpha virt. eigenvalues --    0.02991   0.04680   0.04851   0.05938   0.06897
 Alpha virt. eigenvalues --    0.07432   0.08374   0.09920   0.10012   0.11492
 Alpha virt. eigenvalues --    0.11962   0.12819   0.13572   0.13666   0.13730

 Mulliken charges:
               1
     1  C   -2.830227
     2  C   -1.852190
     3  C   -1.300053
     4  C   -1.327624
     5  C   -2.180823
     6  C    3.834001
     7  C   -0.355779
     8  O   -3.180479
     9  H    1.497469
    10  H    1.467543
    11  H    1.488400
    12  H    1.744270
    13  H    1.746981
    14  H    1.248512
 Sum of Mulliken charges =   0.00000

 Dipole moment (field-independent basis, Debye):
    X=              1.0073    Y=             -1.6191    Z=             -0.0000  Tot=              1.9069

 Test job not archived.
 1\1\GINC-SE167\SP\RHF\Aug-CC-pVDZ\C7H6O1\OHZDE\06-Apr-2025\0\\#t hf au
 g-cc-pvdz iop(5/13=1,5/36=2,99/5=2) pseudo=read geom=check guess=(read
 ,tcheck) scf=(maxcycle=1)\\title\\0,1\C,0,0.571069,-2.14997,0.\C,0,1.6
 11083,-1.227341,0.\C,0,-0.754728,-1.717051,0.\C,0,1.324206,0.131604,0.
 \C,0,-1.041517,-0.362317,0.\C,0,0.,0.570512,0.\C,0,-0.28407,2.020789,0
 .\O,0,-1.388905,2.512174,0.\H,0,0.790975,-3.209245,0.\H,0,2.63781,-1.5
 66777,0.\H,0,-1.558218,-2.441065,0.\H,0,2.126678,0.859329,0.\H,0,-2.06
 0939,-0.001955,0.\H,0,0.618676,2.664963,0.\\Version=ES64L-G16RevC.01\S

 Normal termination of Gaussian 16 at Sun Apr  6 08:10:51 2025.
