 Gaussian 16, Revision C.01,

 ----------------------------------------------------------------------
 #t hf aug-cc-pvdz symm=none int=(grid=ultrafine) guess=(read,tcheck) s
 table=(opt,rrhf)
 ----------------------------------------------------------------------
 -----
 title
 -----
 Symbolic Z-matrix:
 Charge =  0 Multiplicity = 1

 SCF Done:  E(RHF) =  -623.077506327     A.U. after   16 cycles

 1\1\GINC-SE343\Stability\RHF\Aug-CC-pVDZ\C12H9N3\OHZDE\06-Apr-2025\0\\
 #t hf aug-cc-pvdz symm=none int=(grid=ultrafine) guess=(read,tcheck) s
 table=(opt,rrhf)\\title\\0,1\C,0,-2.260008,1.718793,0.\C,0,2.618522,1.
 097828,0.\C,0,-0.358514,-2.816621,0.\C,0,-1.636395,2.936436,0.\C,0,3.3
 61226,-0.051059,0.\C,0,-1.724831,-2.885378,0.\C,0,-1.235698,0.719678,0
 .\C,0,1.241108,0.710307,0.\C,0,-0.00541,-1.429985,0.\C,0,0.,1.392828,0
 .\C,0,1.206225,-0.696414,0.\C,0,-1.206225,-0.696414,0.\N,0,-0.273028,2
 .739129,0.\N,0,2.508669,-1.133115,0.\N,0,-2.235641,-1.606014,0.\H,0,-3

 Normal termination of Gaussian 16 at Sun Apr  6 08:16:31 2025.
 Gaussian 16:  ES64L-G16RevC.01  3-Jul-2019

 ----------------------------------------------------------------------
 #t hf aug-cc-pvdz iop(5/13=1,5/36=2,99/5=2) pseudo=read geom=check gue
 ss=(read,tcheck) scf=(maxcycle=1)
 ----------------------------------------------------------------------
 -----
 title
 -----
 Structure from the checkpoint file:  "benzo1-2-b-3-4-b--5-6-b--tripyrrole.chk"
 Charge =  0 Multiplicity = 1

                         Standard orientation:
 ---------------------------------------------------------------------
 Center     Atomic      Atomic             Coordinates (Angstroms)
 Number     Number       Type             X           Y           Z
 ---------------------------------------------------------------------
      1          6           0       -2.260008    1.718793    0.000000
      2          6           0        2.618522    1.097828   -0.000000
      3          6           0       -0.358514   -2.816621    0.000000
      4          6           0       -1.636395    2.936436   -0.000000
      5          6           0        3.361226   -0.051059   -0.000000
      6          6           0       -1.724831   -2.885378    0.000000
      7          6           0       -1.235698    0.719678    0.000000
      8          6           0        1.241108    0.710307   -0.000000
      9          6           0       -0.005410   -1.429985    0.000000
     10          6           0       -0.000000    1.392828   -0.000000
     11          6           0        1.206225   -0.696414   -0.000000
     12          6           0       -1.206225   -0.696414    0.000000
     13          7           0       -0.273028    2.739129   -0.000000
     14          7           0        2.508669   -1.133115   -0.000000
     15          7           0       -2.235641   -1.606014    0.000000
     16          1           0       -3.326106    1.566758    0.000000
     17          1           0        3.019905    2.097113   -0.000000
     18          1           0        0.306200   -3.663871    0.000000
     19          1           0       -2.050289    3.929412   -0.000000
     20          1           0        4.428115   -0.189104   -0.000000
     21          1           0       -2.377826   -3.740308    0.000000
     22          1           0        0.415105    3.468383   -0.000000
     23          1           0        2.796155   -2.093683   -0.000000
     24          1           0       -3.211260   -1.374700    0.000000
 ---------------------------------------------------------------------

 SCF Done:  E(RHF) =  -626.001156740     A.U. after    2 cycles

 The electronic state is 1-A'.
 Alpha  occ. eigenvalues --  -15.77556 -15.77556 -15.77527 -11.50761 -11.46848
 Alpha  occ. eigenvalues --  -11.46848 -11.45443 -11.45443 -11.45285 -11.41336
 Alpha  occ. eigenvalues --  -11.41336 -11.40107 -11.40050 -11.40050 -11.38006
 Alpha  occ. eigenvalues --   -1.54980  -1.47085  -1.47085  -1.20279  -1.14491
 Alpha  occ. eigenvalues --   -1.14491  -1.07076  -1.01773  -1.01773  -0.84471
 Alpha  occ. eigenvalues --   -0.84471  -0.84001  -0.79366  -0.79366  -0.77719
 Alpha  occ. eigenvalues --   -0.66778  -0.65598  -0.65598  -0.60338  -0.56124
 Alpha  occ. eigenvalues --   -0.55332  -0.55332  -0.54968  -0.54968  -0.54099
 Alpha  occ. eigenvalues --   -0.51161  -0.51161  -0.48856  -0.42952  -0.42952
 Alpha  occ. eigenvalues --   -0.38644  -0.35881  -0.35881  -0.29875  -0.22742
 Alpha  occ. eigenvalues --   -0.22742
 Alpha virt. eigenvalues --    0.03292   0.04484   0.04484   0.05753   0.05802
 Alpha virt. eigenvalues --    0.05802   0.06522   0.08523   0.08523   0.09643
 Alpha virt. eigenvalues --    0.10804   0.10804   0.11422   0.11422   0.12628

 Mulliken charges:
               1
     1  C   -1.817248
     2  C   -1.817249
     3  C   -1.817245
     4  C   -2.199307
     5  C   -2.199311
     6  C   -2.199313
     7  C    1.747383
     8  C    1.747370
     9  C    1.747352
    10  C    3.867327
    11  C    3.867329
    12  C    3.867316
    13  N   -4.981035
    14  N   -4.981038
    15  N   -4.981035
    16  H    1.285759
    17  H    1.285758
    18  H    1.285758
    19  H    1.364051
    20  H    1.364051
    21  H    1.364050
    22  H    0.733093
    23  H    0.733093
    24  H    0.733093
 Sum of Mulliken charges =  -0.00000

 Dipole moment (field-independent basis, Debye):
    X=             -0.0000    Y=             -0.0000    Z=             -0.0000  Tot=              0.0000

 Test job not archived.
 1\1\GINC-SE343\SP\RHF\Aug-CC-pVDZ\C12H9N3\OHZDE\06-Apr-2025\0\\#t hf a
 ug-cc-pvdz iop(5/13=1,5/36=2,99/5=2) pseudo=read geom=check guess=(rea
 d,tcheck) scf=(maxcycle=1)\\title\\0,1\C,0,-2.260008,1.718793,0.\C,0,2
 .618522,1.097828,0.\C,0,-0.358514,-2.816621,0.\C,0,-1.636395,2.936436,
 0.\C,0,3.361226,-0.051059,0.\C,0,-1.724831,-2.885378,0.\C,0,-1.235698,
 0.719678,0.\C,0,1.241108,0.710307,0.\C,0,-0.00541,-1.429985,0.\C,0,0.,
 1.392828,0.\C,0,1.206225,-0.696414,0.\C,0,-1.206225,-0.696414,0.\N,0,-
 0.273028,2.739129,0.\N,0,2.508669,-1.133115,0.\N,0,-2.235641,-1.606014

 Normal termination of Gaussian 16 at Sun Apr  6 08:16:59 2025.
