 Gaussian 16, Revision C.01,

 ----------------------------------------------------------------------
 #t hf aug-cc-pvdz symm=none int=(grid=ultrafine) guess=(read,tcheck) s
 table=(opt,rrhf)
 ----------------------------------------------------------------------
 -----
 title
 -----
 Symbolic Z-matrix:
 Charge =  0 Multiplicity = 1

 SCF Done:  E(RHF) =  -344.635452400     A.U. after   14 cycles
 Normal termination of Gaussian 16 at Sun Apr  6 08:10:46 2025.
 Gaussian 16:  ES64L-G16RevC.01  3-Jul-2019

 ----------------------------------------------------------------------
 #t hf aug-cc-pvdz iop(5/13=1,5/36=2,99/5=2) pseudo=read geom=check gue
 ss=(read,tcheck) scf=(maxcycle=1)
 ----------------------------------------------------------------------
 -----
 title
 -----
 Structure from the checkpoint file:  "benzyl_alcohol.chk"
 Charge =  0 Multiplicity = 1

                         Standard orientation:
 ---------------------------------------------------------------------
 Center     Atomic      Atomic             Coordinates (Angstroms)
 Number     Number       Type             X           Y           Z
 ---------------------------------------------------------------------
      1          6           0        2.295875   -0.194875    0.152817
      2          6           0        1.760211    1.086177    0.147384
      3          6           0        1.459304   -1.293258   -0.029852
      4          6           0        0.392585    1.267430   -0.038587
      5          6           0        0.097012   -1.108725   -0.219163
      6          6           0       -0.452614    0.175941   -0.226405
      7          6           0       -1.935484    0.370754   -0.429766
      8          8           0       -2.736278   -0.345146    0.513236
      9          1           0        3.357833   -0.339687    0.298826
     10          1           0        2.403036    1.944269    0.291616
     11          1           0        1.872130   -2.293318   -0.028077
     12          1           0       -0.021144    2.268461   -0.038507
     13          1           0       -0.552474   -1.963339   -0.357038
     14          1           0       -2.174626    1.438864   -0.408291
     15          1           0       -2.241931   -0.013856   -1.403463
     16          1           0       -2.453932   -0.100885    1.400478
 ---------------------------------------------------------------------

 SCF Done:  E(RHF) =  -346.251033948     A.U. after    2 cycles

 The electronic state is 1-A.
 Alpha  occ. eigenvalues --  -21.06833 -11.51515 -11.44264 -11.43080 -11.42359
 Alpha  occ. eigenvalues --  -11.40777 -11.40474 -11.36131  -1.70587  -1.34493
 Alpha  occ. eigenvalues --   -1.12508  -1.09324  -0.96834  -0.86616  -0.83338
 Alpha  occ. eigenvalues --   -0.71277  -0.65749  -0.64521  -0.58536  -0.58031
 Alpha  occ. eigenvalues --   -0.56330  -0.54519  -0.49305  -0.47253  -0.44491
 Alpha  occ. eigenvalues --   -0.39692  -0.33844  -0.33111  -0.30439
 Alpha virt. eigenvalues --    0.03359   0.04881   0.05036   0.05882   0.06410
 Alpha virt. eigenvalues --    0.06605   0.07297   0.07520   0.10621   0.11148
 Alpha virt. eigenvalues --    0.11600   0.12776   0.13219   0.13579   0.13969

 Mulliken charges:
               1
     1  C   -2.785797
     2  C   -1.482879
     3  C   -1.315300
     4  C   -2.010205
     5  C   -1.800068
     6  C    3.324276
     7  C   -2.763740
     8  O   -2.505424
     9  H    1.540146
    10  H    1.469129
    11  H    1.484839
    12  H    1.777232
    13  H    1.804560
    14  H    1.159828
    15  H    1.242321
    16  H    0.861082
 Sum of Mulliken charges =  -0.00000

 Dipole moment (field-independent basis, Debye):
    X=              0.5800    Y=              0.2971    Z=              0.1164  Tot=              0.6620

 Test job not archived.
 1\1\GINC-SE453\SP\RHF\Aug-CC-pVDZ\C7H8O1\OHZDE\06-Apr-2025\0\\#t hf au
 g-cc-pvdz iop(5/13=1,5/36=2,99/5=2) pseudo=read geom=check guess=(read
 ,tcheck) scf=(maxcycle=1)\\title\\0,1\C,0,2.295875,-0.194875,0.152817\
 C,0,1.760211,1.086177,0.147384\C,0,1.459304,-1.293258,-0.029852\C,0,0.
 392585,1.26743,-0.038587\C,0,0.097012,-1.108725,-0.219163\C,0,-0.45261
 4,0.175941,-0.226405\C,0,-1.935484,0.370754,-0.429766\O,0,-2.736278,-0
 .345146,0.513236\H,0,3.357833,-0.339687,0.298826\H,0,2.403036,1.944269
 ,0.291616\H,0,1.87213,-2.293318,-0.028077\H,0,-0.021144,2.268461,-0.03

 Normal termination of Gaussian 16 at Sun Apr  6 08:10:52 2025.
