 Gaussian 16, Revision C.01,

 ----------------------------------------------------------------------
 #t hf aug-cc-pvdz symm=none int=(grid=ultrafine) guess=(read,tcheck) s
 table=(opt,rrhf)
 ----------------------------------------------------------------------
 -----
 title
 -----
 Symbolic Z-matrix:
 Charge =  0 Multiplicity = 1

 SCF Done:  E(RHF) =  -682.531957009     A.U. after   16 cycles

 1\1\GINC-SE273\Stability\RHF\Aug-CC-pVDZ\C12H6O3\OHZDE\06-Apr-2025\0\\
 #t hf aug-cc-pvdz symm=none int=(grid=ultrafine) guess=(read,tcheck) s
 table=(opt,rrhf)\\title\\0,1\C,0,-2.229408,1.746979,0.\C,0,2.627632,1.
 057235,0.\C,0,-0.398224,-2.804213,0.\C,0,-1.554337,2.916926,0.\C,0,3.3
 033,-0.112368,0.\C,0,-1.748963,-2.804558,0.\C,0,-1.230229,0.713698,0.\
 C,0,1.233195,0.708561,0.\C,0,-0.002966,-1.422258,0.\C,0,0.,1.375748,0.
 \C,0,1.191433,-0.687874,0.\C,0,-1.191433,-0.687874,0.\O,0,-0.195326,2.
 723963,0.\O,0,2.456685,-1.192825,0.\O,0,-2.261359,-1.531139,0.\H,0,-3.

 Normal termination of Gaussian 16 at Sun Apr  6 08:15:38 2025.
 Gaussian 16:  ES64L-G16RevC.01  3-Jul-2019

 ----------------------------------------------------------------------
 #t hf aug-cc-pvdz iop(5/13=1,5/36=2,99/5=2) pseudo=read geom=check gue
 ss=(read,tcheck) scf=(maxcycle=1)
 ----------------------------------------------------------------------
 -----
 title
 -----
 Structure from the checkpoint file:  "benzo1-2-b-3-4-b--5-6-b--trifuran.chk"
 Charge =  0 Multiplicity = 1

                         Standard orientation:
 ---------------------------------------------------------------------
 Center     Atomic      Atomic             Coordinates (Angstroms)
 Number     Number       Type             X           Y           Z
 ---------------------------------------------------------------------
      1          6           0       -2.229408    1.746979   -0.000000
      2          6           0        2.627632    1.057235   -0.000000
      3          6           0       -0.398224   -2.804213    0.000000
      4          6           0       -1.554337    2.916926   -0.000000
      5          6           0        3.303300   -0.112368   -0.000000
      6          6           0       -1.748963   -2.804558    0.000000
      7          6           0       -1.230229    0.713698   -0.000000
      8          6           0        1.233195    0.708561   -0.000000
      9          6           0       -0.002966   -1.422258    0.000000
     10          6           0        0.000000    1.375748   -0.000000
     11          6           0        1.191433   -0.687874    0.000000
     12          6           0       -1.191433   -0.687874    0.000000
     13          8           0       -0.195326    2.723963   -0.000000
     14          8           0        2.456685   -1.192825    0.000000
     15          8           0       -2.261359   -1.531139    0.000000
     16          1           0       -3.298343    1.627719   -0.000000
     17          1           0        3.058818    2.042589   -0.000000
     18          1           0        0.239525   -3.670309    0.000000
     19          1           0       -1.873962    3.943054   -0.000000
     20          1           0        4.351766   -0.348628   -0.000000
     21          1           0       -2.477803   -3.594426    0.000000
 ---------------------------------------------------------------------

 SCF Done:  E(RHF) =  -685.579149930     A.U. after    2 cycles

 The electronic state is 1-A'.
 Alpha  occ. eigenvalues --  -21.11727 -21.11717 -21.11717 -11.53063 -11.49457
 Alpha  occ. eigenvalues --  -11.49457 -11.48597 -11.48597 -11.48395 -11.44327
 Alpha  occ. eigenvalues --  -11.44327 -11.43534 -11.42283 -11.42283 -11.40936
 Alpha  occ. eigenvalues --   -1.87183  -1.83827  -1.83827  -1.31511  -1.20740
 Alpha  occ. eigenvalues --   -1.20740  -1.11197  -1.04704  -1.04704  -0.86723
 Alpha  occ. eigenvalues --   -0.86723  -0.86301  -0.78498  -0.78498  -0.76346
 Alpha  occ. eigenvalues --   -0.65777  -0.65653  -0.65653  -0.63143  -0.58351
 Alpha  occ. eigenvalues --   -0.56917  -0.56917  -0.53205  -0.53205  -0.51967
 Alpha  occ. eigenvalues --   -0.49086  -0.49086  -0.44140  -0.41888  -0.41888
 Alpha  occ. eigenvalues --   -0.41724  -0.38539  -0.38539  -0.32575  -0.25955
 Alpha  occ. eigenvalues --   -0.25955
 Alpha virt. eigenvalues --    0.03142   0.04607   0.04607   0.05685   0.06359
 Alpha virt. eigenvalues --    0.06359   0.08670   0.10009   0.10178   0.10178
 Alpha virt. eigenvalues --    0.10293   0.10293   0.11847   0.11847   0.12440

 Mulliken charges:
               1
     1  C   -2.174982
     2  C   -2.174994
     3  C   -2.174991
     4  C   -1.450294
     5  C   -1.450291
     6  C   -1.450297
     7  C   -2.062923
     8  C   -2.062948
     9  C   -2.062929
    10  C    8.208541
    11  C    8.208540
    12  C    8.208541
    13  O   -5.257173
    14  O   -5.257169
    15  O   -5.257170
    16  H    1.274823
    17  H    1.274822
    18  H    1.274824
    19  H    1.462023
    20  H    1.462025
    21  H    1.462023
 Sum of Mulliken charges =   0.00000

 Dipole moment (field-independent basis, Debye):
    X=             -0.0000    Y=             -0.0000    Z=              0.0000  Tot=              0.0000

 Test job not archived.
 1\1\GINC-SE273\SP\RHF\Aug-CC-pVDZ\C12H6O3\OHZDE\06-Apr-2025\0\\#t hf a
 ug-cc-pvdz iop(5/13=1,5/36=2,99/5=2) pseudo=read geom=check guess=(rea
 d,tcheck) scf=(maxcycle=1)\\title\\0,1\C,0,-2.229408,1.746979,0.\C,0,2
 .627632,1.057235,0.\C,0,-0.398224,-2.804213,0.\C,0,-1.554337,2.916926,
 0.\C,0,3.3033,-0.112368,0.\C,0,-1.748963,-2.804558,0.\C,0,-1.230229,0.
 713698,0.\C,0,1.233195,0.708561,0.\C,0,-0.002966,-1.422258,0.\C,0,0.,1
 .375748,0.\C,0,1.191433,-0.687874,0.\C,0,-1.191433,-0.687874,0.\O,0,-0
 .195326,2.723963,0.\O,0,2.456685,-1.192825,0.\O,0,-2.261359,-1.531139,

 Normal termination of Gaussian 16 at Sun Apr  6 08:16:12 2025.
