 Gaussian 16, Revision C.01,

 ----------------------------------------------------------------------
 #t hf aug-cc-pvdz symm=none int=(grid=ultrafine) guess=(read,tcheck) s
 table=(opt,rrhf)
 ----------------------------------------------------------------------
 -----
 title
 -----
 Symbolic Z-matrix:
 Charge =  0 Multiplicity = 1

 SCF Done:  E(RHF) =  -628.258473862     A.U. after   15 cycles
 Normal termination of Gaussian 16 at Sun Apr  6 08:10:32 2025.
 Gaussian 16:  ES64L-G16RevC.01  3-Jul-2019

 ----------------------------------------------------------------------
 #t hf aug-cc-pvdz iop(5/13=1,5/36=2,99/5=2) pseudo=read geom=check gue
 ss=(read,tcheck) scf=(maxcycle=1)
 ----------------------------------------------------------------------
 -----
 title
 -----
 Structure from the checkpoint file:  "benzenethiol.chk"
 Charge =  0 Multiplicity = 1

                         Standard orientation:
 ---------------------------------------------------------------------
 Center     Atomic      Atomic             Coordinates (Angstroms)
 Number     Number       Type             X           Y           Z
 ---------------------------------------------------------------------
      1          6           0        0.007083   -2.289118    0.000000
      2          6           0        1.204721   -1.583554    0.000000
      3          6           0       -1.194960   -1.590256   -0.000000
      4          6           0        1.206584   -0.194173    0.000000
      5          6           0       -1.203315   -0.201715   -0.000000
      6          6           0       -0.000000    0.505241   -0.000000
      7         16           0       -0.086475    2.284006   -0.000000
      8          1           0        0.010419   -3.370141    0.000000
      9          1           0        2.147471   -2.114249    0.000000
     10          1           0       -2.134602   -2.126238   -0.000000
     11          1           0        2.146513    0.340962    0.000000
     12          1           0       -2.144219    0.332370   -0.000000
     13          1           0        1.237336    2.514654    0.000000
 ---------------------------------------------------------------------

 SCF Done:  E(RHF) =  -629.593820745     A.U. after    2 cycles

 The electronic state is 1-A'.
 Alpha  occ. eigenvalues --  -75.70094 -13.17202 -13.14619 -13.01847 -11.51623
 Alpha  occ. eigenvalues --  -11.44305 -11.43386 -11.41271 -11.40949 -11.36828
 Alpha  occ. eigenvalues --   -8.04094  -1.36330  -1.17288  -1.09921  -1.03506
 Alpha  occ. eigenvalues --   -0.87372  -0.84372  -0.71403  -0.64933  -0.59465
 Alpha  occ. eigenvalues --   -0.58562  -0.55075  -0.51915  -0.48104  -0.45295
 Alpha  occ. eigenvalues --   -0.38562  -0.37495  -0.33721  -0.22640
 Alpha virt. eigenvalues --    0.02996   0.04427   0.04981   0.05664   0.05871
 Alpha virt. eigenvalues --    0.07310   0.09712   0.10528   0.10931   0.11153
 Alpha virt. eigenvalues --    0.12734   0.13701   0.14189   0.14231   0.14639

 Mulliken charges:
               1
     1  C   -2.518103
     2  C   -0.750527
     3  C   -0.944129
     4  C   -2.678035
     5  C   -3.502628
     6  C    2.462849
     7  S   -1.098305
     8  H    1.506159
     9  H    1.460602
    10  H    1.506728
    11  H    1.768971
    12  H    1.746710
    13  H    1.039707
 Sum of Mulliken charges =  -0.00000

 Dipole moment (field-independent basis, Debye):
    X=             -0.8828    Y=              0.2538    Z=              0.0000  Tot=              0.9186

 Test job not archived.
 1\1\GINC-SE271\SP\RHF\Aug-CC-pVDZ\C6H6S1\OHZDE\06-Apr-2025\0\\#t hf au
 g-cc-pvdz iop(5/13=1,5/36=2,99/5=2) pseudo=read geom=check guess=(read
 ,tcheck) scf=(maxcycle=1)\\title\\0,1\C,0,0.007083,-2.289118,0.\C,0,1.
 204721,-1.583554,0.\C,0,-1.19496,-1.590256,0.\C,0,1.206584,-0.194173,0
 .\C,0,-1.203315,-0.201715,0.\C,0,0.,0.505241,0.\S,0,-0.086475,2.284006
 ,0.\H,0,0.010418,-3.370141,0.\H,0,2.147471,-2.114249,0.\H,0,-2.134602,
 -2.126238,0.\H,0,2.146513,0.340962,0.\H,0,-2.144219,0.33237,0.\H,0,1.2
 37336,2.514654,0.\\Version=ES64L-G16RevC.01\State=1-A'\HF=-629.5938207

 Normal termination of Gaussian 16 at Sun Apr  6 08:10:48 2025.
