 Gaussian 16, Revision C.01,

 ----------------------------------------------------------------------
 #t hf aug-cc-pvdz symm=none int=(grid=ultrafine) guess=(read,tcheck) s
 table=(opt,rrhf)
 ----------------------------------------------------------------------
 -----
 title
 -----
 Symbolic Z-matrix:
 Charge =  0 Multiplicity = 1

 SCF Done:  E(RHF) =  -229.412704976     A.U. after   13 cycles
 Normal termination of Gaussian 16 at Sun Apr  6 08:10:13 2025.
 Gaussian 16:  ES64L-G16RevC.01  3-Jul-2019

 ----------------------------------------------------------------------
 #t hf aug-cc-pvdz iop(5/13=1,5/36=2,99/5=2) pseudo=read geom=check gue
 ss=(read,tcheck) scf=(maxcycle=1)
 ----------------------------------------------------------------------
 -----
 title
 -----
 Structure from the checkpoint file:  "benzyne.chk"
 Charge =  0 Multiplicity = 1

                         Standard orientation:
 ---------------------------------------------------------------------
 Center     Atomic      Atomic             Coordinates (Angstroms)
 Number     Number       Type             X           Y           Z
 ---------------------------------------------------------------------
      1          6           0        0.000000    1.455634   -0.133697
      2          6           0        0.000000    0.700529    1.053581
      3          6           0       -0.000000   -0.700529    1.053581
      4          6           0       -0.000000   -1.455634   -0.133697
      5          6           0        0.000000   -0.620534   -1.230930
      6          6           0        0.000000    0.620534   -1.230930
      7          1           0        0.000000    2.535415   -0.135167
      8          1           0        0.000000    1.224463    2.001444
      9          1           0       -0.000000   -1.224463    2.001444
     10          1           0       -0.000000   -2.535415   -0.135167
 ---------------------------------------------------------------------

 SCF Done:  E(RHF) =  -230.520400629     A.U. after    2 cycles

 The electronic state is 1-A1.
 Alpha  occ. eigenvalues --  -11.50671 -11.44764 -11.43474 -11.41610 -11.40966
 Alpha  occ. eigenvalues --  -11.38688  -1.35832  -1.10239  -1.07305  -0.87482
 Alpha  occ. eigenvalues --   -0.82016  -0.69813  -0.64687  -0.57502  -0.53025
 Alpha  occ. eigenvalues --   -0.52482  -0.51390  -0.35818  -0.34435  -0.34376
 Alpha virt. eigenvalues --    0.03231   0.04880   0.05303   0.05798   0.07917
 Alpha virt. eigenvalues --    0.09702   0.10523   0.11741   0.12401   0.13233
 Alpha virt. eigenvalues --    0.13769   0.13982   0.14243   0.14642   0.14880

 Mulliken charges:
               1
     1  C   -2.383497
     2  C   -1.693744
     3  C   -1.693744
     4  C   -2.383497
     5  C    1.232141
     6  C    1.232141
     7  H    1.410029
     8  H    1.435071
     9  H    1.435071
    10  H    1.410029
 Sum of Mulliken charges =  -0.00000

 Dipole moment (field-independent basis, Debye):
    X=             -0.0000    Y=              0.0000    Z=              2.0851  Tot=              2.0851

 Test job not archived.
 1\1\GINC-SE453\SP\RHF\Aug-CC-pVDZ\C6H4\OHZDE\06-Apr-2025\0\\#t hf aug-
 cc-pvdz iop(5/13=1,5/36=2,99/5=2) pseudo=read geom=check guess=(read,t
 check) scf=(maxcycle=1)\\title\\0,1\C,0,0.,1.455634,-0.133697\C,0,0.,0
 .700529,1.053581\C,0,0.,-0.700529,1.053581\C,0,0.,-1.455634,-0.133697\
 C,0,0.,-0.620534,-1.23093\C,0,0.,0.620534,-1.23093\H,0,0.,2.535415,-0.
 135167\H,0,0.,1.224463,2.001444\H,0,0.,-1.224463,2.001444\H,0,0.,-2.53
 5415,-0.135167\\Version=ES64L-G16RevC.01\State=1-A1\HF=-230.5204006\RM
 SD=1.592e+00\Dipole=0.,0.,0.8203576\Quadrupole=-3.2937055,4.2131775,-0

 Normal termination of Gaussian 16 at Sun Apr  6 08:10:47 2025.
