 Gaussian 16, Revision C.01,

 ----------------------------------------------------------------------
 #t hf aug-cc-pvdz symm=none int=(grid=ultrafine) guess=(read,tcheck) s
 table=(opt,rrhf)
 ----------------------------------------------------------------------
 -----
 title
 -----
 Symbolic Z-matrix:
 Charge =  0 Multiplicity = 1

 SCF Done:  E(RHF) =  -704.003136738     A.U. after   18 cycles
 Normal termination of Gaussian 16 at Sun Apr  6 08:11:51 2025.
 Gaussian 16:  ES64L-G16RevC.01  3-Jul-2019

 ----------------------------------------------------------------------
 #t hf aug-cc-pvdz iop(5/13=1,5/36=2,99/5=2) pseudo=read geom=check gue
 ss=(read,tcheck) scf=(maxcycle=1)
 ----------------------------------------------------------------------
 -----
 title
 -----
 Structure from the checkpoint file:  "benzothiophene.chk"
 Charge =  0 Multiplicity = 1

                         Standard orientation:
 ---------------------------------------------------------------------
 Center     Atomic      Atomic             Coordinates (Angstroms)
 Number     Number       Type             X           Y           Z
 ---------------------------------------------------------------------
      1          6           0        2.419842   -0.781506    0.000000
      2          6           0        2.384977    0.620139    0.000000
      3          6           0        1.250934   -1.517608   -0.000000
      4          6           0        1.179130    1.298960    0.000000
      5          6           0       -1.312092   -1.405181   -0.000000
      6          6           0       -2.275718   -0.456495   -0.000000
      7          6           0        0.014337   -0.856085   -0.000000
      8          6           0        0.000000    0.556152    0.000000
      9         16           0       -1.639275    1.165435   -0.000000
     10          1           0        3.374674   -1.289610    0.000000
     11          1           0        3.311216    1.178597    0.000000
     12          1           0        1.282913   -2.599422   -0.000000
     13          1           0        1.154241    2.380060    0.000000
     14          1           0       -1.519954   -2.465202   -0.000000
     15          1           0       -3.343153   -0.601646   -0.000000
 ---------------------------------------------------------------------

 SCF Done:  E(RHF) =  -705.694095482     A.U. after    2 cycles

 The electronic state is 1-A'.
 Alpha  occ. eigenvalues --  -75.70817 -13.19591 -13.14635 -13.02788 -11.51248
 Alpha  occ. eigenvalues --  -11.46493 -11.44309 -11.43644 -11.42079 -11.41654
 Alpha  occ. eigenvalues --  -11.40397 -11.37147  -8.05255  -1.41528  -1.24644
 Alpha  occ. eigenvalues --   -1.13328  -1.05714  -1.03652  -0.88186  -0.83345
 Alpha  occ. eigenvalues --   -0.80272  -0.69178  -0.66136  -0.63983  -0.57989
 Alpha  occ. eigenvalues --   -0.55029  -0.54333  -0.50362  -0.45119  -0.44056
 Alpha  occ. eigenvalues --   -0.43660  -0.37779  -0.36716  -0.30550  -0.23386
 Alpha virt. eigenvalues --    0.03178   0.04132   0.05038   0.05568   0.06230
 Alpha virt. eigenvalues --    0.07188   0.08829   0.10084   0.10106   0.10628
 Alpha virt. eigenvalues --    0.11664   0.11828   0.12621   0.13182   0.14085

 Mulliken charges:
               1
     1  C   -2.843604
     2  C   -1.944281
     3  C    0.829060
     4  C   -3.982863
     5  C   -2.615294
     6  C   -4.641760
     7  C    3.368960
     8  C    1.578869
     9  S    1.301216
    10  H    1.491402
    11  H    1.472431
    12  H    1.673461
    13  H    1.668867
    14  H    1.440595
    15  H    1.202942
 Sum of Mulliken charges =  -0.00000

 Dipole moment (field-independent basis, Debye):
    X=             -0.8796    Y=              1.3584    Z=             -0.0000  Tot=              1.6183

 Test job not archived.
 1\1\GINC-SE454\SP\RHF\Aug-CC-pVDZ\C8H6S1\OHZDE\06-Apr-2025\0\\#t hf au
 g-cc-pvdz iop(5/13=1,5/36=2,99/5=2) pseudo=read geom=check guess=(read
 ,tcheck) scf=(maxcycle=1)\\title\\0,1\C,0,2.419842,-0.781506,0.\C,0,2.
 384977,0.620139,0.\C,0,1.250934,-1.517608,0.\C,0,1.17913,1.29896,0.\C,
 0,-1.312092,-1.405181,0.\C,0,-2.275718,-0.456495,0.\C,0,0.014337,-0.85
 6085,0.\C,0,0.,0.556152,0.\S,0,-1.639275,1.165435,0.\H,0,3.374674,-1.2
 8961,0.\H,0,3.311216,1.178597,0.\H,0,1.282913,-2.599422,0.\H,0,1.15424
 1,2.38006,0.\H,0,-1.519954,-2.465202,0.\H,0,-3.343153,-0.601646,0.\\Ve

 Normal termination of Gaussian 16 at Sun Apr  6 08:11:58 2025.
