 Gaussian 16, Revision C.01,

 ----------------------------------------------------------------------
 #t hf aug-cc-pvdz symm=none int=(grid=ultrafine) guess=(read,tcheck) s
 table=(opt,rrhf)
 ----------------------------------------------------------------------
 -----
 title
 -----
 Symbolic Z-matrix:
 Charge =  0 Multiplicity = 1

 SCF Done:  E(RHF) =  -230.728350653     A.U. after   10 cycles
 Normal termination of Gaussian 16 at Sun Apr  6 08:10:54 2025.
 Gaussian 16:  ES64L-G16RevC.01  3-Jul-2019

 ----------------------------------------------------------------------
 #t hf aug-cc-pvdz iop(5/13=1,5/36=2,99/5=2) pseudo=read geom=check gue
 ss=(read,tcheck) scf=(maxcycle=1)
 ----------------------------------------------------------------------
 -----
 title
 -----
 Structure from the checkpoint file:  "benzene.chk"
 Charge =  0 Multiplicity = 1

                         Standard orientation:
 ---------------------------------------------------------------------
 Center     Atomic      Atomic             Coordinates (Angstroms)
 Number     Number       Type             X           Y           Z
 ---------------------------------------------------------------------
      1          6           0       -0.000000   -0.000000    1.390589
      2          6           0        0.000000    1.204285    0.695294
      3          6           0       -0.000000   -1.204285    0.695294
      4          6           0        0.000000    1.204285   -0.695294
      5          6           0       -0.000000   -1.204285   -0.695294
      6          6           0        0.000000   -0.000000   -1.390589
      7          1           0       -0.000000    0.000000    2.472617
      8          1           0        0.000000    0.000000   -2.472617
      9          1           0       -0.000000   -2.141349    1.236308
     10          1           0        0.000000    2.141349   -1.236308
     11          1           0        0.000000    2.141349    1.236308
     12          1           0        0.000000   -2.141349   -1.236308
 ---------------------------------------------------------------------

 SCF Done:  E(RHF) =  -231.848855579     A.U. after    2 cycles

 The electronic state is 1-AG.
 Alpha  occ. eigenvalues --  -11.51459 -11.42146 -11.42146 -11.39614 -11.39614
 Alpha  occ. eigenvalues --  -11.35723  -1.33653  -1.08776  -1.08776  -0.85585
 Alpha  occ. eigenvalues --   -0.85585  -0.72019  -0.65349  -0.58036  -0.58036
 Alpha  occ. eigenvalues --   -0.55740  -0.49816  -0.44506  -0.44506  -0.32695
 Alpha  occ. eigenvalues --   -0.32695
 Alpha virt. eigenvalues --    0.03387   0.04952   0.04952   0.06208   0.06208
 Alpha virt. eigenvalues --    0.07363   0.11645   0.11645   0.13775   0.14264
 Alpha virt. eigenvalues --    0.14264   0.14479   0.14479   0.14745   0.15202

 Mulliken charges:
               1
     1  C   -1.496741
     2  C   -1.496699
     3  C   -1.496699
     4  C   -1.496699
     5  C   -1.496699
     6  C   -1.496741
     7  H    1.496713
     8  H    1.496713
     9  H    1.496713
    10  H    1.496713
    11  H    1.496713
    12  H    1.496713
 Sum of Mulliken charges =  -0.00000

 Dipole moment (field-independent basis, Debye):
    X=              0.0000    Y=             -0.0000    Z=             -0.0000  Tot=              0.0000

 Test job not archived.
 1\1\GINC-SE170\SP\RHF\Aug-CC-pVDZ\C6H6\OHZDE\06-Apr-2025\0\\#t hf aug-
 cc-pvdz iop(5/13=1,5/36=2,99/5=2) pseudo=read geom=check guess=(read,t
 check) scf=(maxcycle=1)\\title\\0,1\C,0,0.,1.390589,0.\C,0,1.204285,0.
 695294,0.\C,0,-1.204285,0.695294,0.\C,0,1.204285,-0.695294,0.\C,0,-1.2
 04285,-0.695294,0.\C,0,0.,-1.390589,0.\H,0,0.,2.472617,0.\H,0,0.,-2.47
 2617,0.\H,0,-2.141349,1.236308,0.\H,0,2.141349,-1.236308,0.\H,0,2.1413
 49,1.236308,0.\H,0,-2.141349,-1.236308,0.\\Version=ES64L-G16RevC.01\St
 ate=1-AG\HF=-231.8488556\RMSD=1.976e+00\Dipole=0.,0.,0.\Quadrupole=2.1

 Normal termination of Gaussian 16 at Sun Apr  6 08:11:00 2025.
