 Gaussian 16, Revision C.01,

 ----------------------------------------------------------------------
 #t hf aug-cc-pvdz symm=none int=(grid=ultrafine) guess=(read,tcheck) s
 table=(opt,rrhf)
 ----------------------------------------------------------------------
 -----
 title
 -----
 Symbolic Z-matrix:
 Charge =  0 Multiplicity = 1

 SCF Done:  E(RHF) =  -395.860565625     A.U. after   14 cycles
 Normal termination of Gaussian 16 at Sun Apr  6 08:11:11 2025.
 Gaussian 16:  ES64L-G16RevC.01  3-Jul-2019

 ----------------------------------------------------------------------
 #t hf aug-cc-pvdz iop(5/13=1,5/36=2,99/5=2) pseudo=read geom=check gue
 ss=(read,tcheck) scf=(maxcycle=1)
 ----------------------------------------------------------------------
 -----
 title
 -----
 Structure from the checkpoint file:  "benzene-1-3-5-triamine.chk"
 Charge =  0 Multiplicity = 1

                         Standard orientation:
 ---------------------------------------------------------------------
 Center     Atomic      Atomic             Coordinates (Angstroms)
 Number     Number       Type             X           Y           Z
 ---------------------------------------------------------------------
      1          6           0       -0.005270   -1.396197   -0.000000
      2          6           0       -0.005270    0.698099    1.209142
      3          6           0       -0.005270    0.698099   -1.209142
      4          6           0       -0.006832   -0.697921    1.208834
      5          6           0       -0.006832   -0.697921   -1.208834
      6          6           0       -0.006832    1.395841   -0.000000
      7          7           0       -0.064461   -1.395250    2.416644
      8          7           0       -0.064461   -1.395250   -2.416644
      9          7           0       -0.064461    2.790500   -0.000000
     10          1           0       -0.023214   -2.479119   -0.000000
     11          1           0       -0.023214    1.239560    2.146980
     12          1           0       -0.023214    1.239560   -2.146980
     13          1           0        0.273528   -0.895252    3.222171
     14          1           0        0.273528   -2.342856    2.386397
     15          1           0        0.273528   -2.342856   -2.386397
     16          1           0        0.273528   -0.895252   -3.222171
     17          1           0        0.273528    3.238108   -0.835774
     18          1           0        0.273528    3.238108    0.835774
 ---------------------------------------------------------------------

 SCF Done:  E(RHF) =  -397.745129673     A.U. after    2 cycles

 The electronic state is 1-A'.
 Alpha  occ. eigenvalues --  -15.75101 -15.75042 -15.75042 -11.50503 -11.45747
 Alpha  occ. eigenvalues --  -11.45747 -11.38616 -11.38616 -11.34315  -1.44403
 Alpha  occ. eigenvalues --   -1.34487  -1.34487  -1.16972  -1.03546  -1.03546
 Alpha  occ. eigenvalues --   -0.84599  -0.84599  -0.69869  -0.68793  -0.66990
 Alpha  occ. eigenvalues --   -0.64538  -0.64538  -0.56698  -0.56698  -0.54550
 Alpha  occ. eigenvalues --   -0.50254  -0.47422  -0.47422  -0.44041  -0.44041
 Alpha  occ. eigenvalues --   -0.34193  -0.25950  -0.25950
 Alpha virt. eigenvalues --    0.03538   0.04764   0.04764   0.05686   0.05686
 Alpha virt. eigenvalues --    0.07300   0.07988   0.09889   0.09889   0.10421
 Alpha virt. eigenvalues --    0.12963   0.12963   0.13696   0.13696   0.13791

 Mulliken charges:
               1
     1  C   -2.918575
     2  C   -2.918600
     3  C   -2.918600
     4  C    3.935354
     5  C    3.935354
     6  C    3.935397
     7  N   -4.082121
     8  N   -4.082121
     9  N   -4.082120
    10  H    1.788758
    11  H    1.788757
    12  H    1.788757
    13  H    0.638294
    14  H    0.638293
    15  H    0.638293
    16  H    0.638294
    17  H    0.638294
    18  H    0.638294
 Sum of Mulliken charges =  -0.00000

 Dipole moment (field-independent basis, Debye):
    X=              2.2188    Y=             -0.0000    Z=             -0.0000  Tot=              2.2188

 Test job not archived.
 1\1\GINC-SE169\SP\RHF\Aug-CC-pVDZ\C6H9N3\OHZDE\06-Apr-2025\0\\#t hf au
 g-cc-pvdz iop(5/13=1,5/36=2,99/5=2) pseudo=read geom=check guess=(read
 ,tcheck) scf=(maxcycle=1)\\title\\0,1\C,0,0.,1.396197,-0.00527\C,0,1.2
 09142,-0.698099,-0.00527\C,0,-1.209142,-0.698099,-0.00527\C,0,1.208834
 ,0.697921,-0.006832\C,0,-1.208834,0.697921,-0.006832\C,0,0.,-1.395841,
 -0.006832\N,0,2.416644,1.39525,-0.064461\N,0,-2.416644,1.39525,-0.0644
 61\N,0,0.,-2.7905,-0.064461\H,0,0.,2.479119,-0.023214\H,0,2.14698,-1.2
 3956,-0.023214\H,0,-2.14698,-1.23956,-0.023214\H,0,3.222171,0.895252,0

 Normal termination of Gaussian 16 at Sun Apr  6 08:11:16 2025.
