 Gaussian 16, Revision C.01,

 ----------------------------------------------------------------------
 #t hf aug-cc-pvdz symm=none int=(grid=ultrafine) guess=(read,tcheck) s
 table=(opt,rrhf)
 ----------------------------------------------------------------------
 -----
 title
 -----
 Symbolic Z-matrix:
 Charge =  0 Multiplicity = 1

 SCF Done:  E(RHF) =  -322.472439720     A.U. after   15 cycles
 Normal termination of Gaussian 16 at Sun Apr  6 08:10:37 2025.
 Gaussian 16:  ES64L-G16RevC.01  3-Jul-2019

 ----------------------------------------------------------------------
 #t hf aug-cc-pvdz iop(5/13=1,5/36=2,99/5=2) pseudo=read geom=check gue
 ss=(read,tcheck) scf=(maxcycle=1)
 ----------------------------------------------------------------------
 -----
 title
 -----
 Structure from the checkpoint file:  "benzonitrile.chk"
 Charge =  0 Multiplicity = 1

                         Standard orientation:
 ---------------------------------------------------------------------
 Center     Atomic      Atomic             Coordinates (Angstroms)
 Number     Number       Type             X           Y           Z
 ---------------------------------------------------------------------
      1          6           0        0.000000   -0.000000    2.038408
      2          6           0        0.000000    0.000000   -2.171450
      3          6           0        0.000000    1.205362   -1.477349
      4          6           0       -0.000000   -1.205362   -1.477349
      5          6           0        0.000000    1.211491   -0.090773
      6          6           0       -0.000000   -1.211491   -0.090773
      7          6           0        0.000000   -0.000000    0.608724
      8          7           0        0.000000   -0.000000    3.190989
      9          1           0        0.000000    0.000000   -3.252992
     10          1           0        0.000000    2.142437   -2.016824
     11          1           0       -0.000000   -2.142437   -2.016824
     12          1           0        0.000000    2.143254    0.456544
     13          1           0       -0.000000   -2.143254    0.456544
 ---------------------------------------------------------------------

 SCF Done:  E(RHF) =  -323.975493635     A.U. after    2 cycles

 The electronic state is 1-A1.
 Alpha  occ. eigenvalues --  -15.76129 -11.55458 -11.47404 -11.46233 -11.44434
 Alpha  occ. eigenvalues --  -11.43348 -11.43004 -11.39236  -1.39331  -1.29146
 Alpha  occ. eigenvalues --   -1.13715  -1.12257  -0.92232  -0.89313  -0.77526
 Alpha  occ. eigenvalues --   -0.70966  -0.63449  -0.61168  -0.60725  -0.55205
 Alpha  occ. eigenvalues --   -0.53578  -0.48787  -0.47798  -0.46681  -0.43180
 Alpha  occ. eigenvalues --   -0.35706  -0.34095
 Alpha virt. eigenvalues --    0.02522   0.04625   0.04628   0.06334   0.06501
 Alpha virt. eigenvalues --    0.08331   0.09137   0.09687   0.10771   0.11518
 Alpha virt. eigenvalues --    0.12337   0.12517   0.12916   0.13301   0.13396

 Mulliken charges:
               1
     1  C   -0.554283
     2  C   -2.645399
     3  C   -1.017846
     4  C   -1.017846
     5  C   -2.824031
     6  C   -2.824031
     7  C    5.276443
     8  N   -2.270562
     9  H    1.526123
    10  H    1.488378
    11  H    1.488378
    12  H    1.687338
    13  H    1.687338
 Sum of Mulliken charges =   0.00000

 Dipole moment (field-independent basis, Debye):
    X=             -0.0000    Y=             -0.0000    Z=             -4.2310  Tot=              4.2310

 Test job not archived.
 1\1\GINC-SE422\SP\RHF\Aug-CC-pVDZ\C7H5N1\OHZDE\06-Apr-2025\0\\#t hf au
 g-cc-pvdz iop(5/13=1,5/36=2,99/5=2) pseudo=read geom=check guess=(read
 ,tcheck) scf=(maxcycle=1)\\title\\0,1\C,0,0.,0.,2.038408\C,0,0.,0.,-2.
 17145\C,0,0.,1.205362,-1.477349\C,0,0.,-1.205362,-1.477349\C,0,0.,1.21
 1491,-0.090773\C,0,0.,-1.211491,-0.090773\C,0,0.,0.,0.608724\N,0,0.,0.
 ,3.190989\H,0,0.,0.,-3.252992\H,0,0.,2.142437,-2.016824\H,0,0.,-2.1424
 37,-2.016824\H,0,0.,2.143254,0.456544\H,0,0.,-2.143254,0.456544\\Versi
 on=ES64L-G16RevC.01\State=1-A1\HF=-323.9754936\RMSD=2.241e+00\Dipole=0

 Normal termination of Gaussian 16 at Sun Apr  6 08:10:47 2025.
