 Gaussian 16, Revision C.01,

 ----------------------------------------------------------------------
 #t hf aug-cc-pvdz symm=none int=(grid=ultrafine) guess=(read,tcheck) s
 table=(opt,rrhf)
 ----------------------------------------------------------------------
 -----
 title
 -----
 Symbolic Z-matrix:
 Charge =  0 Multiplicity = 1

 SCF Done:  E(RHF) =  -398.542734039     A.U. after   16 cycles
 Normal termination of Gaussian 16 at Sun Apr  6 08:11:06 2025.
 Gaussian 16:  ES64L-G16RevC.01  3-Jul-2019

 ----------------------------------------------------------------------
 #t hf aug-cc-pvdz iop(5/13=1,5/36=2,99/5=2) pseudo=read geom=check gue
 ss=(read,tcheck) scf=(maxcycle=1)
 ----------------------------------------------------------------------
 -----
 title
 -----
 Structure from the checkpoint file:  "benzamide.chk"
 Charge =  0 Multiplicity = 1

                         Standard orientation:
 ---------------------------------------------------------------------
 Center     Atomic      Atomic             Coordinates (Angstroms)
 Number     Number       Type             X           Y           Z
 ---------------------------------------------------------------------
      1          6           0       -2.571902    0.046888    0.020768
      2          6           0       -1.848389    1.223950   -0.131564
      3          6           0       -1.902431   -1.166543    0.145550
      4          6           0       -0.459401    1.189827   -0.147202
      5          6           0       -0.515903   -1.202319    0.120287
      6          6           0        0.218670   -0.023721   -0.016122
      7          6           0        1.715052   -0.135921   -0.035243
      8          7           0        2.416666    1.006941    0.237137
      9          8           0        2.280280   -1.184451   -0.295323
     10          1           0       -3.653148    0.074322    0.035323
     11          1           0       -2.364586    2.167480   -0.245942
     12          1           0       -2.462548   -2.084753    0.259361
     13          1           0        0.086801    2.111464   -0.297061
     14          1           0        0.020859   -2.136416    0.202736
     15          1           0        1.984571    1.789885    0.692283
     16          1           0        3.414974    0.912074    0.317082
 ---------------------------------------------------------------------

 SCF Done:  E(RHF) =  -400.375549765     A.U. after    2 cycles

 The electronic state is 1-A.
 Alpha  occ. eigenvalues --  -21.02279 -15.77779 -11.52634 -11.50918 -11.44325
 Alpha  occ. eigenvalues --  -11.43735 -11.42019 -11.41486 -11.37369  -1.70534
 Alpha  occ. eigenvalues --   -1.37325  -1.32152  -1.11860  -1.10388  -0.91927
 Alpha  occ. eigenvalues --   -0.87596  -0.80436  -0.74303  -0.69586  -0.66047
 Alpha  occ. eigenvalues --   -0.61021  -0.59258  -0.57396  -0.54944  -0.51046
 Alpha  occ. eigenvalues --   -0.49435  -0.45922  -0.44898  -0.34954  -0.34134
 Alpha  occ. eigenvalues --   -0.31794  -0.28579
 Alpha virt. eigenvalues --    0.02938   0.04592   0.04920   0.05620   0.06585
 Alpha virt. eigenvalues --    0.07043   0.07427   0.09659   0.10196   0.10977
 Alpha virt. eigenvalues --    0.11646   0.12347   0.12734   0.13148   0.13924

 Mulliken charges:
               1
     1  C   -2.965114
     2  C   -2.044977
     3  C   -1.270973
     4  C   -0.273359
     5  C   -2.677858
     6  C    3.116178
     7  C    3.612933
     8  N   -3.334091
     9  O   -3.653641
    10  H    1.529092
    11  H    1.473471
    12  H    1.454393
    13  H    1.802348
    14  H    1.696926
    15  H    0.742418
    16  H    0.792254
 Sum of Mulliken charges =   0.00000

 Dipole moment (field-independent basis, Debye):
    X=             -1.0802    Y=              1.8937    Z=              0.8854  Tot=              2.3531

 Test job not archived.
 1\1\GINC-SE167\SP\RHF\Aug-CC-pVDZ\C7H7N1O1\OHZDE\06-Apr-2025\0\\#t hf
 aug-cc-pvdz iop(5/13=1,5/36=2,99/5=2) pseudo=read geom=check guess=(re
 ad,tcheck) scf=(maxcycle=1)\\title\\0,1\C,0,-2.571902,0.046888,0.02076
 8\C,0,-1.848389,1.22395,-0.131564\C,0,-1.902431,-1.166543,0.14555\C,0,
 -0.459401,1.189827,-0.147202\C,0,-0.515903,-1.202319,0.120287\C,0,0.21
 867,-0.023721,-0.016122\C,0,1.715052,-0.135921,-0.035243\N,0,2.416666,
 1.006941,0.237137\O,0,2.28028,-1.184451,-0.295323\H,0,-3.653148,0.0743
 22,0.035323\H,0,-2.364586,2.16748,-0.245942\H,0,-2.462548,-2.084753,0.

 Normal termination of Gaussian 16 at Sun Apr  6 08:11:12 2025.
