 Gaussian 16, Revision C.01,

 ----------------------------------------------------------------------
 #t hf aug-cc-pvdz symm=none int=(grid=ultrafine) guess=(read,tcheck) s
 table=(opt,rrhf)
 ----------------------------------------------------------------------
 -----
 title
 -----
 Symbolic Z-matrix:
 Charge =  0 Multiplicity = 1

 SCF Done:  E(RHF) =  -321.915101656     A.U. after   14 cycles
 Normal termination of Gaussian 16 at Sun Apr  6 08:10:24 2025.
 Gaussian 16:  ES64L-G16RevC.01  3-Jul-2019

 ----------------------------------------------------------------------
 #t hf aug-cc-pvdz iop(5/13=1,5/36=2,99/5=2) pseudo=read geom=check gue
 ss=(read,tcheck) scf=(maxcycle=1)
 ----------------------------------------------------------------------
 -----
 title
 -----
 Structure from the checkpoint file:  "beta-alanine.chk"
 Charge =  0 Multiplicity = 1

                         Standard orientation:
 ---------------------------------------------------------------------
 Center     Atomic      Atomic             Coordinates (Angstroms)
 Number     Number       Type             X           Y           Z
 ---------------------------------------------------------------------
      1          1           0        2.844792   -0.788170    0.777220
      2          1           0        3.404575    0.345604   -0.245141
      3          7           0        2.637944   -0.294370   -0.082906
      4          1           0        1.280732    1.064160    0.901267
      5          1           0        1.287489    1.091764   -0.849294
      6          6           0        1.367895    0.430365    0.012626
      7          1           0        0.282574   -1.185743   -0.904827
      8          1           0        0.265487   -1.235933    0.844398
      9          6           0        0.206748   -0.556935   -0.013182
     10          8           0       -1.337293    1.297083    0.023560
     11          6           0       -1.152003    0.113743    0.002622
     12          1           0       -1.923395   -1.652577   -0.039753
     13          8           0       -2.218170   -0.734777   -0.013051
 ---------------------------------------------------------------------

 SCF Done:  E(RHF) =  -323.346895052     A.U. after    2 cycles

 The electronic state is 1-A.
 Alpha  occ. eigenvalues --  -21.12290 -21.05034 -15.74046 -11.53138 -11.44622
 Alpha  occ. eigenvalues --  -11.39303  -1.82224  -1.65379  -1.34877  -1.13585
 Alpha  occ. eigenvalues --   -0.92008  -0.78881  -0.70146  -0.68467  -0.63227
 Alpha  occ. eigenvalues --   -0.57630  -0.56608  -0.53119  -0.49436  -0.48476
 Alpha  occ. eigenvalues --   -0.43903  -0.36729  -0.33846  -0.29819
 Alpha virt. eigenvalues --    0.03294   0.04416   0.05206   0.05886   0.06189
 Alpha virt. eigenvalues --    0.06443   0.08271   0.10362   0.11806   0.12550
 Alpha virt. eigenvalues --    0.12865   0.13447   0.14744   0.16430   0.16654

 Mulliken charges:
               1
     1  H    0.566602
     2  H    0.558563
     3  N   -2.377488
     4  H    1.337443
     5  H    1.369410
     6  C   -1.667302
     7  H    1.407719
     8  H    1.420626
     9  C   -2.859329
    10  O   -2.985711
    11  C    5.209544
    12  H    1.094550
    13  O   -3.074627
 Sum of Mulliken charges =   0.00000

 Dipole moment (field-independent basis, Debye):
    X=              1.4878    Y=             -1.3405    Z=              0.7064  Tot=              2.1236

 Test job not archived.
 1\1\GINC-SE275\SP\RHF\Aug-CC-pVDZ\C3H7N1O2\OHZDE\06-Apr-2025\0\\#t hf
 aug-cc-pvdz iop(5/13=1,5/36=2,99/5=2) pseudo=read geom=check guess=(re
 ad,tcheck) scf=(maxcycle=1)\\title\\0,1\H,0,2.844792,-0.78817,0.77722\
 H,0,3.404575,0.345604,-0.245141\N,0,2.637944,-0.29437,-0.082906\H,0,1.
 280732,1.06416,0.901267\H,0,1.287489,1.091764,-0.849294\C,0,1.367895,0
 .430365,0.012626\H,0,0.282574,-1.185743,-0.904827\H,0,0.265487,-1.2359
 33,0.844398\C,0,0.206748,-0.556935,-0.013182\O,0,-1.337293,1.297083,0.
 02356\C,0,-1.152003,0.113743,0.002622\H,0,-1.923395,-1.652577,-0.03975

 Normal termination of Gaussian 16 at Sun Apr  6 08:10:47 2025.
