 Gaussian 16, Revision C.01,

 ----------------------------------------------------------------------
 #t hf aug-cc-pvdz symm=none int=(grid=ultrafine) guess=(read,tcheck) s
 table=(opt,rrhf)
 ----------------------------------------------------------------------
 -----
 title
 -----
 Symbolic Z-matrix:
 Charge =  0 Multiplicity = 1

 SCF Done:  E(RHF) =  -265.677743007     A.U. after   13 cycles
 Normal termination of Gaussian 16 at Sun Apr  6 08:10:11 2025.
 Gaussian 16:  ES64L-G16RevC.01  3-Jul-2019

 ----------------------------------------------------------------------
 #t hf aug-cc-pvdz iop(5/13=1,5/36=2,99/5=2) pseudo=read geom=check gue
 ss=(read,tcheck) scf=(maxcycle=1)
 ----------------------------------------------------------------------
 -----
 title
 -----
 Structure from the checkpoint file:  "beta-propiolactone.chk"
 Charge =  0 Multiplicity = 1

                         Standard orientation:
 ---------------------------------------------------------------------
 Center     Atomic      Atomic             Coordinates (Angstroms)
 Number     Number       Type             X           Y           Z
 ---------------------------------------------------------------------
      1          8           0       -1.034291   -0.277068    0.000000
      2          6           0        0.000000    0.628638    0.000000
      3          8           0       -0.070941    1.813015    0.000000
      4          6           0        1.084794   -0.444247    0.000000
      5          1           0        1.709429   -0.440463    0.889880
      6          1           0        1.709429   -0.440463   -0.889880
      7          6           0       -0.101764   -1.414106    0.000000
      8          1           0       -0.237589   -2.014177   -0.895897
      9          1           0       -0.237589   -2.014177    0.895897
 ---------------------------------------------------------------------

 SCF Done:  E(RHF) =  -266.829178901     A.U. after    2 cycles

 The electronic state is 1-A'.
 Alpha  occ. eigenvalues --  -21.09220 -21.06405 -11.52608 -11.48205 -11.41580
 Alpha  occ. eigenvalues --   -1.84982  -1.68049  -1.15833  -0.96435  -0.75490
 Alpha  occ. eigenvalues --   -0.70633  -0.64759  -0.60870  -0.56418  -0.50461
 Alpha  occ. eigenvalues --   -0.46957  -0.42211  -0.32297  -0.29606
 Alpha virt. eigenvalues --    0.02966   0.05040   0.05303   0.05715   0.08220
 Alpha virt. eigenvalues --    0.10517   0.11717   0.11866   0.11962   0.13540
 Alpha virt. eigenvalues --    0.13825   0.15185   0.17406   0.17940   0.18163

 Mulliken charges:
               1
     1  O   -2.487074
     2  C    5.236461
     3  O   -3.026544
     4  C   -3.626695
     5  H    1.226144
     6  H    1.226144
     7  C   -1.465018
     8  H    1.458291
     9  H    1.458291
 Sum of Mulliken charges =   0.00000

 Dipole moment (field-independent basis, Debye):
    X=              0.9996    Y=             -2.4564    Z=             -0.0000  Tot=              2.6520

 Test job not archived.
 1\1\GINC-SE275\SP\RHF\Aug-CC-pVDZ\C3H4O2\OHZDE\06-Apr-2025\0\\#t hf au
 g-cc-pvdz iop(5/13=1,5/36=2,99/5=2) pseudo=read geom=check guess=(read
 ,tcheck) scf=(maxcycle=1)\\title\\0,1\O,0,-1.034291,-0.277068,0.\C,0,0
 .,0.628638,0.\O,0,-0.070941,1.813015,0.\C,0,1.084794,-0.444247,0.\H,0,
 1.709429,-0.440463,0.88988\H,0,1.709429,-0.440463,-0.88988\C,0,-0.1017
 64,-1.414106,0.\H,0,-0.237589,-2.014177,-0.895897\H,0,-0.237589,-2.014
 177,0.895897\\Version=ES64L-G16RevC.01\State=1-A'\HF=-266.8291789\RMSD
 =4.473e-01\Dipole=0.3932605,-0.9664214,0.\Quadrupole=-0.0327645,-1.475

 Normal termination of Gaussian 16 at Sun Apr  6 08:10:47 2025.
