 Gaussian 16, Revision C.01,

 ----------------------------------------------------------------------
 #t hf aug-cc-pvdz symm=none int=(grid=ultrafine) guess=(read,tcheck) s
 table=(opt,rrhf)
 ----------------------------------------------------------------------
 -----
 title
 -----
 Symbolic Z-matrix:
 Charge =  0 Multiplicity = 1

 SCF Done:  E(RHF) =  -231.835667685     A.U. after   14 cycles
 Normal termination of Gaussian 16 at Sun Apr  6 08:11:07 2025.
 Gaussian 16:  ES64L-G16RevC.01  3-Jul-2019

 ----------------------------------------------------------------------
 #t hf aug-cc-pvdz iop(5/13=1,5/36=2,99/5=2) pseudo=read geom=check gue
 ss=(read,tcheck) scf=(maxcycle=1)
 ----------------------------------------------------------------------
 -----
 title
 -----
 Structure from the checkpoint file:  "bicyclo-3-1-0-hex-2-ene.chk"
 Charge =  0 Multiplicity = 1

                         Standard orientation:
 ---------------------------------------------------------------------
 Center     Atomic      Atomic             Coordinates (Angstroms)
 Number     Number       Type             X           Y           Z
 ---------------------------------------------------------------------
      1          6           0        0.645070   -0.770527   -0.387053
      2          6           0       -0.789799   -1.153566   -0.033586
      3          6           0        0.710734    0.747733   -0.438274
      4          6           0        1.457988   -0.021657    0.630098
      5          6           0       -1.464834    0.179434    0.203670
      6          6           0       -0.653112    1.204214   -0.052761
      7          1           0        1.177895   -1.366546   -1.113656
      8          1           0       -1.269345   -1.698798   -0.852718
      9          1           0       -0.844021   -1.804885    0.843900
     10          1           0        1.275524    1.279992   -1.191271
     11          1           0        1.092367    0.049534    1.646341
     12          1           0        2.533970   -0.086125    0.538571
     13          1           0       -2.482396    0.264631    0.559582
     14          1           0       -0.920271    2.248412    0.036679
 ---------------------------------------------------------------------

 SCF Done:  E(RHF) =  -232.990528562     A.U. after    2 cycles

 The electronic state is 1-A.
 Alpha  occ. eigenvalues --  -11.44696 -11.43950 -11.41331 -11.38234 -11.36691
 Alpha  occ. eigenvalues --  -11.34593  -1.38741  -1.11793  -1.02111  -0.86688
 Alpha  occ. eigenvalues --   -0.79693  -0.75521  -0.71420  -0.61781  -0.56143
 Alpha  occ. eigenvalues --   -0.55972  -0.49475  -0.47259  -0.44160  -0.42501
 Alpha  occ. eigenvalues --   -0.36907  -0.30418
 Alpha virt. eigenvalues --    0.03979   0.05248   0.05341   0.05855   0.06122
 Alpha virt. eigenvalues --    0.06227   0.06785   0.06973   0.10541   0.11881
 Alpha virt. eigenvalues --    0.12684   0.14249   0.14574   0.14831   0.15161

 Mulliken charges:
               1
     1  C   -0.652842
     2  C   -4.673670
     3  C   -1.769578
     4  C   -2.385279
     5  C   -0.102362
     6  C   -0.714066
     7  H    1.229911
     8  H    1.294238
     9  H    1.204998
    10  H    1.183767
    11  H    1.385455
    12  H    1.210386
    13  H    1.378247
    14  H    1.410792
 Sum of Mulliken charges =  -0.00000

 Dipole moment (field-independent basis, Debye):
    X=              0.1959    Y=             -0.1026    Z=             -0.1738  Tot=              0.2813

 Test job not archived.
 1\1\GINC-SE364\SP\RHF\Aug-CC-pVDZ\C6H8\OHZDE\06-Apr-2025\0\\#t hf aug-
 cc-pvdz iop(5/13=1,5/36=2,99/5=2) pseudo=read geom=check guess=(read,t
 check) scf=(maxcycle=1)\\title\\0,1\C,0,0.64507,-0.770527,-0.387053\C,
 0,-0.789799,-1.153566,-0.033586\C,0,0.710734,0.747733,-0.438274\C,0,1.
 457988,-0.021657,0.630098\C,0,-1.464834,0.179434,0.20367\C,0,-0.653112
 ,1.204214,-0.052761\H,0,1.177895,-1.366546,-1.113656\H,0,-1.269345,-1.
 698798,-0.852718\H,0,-0.844021,-1.804885,0.8439\H,0,1.275524,1.279992,
 -1.191271\H,0,1.092367,0.049534,1.646341\H,0,2.53397,-0.086125,0.53857

 Normal termination of Gaussian 16 at Sun Apr  6 08:11:11 2025.
