 Gaussian 16, Revision C.01,

 ----------------------------------------------------------------------
 #t hf aug-cc-pvdz symm=none int=(grid=ultrafine) guess=(read,tcheck) s
 table=(opt,rrhf)
 ----------------------------------------------------------------------
 -----
 title
 -----
 Symbolic Z-matrix:
 Charge =  0 Multiplicity = 1

 SCF Done:  E(RHF) =  -232.988588171     A.U. after   12 cycles
 Normal termination of Gaussian 16 at Sun Apr  6 08:10:33 2025.
 Gaussian 16:  ES64L-G16RevC.01  3-Jul-2019

 ----------------------------------------------------------------------
 #t hf aug-cc-pvdz iop(5/13=1,5/36=2,99/5=2) pseudo=read geom=check gue
 ss=(read,tcheck) scf=(maxcycle=1)
 ----------------------------------------------------------------------
 -----
 title
 -----
 Structure from the checkpoint file:  "bicyclo-2-2-0-hexane.chk"
 Charge =  0 Multiplicity = 1

                         Standard orientation:
 ---------------------------------------------------------------------
 Center     Atomic      Atomic             Coordinates (Angstroms)
 Number     Number       Type             X           Y           Z
 ---------------------------------------------------------------------
      1          6           0        1.306673    0.778578   -0.253085
      2          6           0        1.306673   -0.778578   -0.253085
      3          6           0        0.000000   -0.786260    0.577788
      4          6           0        0.000000    0.786260    0.577788
      5          6           0       -1.306673    0.778578   -0.253085
      6          6           0       -1.306673   -0.778578   -0.253085
      7          1           0        1.235314    1.258625   -1.230081
      8          1           0        2.159674    1.206785    0.272012
      9          1           0        2.159674   -1.206785    0.272012
     10          1           0        1.235314   -1.258625   -1.230081
     11          1           0        0.000000   -1.384950    1.486430
     12          1           0        0.000000    1.384950    1.486430
     13          1           0       -2.159674    1.206785    0.272012
     14          1           0       -1.235314    1.258625   -1.230081
     15          1           0       -1.235314   -1.258625   -1.230081
     16          1           0       -2.159674   -1.206785    0.272012
 ---------------------------------------------------------------------

 SCF Done:  E(RHF) =  -234.181296730     A.U. after    2 cycles

 The electronic state is 1-A1.
 Alpha  occ. eigenvalues --  -11.53596 -11.46554 -11.38635 -11.36980 -11.35290
 Alpha  occ. eigenvalues --  -11.32467  -1.37956  -1.10418  -0.97920  -0.88893
 Alpha  occ. eigenvalues --   -0.86091  -0.72554  -0.69255  -0.62159  -0.61014
 Alpha  occ. eigenvalues --   -0.56177  -0.53197  -0.47521  -0.45673  -0.41799
 Alpha  occ. eigenvalues --   -0.40613  -0.35796  -0.35305
 Alpha virt. eigenvalues --    0.04276   0.05049   0.05109   0.05539   0.05985
 Alpha virt. eigenvalues --    0.06343   0.06492   0.06897   0.08633   0.09119
 Alpha virt. eigenvalues --    0.11706   0.12413   0.12436   0.13897   0.15055

 Mulliken charges:
               1
     1  C   -2.946615
     2  C   -2.946615
     3  C   -1.056669
     4  C   -1.056669
     5  C   -2.946615
     6  C   -2.946615
     7  H    1.426610
     8  H    1.348522
     9  H    1.348522
    10  H    1.426610
    11  H    1.399634
    12  H    1.399634
    13  H    1.348522
    14  H    1.426610
    15  H    1.426610
    16  H    1.348522
 Sum of Mulliken charges =   0.00000

 Dipole moment (field-independent basis, Debye):
    X=              0.0000    Y=              0.0000    Z=              0.2292  Tot=              0.2292

 Test job not archived.
 1\1\GINC-SE255\SP\RHF\Aug-CC-pVDZ\C6H10\OHZDE\06-Apr-2025\0\\#t hf aug
 -cc-pvdz iop(5/13=1,5/36=2,99/5=2) pseudo=read geom=check guess=(read,
 tcheck) scf=(maxcycle=1)\\title\\0,1\C,0,1.306673,0.778578,-0.253085\C
 ,0,1.306673,-0.778578,-0.253085\C,0,0.,-0.78626,0.577788\C,0,0.,0.7862
 6,0.577788\C,0,-1.306673,0.778578,-0.253085\C,0,-1.306673,-0.778578,-0
 .253085\H,0,1.235314,1.258625,-1.230081\H,0,2.159674,1.206785,0.272012
 \H,0,2.159674,-1.206785,0.272012\H,0,1.235314,-1.258625,-1.230081\H,0,
 0.,-1.38495,1.48643\H,0,0.,1.38495,1.48643\H,0,-2.159674,1.206785,0.27

 Normal termination of Gaussian 16 at Sun Apr  6 08:10:48 2025.
