 Gaussian 16, Revision C.01,

 ----------------------------------------------------------------------
 #t hf aug-cc-pvdz symm=none int=(grid=ultrafine) guess=(read,tcheck) s
 table=(opt,rrhf)
 ----------------------------------------------------------------------
 -----
 title
 -----
 Symbolic Z-matrix:
 Charge =  0 Multiplicity = 1

 SCF Done:  E(RHF) =  -232.986323561     A.U. after   11 cycles
 Normal termination of Gaussian 16 at Sun Apr  6 08:11:14 2025.
 Gaussian 16:  ES64L-G16RevC.01  3-Jul-2019

 ----------------------------------------------------------------------
 #t hf aug-cc-pvdz iop(5/13=1,5/36=2,99/5=2) pseudo=read geom=check gue
 ss=(read,tcheck) scf=(maxcycle=1)
 ----------------------------------------------------------------------
 -----
 title
 -----
 Structure from the checkpoint file:  "bicyclopropyl.chk"
 Charge =  0 Multiplicity = 1

                         Standard orientation:
 ---------------------------------------------------------------------
 Center     Atomic      Atomic             Coordinates (Angstroms)
 Number     Number       Type             X           Y           Z
 ---------------------------------------------------------------------
      1          6           0       -0.000000    1.843020    0.753782
      2          6           0        0.427743    0.611952   -0.000000
      3          6           0       -0.000000    1.843020   -0.753782
      4          6           0       -0.427743   -0.611952   -0.000000
      5          6           0       -0.000000   -1.843020    0.753782
      6          6           0       -0.000000   -1.843020   -0.753782
      7          1           0        0.754138    2.423213    1.266843
      8          1           0       -0.956630    1.813429    1.257842
      9          1           0        1.492677    0.407118   -0.000000
     10          1           0       -0.956630    1.813429   -1.257842
     11          1           0        0.754138    2.423213   -1.266843
     12          1           0       -1.492677   -0.407118   -0.000000
     13          1           0       -0.754138   -2.423213    1.266843
     14          1           0        0.956630   -1.813429    1.257842
     15          1           0        0.956630   -1.813429   -1.257842
     16          1           0       -0.754138   -2.423213   -1.266843
 ---------------------------------------------------------------------

 SCF Done:  E(RHF) =  -234.170800521     A.U. after    2 cycles

 The electronic state is 1-AG.
 Alpha  occ. eigenvalues --  -11.43168 -11.42176 -11.40697 -11.38753 -11.35697
 Alpha  occ. eigenvalues --  -11.35247  -1.35088  -1.23404  -0.90889  -0.85936
 Alpha  occ. eigenvalues --   -0.85085  -0.79371  -0.67674  -0.66386  -0.60907
 Alpha  occ. eigenvalues --   -0.56851  -0.50460  -0.50126  -0.45866  -0.45665
 Alpha  occ. eigenvalues --   -0.41609  -0.36447  -0.32904
 Alpha virt. eigenvalues --    0.04424   0.05091   0.05728   0.05836   0.05848
 Alpha virt. eigenvalues --    0.05951   0.06128   0.06494   0.08413   0.08627
 Alpha virt. eigenvalues --    0.10901   0.12089   0.13044   0.13938   0.14143

 Mulliken charges:
               1
     1  C   -2.368564
     2  C   -1.484540
     3  C   -2.368564
     4  C   -1.484540
     5  C   -2.368564
     6  C   -2.368564
     7  H    1.191326
     8  H    1.309415
     9  H    1.220185
    10  H    1.309415
    11  H    1.191326
    12  H    1.220185
    13  H    1.191326
    14  H    1.309415
    15  H    1.309415
    16  H    1.191326
 Sum of Mulliken charges =  -0.00000

 Dipole moment (field-independent basis, Debye):
    X=             -0.0000    Y=              0.0000    Z=             -0.0000  Tot=              0.0000

 Test job not archived.
 1\1\GINC-SE028\SP\RHF\Aug-CC-pVDZ\C6H10\OHZDE\06-Apr-2025\0\\#t hf aug
 -cc-pvdz iop(5/13=1,5/36=2,99/5=2) pseudo=read geom=check guess=(read,
 tcheck) scf=(maxcycle=1)\\title\\0,1\C,0,0.,1.84302,0.753782\C,0,0.427
 743,0.611952,0.\C,0,0.,1.84302,-0.753782\C,0,-0.427743,-0.611952,0.\C,
 0,0.,-1.84302,0.753782\C,0,0.,-1.84302,-0.753782\H,0,0.754138,2.423213
 ,1.266843\H,0,-0.95663,1.813429,1.257842\H,0,1.492677,0.407118,0.\H,0,
 -0.95663,1.813429,-1.257842\H,0,0.754138,2.423213,-1.266843\H,0,-1.492
 677,-0.407118,0.\H,0,-0.754138,-2.423213,1.266843\H,0,0.95663,-1.81342

 Normal termination of Gaussian 16 at Sun Apr  6 08:11:18 2025.
