 Gaussian 16, Revision C.01,

 ----------------------------------------------------------------------
 #t hf aug-cc-pvdz symm=none int=(grid=ultrafine) guess=(read,tcheck) s
 table=(opt,rrhf)
 ----------------------------------------------------------------------
 -----
 title
 -----
 Symbolic Z-matrix:
 Charge =  0 Multiplicity = 1

 SCF Done:  E(RHF) =  -246.634960601     A.U. after   14 cycles
 Normal termination of Gaussian 16 at Sun Apr  6 08:10:14 2025.
 Gaussian 16:  ES64L-G16RevC.01  3-Jul-2019

 ----------------------------------------------------------------------
 #t hf aug-cc-pvdz iop(5/13=1,5/36=2,99/5=2) pseudo=read geom=check gue
 ss=(read,tcheck) scf=(maxcycle=1)
 ----------------------------------------------------------------------
 -----
 title
 -----
 Structure from the checkpoint file:  "bicyclo-1-1-0-butane-1-carbonitrile.chk"
 Charge =  0 Multiplicity = 1

                         Standard orientation:
 ---------------------------------------------------------------------
 Center     Atomic      Atomic             Coordinates (Angstroms)
 Number     Number       Type             X           Y           Z
 ---------------------------------------------------------------------
      1          1           0       -0.140619    0.678735    2.076979
      2          1           0        1.129568    1.686573    1.231058
      3          6           0        0.276344    1.019981    1.138037
      4          1           0       -0.140619    0.678735   -2.076979
      5          1           0        1.129568    1.686573   -1.231058
      6          6           0        0.276344    1.019981   -1.138037
      7          6           0        0.276344    0.034656    0.000000
      8          1           0       -1.743752    1.161245   -0.000000
      9          6           0       -0.668943    1.198926   -0.000000
     10          7           0       -0.181839   -2.488939   -0.000000
     11          6           0        0.013033   -1.351758    0.000000
 ---------------------------------------------------------------------

 SCF Done:  E(RHF) =  -247.791268682     A.U. after    2 cycles

 The electronic state is 1-A'.
 Alpha  occ. eigenvalues --  -15.75526 -11.49272 -11.46559 -11.44579 -11.43356
 Alpha  occ. eigenvalues --  -11.41539  -1.45485  -1.28960  -1.02409  -0.93884
 Alpha  occ. eigenvalues --   -0.85724  -0.76440  -0.63585  -0.62253  -0.54413
 Alpha  occ. eigenvalues --   -0.53306  -0.49470  -0.49296  -0.46857  -0.40230
 Alpha  occ. eigenvalues --   -0.33942
 Alpha virt. eigenvalues --    0.03326   0.05047   0.05533   0.05639   0.06213
 Alpha virt. eigenvalues --    0.08486   0.09500   0.09922   0.11577   0.12318
 Alpha virt. eigenvalues --    0.13137   0.14161   0.14250   0.14299   0.15072

 Mulliken charges:
               1
     1  H    1.480517
     2  H    1.043269
     3  C   -2.708333
     4  H    1.480517
     5  H    1.043269
     6  C   -2.708333
     7  C    0.217435
     8  H    1.242798
     9  C   -0.413925
    10  N   -2.512512
    11  C    1.835296
 Sum of Mulliken charges =  -0.00000

 Dipole moment (field-independent basis, Debye):
    X=             -0.1603    Y=              3.8131    Z=             -0.0000  Tot=              3.8165

 Test job not archived.
 1\1\GINC-SE276\SP\RHF\Aug-CC-pVDZ\C5H5N1\OHZDE\06-Apr-2025\0\\#t hf au
 g-cc-pvdz iop(5/13=1,5/36=2,99/5=2) pseudo=read geom=check guess=(read
 ,tcheck) scf=(maxcycle=1)\\title\\0,1\H,0,-0.140619,0.678735,2.076979\
 H,0,1.129568,1.686573,1.231058\C,0,0.276344,1.019981,1.138037\H,0,-0.1
 40619,0.678735,-2.076979\H,0,1.129568,1.686573,-1.231058\C,0,0.276344,
 1.019981,-1.138037\C,0,0.276344,0.034656,0.\H,0,-1.743752,1.161245,0.\
 C,0,-0.668943,1.198926,0.\N,0,-0.181839,-2.488939,0.\C,0,0.013033,-1.3
 51758,0.\\Version=ES64L-G16RevC.01\State=1-A'\HF=-247.7912687\RMSD=6.4

 Normal termination of Gaussian 16 at Sun Apr  6 08:10:47 2025.
