 Gaussian 16, Revision C.01,

 ----------------------------------------------------------------------
 #t hf aug-cc-pvdz symm=none int=(grid=ultrafine) guess=(read,tcheck) s
 table=(opt,rrhf)
 ----------------------------------------------------------------------
 -----
 title
 -----
 Symbolic Z-matrix:
 Charge =  0 Multiplicity = 1

 SCF Done:  E(RHF) =  -231.800440442     A.U. after   12 cycles
 Normal termination of Gaussian 16 at Sun Apr  6 08:10:26 2025.
 Gaussian 16:  ES64L-G16RevC.01  3-Jul-2019

 ----------------------------------------------------------------------
 #t hf aug-cc-pvdz iop(5/13=1,5/36=2,99/5=2) pseudo=read geom=check gue
 ss=(read,tcheck) scf=(maxcycle=1)
 ----------------------------------------------------------------------
 -----
 title
 -----
 Structure from the checkpoint file:  "bicyclo-2-1-1-hex-2-ene.chk"
 Charge =  0 Multiplicity = 1

                         Standard orientation:
 ---------------------------------------------------------------------
 Center     Atomic      Atomic             Coordinates (Angstroms)
 Number     Number       Type             X           Y           Z
 ---------------------------------------------------------------------
      1          6           0        0.000000    0.666639    1.212835
      2          6           0       -0.000000   -0.666639    1.212835
      3          6           0        0.000000   -1.020958   -0.278406
      4          6           0        0.000000    1.020958   -0.278406
      5          6           0        1.063233   -0.000000   -0.808697
      6          6           0       -1.063233    0.000000   -0.808697
      7          1           0        0.000000    1.359953    2.038801
      8          1           0       -0.000000   -1.359953    2.038801
      9          1           0        0.000000   -2.068141   -0.567858
     10          1           0        0.000000    2.068141   -0.567858
     11          1           0        2.041135   -0.000000   -0.329854
     12          1           0       -2.041135    0.000000   -0.329854
     13          1           0       -1.157060    0.000000   -1.895481
     14          1           0        1.157060   -0.000000   -1.895481
 ---------------------------------------------------------------------

 SCF Done:  E(RHF) =  -232.971946174     A.U. after    2 cycles

 The electronic state is 1-A1.
 Alpha  occ. eigenvalues --  -11.46259 -11.43740 -11.39712 -11.39709 -11.38621
 Alpha  occ. eigenvalues --  -11.33829  -1.43018  -1.05277  -0.96727  -0.94779
 Alpha  occ. eigenvalues --   -0.78404  -0.74548  -0.71617  -0.64483  -0.56503
 Alpha  occ. eigenvalues --   -0.53780  -0.46321  -0.45166  -0.43677  -0.43369
 Alpha  occ. eigenvalues --   -0.39360  -0.30187
 Alpha virt. eigenvalues --    0.04108   0.05090   0.05194   0.05595   0.06122
 Alpha virt. eigenvalues --    0.06204   0.06397   0.07301   0.11241   0.12630
 Alpha virt. eigenvalues --    0.12852   0.13254   0.13283   0.13315   0.14687

 Mulliken charges:
               1
     1  C   -0.246189
     2  C   -0.246189
     3  C   -3.115199
     4  C   -3.115199
     5  C   -2.065907
     6  C   -2.065907
     7  H    1.261073
     8  H    1.261073
     9  H    1.452155
    10  H    1.452155
    11  H    1.442173
    12  H    1.442173
    13  H    1.271894
    14  H    1.271894
 Sum of Mulliken charges =  -0.00000

 Dipole moment (field-independent basis, Debye):
    X=             -0.0000    Y=             -0.0000    Z=             -0.2276  Tot=              0.2276

 Test job not archived.
 1\1\GINC-SE254\SP\RHF\Aug-CC-pVDZ\C6H8\OHZDE\06-Apr-2025\0\\#t hf aug-
 cc-pvdz iop(5/13=1,5/36=2,99/5=2) pseudo=read geom=check guess=(read,t
 check) scf=(maxcycle=1)\\title\\0,1\C,0,0.,0.666639,1.212835\C,0,0.,-0
 .666639,1.212835\C,0,0.,-1.020958,-0.278406\C,0,0.,1.020958,-0.278406\
 C,0,1.063233,0.,-0.808697\C,0,-1.063233,0.,-0.808697\H,0,0.,1.359953,2
 .038801\H,0,0.,-1.359953,2.038801\H,0,0.,-2.068141,-0.567858\H,0,0.,2.
 068141,-0.567858\H,0,2.041135,0.,-0.329854\H,0,-2.041135,0.,-0.329854\
 H,0,-1.15706,0.,-1.895481\H,0,1.15706,0.,-1.895481\\Version=ES64L-G16R

 Normal termination of Gaussian 16 at Sun Apr  6 08:10:47 2025.
