 Gaussian 16, Revision C.01,

 ----------------------------------------------------------------------
 #t hf aug-cc-pvdz symm=none int=(grid=ultrafine) guess=(read,tcheck) s
 table=(opt,rrhf)
 ----------------------------------------------------------------------
 -----
 title
 -----
 Symbolic Z-matrix:
 Charge =  0 Multiplicity = 1

 SCF Done:  E(RHF) =  -233.024497428     A.U. after   12 cycles
 Normal termination of Gaussian 16 at Sun Apr  6 08:11:10 2025.
 Gaussian 16:  ES64L-G16RevC.01  3-Jul-2019

 ----------------------------------------------------------------------
 #t hf aug-cc-pvdz iop(5/13=1,5/36=2,99/5=2) pseudo=read geom=check gue
 ss=(read,tcheck) scf=(maxcycle=1)
 ----------------------------------------------------------------------
 -----
 title
 -----
 Structure from the checkpoint file:  "bicyclo-3-1-0-hexane.chk"
 Charge =  0 Multiplicity = 1

                         Standard orientation:
 ---------------------------------------------------------------------
 Center     Atomic      Atomic             Coordinates (Angstroms)
 Number     Number       Type             X           Y           Z
 ---------------------------------------------------------------------
      1          1           0       -1.102142   -2.369592   -0.000000
      2          1           0       -1.825210   -0.706722   -0.000000
      3          6           0       -0.167576    1.451617    0.000000
      4          1           0       -1.252508    1.558566    0.000000
      5          1           0        0.244759    2.460062    0.000000
      6          6           0        0.285460    0.631379    1.227651
      7          1           0       -0.356020    0.801607    2.094810
      8          1           0        1.301459    0.910417    1.518369
      9          6           0        0.285460    0.631379   -1.227651
     10          1           0        1.301459    0.910417   -1.518369
     11          1           0       -0.356020    0.801607   -2.094810
     12          6           0       -0.922260   -1.303615   -0.000000
     13          6           0        0.285460   -0.812956    0.755445
     14          1           0        0.866098   -1.537728    1.309572
     15          6           0        0.285460   -0.812956   -0.755445
     16          1           0        0.866098   -1.537728   -1.309572
 ---------------------------------------------------------------------

 SCF Done:  E(RHF) =  -234.213017910     A.U. after    2 cycles

 The electronic state is 1-A'.
 Alpha  occ. eigenvalues --  -11.43727 -11.43294 -11.40991 -11.37216 -11.35687
 Alpha  occ. eigenvalues --  -11.33820  -1.37843  -1.11865  -1.02934  -0.88756
 Alpha  occ. eigenvalues --   -0.79342  -0.78003  -0.70203  -0.63411  -0.57765
 Alpha  occ. eigenvalues --   -0.56166  -0.54502  -0.47211  -0.45789  -0.43091
 Alpha  occ. eigenvalues --   -0.42820  -0.36790  -0.35314
 Alpha virt. eigenvalues --    0.04201   0.05363   0.05385   0.05581   0.05902
 Alpha virt. eigenvalues --    0.06194   0.06296   0.06574   0.06755   0.09077
 Alpha virt. eigenvalues --    0.12179   0.13105   0.14435   0.14596   0.14663

 Mulliken charges:
               1
     1  H    1.228986
     2  H    1.321298
     3  C   -2.313511
     4  H    1.387841
     5  H    1.211607
     6  C   -3.659343
     7  H    1.307407
     8  H    1.349512
     9  C   -3.659343
    10  H    1.349512
    11  H    1.307407
    12  C   -2.177586
    13  C   -0.610462
    14  H    1.283568
    15  C   -0.610462
    16  H    1.283568
 Sum of Mulliken charges =  -0.00000

 Dipole moment (field-independent basis, Debye):
    X=              0.1692    Y=              0.0215    Z=             -0.0000  Tot=              0.1705

 Test job not archived.
 1\1\GINC-SE364\SP\RHF\Aug-CC-pVDZ\C6H10\OHZDE\06-Apr-2025\0\\#t hf aug
 -cc-pvdz iop(5/13=1,5/36=2,99/5=2) pseudo=read geom=check guess=(read,
 tcheck) scf=(maxcycle=1)\\title\\0,1\H,0,-1.102142,-2.369592,0.\H,0,-1
 .82521,-0.706722,0.\C,0,-0.167576,1.451617,0.\H,0,-1.252508,1.558566,0
 .\H,0,0.244759,2.460062,0.\C,0,0.28546,0.631379,1.227651\H,0,-0.35602,
 0.801607,2.09481\H,0,1.301459,0.910417,1.518369\C,0,0.28546,0.631379,-
 1.227651\H,0,1.301459,0.910417,-1.518369\H,0,-0.35602,0.801607,-2.0948
 1\C,0,-0.92226,-1.303615,0.\C,0,0.28546,-0.812956,0.755445\H,0,0.86609

 Normal termination of Gaussian 16 at Sun Apr  6 08:11:14 2025.
