 Gaussian 16, Revision C.01,

 ----------------------------------------------------------------------
 #t hf aug-cc-pvdz symm=none int=(grid=ultrafine) guess=(read,tcheck) s
 table=(opt,rrhf)
 ----------------------------------------------------------------------
 -----
 title
 -----
 Symbolic Z-matrix:
 Charge =  0 Multiplicity = 1

 SCF Done:  E(RHF) =  -311.107221745     A.U. after   12 cycles
 Normal termination of Gaussian 16 at Sun Apr  6 08:12:08 2025.
 Gaussian 16:  ES64L-G16RevC.01  3-Jul-2019

 ----------------------------------------------------------------------
 #t hf aug-cc-pvdz iop(5/13=1,5/36=2,99/5=2) pseudo=read geom=check gue
 ss=(read,tcheck) scf=(maxcycle=1)
 ----------------------------------------------------------------------
 -----
 title
 -----
 Structure from the checkpoint file:  "bicyclo-4-2-0-octane.chk"
 Charge =  0 Multiplicity = 1

                         Standard orientation:
 ---------------------------------------------------------------------
 Center     Atomic      Atomic             Coordinates (Angstroms)
 Number     Number       Type             X           Y           Z
 ---------------------------------------------------------------------
      1          6           0       -1.791427   -0.546342   -0.470725
      2          6           0       -1.753453    0.902887    0.021944
      3          6           0       -0.346099    1.484644   -0.136504
      4          6           0        0.713967    0.691652    0.641171
      5          6           0        2.060839    0.553545   -0.118966
      6          6           0        1.570404   -0.813571   -0.662948
      7          6           0        0.552087   -0.854996    0.508236
      8          6           0       -0.849517   -1.436058    0.348591
      9          1           0       -2.807213   -0.943726   -0.416752
     10          1           0       -1.508563   -0.568405   -1.527994
     11          1           0       -2.059618    0.940911    1.073243
     12          1           0       -2.471421    1.510462   -0.533276
     13          1           0       -0.099323    1.483279   -1.202799
     14          1           0       -0.319965    2.530882    0.176897
     15          1           0        0.774332    1.062996    1.665761
     16          1           0        2.903852    0.434271    0.561752
     17          1           0        2.304420    1.332097   -0.842353
     18          1           0        2.293715   -1.626176   -0.723529
     19          1           0        1.084176   -0.713631   -1.633483
     20          1           0        1.040476   -1.331839    1.360944
     21          1           0       -1.285091   -1.564400    1.345109
     22          1           0       -0.790578   -2.437289   -0.088318
 ---------------------------------------------------------------------

 SCF Done:  E(RHF) =  -312.710844860     A.U. after    2 cycles

 The electronic state is 1-A.
 Alpha  occ. eigenvalues --  -11.48514 -11.43100 -11.42533 -11.40577 -11.38419
 Alpha  occ. eigenvalues --  -11.37108 -11.35239 -11.32621  -1.36847  -1.19160
 Alpha  occ. eigenvalues --   -1.10254  -0.97947  -0.92133  -0.86236  -0.82493
 Alpha  occ. eigenvalues --   -0.73341  -0.67764  -0.62933  -0.61428  -0.59574
 Alpha  occ. eigenvalues --   -0.58097  -0.53141  -0.50268  -0.48635  -0.47888
 Alpha  occ. eigenvalues --   -0.45469  -0.44688  -0.41268  -0.38851  -0.36477
 Alpha  occ. eigenvalues --   -0.35320
 Alpha virt. eigenvalues --    0.04452   0.04937   0.05004   0.05040   0.05256
 Alpha virt. eigenvalues --    0.05398   0.06091   0.06366   0.06976   0.08150
 Alpha virt. eigenvalues --    0.08286   0.08498   0.09008   0.09141   0.12879

 Mulliken charges:
               1
     1  C   -2.914045
     2  C   -3.189113
     3  C   -2.998670
     4  C   -0.456969
     5  C   -3.597385
     6  C   -2.790786
     7  C    0.506234
     8  C   -3.420501
     9  H    1.243482
    10  H    1.474295
    11  H    1.544998
    12  H    1.245556
    13  H    1.610263
    14  H    1.256971
    15  H    1.436990
    16  H    1.269691
    17  H    1.367486
    18  H    1.201410
    19  H    1.485792
    20  H    1.222104
    21  H    1.202747
    22  H    1.299452
 Sum of Mulliken charges =  -0.00000

 Dipole moment (field-independent basis, Debye):
    X=             -0.1255    Y=              0.0164    Z=              0.1306  Tot=              0.1819

 Test job not archived.
 1\1\GINC-SE365\SP\RHF\Aug-CC-pVDZ\C8H14\OHZDE\06-Apr-2025\0\\#t hf aug
 -cc-pvdz iop(5/13=1,5/36=2,99/5=2) pseudo=read geom=check guess=(read,
 tcheck) scf=(maxcycle=1)\\title\\0,1\C,0,-1.791427,-0.546342,-0.470725
 \C,0,-1.753453,0.902887,0.021944\C,0,-0.346099,1.484644,-0.136504\C,0,
 0.713967,0.691652,0.641171\C,0,2.060839,0.553545,-0.118966\C,0,1.57040
 4,-0.813571,-0.662948\C,0,0.552087,-0.854996,0.508236\C,0,-0.849517,-1
 .436058,0.348591\H,0,-2.807213,-0.943727,-0.416752\H,0,-1.508563,-0.56
 8405,-1.527994\H,0,-2.059618,0.940911,1.073243\H,0,-2.471421,1.510461,

 Normal termination of Gaussian 16 at Sun Apr  6 08:12:19 2025.
