 Gaussian 16, Revision C.01,

 ----------------------------------------------------------------------
 #t hf aug-cc-pvdz symm=none int=(grid=ultrafine) guess=(read,tcheck) s
 table=(opt,rrhf)
 ----------------------------------------------------------------------
 -----
 title
 -----
 Symbolic Z-matrix:
 Charge =  0 Multiplicity = 1

 SCF Done:  E(RHF) =  -193.946843676     A.U. after   12 cycles
 Normal termination of Gaussian 16 at Sun Apr  6 08:11:00 2025.
 Gaussian 16:  ES64L-G16RevC.01  3-Jul-2019

 ----------------------------------------------------------------------
 #t hf aug-cc-pvdz iop(5/13=1,5/36=2,99/5=2) pseudo=read geom=check gue
 ss=(read,tcheck) scf=(maxcycle=1)
 ----------------------------------------------------------------------
 -----
 title
 -----
 Structure from the checkpoint file:  "bicyclo-2-1-0-pentane.chk"
 Charge =  0 Multiplicity = 1

                         Standard orientation:
 ---------------------------------------------------------------------
 Center     Atomic      Atomic             Coordinates (Angstroms)
 Number     Number       Type             X           Y           Z
 ---------------------------------------------------------------------
      1          6           0       -0.244446   -0.536702    0.764733
      2          6           0       -0.244446   -0.536702   -0.764733
      3          6           0       -0.244446    0.993902    0.781471
      4          6           0       -0.244446    0.993902   -0.781471
      5          6           0        0.939024   -1.048468    0.000000
      6          1           0       -0.797183   -1.171910    1.441963
      7          1           0       -0.797183   -1.171910   -1.441963
      8          1           0        0.607058    1.464190    1.277074
      9          1           0        0.607058    1.464190   -1.277074
     10          1           0       -1.160667    1.417563    1.188390
     11          1           0       -1.160667    1.417563   -1.188390
     12          1           0        1.871038   -0.492128    0.000000
     13          1           0        1.063120   -2.123147    0.000000
 ---------------------------------------------------------------------

 SCF Done:  E(RHF) =  -194.930574584     A.U. after    2 cycles

 The electronic state is 1-A'.
 Alpha  occ. eigenvalues --  -11.48577 -11.40952 -11.38583 -11.37223 -11.34079
 Alpha  occ. eigenvalues --   -1.39166  -1.05504  -0.93651  -0.83251  -0.75995
 Alpha  occ. eigenvalues --   -0.70514  -0.61435  -0.58658  -0.51858  -0.51509
 Alpha  occ. eigenvalues --   -0.43763  -0.42896  -0.36974  -0.33957
 Alpha virt. eigenvalues --    0.04253   0.05347   0.05668   0.06097   0.06111
 Alpha virt. eigenvalues --    0.06564   0.06674   0.06678   0.11510   0.12344
 Alpha virt. eigenvalues --    0.13117   0.13514   0.14421   0.15594   0.15623

 Mulliken charges:
               1
     1  C   -0.629162
     2  C   -0.629162
     3  C   -2.992516
     4  C   -2.992516
     5  C   -2.644474
     6  H    1.153106
     7  H    1.153106
     8  H    1.211314
     9  H    1.211314
    10  H    1.311298
    11  H    1.311298
    12  H    1.272308
    13  H    1.264085
 Sum of Mulliken charges =  -0.00000

 Dipole moment (field-independent basis, Debye):
    X=             -0.2295    Y=             -0.1480    Z=             -0.0000  Tot=              0.2731

 Test job not archived.
 1\1\GINC-SE253\SP\RHF\Aug-CC-pVDZ\C5H8\OHZDE\06-Apr-2025\0\\#t hf aug-
 cc-pvdz iop(5/13=1,5/36=2,99/5=2) pseudo=read geom=check guess=(read,t
 check) scf=(maxcycle=1)\\title\\0,1\C,0,-0.244446,-0.536702,0.764733\C
 ,0,-0.244446,-0.536702,-0.764733\C,0,-0.244446,0.993902,0.781471\C,0,-
 0.244446,0.993902,-0.781471\C,0,0.939024,-1.048468,0.\H,0,-0.797183,-1
 .17191,1.441963\H,0,-0.797183,-1.17191,-1.441963\H,0,0.607058,1.46419,
 1.277074\H,0,0.607058,1.46419,-1.277074\H,0,-1.160667,1.417563,1.18839
 \H,0,-1.160667,1.417563,-1.18839\H,0,1.871038,-0.492128,0.\H,0,1.06312

 Normal termination of Gaussian 16 at Sun Apr  6 08:11:04 2025.
