 Gaussian 16, Revision C.01,

 ----------------------------------------------------------------------
 #t hf aug-cc-pvdz symm=none int=(grid=ultrafine) guess=(read,tcheck) s
 table=(opt,rrhf)
 ----------------------------------------------------------------------
 -----
 title
 -----
 Symbolic Z-matrix:
 Charge =  0 Multiplicity = 1

 SCF Done:  E(RHF) =  -154.888396087     A.U. after   11 cycles
 Normal termination of Gaussian 16 at Sun Apr  6 08:10:10 2025.
 Gaussian 16:  ES64L-G16RevC.01  3-Jul-2019

 ----------------------------------------------------------------------
 #t hf aug-cc-pvdz iop(5/13=1,5/36=2,99/5=2) pseudo=read geom=check gue
 ss=(read,tcheck) scf=(maxcycle=1)
 ----------------------------------------------------------------------
 -----
 title
 -----
 Structure from the checkpoint file:  "bicyclo-1-1-0-butane.chk"
 Charge =  0 Multiplicity = 1

                         Standard orientation:
 ---------------------------------------------------------------------
 Center     Atomic      Atomic             Coordinates (Angstroms)
 Number     Number       Type             X           Y           Z
 ---------------------------------------------------------------------
      1          6           0       -0.742813    0.000000   -0.317669
      2          6           0        0.742813   -0.000000   -0.317669
      3          6           0        0.000000    1.134528    0.312889
      4          6           0       -0.000000   -1.134528    0.312889
      5          1           0        0.000000   -1.232016    1.397188
      6          1           0        0.000000    1.232016    1.397188
      7          1           0        0.000000   -2.078551   -0.219647
      8          1           0        0.000000    2.078551   -0.219647
      9          1           0       -1.425483    0.000000   -1.148859
     10          1           0        1.425483   -0.000000   -1.148859
 ---------------------------------------------------------------------

 SCF Done:  E(RHF) =  -155.662821133     A.U. after    2 cycles

 The electronic state is 1-A1.
 Alpha  occ. eigenvalues --  -11.43643 -11.40482 -11.39578 -11.36715  -1.39464
 Alpha  occ. eigenvalues --   -0.98104  -0.81850  -0.81229  -0.71047  -0.57910
 Alpha  occ. eigenvalues --   -0.57836  -0.48839  -0.43624  -0.40535  -0.32733
 Alpha virt. eigenvalues --    0.04140   0.05694   0.05895   0.05926   0.06559
 Alpha virt. eigenvalues --    0.06826   0.10396   0.11948   0.12941   0.13698
 Alpha virt. eigenvalues --    0.14259   0.14709   0.15628   0.15926   0.16367

 Mulliken charges:
               1
     1  C   -0.672359
     2  C   -0.672359
     3  C   -2.891785
     4  C   -2.891785
     5  H    1.065704
     6  H    1.065704
     7  H    1.407026
     8  H    1.407026
     9  H    1.091414
    10  H    1.091414
 Sum of Mulliken charges =   0.00000

 Dipole moment (field-independent basis, Debye):
    X=              0.0000    Y=             -0.0000    Z=             -0.7721  Tot=              0.7721

 Test job not archived.
 1\1\GINC-SE276\SP\RHF\Aug-CC-pVDZ\C4H6\OHZDE\06-Apr-2025\0\\#t hf aug-
 cc-pvdz iop(5/13=1,5/36=2,99/5=2) pseudo=read geom=check guess=(read,t
 check) scf=(maxcycle=1)\\title\\0,1\C,0,-0.742813,0.,-0.317669\C,0,0.7
 42813,0.,-0.317669\C,0,0.,1.134528,0.312889\C,0,0.,-1.134528,0.312889\
 H,0,0.,-1.232016,1.397188\H,0,0.,1.232016,1.397188\H,0,0.,-2.078551,-0
 .219647\H,0,0.,2.078551,-0.219647\H,0,-1.425483,0.,-1.148859\H,0,1.425
 483,0.,-1.148859\\Version=ES64L-G16RevC.01\State=1-A1\HF=-155.6628211\
 RMSD=4.365e-01\Dipole=0.,0.,-0.3037713\Quadrupole=-1.2198134,0.6509318

 Normal termination of Gaussian 16 at Sun Apr  6 08:10:46 2025.
