 Gaussian 16, Revision C.01,

 ----------------------------------------------------------------------
 #t hf aug-cc-pvdz symm=none int=(grid=ultrafine) guess=(read,tcheck) s
 table=(opt,rrhf)
 ----------------------------------------------------------------------
 -----
 title
 -----
 Symbolic Z-matrix:
 Charge =  0 Multiplicity = 1

 SCF Done:  E(RHF) =  -311.101738453     A.U. after   12 cycles
 Normal termination of Gaussian 16 at Sun Apr  6 08:12:06 2025.
 Gaussian 16:  ES64L-G16RevC.01  3-Jul-2019

 ----------------------------------------------------------------------
 #t hf aug-cc-pvdz iop(5/13=1,5/36=2,99/5=2) pseudo=read geom=check gue
 ss=(read,tcheck) scf=(maxcycle=1)
 ----------------------------------------------------------------------
 -----
 title
 -----
 Structure from the checkpoint file:  "bicyclo-5-1-0-octane.chk"
 Charge =  0 Multiplicity = 1

                         Standard orientation:
 ---------------------------------------------------------------------
 Center     Atomic      Atomic             Coordinates (Angstroms)
 Number     Number       Type             X           Y           Z
 ---------------------------------------------------------------------
      1          6           0        0.322882   -1.211271    0.752902
      2          6           0        0.322882   -1.211271   -0.752902
      3          6           0       -0.466950   -2.251492   -0.000000
      4          6           0       -0.345255   -0.092908    1.527147
      5          6           0       -0.345255   -0.092908   -1.527147
      6          6           0        0.322882    1.274175    1.311568
      7          6           0        0.322882    1.274175   -1.311568
      8          6           0       -0.056876    1.976267    0.000000
      9          1           0        1.240243   -1.564633   -1.210344
     10          1           0       -0.116933   -3.274616   -0.000000
     11          1           0       -1.545089   -2.152272    0.000000
     12          1           0       -1.402559   -0.021790    1.258165
     13          1           0       -0.326225   -0.345142    2.590759
     14          1           0       -0.326225   -0.345142   -2.590759
     15          1           0       -1.402559   -0.021790   -1.258165
     16          1           0        0.048720    1.937680    2.136366
     17          1           0        1.410002    1.155998    1.365948
     18          1           0        1.410002    1.155998   -1.365948
     19          1           0        0.048720    1.937680   -2.136366
     20          1           0       -1.139984    2.143490    0.000000
     21          1           0        0.398488    2.970578    0.000000
     22          1           0        1.240243   -1.564633    1.210344
 ---------------------------------------------------------------------

 SCF Done:  E(RHF) =  -312.700656158     A.U. after    2 cycles

 The electronic state is 1-A'.
 Alpha  occ. eigenvalues --  -11.44498 -11.44003 -11.41598 -11.41087 -11.38928
 Alpha  occ. eigenvalues --  -11.37117 -11.35231 -11.33642  -1.35105  -1.20026
 Alpha  occ. eigenvalues --   -1.13852  -0.98858  -0.92055  -0.83952  -0.79765
 Alpha  occ. eigenvalues --   -0.76107  -0.68193  -0.63303  -0.62305  -0.58457
 Alpha  occ. eigenvalues --   -0.56153  -0.55403  -0.50912  -0.49153  -0.49067
 Alpha  occ. eigenvalues --   -0.44355  -0.42936  -0.42845  -0.41124  -0.35712
 Alpha  occ. eigenvalues --   -0.34193
 Alpha virt. eigenvalues --    0.04475   0.04950   0.05118   0.05125   0.05448
 Alpha virt. eigenvalues --    0.05662   0.06021   0.06255   0.06982   0.07963
 Alpha virt. eigenvalues --    0.08415   0.08550   0.08711   0.08987   0.11635

 Mulliken charges:
               1
     1  C    0.427416
     2  C    0.427416
     3  C   -3.429113
     4  C   -3.827999
     5  C   -3.827999
     6  C   -3.151664
     7  C   -3.151664
     8  C   -2.460562
     9  H    1.279689
    10  H    1.199156
    11  H    1.408207
    12  H    1.525455
    13  H    1.228162
    14  H    1.228162
    15  H    1.525455
    16  H    1.279299
    17  H    1.551723
    18  H    1.551723
    19  H    1.279299
    20  H    1.388323
    21  H    1.269827
    22  H    1.279689
 Sum of Mulliken charges =  -0.00000

 Dipole moment (field-independent basis, Debye):
    X=              0.0931    Y=              0.0556    Z=              0.0000  Tot=              0.1084

 Test job not archived.
 1\1\GINC-SE366\SP\RHF\Aug-CC-pVDZ\C8H14\OHZDE\06-Apr-2025\0\\#t hf aug
 -cc-pvdz iop(5/13=1,5/36=2,99/5=2) pseudo=read geom=check guess=(read,
 tcheck) scf=(maxcycle=1)\\title\\0,1\C,0,0.322882,-1.211271,0.752902\C
 ,0,0.322882,-1.211271,-0.752902\C,0,-0.46695,-2.251492,0.\C,0,-0.34525
 5,-0.092908,1.527147\C,0,-0.345255,-0.092908,-1.527147\C,0,0.322882,1.
 274175,1.311568\C,0,0.322882,1.274175,-1.311568\C,0,-0.056876,1.976267
 ,0.\H,0,1.240243,-1.564633,-1.210344\H,0,-0.116933,-3.274616,0.\H,0,-1
 .545089,-2.152272,0.\H,0,-1.402559,-0.02179,1.258165\H,0,-0.326225,-0.

 Normal termination of Gaussian 16 at Sun Apr  6 08:12:13 2025.
