 Gaussian 16, Revision C.01,

 ----------------------------------------------------------------------
 #t hf aug-cc-pvdz symm=none int=(grid=ultrafine) guess=(read,tcheck) s
 table=(opt,rrhf)
 ----------------------------------------------------------------------
 -----
 title
 -----
 Symbolic Z-matrix:
 Charge =  0 Multiplicity = 1

 SCF Done:  E(RHF) =  -311.134578343     A.U. after   11 cycles
 Normal termination of Gaussian 16 at Sun Apr  6 08:11:24 2025.
 Gaussian 16:  ES64L-G16RevC.01  3-Jul-2019

 ----------------------------------------------------------------------
 #t hf aug-cc-pvdz iop(5/13=1,5/36=2,99/5=2) pseudo=read geom=check gue
 ss=(read,tcheck) scf=(maxcycle=1)
 ----------------------------------------------------------------------
 -----
 title
 -----
 Structure from the checkpoint file:  "bicyclo-2-2-2-octane.chk"
 Charge =  0 Multiplicity = 1

                         Standard orientation:
 ---------------------------------------------------------------------
 Center     Atomic      Atomic             Coordinates (Angstroms)
 Number     Number       Type             X           Y           Z
 ---------------------------------------------------------------------
      1          6           0       -1.295208    0.000000   -0.000000
      2          6           0       -0.777177    0.017844    1.447195
      3          6           0       -0.777177    1.244385   -0.739051
      4          6           0        0.777177   -0.017844    1.447195
      5          6           0        1.295208   -0.000000   -0.000000
      6          6           0        0.777177    1.262230   -0.708144
      7          6           0       -0.777177   -1.262230   -0.708144
      8          6           0        0.777177   -1.244385   -0.739051
      9          1           0       -1.182692   -1.308838   -1.720784
     10          1           0        2.387174   -0.000000   -0.000000
     11          1           0        1.142178    2.149499   -0.186632
     12          1           0       -1.142178   -2.149499   -0.186632
     13          1           0        1.182692    1.308838   -1.720784
     14          1           0       -2.387174    0.000000   -0.000000
     15          1           0       -1.182692    2.144662   -0.273094
     16          1           0        1.142178   -1.236378   -1.768205
     17          1           0       -1.182692   -0.835824    1.993879
     18          1           0        1.182692    0.835824    1.993879
     19          1           0        1.182692   -2.144662   -0.273094
     20          1           0       -1.142178    0.913121    1.954837
     21          1           0       -1.142178    1.236378   -1.768205
     22          1           0        1.142178   -0.913121    1.954837
 ---------------------------------------------------------------------

 SCF Done:  E(RHF) =  -312.738790007     A.U. after    2 cycles

 The electronic state is 1-A.
 Alpha  occ. eigenvalues --  -11.49192 -11.44770 -11.44770 -11.39087 -11.36515
 Alpha  occ. eigenvalues --  -11.36080 -11.36080 -11.32532  -1.37166  -1.11652
 Alpha  occ. eigenvalues --   -1.09060  -1.09060  -0.87802  -0.87802  -0.84212
 Alpha  occ. eigenvalues --   -0.69568  -0.69253  -0.64972  -0.64972  -0.56123
 Alpha  occ. eigenvalues --   -0.52081  -0.52081  -0.51849  -0.50435  -0.50435
 Alpha  occ. eigenvalues --   -0.44824  -0.44824  -0.44039  -0.36798  -0.36016
 Alpha  occ. eigenvalues --   -0.36016
 Alpha virt. eigenvalues --    0.04049   0.04775   0.04775   0.04992   0.05197
 Alpha virt. eigenvalues --    0.05197   0.06367   0.07021   0.07021   0.08166
 Alpha virt. eigenvalues --    0.08449   0.08490   0.08490   0.10861   0.11697

 Mulliken charges:
               1
     1  C   -0.553771
     2  C   -3.197343
     3  C   -3.197338
     4  C   -3.197343
     5  C   -0.553771
     6  C   -3.197346
     7  C   -3.197346
     8  C   -3.197338
     9  H    1.373499
    10  H    1.903914
    11  H    1.373796
    12  H    1.373796
    13  H    1.373499
    14  H    1.903914
    15  H    1.373498
    16  H    1.373796
    17  H    1.373499
    18  H    1.373499
    19  H    1.373498
    20  H    1.373796
    21  H    1.373796
    22  H    1.373796
 Sum of Mulliken charges =   0.00000

 Dipole moment (field-independent basis, Debye):
    X=             -0.0000    Y=              0.0000    Z=             -0.0000  Tot=              0.0000

 Test job not archived.
 1\1\GINC-SE255\SP\RHF\Aug-CC-pVDZ\C8H14\OHZDE\06-Apr-2025\0\\#t hf aug
 -cc-pvdz iop(5/13=1,5/36=2,99/5=2) pseudo=read geom=check guess=(read,
 tcheck) scf=(maxcycle=1)\\title\\0,1\C,0,0.,0.,1.295208\C,0,-0.017844,
 1.447195,0.777177\C,0,-1.244385,-0.739051,0.777177\C,0,0.017844,1.4471
 95,-0.777177\C,0,0.,0.,-1.295208\C,0,-1.26223,-0.708144,-0.777177\C,0,
 1.26223,-0.708144,0.777177\C,0,1.244385,-0.739051,-0.777177\H,0,1.3088
 38,-1.720784,1.182692\H,0,0.,0.,-2.387174\H,0,-2.149499,-0.186632,-1.1
 42178\H,0,2.149499,-0.186632,1.142178\H,0,-1.308838,-1.720784,-1.18269

 Normal termination of Gaussian 16 at Sun Apr  6 08:11:31 2025.
