 Gaussian 16, Revision C.01,

 ----------------------------------------------------------------------
 #t hf aug-cc-pvdz symm=none int=(grid=ultrafine) guess=(read,tcheck) s
 table=(opt,rrhf)
 ----------------------------------------------------------------------
 -----
 title
 -----
 Symbolic Z-matrix:
 Charge =  0 Multiplicity = 1

 SCF Done:  E(RHF) =  -231.743181908     A.U. after   11 cycles
 Normal termination of Gaussian 16 at Sun Apr  6 08:10:24 2025.
 Gaussian 16:  ES64L-G16RevC.01  3-Jul-2019

 ----------------------------------------------------------------------
 #t hf aug-cc-pvdz iop(5/13=1,5/36=2,99/5=2) pseudo=read geom=check gue
 ss=(read,tcheck) scf=(maxcycle=1)
 ----------------------------------------------------------------------
 -----
 title
 -----
 Structure from the checkpoint file:  "bicyclo-2-2-0-hex-1-4-ene.chk"
 Charge =  0 Multiplicity = 1

                         Standard orientation:
 ---------------------------------------------------------------------
 Center     Atomic      Atomic             Coordinates (Angstroms)
 Number     Number       Type             X           Y           Z
 ---------------------------------------------------------------------
      1          6           0       -1.522244    0.801625    0.000000
      2          1           0       -1.971604    1.251554    0.886835
      3          1           0       -1.971604    1.251554   -0.886835
      4          6           0       -1.522244   -0.801625   -0.000000
      5          1           0       -1.971604   -1.251554   -0.886835
      6          1           0       -1.971604   -1.251554    0.886835
      7          6           0        1.522244   -0.801625    0.000000
      8          1           0        1.971604   -1.251554    0.886835
      9          1           0        1.971604   -1.251554   -0.886835
     10          6           0        0.000000   -0.656608    0.000000
     11          6           0        0.000000    0.656608    0.000000
     12          6           0        1.522244    0.801625    0.000000
     13          1           0        1.971604    1.251554   -0.886835
     14          1           0        1.971604    1.251554    0.886835
 ---------------------------------------------------------------------

 SCF Done:  E(RHF) =  -232.922854224     A.U. after    2 cycles

 The electronic state is 1-AG.
 Alpha  occ. eigenvalues --  -11.48181 -11.47103 -11.38706 -11.38526 -11.36434
 Alpha  occ. eigenvalues --  -11.33520  -1.38148  -1.14663  -0.93030  -0.89192
 Alpha  occ. eigenvalues --   -0.87992  -0.64610  -0.64376  -0.62305  -0.59894
 Alpha  occ. eigenvalues --   -0.52897  -0.50907  -0.49548  -0.41457  -0.39960
 Alpha  occ. eigenvalues --   -0.36673  -0.31616
 Alpha virt. eigenvalues --    0.03730   0.04969   0.05243   0.05646   0.05987
 Alpha virt. eigenvalues --    0.06421   0.07202   0.08704   0.08863   0.11330
 Alpha virt. eigenvalues --    0.11352   0.13121   0.13563   0.14419   0.14661

 Mulliken charges:
               1
     1  C   -3.482603
     2  H    1.263464
     3  H    1.263464
     4  C   -3.482603
     5  H    1.263464
     6  H    1.263464
     7  C   -3.482603
     8  H    1.263464
     9  H    1.263464
    10  C    1.911349
    11  C    1.911349
    12  C   -3.482603
    13  H    1.263464
    14  H    1.263464
 Sum of Mulliken charges =  -0.00000

 Dipole moment (field-independent basis, Debye):
    X=              0.0000    Y=             -0.0000    Z=              0.0000  Tot=              0.0000

 Test job not archived.
 1\1\GINC-SE254\SP\RHF\Aug-CC-pVDZ\C6H8\OHZDE\06-Apr-2025\0\\#t hf aug-
 cc-pvdz iop(5/13=1,5/36=2,99/5=2) pseudo=read geom=check guess=(read,t
 check) scf=(maxcycle=1)\\title\\0,1\C,0,-1.522244,0.801625,0.\H,0,-1.9
 71604,1.251554,0.886835\H,0,-1.971604,1.251554,-0.886835\C,0,-1.522244
 ,-0.801625,0.\H,0,-1.971604,-1.251554,-0.886835\H,0,-1.971604,-1.25155
 4,0.886835\C,0,1.522244,-0.801625,0.\H,0,1.971604,-1.251554,0.886835\H
 ,0,1.971604,-1.251554,-0.886835\C,0,0.,-0.656608,0.\C,0,0.,0.656608,0.
 \C,0,1.522244,0.801625,0.\H,0,1.971604,1.251554,-0.886835\H,0,1.971604

 Normal termination of Gaussian 16 at Sun Apr  6 08:10:48 2025.
