 Gaussian 16, Revision C.01,

 ----------------------------------------------------------------------
 #t hf aug-cc-pvdz symm=none int=(grid=ultrafine) guess=(read,tcheck) s
 table=(opt,rrhf)
 ----------------------------------------------------------------------
 -----
 title
 -----
 Symbolic Z-matrix:
 Charge =  0 Multiplicity = 1

 SCF Done:  E(RHF) =  -192.732913034     A.U. after   12 cycles
 Normal termination of Gaussian 16 at Sun Apr  6 08:10:55 2025.
 Gaussian 16:  ES64L-G16RevC.01  3-Jul-2019

 ----------------------------------------------------------------------
 #t hf aug-cc-pvdz iop(5/13=1,5/36=2,99/5=2) pseudo=read geom=check gue
 ss=(read,tcheck) scf=(maxcycle=1)
 ----------------------------------------------------------------------
 -----
 title
 -----
 Structure from the checkpoint file:  "bicyclo-2-1-0-pent-2-ene.chk"
 Charge =  0 Multiplicity = 1

                         Standard orientation:
 ---------------------------------------------------------------------
 Center     Atomic      Atomic             Coordinates (Angstroms)
 Number     Number       Type             X           Y           Z
 ---------------------------------------------------------------------
      1          6           0       -0.266056    1.055248    0.669094
      2          6           0       -0.266056    1.055248   -0.669094
      3          6           0       -0.266056   -0.460196    0.760307
      4          6           0       -0.266056   -0.460196   -0.760307
      5          6           0        0.922329   -1.012414    0.000000
      6          1           0       -0.135836    1.824369    1.417771
      7          1           0       -0.135836    1.824369   -1.417771
      8          1           0       -0.878809   -1.079524    1.397279
      9          1           0       -0.878809   -1.079524   -1.397279
     10          1           0        1.855860   -0.463241   -0.000000
     11          1           0        1.024808   -2.092588    0.000000
 ---------------------------------------------------------------------

 SCF Done:  E(RHF) =  -193.684644844     A.U. after    2 cycles

 The electronic state is 1-A'.
 Alpha  occ. eigenvalues --  -11.46448 -11.42131 -11.40209 -11.39227 -11.35457
 Alpha  occ. eigenvalues --   -1.40684  -1.05482  -0.89287  -0.84240  -0.72983
 Alpha  occ. eigenvalues --   -0.71587  -0.60103  -0.59053  -0.47381  -0.45281
 Alpha  occ. eigenvalues --   -0.41435  -0.40049  -0.29150
 Alpha virt. eigenvalues --    0.04055   0.05144   0.05764   0.06073   0.06107
 Alpha virt. eigenvalues --    0.06716   0.09740   0.11365   0.12378   0.12516
 Alpha virt. eigenvalues --    0.13266   0.13764   0.14982   0.15303   0.16223

 Mulliken charges:
               1
     1  C   -0.719230
     2  C   -0.719230
     3  C   -1.491344
     4  C   -1.491344
     5  C   -2.490010
     6  H    1.097546
     7  H    1.097546
     8  H    1.075698
     9  H    1.075698
    10  H    1.274357
    11  H    1.290312
 Sum of Mulliken charges =   0.00000

 Dipole moment (field-independent basis, Debye):
    X=              0.1338    Y=             -0.3348    Z=             -0.0000  Tot=              0.3606

 Test job not archived.
 1\1\GINC-SE253\SP\RHF\Aug-CC-pVDZ\C5H6\OHZDE\06-Apr-2025\0\\#t hf aug-
 cc-pvdz iop(5/13=1,5/36=2,99/5=2) pseudo=read geom=check guess=(read,t
 check) scf=(maxcycle=1)\\title\\0,1\C,0,-0.266056,1.055248,0.669094\C,
 0,-0.266056,1.055248,-0.669094\C,0,-0.266056,-0.460196,0.760307\C,0,-0
 .266056,-0.460196,-0.760307\C,0,0.922329,-1.012414,0.\H,0,-0.135836,1.
 824369,1.417771\H,0,-0.135836,1.824369,-1.417771\H,0,-0.878809,-1.0795
 24,1.397279\H,0,-0.878809,-1.079524,-1.397279\H,0,1.85586,-0.463241,0.
 \H,0,1.024808,-2.092588,0.\\Version=ES64L-G16RevC.01\State=1-A'\HF=-19

 Normal termination of Gaussian 16 at Sun Apr  6 08:11:00 2025.
