 Gaussian 16, Revision C.01,

 ----------------------------------------------------------------------
 #t hf aug-cc-pvdz symm=none int=(grid=ultrafine) guess=(read,tcheck) s
 table=(opt,rrhf)
 ----------------------------------------------------------------------
 -----
 title
 -----
 Symbolic Z-matrix:
 Charge =  0 Multiplicity = 1

 SCF Done:  E(RHF) =  -460.301087009     A.U. after   14 cycles
 Normal termination of Gaussian 16 at Sun Apr  6 08:14:23 2025.
 Gaussian 16:  ES64L-G16RevC.01  3-Jul-2019

 ----------------------------------------------------------------------
 #t hf aug-cc-pvdz iop(5/13=1,5/36=2,99/5=2) pseudo=read geom=check gue
 ss=(read,tcheck) scf=(maxcycle=1)
 ----------------------------------------------------------------------
 -----
 title
 -----
 Structure from the checkpoint file:  "biphenyl.chk"
 Charge =  0 Multiplicity = 1

                         Standard orientation:
 ---------------------------------------------------------------------
 Center     Atomic      Atomic             Coordinates (Angstroms)
 Number     Number       Type             X           Y           Z
 ---------------------------------------------------------------------
      1          6           0        0.000000    0.000000   -0.741117
      2          6           0       -0.402579    1.130241   -1.461501
      3          6           0        0.402579   -1.130241   -1.461501
      4          6           0        0.403188   -1.130626   -2.850176
      5          6           0        0.000000    0.000000   -3.551569
      6          6           0       -0.403188    1.130626   -2.850176
      7          6           0       -0.000000    0.000000    0.741117
      8          6           0        0.402579    1.130241    1.461501
      9          6           0        0.403188    1.130626    2.850176
     10          6           0       -0.000000    0.000000    3.551569
     11          6           0       -0.403188   -1.130626    2.850176
     12          6           0       -0.402579   -1.130241    1.461501
     13          1           0       -0.727357   -2.013375    3.385168
     14          1           0       -0.727357    2.013375   -3.385168
     15          1           0        0.000000   -0.000000    4.633120
     16          1           0        0.000000   -0.000000   -4.633120
     17          1           0        0.727357   -2.013375   -3.385168
     18          1           0        0.727357    2.013375    3.385168
     19          1           0        0.740949    2.008623    0.928761
     20          1           0        0.740949   -2.008623   -0.928761
     21          1           0       -0.740949   -2.008623    0.928761
     22          1           0       -0.740949    2.008623   -0.928761
 ---------------------------------------------------------------------

 SCF Done:  E(RHF) =  -462.524683024     A.U. after    2 cycles

 The electronic state is 1-A.
 Alpha  occ. eigenvalues --  -11.52398 -11.51180 -11.44596 -11.43693 -11.43389
 Alpha  occ. eigenvalues --  -11.42613 -11.41053 -11.40831 -11.40753 -11.40236
 Alpha  occ. eigenvalues --  -11.37049 -11.35956  -1.38847  -1.30299  -1.14014
 Alpha  occ. eigenvalues --   -1.09861  -1.08513  -1.04674  -0.89056  -0.87711
 Alpha  occ. eigenvalues --   -0.84681  -0.81914  -0.73104  -0.69384  -0.66539
 Alpha  occ. eigenvalues --   -0.62145  -0.59503  -0.58154  -0.57300  -0.57179
 Alpha  occ. eigenvalues --   -0.55277  -0.50940  -0.49030  -0.47909  -0.45450
 Alpha  occ. eigenvalues --   -0.43316  -0.41809  -0.36184  -0.33003  -0.32977
 Alpha  occ. eigenvalues --   -0.29004
 Alpha virt. eigenvalues --    0.03291   0.04954   0.04967   0.05245   0.05604
 Alpha virt. eigenvalues --    0.06009   0.06293   0.07110   0.07422   0.07863
 Alpha virt. eigenvalues --    0.09875   0.10107   0.10522   0.11512   0.12243

 Mulliken charges:
               1
     1  C    5.772315
     2  C   -2.888424
     3  C   -2.888424
     4  C   -2.544573
     5  C   -3.156759
     6  C   -2.544573
     7  C    5.772315
     8  C   -2.888424
     9  C   -2.544573
    10  C   -3.156759
    11  C   -2.544573
    12  C   -2.888424
    13  H    1.508942
    14  H    1.508942
    15  H    1.547307
    16  H    1.547307
    17  H    1.508942
    18  H    1.508942
    19  H    1.842623
    20  H    1.842623
    21  H    1.842623
    22  H    1.842623
 Sum of Mulliken charges =   0.00000

 Dipole moment (field-independent basis, Debye):
    X=              0.0000    Y=              0.0000    Z=             -0.0000  Tot=              0.0000

 Test job not archived.
 1\1\GINC-SE042\SP\RHF\Aug-CC-pVDZ\C12H10\OHZDE\06-Apr-2025\0\\#t hf au
 g-cc-pvdz iop(5/13=1,5/36=2,99/5=2) pseudo=read geom=check guess=(read
 ,tcheck) scf=(maxcycle=1)\\title\\0,1\C,0,0.,0.,-0.741117\C,0,-0.40257
 9,1.130241,-1.461501\C,0,0.402579,-1.130241,-1.461501\C,0,0.403188,-1.
 130626,-2.850176\C,0,0.,0.,-3.551569\C,0,-0.403188,1.130626,-2.850176\
 C,0,0.,0.,0.741117\C,0,0.402579,1.130241,1.461501\C,0,0.403188,1.13062
 6,2.850176\C,0,0.,0.,3.551569\C,0,-0.403188,-1.130626,2.850176\C,0,-0.
 402579,-1.130241,1.461501\H,0,-0.727357,-2.013375,3.385168\H,0,-0.7273

 Normal termination of Gaussian 16 at Sun Apr  6 08:14:57 2025.
