 Gaussian 16, Revision C.01,

 ----------------------------------------------------------------------
 #t hf aug-cc-pvdz symm=none int=(grid=ultrafine) guess=(read,tcheck) s
 table=(opt,rrhf)
 ----------------------------------------------------------------------
 -----
 title
 -----
 Symbolic Z-matrix:
 Charge =  0 Multiplicity = 1

 SCF Done:  E(RHF) =  -459.059689421     A.U. after   14 cycles
 Normal termination of Gaussian 16 at Sun Apr  6 08:13:04 2025.
 Gaussian 16:  ES64L-G16RevC.01  3-Jul-2019

 ----------------------------------------------------------------------
 #t hf aug-cc-pvdz iop(5/13=1,5/36=2,99/5=2) pseudo=read geom=check gue
 ss=(read,tcheck) scf=(maxcycle=1)
 ----------------------------------------------------------------------
 -----
 title
 -----
 Structure from the checkpoint file:  "biphenylene.chk"
 Charge =  0 Multiplicity = 1

                         Standard orientation:
 ---------------------------------------------------------------------
 Center     Atomic      Atomic             Coordinates (Angstroms)
 Number     Number       Type             X           Y           Z
 ---------------------------------------------------------------------
      1          6           0        3.111158    0.691977    0.000194
      2          6           0        1.909382    1.439432    0.000379
      3          6           0        0.753239    0.709064   -0.000071
      4          6           0       -0.753239    0.709064    0.000071
      5          6           0       -0.753239   -0.709064   -0.000071
      6          6           0        0.753239   -0.709064    0.000071
      7          6           0        1.909382   -1.439432   -0.000379
      8          6           0        3.111158   -0.691977   -0.000194
      9          6           0       -1.909382   -1.439432    0.000379
     10          6           0       -3.111158   -0.691977    0.000194
     11          6           0       -3.111158    0.691977   -0.000194
     12          6           0       -1.909382    1.439432   -0.000379
     13          1           0        4.056913    1.217403    0.000417
     14          1           0        1.930044    2.520654    0.000453
     15          1           0        1.930044   -2.520654   -0.000453
     16          1           0        4.056913   -1.217403   -0.000417
     17          1           0       -1.930044   -2.520654    0.000453
     18          1           0       -4.056913   -1.217403    0.000417
     19          1           0       -4.056913    1.217403   -0.000417
     20          1           0       -1.930044    2.520654   -0.000453
 ---------------------------------------------------------------------

 SCF Done:  E(RHF) =  -461.252754043     A.U. after    2 cycles

 The electronic state is 1-A.
 Alpha  occ. eigenvalues --  -11.55893 -11.50320 -11.49006 -11.46128 -11.42960
 Alpha  occ. eigenvalues --  -11.42683 -11.42632 -11.42292 -11.41376 -11.40430
 Alpha  occ. eigenvalues --  -11.38915 -11.36499  -1.43994  -1.28788  -1.18192
 Alpha  occ. eigenvalues --   -1.10921  -1.08770  -1.01143  -0.92125  -0.87916
 Alpha  occ. eigenvalues --   -0.80794  -0.80308  -0.72496  -0.66743  -0.64905
 Alpha  occ. eigenvalues --   -0.62903  -0.60193  -0.58658  -0.55742  -0.53282
 Alpha  occ. eigenvalues --   -0.53111  -0.50854  -0.47971  -0.42841  -0.41898
 Alpha  occ. eigenvalues --   -0.41708  -0.38061  -0.36153  -0.32095  -0.25529
 Alpha virt. eigenvalues --    0.03060   0.04712   0.04919   0.05757   0.05830
 Alpha virt. eigenvalues --    0.06395   0.06649   0.08183   0.08414   0.09076
 Alpha virt. eigenvalues --    0.09356   0.10538   0.11528   0.12190   0.12632

 Mulliken charges:
               1
     1  C   -1.937461
     2  C   -2.933710
     3  C    1.848299
     4  C    1.848299
     5  C    1.848299
     6  C    1.848299
     7  C   -2.933710
     8  C   -1.937461
     9  C   -2.933710
    10  C   -1.937461
    11  C   -1.937461
    12  C   -2.933710
    13  H    1.527835
    14  H    1.495037
    15  H    1.495037
    16  H    1.527835
    17  H    1.495037
    18  H    1.527835
    19  H    1.527835
    20  H    1.495037
 Sum of Mulliken charges =   0.00000

 Dipole moment (field-independent basis, Debye):
    X=              0.0000    Y=             -0.0000    Z=             -0.0000  Tot=              0.0000

 Test job not archived.
 1\1\GINC-SE044\SP\RHF\Aug-CC-pVDZ\C12H8\OHZDE\06-Apr-2025\0\\#t hf aug
 -cc-pvdz iop(5/13=1,5/36=2,99/5=2) pseudo=read geom=check guess=(read,
 tcheck) scf=(maxcycle=1)\\title\\0,1\C,0,3.111158,0.691977,0.000194\C,
 0,1.909382,1.439432,0.000379\C,0,0.753239,0.709064,-0.000071\C,0,-0.75
 3239,0.709064,0.000071\C,0,-0.753239,-0.709064,-0.000071\C,0,0.753239,
 -0.709064,0.000071\C,0,1.909382,-1.439432,-0.000379\C,0,3.111158,-0.69
 1977,-0.000194\C,0,-1.909382,-1.439432,0.000379\C,0,-3.111158,-0.69197
 7,0.000194\C,0,-3.111158,0.691977,-0.000194\C,0,-1.909382,1.439432,-0.

 Normal termination of Gaussian 16 at Sun Apr  6 08:13:24 2025.
