 Gaussian 16, Revision C.01,

 ----------------------------------------------------------------------
 #t hf aug-cc-pvdz symm=none int=(grid=ultrafine) guess=(read,tcheck) s
 table=(opt,rrhf)
 ----------------------------------------------------------------------
 -----
 title
 -----
 Symbolic Z-matrix:
 Charge =  0 Multiplicity = 1

 SCF Done:  E(RHF) =  -283.691330725     A.U. after   15 cycles
 Normal termination of Gaussian 16 at Sun Apr  6 08:11:03 2025.
 Gaussian 16:  ES64L-G16RevC.01  3-Jul-2019

 ----------------------------------------------------------------------
 #t hf aug-cc-pvdz iop(5/13=1,5/36=2,99/5=2) pseudo=read geom=check gue
 ss=(read,tcheck) scf=(maxcycle=1)
 ----------------------------------------------------------------------
 -----
 title
 -----
 Structure from the checkpoint file:  "but-2-ynamide.chk"
 Charge =  0 Multiplicity = 1

                         Standard orientation:
 ---------------------------------------------------------------------
 Center     Atomic      Atomic             Coordinates (Angstroms)
 Number     Number       Type             X           Y           Z
 ---------------------------------------------------------------------
      1          6           0       -0.275084   -0.023840    0.000001
      2          6           0       -1.476686    0.011199   -0.000006
      3          6           0        1.173929   -0.141273    0.000002
      4          6           0       -2.928915    0.034761    0.000001
      5          7           0        1.835717    1.050955    0.000032
      6          8           0        1.744529   -1.217101   -0.000005
      7          1           0       -3.308404    0.552873    0.882157
      8          1           0       -3.334521   -0.977755   -0.000225
      9          1           0       -3.308412    0.553273   -0.881917
     10          1           0        2.841046    1.040814   -0.000076
     11          1           0        1.344570    1.925831   -0.000104
 ---------------------------------------------------------------------

 SCF Done:  E(RHF) =  -284.971780723     A.U. after    2 cycles

 The electronic state is 1-A.
 Alpha  occ. eigenvalues --  -21.02992 -15.78434 -11.54399 -11.45913 -11.42060
 Alpha  occ. eigenvalues --  -11.40576  -1.70787  -1.35378  -1.19164  -1.04452
 Alpha  occ. eigenvalues --   -0.88727  -0.73916  -0.67479  -0.61362  -0.60414
 Alpha  occ. eigenvalues --   -0.60015  -0.55291  -0.50806  -0.38147  -0.37792
 Alpha  occ. eigenvalues --   -0.32149  -0.29569
 Alpha virt. eigenvalues --    0.02421   0.04459   0.05936   0.05949   0.06557
 Alpha virt. eigenvalues --    0.08448   0.10881   0.11951   0.12121   0.12734
 Alpha virt. eigenvalues --    0.14312   0.14472   0.14921   0.15752   0.16757

 Mulliken charges:
               1
     1  C   -0.101483
     2  C    2.097563
     3  C    4.753152
     4  C   -4.562797
     5  N   -3.020362
     6  O   -3.313382
     7  H    0.878868
     8  H    0.855640
     9  H    0.878864
    10  H    0.755172
    11  H    0.778766
 Sum of Mulliken charges =   0.00000

 Dipole moment (field-independent basis, Debye):
    X=             -1.6403    Y=              2.4368    Z=             -0.0003  Tot=              2.9375

 Test job not archived.
 1\1\GINC-SE101\SP\RHF\Aug-CC-pVDZ\C4H5N1O1\OHZDE\06-Apr-2025\0\\#t hf
 aug-cc-pvdz iop(5/13=1,5/36=2,99/5=2) pseudo=read geom=check guess=(re
 ad,tcheck) scf=(maxcycle=1)\\title\\0,1\C,0,-0.275084,-0.02384,0.00000
 1\C,0,-1.476686,0.011199,-0.000006\C,0,1.173929,-0.141273,0.000002\C,0
 ,-2.928915,0.034761,0.000001\N,0,1.835717,1.050955,0.000032\O,0,1.7445
 29,-1.217101,-0.000005\H,0,-3.308404,0.552873,0.882157\H,0,-3.334521,-
 0.977755,-0.000225\H,0,-3.308412,0.553273,-0.881917\H,0,2.841046,1.040
 814,-0.000076\H,0,1.34457,1.925831,-0.000104\\Version=ES64L-G16RevC.01

 Normal termination of Gaussian 16 at Sun Apr  6 08:11:07 2025.
