 Gaussian 16, Revision C.01,

 ----------------------------------------------------------------------
 #t hf aug-cc-pvdz symm=none int=(grid=ultrafine) guess=(read,tcheck) s
 table=(opt,rrhf)
 ----------------------------------------------------------------------
 -----
 title
 -----
 Symbolic Z-matrix:
 Charge =  0 Multiplicity = 1

 SCF Done:  E(RHF) =  -552.899697055     A.U. after   16 cycles
 Normal termination of Gaussian 16 at Sun Apr  6 08:11:41 2025.
 Gaussian 16:  ES64L-G16RevC.01  3-Jul-2019

 ----------------------------------------------------------------------
 #t hf aug-cc-pvdz iop(5/13=1,5/36=2,99/5=2) pseudo=read geom=check gue
 ss=(read,tcheck) scf=(maxcycle=1)
 ----------------------------------------------------------------------
 -----
 title
 -----
 Structure from the checkpoint file:  "buta-1-3-diynyl_fluoromethyl_carbonate.chk"
 Charge =  0 Multiplicity = 1

                         Standard orientation:
 ---------------------------------------------------------------------
 Center     Atomic      Atomic             Coordinates (Angstroms)
 Number     Number       Type             X           Y           Z
 ---------------------------------------------------------------------
      1          9           0        3.940309   -0.700508    0.000001
      2          8           0        0.078593   -0.377057    0.000001
      3          8           0        2.113751    0.544697   -0.000000
      4          8           0        0.337726    1.902359   -0.000003
      5          6           0        0.818126    0.821984   -0.000000
      6          6           0       -1.226279   -0.291508    0.000001
      7          6           0        2.589453   -0.807507    0.000001
      8          6           0       -2.427483   -0.308785   -0.000000
      9          6           0       -3.790073   -0.312892   -0.000000
     10          6           0       -4.994397   -0.317938   -0.000000
     11          1           0        2.268129   -1.318104    0.905799
     12          1           0        2.268129   -1.318107   -0.905795
     13          1           0       -6.055687   -0.319329   -0.000000
 ---------------------------------------------------------------------

 SCF Done:  E(RHF) =  -555.155664823     A.U. after    2 cycles

 The electronic state is 1-A.
 Alpha  occ. eigenvalues --  -29.30507 -21.18828 -21.14796 -21.09826 -11.60234
 Alpha  occ. eigenvalues --  -11.52812 -11.52003 -11.48014 -11.44504 -11.43328
 Alpha  occ. eigenvalues --   -1.97416  -1.81590  -1.72488  -1.19946  -1.17450
 Alpha  occ. eigenvalues --   -1.06680  -0.91853  -0.82654  -0.76746  -0.74648
 Alpha  occ. eigenvalues --   -0.74597  -0.69716  -0.65382  -0.65080  -0.55492
 Alpha  occ. eigenvalues --   -0.53742  -0.49679  -0.47202  -0.44473  -0.41814
 Alpha  occ. eigenvalues --   -0.37455  -0.37248  -0.33148  -0.31723  -0.29906
 Alpha  occ. eigenvalues --   -0.29249
 Alpha virt. eigenvalues --    0.02781   0.04525   0.04993   0.07356   0.08169
 Alpha virt. eigenvalues --    0.09486   0.09771   0.09819   0.10904   0.11275
 Alpha virt. eigenvalues --    0.11967   0.12330   0.12449   0.12802   0.14060

 Mulliken charges:
               1
     1  F    0.416822
     2  O   -5.007138
     3  O   -3.130520
     4  O   -2.869736
     5  C    6.623961
     6  C    2.406314
     7  C   -2.210050
     8  C    2.642596
     9  C    3.573611
    10  C   -5.668504
    11  H    1.409268
    12  H    1.409267
    13  H    0.404108
 Sum of Mulliken charges =   0.00000

 Dipole moment (field-independent basis, Debye):
    X=              2.3177    Y=             -1.6898    Z=              0.0000  Tot=              2.8683

 Test job not archived.
 1\1\GINC-SE155\SP\RHF\Aug-CC-pVDZ\C6H3F1O3\OHZDE\06-Apr-2025\0\\#t hf
 aug-cc-pvdz iop(5/13=1,5/36=2,99/5=2) pseudo=read geom=check guess=(re
 ad,tcheck) scf=(maxcycle=1)\\title\\0,1\F,0,3.940309,-0.700508,0.00000
 1\O,0,0.078593,-0.377057,0.000001\O,0,2.113751,0.544697,0.\O,0,0.33772
 6,1.902359,-0.000003\C,0,0.818126,0.821984,0.\C,0,-1.226279,-0.291508,
 0.000001\C,0,2.589453,-0.807507,0.000001\C,0,-2.427483,-0.308785,0.\C,
 0,-3.790073,-0.312892,0.\C,0,-4.994397,-0.317938,0.\H,0,2.268129,-1.31
 8104,0.905799\H,0,2.268129,-1.318107,-0.905795\H,0,-6.055687,-0.319329

 Normal termination of Gaussian 16 at Sun Apr  6 08:11:48 2025.
