 Gaussian 16, Revision C.01,

 ----------------------------------------------------------------------
 #t hf aug-cc-pvdz symm=none int=(grid=ultrafine) guess=(read,tcheck) s
 table=(opt,rrhf)
 ----------------------------------------------------------------------
 -----
 title
 -----
 Symbolic Z-matrix:
 Charge =  0 Multiplicity = 1

 SCF Done:  E(RHF) =  -157.313613381     A.U. after   11 cycles
 Normal termination of Gaussian 16 at Sun Apr  6 08:11:31 2025.
 Gaussian 16:  ES64L-G16RevC.01  3-Jul-2019

 ----------------------------------------------------------------------
 #t hf aug-cc-pvdz iop(5/13=1,5/36=2,99/5=2) pseudo=read geom=check gue
 ss=(read,tcheck) scf=(maxcycle=1)
 ----------------------------------------------------------------------
 -----
 title
 -----
 Structure from the checkpoint file:  "butane.chk"
 Charge =  0 Multiplicity = 1

                         Standard orientation:
 ---------------------------------------------------------------------
 Center     Atomic      Atomic             Coordinates (Angstroms)
 Number     Number       Type             X           Y           Z
 ---------------------------------------------------------------------
      1          6           0       -0.252798    0.723681    0.616235
      2          6           0        0.252798    1.571360   -0.551646
      3          6           0        0.252798   -0.723681    0.616235
      4          6           0       -0.252798   -1.571360   -0.551646
      5          1           0       -0.104388    2.599202   -0.473491
      6          1           0        0.083428   -1.182319   -1.513402
      7          1           0       -1.344623   -1.601548   -0.570383
      8          1           0       -0.083428    1.182319   -1.513402
      9          1           0        0.104388   -2.599202   -0.473491
     10          1           0        1.344623    1.601548   -0.570383
     11          1           0       -1.347442    0.719895    0.615666
     12          1           0        0.047102    1.198634    1.554079
     13          1           0        1.347442   -0.719895    0.615666
     14          1           0       -0.047102   -1.198634    1.554079
 ---------------------------------------------------------------------

 SCF Done:  E(RHF) =  -158.158015439     A.U. after    2 cycles

 The electronic state is 1-A.
 Alpha  occ. eigenvalues --  -11.40864 -11.38539 -11.35888 -11.33633  -1.23081
 Alpha  occ. eigenvalues --   -1.06389  -0.92274  -0.80975  -0.62526  -0.62063
 Alpha  occ. eigenvalues --   -0.57215  -0.53084  -0.51656  -0.48954  -0.44629
 Alpha  occ. eigenvalues --   -0.43288  -0.42204
 Alpha virt. eigenvalues --    0.04003   0.05543   0.05850   0.06068   0.06194
 Alpha virt. eigenvalues --    0.06305   0.06411   0.07096   0.07528   0.09410
 Alpha virt. eigenvalues --    0.13272   0.13990   0.14501   0.15125   0.15451

 Mulliken charges:
               1
     1  C   -3.000617
     2  C   -3.586325
     3  C   -3.000617
     4  C   -3.586325
     5  H    1.145562
     6  H    1.411523
     7  H    1.276930
     8  H    1.411523
     9  H    1.145562
    10  H    1.276930
    11  H    1.423022
    12  H    1.329905
    13  H    1.423022
    14  H    1.329905
 Sum of Mulliken charges =  -0.00000

 Dipole moment (field-independent basis, Debye):
    X=             -0.0000    Y=              0.0000    Z=              0.1493  Tot=              0.1493

 Test job not archived.
 1\1\GINC-SE101\SP\RHF\Aug-CC-pVDZ\C4H10\OHZDE\06-Apr-2025\0\\#t hf aug
 -cc-pvdz iop(5/13=1,5/36=2,99/5=2) pseudo=read geom=check guess=(read,
 tcheck) scf=(maxcycle=1)\\title\\0,1\C,0,-0.252798,0.723681,0.616235\C
 ,0,0.252798,1.57136,-0.551646\C,0,0.252798,-0.723681,0.616235\C,0,-0.2
 52798,-1.57136,-0.551646\H,0,-0.104388,2.599202,-0.473491\H,0,0.083428
 ,-1.182319,-1.513402\H,0,-1.344623,-1.601548,-0.570383\H,0,-0.083428,1
 .182319,-1.513402\H,0,0.104388,-2.599202,-0.473491\H,0,1.344623,1.6015
 48,-0.570383\H,0,-1.347442,0.719895,0.615666\H,0,0.047102,1.198634,1.5

 Normal termination of Gaussian 16 at Sun Apr  6 08:11:34 2025.
