 Gaussian 16, Revision C.01,

 ----------------------------------------------------------------------
 #t hf aug-cc-pvdz symm=none int=(grid=ultrafine) guess=(read,tcheck) s
 table=(opt,rrhf)
 ----------------------------------------------------------------------
 -----
 title
 -----
 Symbolic Z-matrix:
 Charge =  0 Multiplicity = 1

 SCF Done:  E(RHF) =  -210.022125788     A.U. after   13 cycles
 Normal termination of Gaussian 16 at Sun Apr  6 08:11:29 2025.
 Gaussian 16:  ES64L-G16RevC.01  3-Jul-2019

 ----------------------------------------------------------------------
 #t hf aug-cc-pvdz iop(5/13=1,5/36=2,99/5=2) pseudo=read geom=check gue
 ss=(read,tcheck) scf=(maxcycle=1)
 ----------------------------------------------------------------------
 -----
 title
 -----
 Structure from the checkpoint file:  "butanenitrile.chk"
 Charge =  0 Multiplicity = 1

                         Standard orientation:
 ---------------------------------------------------------------------
 Center     Atomic      Atomic             Coordinates (Angstroms)
 Number     Number       Type             X           Y           Z
 ---------------------------------------------------------------------
      1          6           0        1.454366    0.512277    0.000000
      2          6           0       -2.231561   -0.577774    0.000000
      3          6           0        0.000000    0.631202    0.000000
      4          6           0       -0.713585   -0.731881    0.000000
      5          7           0        2.598842    0.398854    0.000000
      6          1           0       -2.575965   -0.034287    0.881826
      7          1           0       -2.575965   -0.034287   -0.881826
      8          1           0       -2.719762   -1.552136    0.000000
      9          1           0       -0.295422    1.212550    0.876647
     10          1           0       -0.295422    1.212550   -0.876647
     11          1           0       -0.392341   -1.299658    0.874523
     12          1           0       -0.392341   -1.299658   -0.874523
 ---------------------------------------------------------------------

 SCF Done:  E(RHF) =  -211.043529197     A.U. after    2 cycles

 The electronic state is 1-A'.
 Alpha  occ. eigenvalues --  -15.75333 -11.46715 -11.42792 -11.41410 -11.37741
 Alpha  occ. eigenvalues --   -1.32766  -1.22460  -1.05731  -0.88544  -0.70567
 Alpha  occ. eigenvalues --   -0.67595  -0.60053  -0.58135  -0.54268  -0.50472
 Alpha  occ. eigenvalues --   -0.49585  -0.48692  -0.42833  -0.41712
 Alpha virt. eigenvalues --    0.02993   0.04988   0.05310   0.05551   0.06037
 Alpha virt. eigenvalues --    0.06671   0.07472   0.09582   0.10247   0.12556
 Alpha virt. eigenvalues --    0.12689   0.14472   0.14538   0.14701   0.16006

 Mulliken charges:
               1
     1  C    2.236265
     2  C   -3.763093
     3  C   -2.876768
     4  C   -2.834301
     5  N   -2.385999
     6  H    1.266817
     7  H    1.266817
     8  H    1.096553
     9  H    1.521730
    10  H    1.521730
    11  H    1.475124
    12  H    1.475124
 Sum of Mulliken charges =  -0.00000

 Dipole moment (field-independent basis, Debye):
    X=             -3.8343    Y=             -0.0674    Z=             -0.0000  Tot=              3.8349

 Test job not archived.
 1\1\GINC-SE104\SP\RHF\Aug-CC-pVDZ\C4H7N1\OHZDE\06-Apr-2025\0\\#t hf au
 g-cc-pvdz iop(5/13=1,5/36=2,99/5=2) pseudo=read geom=check guess=(read
 ,tcheck) scf=(maxcycle=1)\\title\\0,1\C,0,1.454366,0.512277,0.\C,0,-2.
 231561,-0.577773,0.\C,0,0.,0.631202,0.\C,0,-0.713585,-0.731881,0.\N,0,
 2.598842,0.398853,0.\H,0,-2.575965,-0.034286,0.881826\H,0,-2.575965,-0
 .034286,-0.881826\H,0,-2.719763,-1.552135,0.\H,0,-0.295422,1.21255,0.8
 76647\H,0,-0.295422,1.21255,-0.876647\H,0,-0.392342,-1.299658,0.874523
 \H,0,-0.392342,-1.299658,-0.874523\\Version=ES64L-G16RevC.01\State=1-A

 Normal termination of Gaussian 16 at Sun Apr  6 08:11:32 2025.
