 Gaussian 16, Revision C.01,

 ----------------------------------------------------------------------
 #t hf aug-cc-pvdz symm=none int=(grid=ultrafine) guess=(read,tcheck) s
 table=(opt,rrhf)
 ----------------------------------------------------------------------
 -----
 title
 -----
 Symbolic Z-matrix:
 Charge =  0 Multiplicity = 1

 SCF Done:  E(RHF) =  -286.090396823     A.U. after   13 cycles
 Normal termination of Gaussian 16 at Sun Apr  6 08:11:42 2025.
 Gaussian 16:  ES64L-G16RevC.01  3-Jul-2019

 ----------------------------------------------------------------------
 #t hf aug-cc-pvdz iop(5/13=1,5/36=2,99/5=2) pseudo=read geom=check gue
 ss=(read,tcheck) scf=(maxcycle=1)
 ----------------------------------------------------------------------
 -----
 title
 -----
 Structure from the checkpoint file:  "butanamide.chk"
 Charge =  0 Multiplicity = 1

                         Standard orientation:
 ---------------------------------------------------------------------
 Center     Atomic      Atomic             Coordinates (Angstroms)
 Number     Number       Type             X           Y           Z
 ---------------------------------------------------------------------
      1          6           0       -2.731329   -0.188210    0.027569
      2          1           0       -2.896131   -0.208886    1.106914
      3          1           0       -3.510969    0.433548   -0.413737
      4          1           0       -2.869306   -1.205115   -0.346583
      5          6           0       -1.343418    0.351342   -0.308883
      6          1           0       -1.217269    0.398690   -1.393390
      7          1           0       -1.233985    1.372797    0.054840
      8          6           0       -0.221272   -0.497474    0.289364
      9          1           0       -0.261557   -1.517699   -0.100776
     10          1           0       -0.357479   -0.572869    1.373168
     11          7           0        2.159806   -0.790578   -0.170020
     12          1           0        3.099748   -0.446011   -0.265813
     13          1           0        1.999084   -1.780108   -0.196024
     14          6           0        1.158613    0.105753    0.066900
     15          8           0        1.369207    1.303904    0.115231
 ---------------------------------------------------------------------

 SCF Done:  E(RHF) =  -287.438806121     A.U. after    2 cycles

 The electronic state is 1-A.
 Alpha  occ. eigenvalues --  -21.01675 -15.77692 -11.50342 -11.41960 -11.38972
 Alpha  occ. eigenvalues --  -11.35352  -1.69824  -1.34578  -1.21345  -1.03553
 Alpha  occ. eigenvalues --   -0.87310  -0.78909  -0.71042  -0.65773  -0.62074
 Alpha  occ. eigenvalues --   -0.58090  -0.56593  -0.50360  -0.49479  -0.46336
 Alpha  occ. eigenvalues --   -0.45519  -0.44760  -0.31989  -0.28173
 Alpha virt. eigenvalues --    0.03398   0.04670   0.05216   0.05704   0.06241
 Alpha virt. eigenvalues --    0.06580   0.07392   0.07931   0.08874   0.10943
 Alpha virt. eigenvalues --    0.12127   0.13336   0.14109   0.14780   0.15533

 Mulliken charges:
               1
     1  C   -3.898708
     2  H    1.251681
     3  H    1.084020
     4  H    1.280389
     5  C   -2.603308
     6  H    1.408760
     7  H    1.515193
     8  C   -3.569495
     9  H    1.544368
    10  H    1.480313
    11  N   -3.022120
    12  H    0.727138
    13  H    0.715428
    14  C    5.326270
    15  O   -3.239930
 Sum of Mulliken charges =   0.00000

 Dipole moment (field-independent basis, Debye):
    X=              0.1439    Y=             -2.2896    Z=             -0.1862  Tot=              2.3017

 Test job not archived.
 1\1\GINC-SE038\SP\RHF\Aug-CC-pVDZ\C4H9N1O1\OHZDE\06-Apr-2025\0\\#t hf
 aug-cc-pvdz iop(5/13=1,5/36=2,99/5=2) pseudo=read geom=check guess=(re
 ad,tcheck) scf=(maxcycle=1)\\title\\0,1\C,0,-2.731329,-0.18821,0.02756
 9\H,0,-2.896131,-0.208886,1.106914\H,0,-3.510969,0.433548,-0.413737\H,
 0,-2.869306,-1.205115,-0.346583\C,0,-1.343418,0.351342,-0.308883\H,0,-
 1.217269,0.39869,-1.39339\H,0,-1.233985,1.372797,0.05484\C,0,-0.221272
 ,-0.497474,0.289364\H,0,-0.261557,-1.517699,-0.100776\H,0,-0.357479,-0
 .572869,1.373168\N,0,2.159806,-0.790578,-0.17002\H,0,3.099748,-0.44601

 Normal termination of Gaussian 16 at Sun Apr  6 08:11:46 2025.
