 Gaussian 16, Revision C.01,

 ----------------------------------------------------------------------
 #t hf aug-cc-pvdz symm=none int=(grid=ultrafine) guess=(read,tcheck) s
 table=(opt,rrhf)
 ----------------------------------------------------------------------
 -----
 title
 -----
 Symbolic Z-matrix:
 Charge =  0 Multiplicity = 1

 SCF Done:  E(RHF) =  -302.235209470     A.U. after   14 cycles
 Normal termination of Gaussian 16 at Sun Apr  6 08:11:04 2025.
 Gaussian 16:  ES64L-G16RevC.01  3-Jul-2019

 ----------------------------------------------------------------------
 #t hf aug-cc-pvdz iop(5/13=1,5/36=2,99/5=2) pseudo=read geom=check gue
 ss=(read,tcheck) scf=(maxcycle=1)
 ----------------------------------------------------------------------
 -----
 title
 -----
 Structure from the checkpoint file:  "buta-1-3-diyn-1-4-diol.chk"
 Charge =  0 Multiplicity = 1

                         Standard orientation:
 ---------------------------------------------------------------------
 Center     Atomic      Atomic             Coordinates (Angstroms)
 Number     Number       Type             X           Y           Z
 ---------------------------------------------------------------------
      1          8           0        3.189684   -0.076657   -0.064099
      2          8           0       -3.189684    0.076659   -0.064103
      3          6           0        0.681541   -0.006531   -0.008790
      4          6           0       -0.681541    0.006524   -0.008791
      5          6           0        1.886110   -0.000033    0.003758
      6          6           0       -1.886111    0.000032    0.003757
      7          1           0        3.604742    0.550174    0.542991
      8          1           0       -3.604744   -0.550143    0.543017
 ---------------------------------------------------------------------

 SCF Done:  E(RHF) =  -303.522012578     A.U. after    2 cycles

 The electronic state is 1-A.
 Alpha  occ. eigenvalues --  -21.16088 -21.15945 -11.48867 -11.45666 -11.43671
 Alpha  occ. eigenvalues --  -11.40812  -1.79704  -1.79387  -1.16511  -1.02844
 Alpha  occ. eigenvalues --   -0.82632  -0.73235  -0.68415  -0.57774  -0.56880
 Alpha  occ. eigenvalues --   -0.53237  -0.53190  -0.41185  -0.40977  -0.28315
 Alpha  occ. eigenvalues --   -0.28132
 Alpha virt. eigenvalues --    0.02508   0.04291   0.08198   0.09116   0.10424
 Alpha virt. eigenvalues --    0.10478   0.12389   0.12513   0.13686   0.15656
 Alpha virt. eigenvalues --    0.16259   0.16412   0.17519   0.18373   0.20689

 Mulliken charges:
               1
     1  O   -3.909515
     2  O   -3.909516
     3  C    1.553513
     4  C    1.553512
     5  C    1.538277
     6  C    1.538280
     7  H    0.817725
     8  H    0.817724
 Sum of Mulliken charges =   0.00000

 Dipole moment (field-independent basis, Debye):
    X=             -0.0000    Y=              0.0000    Z=              1.1408  Tot=              1.1408

 Test job not archived.
 1\1\GINC-SE150\SP\RHF\Aug-CC-pVDZ\C4H2O2\OHZDE\06-Apr-2025\0\\#t hf au
 g-cc-pvdz iop(5/13=1,5/36=2,99/5=2) pseudo=read geom=check guess=(read
 ,tcheck) scf=(maxcycle=1)\\title\\0,1\O,0,3.189684,-0.076657,-0.064099
 \O,0,-3.189684,0.076659,-0.064103\C,0,0.681541,-0.006531,-0.00879\C,0,
 -0.681541,0.006524,-0.008791\C,0,1.88611,-0.000033,0.003758\C,0,-1.886
 111,0.000032,0.003757\H,0,3.604742,0.550174,0.542991\H,0,-3.604744,-0.
 550143,0.543017\\Version=ES64L-G16RevC.01\State=1-A\HF=-303.5220126\RM
 SD=3.636e+00\Dipole=-0.0000019,0.0000146,0.4488382\Quadrupole=8.198897

 Normal termination of Gaussian 16 at Sun Apr  6 08:11:08 2025.
