 Gaussian 16, Revision C.01,

 ----------------------------------------------------------------------
 #t hf aug-cc-pvdz symm=none int=(grid=ultrafine) guess=(read,tcheck) s
 table=(opt,rrhf)
 ----------------------------------------------------------------------
 -----
 title
 -----
 Symbolic Z-matrix:
 Charge =  0 Multiplicity = 1

 SCF Done:  E(RHF) =  -153.708826952     A.U. after   11 cycles
 Normal termination of Gaussian 16 at Sun Apr  6 08:11:21 2025.
 Gaussian 16:  ES64L-G16RevC.01  3-Jul-2019

 ----------------------------------------------------------------------
 #t hf aug-cc-pvdz iop(5/13=1,5/36=2,99/5=2) pseudo=read geom=check gue
 ss=(read,tcheck) scf=(maxcycle=1)
 ----------------------------------------------------------------------
 -----
 title
 -----
 Structure from the checkpoint file:  "butatriene.chk"
 Charge =  0 Multiplicity = 1

                         Standard orientation:
 ---------------------------------------------------------------------
 Center     Atomic      Atomic             Coordinates (Angstroms)
 Number     Number       Type             X           Y           Z
 ---------------------------------------------------------------------
      1          6           0        0.000000    0.000000    0.631617
      2          6           0        0.000000    0.000000   -0.631617
      3          6           0        0.000000    0.000000    1.943149
      4          6           0        0.000000    0.000000   -1.943149
      5          1           0        0.000000    0.924533    2.508102
      6          1           0       -0.000000   -0.924533    2.508102
      7          1           0        0.000000    0.924533   -2.508102
      8          1           0       -0.000000   -0.924533   -2.508102
 ---------------------------------------------------------------------

 SCF Done:  E(RHF) =  -154.448532984     A.U. after    2 cycles

 The electronic state is 1-AG.
 Alpha  occ. eigenvalues --  -11.43798 -11.43632 -11.42624 -11.41064  -1.21160
 Alpha  occ. eigenvalues --   -1.08211  -0.91291  -0.68911  -0.62518  -0.60476
 Alpha  occ. eigenvalues --   -0.59731  -0.46603  -0.35188  -0.31197
 Alpha virt. eigenvalues --    0.02959   0.05089   0.05667   0.06576   0.08051
 Alpha virt. eigenvalues --    0.08750   0.11756   0.11870   0.12768   0.13700
 Alpha virt. eigenvalues --    0.15453   0.16743   0.17663   0.19619   0.19962

 Mulliken charges:
               1
     1  C    2.252045
     2  C    2.252045
     3  C   -4.287256
     4  C   -4.287256
     5  H    1.017605
     6  H    1.017605
     7  H    1.017605
     8  H    1.017605
 Sum of Mulliken charges =   0.00000

 Dipole moment (field-independent basis, Debye):
    X=             -0.0000    Y=              0.0000    Z=              0.0000  Tot=              0.0000

 Test job not archived.
 1\1\GINC-SE150\SP\RHF\Aug-CC-pVDZ\C4H4\OHZDE\06-Apr-2025\0\\#t hf aug-
 cc-pvdz iop(5/13=1,5/36=2,99/5=2) pseudo=read geom=check guess=(read,t
 check) scf=(maxcycle=1)\\title\\0,1\C,0,0.,0.,0.631617\C,0,0.,0.,-0.63
 1617\C,0,0.,0.,1.943149\C,0,0.,0.,-1.943149\H,0,0.,0.924533,2.508102\H
 ,0,0.,-0.924533,2.508102\H,0,0.,0.924533,-2.508102\H,0,0.,-0.924533,-2
 .508102\\Version=ES64L-G16RevC.01\State=1-AG\HF=-154.448533\RMSD=1.521
 e+00\Dipole=0.,0.,0.\Quadrupole=-3.2236802,-0.2739118,3.4975921,0.,0.,
 0.\PG=D02H [C2"(C1C1.C1C1),SG(H4)]\\@

 Normal termination of Gaussian 16 at Sun Apr  6 08:11:23 2025.
