 Gaussian 16, Revision C.01,

 ----------------------------------------------------------------------
 #t hf aug-cc-pvdz symm=none int=(grid=ultrafine) guess=(read,tcheck) s
 table=(opt,rrhf)
 ----------------------------------------------------------------------
 -----
 title
 -----
 Symbolic Z-matrix:
 Charge =  0 Multiplicity = 1

 SCF Done:  E(RHF) =  -302.333881116     A.U. after   14 cycles
 Normal termination of Gaussian 16 at Sun Apr  6 08:11:01 2025.
 Gaussian 16:  ES64L-G16RevC.01  3-Jul-2019

 ----------------------------------------------------------------------
 #t hf aug-cc-pvdz iop(5/13=1,5/36=2,99/5=2) pseudo=read geom=check gue
 ss=(read,tcheck) scf=(maxcycle=1)
 ----------------------------------------------------------------------
 -----
 title
 -----
 Structure from the checkpoint file:  "buta-1-3-diene-1-4-dione.chk"
 Charge =  0 Multiplicity = 1

                         Standard orientation:
 ---------------------------------------------------------------------
 Center     Atomic      Atomic             Coordinates (Angstroms)
 Number     Number       Type             X           Y           Z
 ---------------------------------------------------------------------
      1          8           0       -0.115324    2.385771   -0.820827
      2          8           0        0.115324   -2.385771   -0.820827
      3          6           0        0.379356    0.637546    0.860073
      4          6           0       -0.379356   -0.637546    0.860073
      5          6           0        0.115324    1.569774   -0.030466
      6          6           0       -0.115324   -1.569774   -0.030466
      7          1           0        1.150733    0.853280    1.588973
      8          1           0       -1.150733   -0.853280    1.588973
 ---------------------------------------------------------------------

 SCF Done:  E(RHF) =  -303.617283751     A.U. after    2 cycles

 The electronic state is 1-A.
 Alpha  occ. eigenvalues --  -21.14954 -21.14943 -11.55684 -11.55410 -11.44178
 Alpha  occ. eigenvalues --  -11.41635  -1.78595  -1.78114  -1.23633  -1.04766
 Alpha  occ. eigenvalues --   -0.76461  -0.70802  -0.66280  -0.61210  -0.59769
 Alpha  occ. eigenvalues --   -0.56432  -0.56296  -0.50611  -0.46694  -0.32030
 Alpha  occ. eigenvalues --   -0.28593
 Alpha virt. eigenvalues --    0.02622   0.05405   0.08215   0.08413   0.09729
 Alpha virt. eigenvalues --    0.10990   0.11538   0.11827   0.12328   0.12799
 Alpha virt. eigenvalues --    0.12998   0.14751   0.15469   0.15784   0.16512

 Mulliken charges:
               1
     1  O   -2.347690
     2  O   -2.347690
     3  C   -0.772358
     4  C   -0.772358
     5  C    1.884244
     6  C    1.884244
     7  H    1.235803
     8  H    1.235803
 Sum of Mulliken charges =   0.00000

 Dipole moment (field-independent basis, Debye):
    X=              0.0000    Y=              0.0000    Z=             -0.5257  Tot=              0.5257

 Test job not archived.
 1\1\GINC-SE104\SP\RHF\Aug-CC-pVDZ\C4H2O2\OHZDE\06-Apr-2025\0\\#t hf au
 g-cc-pvdz iop(5/13=1,5/36=2,99/5=2) pseudo=read geom=check guess=(read
 ,tcheck) scf=(maxcycle=1)\\title\\0,1\O,0,-0.115324,2.385771,-0.820827
 \O,0,0.115324,-2.385771,-0.820827\C,0,0.379356,0.637546,0.860073\C,0,-
 0.379356,-0.637546,0.860073\C,0,0.115324,1.569774,-0.030466\C,0,-0.115
 324,-1.569774,-0.030466\H,0,1.150733,0.85328,1.588973\H,0,-1.150733,-0
 .85328,1.588973\\Version=ES64L-G16RevC.01\State=1-A\HF=-303.6172838\RM
 SD=3.637e-01\Dipole=0.,0.,-0.2068447\Quadrupole=-0.6484664,1.3170912,-

 Normal termination of Gaussian 16 at Sun Apr  6 08:11:04 2025.
