 Gaussian 16, Revision C.01,

 ----------------------------------------------------------------------
 #t hf aug-cc-pvdz symm=none int=(grid=ultrafine) guess=(read,tcheck) s
 table=(opt,rrhf)
 ----------------------------------------------------------------------
 -----
 title
 -----
 Symbolic Z-matrix:
 Charge =  0 Multiplicity = 1

 SCF Done:  E(RHF) =  -231.017177605     A.U. after   13 cycles
 Normal termination of Gaussian 16 at Sun Apr  6 08:11:15 2025.
 Gaussian 16:  ES64L-G16RevC.01  3-Jul-2019

 ----------------------------------------------------------------------
 #t hf aug-cc-pvdz iop(5/13=1,5/36=2,99/5=2) pseudo=read geom=check gue
 ss=(read,tcheck) scf=(maxcycle=1)
 ----------------------------------------------------------------------
 -----
 title
 -----
 Structure from the checkpoint file:  "butanal.chk"
 Charge =  0 Multiplicity = 1

                         Standard orientation:
 ---------------------------------------------------------------------
 Center     Atomic      Atomic             Coordinates (Angstroms)
 Number     Number       Type             X           Y           Z
 ---------------------------------------------------------------------
      1          6           0       -1.498796    0.606364    0.000000
      2          6           0        2.286416   -0.364870    0.000000
      3          6           0        0.000000    0.740162    0.000000
      4          6           0        0.773358   -0.572830    0.000000
      5          8           0       -2.103883   -0.435720    0.000000
      6          1           0       -2.049279    1.570818    0.000000
      7          1           0        2.612258    0.192076    0.881024
      8          1           0        2.813086   -1.319587    0.000000
      9          1           0        2.612258    0.192076   -0.881024
     10          1           0        0.262254    1.359651    0.867455
     11          1           0        0.262254    1.359651   -0.867455
     12          1           0        0.476183   -1.160935    0.870082
     13          1           0        0.476183   -1.160935   -0.870082
 ---------------------------------------------------------------------

 SCF Done:  E(RHF) =  -232.110647318     A.U. after    2 cycles

 The electronic state is 1-A'.
 Alpha  occ. eigenvalues --  -21.06065 -11.48495 -11.42025 -11.39244 -11.35737
 Alpha  occ. eigenvalues --   -1.70782  -1.22906  -1.05292  -0.88811  -0.78755
 Alpha  occ. eigenvalues --   -0.65256  -0.65170  -0.58458  -0.56029  -0.51379
 Alpha  occ. eigenvalues --   -0.47455  -0.46853  -0.45967  -0.42287  -0.29205
 Alpha virt. eigenvalues --    0.03644   0.04848   0.05428   0.05703   0.06401
 Alpha virt. eigenvalues --    0.06525   0.07576   0.07758   0.10617   0.11956
 Alpha virt. eigenvalues --    0.12876   0.13017   0.14270   0.15073   0.15883

 Mulliken charges:
               1
     1  C    1.275756
     2  C   -3.859924
     3  C   -2.743572
     4  C   -2.792418
     5  O   -2.742840
     6  H    1.341026
     7  H    1.265160
     8  H    1.074921
     9  H    1.265160
    10  H    1.496446
    11  H    1.496446
    12  H    1.461919
    13  H    1.461919
 Sum of Mulliken charges =  -0.00000

 Dipole moment (field-independent basis, Debye):
    X=              1.0529    Y=              0.6965    Z=             -0.0000  Tot=              1.2624

 Test job not archived.
 1\1\GINC-SE165\SP\RHF\Aug-CC-pVDZ\C4H8O1\OHZDE\06-Apr-2025\0\\#t hf au
 g-cc-pvdz iop(5/13=1,5/36=2,99/5=2) pseudo=read geom=check guess=(read
 ,tcheck) scf=(maxcycle=1)\\title\\0,1\C,0,-1.498796,0.606364,0.\C,0,2.
 286416,-0.36487,0.\C,0,0.,0.740162,0.\C,0,0.773358,-0.57283,0.\O,0,-2.
 103883,-0.43572,0.\H,0,-2.049279,1.570818,0.\H,0,2.612258,0.192076,0.8
 81024\H,0,2.813086,-1.319587,0.\H,0,2.612258,0.192076,-0.881024\H,0,0.
 262254,1.359651,0.867455\H,0,0.262254,1.359651,-0.867455\H,0,0.476183,
 -1.160935,0.870082\H,0,0.476183,-1.160935,-0.870082\\Version=ES64L-G16

 Normal termination of Gaussian 16 at Sun Apr  6 08:11:18 2025.
