 Gaussian 16, Revision C.01,

 ----------------------------------------------------------------------
 #t hf aug-cc-pvdz symm=none int=(grid=ultrafine) guess=(read,tcheck) s
 table=(opt,rrhf)
 ----------------------------------------------------------------------
 -----
 title
 -----
 Symbolic Z-matrix:
 Charge =  0 Multiplicity = 1

 SCF Done:  E(RHF) =  -554.846688020     A.U. after   12 cycles

 1\1\GINC-SE136\Stability\RHF\Aug-CC-pVDZ\C4H10S1\OHZDE\06-Apr-2025\0\\
 #t hf aug-cc-pvdz symm=none int=(grid=ultrafine) guess=(read,tcheck) s
 table=(opt,rrhf)\\title\\0,1\C,0,2.784969,-0.371669,-0.128185\C,0,1.35
 3327,-0.290285,0.397998\C,0,0.523956,0.782957,-0.309707\C,0,-0.898001,
 0.948281,0.21948\S,0,-1.902817,-0.567172,-0.109965\H,0,3.355821,-1.140
 15,0.394167\H,0,3.309752,0.577267,0.001618\H,0,2.800602,-0.614167,-1.1
 92643\H,0,1.367691,-0.079826,1.471581\H,0,0.869424,-1.263165,0.28702\H
 ,0,0.488279,0.573674,-1.382567\H,0,1.026483,1.74951,-0.202216\H,0,-0.8

 Normal termination of Gaussian 16 at Sun Apr  6 08:11:42 2025.
 Gaussian 16:  ES64L-G16RevC.01  3-Jul-2019

 ----------------------------------------------------------------------
 #t hf aug-cc-pvdz iop(5/13=1,5/36=2,99/5=2) pseudo=read geom=check gue
 ss=(read,tcheck) scf=(maxcycle=1)
 ----------------------------------------------------------------------
 -----
 title
 -----
 Structure from the checkpoint file:  "butanethiol.chk"
 Charge =  0 Multiplicity = 1

                         Standard orientation:
 ---------------------------------------------------------------------
 Center     Atomic      Atomic             Coordinates (Angstroms)
 Number     Number       Type             X           Y           Z
 ---------------------------------------------------------------------
      1          6           0        2.784969   -0.371669   -0.128185
      2          6           0        1.353327   -0.290285    0.397998
      3          6           0        0.523956    0.782957   -0.309707
      4          6           0       -0.898001    0.948281    0.219480
      5         16           0       -1.902817   -0.567172   -0.109965
      6          1           0        3.355821   -1.140150    0.394167
      7          1           0        3.309752    0.577267    0.001618
      8          1           0        2.800602   -0.614167   -1.192643
      9          1           0        1.367691   -0.079826    1.471581
     10          1           0        0.869424   -1.263165    0.287020
     11          1           0        0.488279    0.573674   -1.382567
     12          1           0        1.026483    1.749510   -0.202216
     13          1           0       -0.887504    1.133147    1.293120
     14          1           0       -1.385788    1.786314   -0.273539
     15          1           0       -3.085182   -0.063565    0.285377
 ---------------------------------------------------------------------

 SCF Done:  E(RHF) =  -555.904669434     A.U. after    2 cycles

 The electronic state is 1-A.
 Alpha  occ. eigenvalues --  -75.67813 -13.13472 -13.07078 -13.01114 -11.43019
 Alpha  occ. eigenvalues --  -11.40545 -11.37871 -11.34848  -8.01673  -1.26929
 Alpha  occ. eigenvalues --   -1.13854  -1.02112  -0.89746  -0.82110  -0.65266
 Alpha  occ. eigenvalues --   -0.61630  -0.59186  -0.56525  -0.51785  -0.48723
 Alpha  occ. eigenvalues --   -0.46751  -0.45552  -0.42982  -0.37042  -0.23321
 Alpha virt. eigenvalues --    0.03608   0.04322   0.05056   0.05592   0.06007
 Alpha virt. eigenvalues --    0.06316   0.06378   0.06770   0.08808   0.09504
 Alpha virt. eigenvalues --    0.10908   0.11444   0.13364   0.13760   0.15076

 Mulliken charges:
               1
     1  C   -3.989301
     2  C   -2.890511
     3  C   -2.291961
     4  C   -3.548322
     5  S   -0.449700
     6  H    1.118112
     7  H    1.309701
     8  H    1.295055
     9  H    1.431625
    10  H    1.579436
    11  H    1.477489
    12  H    1.403448
    13  H    1.459467
    14  H    1.211549
    15  H    0.883915
 Sum of Mulliken charges =  -0.00000

 Dipole moment (field-independent basis, Debye):
    X=              1.0720    Y=             -0.1141    Z=             -0.1354  Tot=              1.0866

 Test job not archived.
 1\1\GINC-SE136\SP\RHF\Aug-CC-pVDZ\C4H10S1\OHZDE\06-Apr-2025\0\\#t hf a
 ug-cc-pvdz iop(5/13=1,5/36=2,99/5=2) pseudo=read geom=check guess=(rea
 d,tcheck) scf=(maxcycle=1)\\title\\0,1\C,0,2.784969,-0.371669,-0.12818
 5\C,0,1.353327,-0.290285,0.397998\C,0,0.523956,0.782957,-0.309707\C,0,
 -0.898001,0.948281,0.21948\S,0,-1.902817,-0.567172,-0.109965\H,0,3.355
 821,-1.14015,0.394167\H,0,3.309752,0.577267,0.001618\H,0,2.800602,-0.6
 14167,-1.192643\H,0,1.367691,-0.079826,1.471581\H,0,0.869424,-1.263165
 ,0.28702\H,0,0.488279,0.573674,-1.382567\H,0,1.026483,1.74951,-0.20221

 Normal termination of Gaussian 16 at Sun Apr  6 08:11:47 2025.
