 Gaussian 16, Revision C.01,

 ----------------------------------------------------------------------
 #t hf aug-cc-pvdz symm=none int=(grid=ultrafine) guess=(read,tcheck) s
 table=(opt,rrhf)
 ----------------------------------------------------------------------
 -----
 title
 -----
 Symbolic Z-matrix:
 Charge =  0 Multiplicity = 1

 SCF Done:  E(RHF) =  -305.927857967     A.U. after   13 cycles
 Normal termination of Gaussian 16 at Sun Apr  6 08:11:41 2025.
 Gaussian 16:  ES64L-G16RevC.01  3-Jul-2019

 ----------------------------------------------------------------------
 #t hf aug-cc-pvdz iop(5/13=1,5/36=2,99/5=2) pseudo=read geom=check gue
 ss=(read,tcheck) scf=(maxcycle=1)
 ----------------------------------------------------------------------
 -----
 title
 -----
 Structure from the checkpoint file:  "butyric_acid.chk"
 Charge =  0 Multiplicity = 1

                         Standard orientation:
 ---------------------------------------------------------------------
 Center     Atomic      Atomic             Coordinates (Angstroms)
 Number     Number       Type             X           Y           Z
 ---------------------------------------------------------------------
      1          6           0       -1.045329   -0.494601    0.000000
      2          6           0        2.460708    1.198934    0.000000
      3          6           0        0.000000    0.591852    0.000000
      4          6           0        1.432695    0.069636    0.000000
      5          8           0       -0.842076   -1.681341    0.000000
      6          8           0       -2.300401    0.024009    0.000000
      7          1           0        2.354021    1.835295    0.881002
      8          1           0        2.354021    1.835295   -0.881002
      9          1           0        3.476451    0.802896    0.000000
     10          1           0       -0.189161    1.228211    0.869185
     11          1           0       -0.189161    1.228211   -0.869185
     12          1           0        1.580358   -0.571042   -0.870771
     13          1           0        1.580358   -0.571042    0.870771
     14          1           0       -2.915516   -0.724098    0.000000
 ---------------------------------------------------------------------

 SCF Done:  E(RHF) =  -307.311900141     A.U. after    2 cycles

 The electronic state is 1-A'.
 Alpha  occ. eigenvalues --  -21.11989 -21.05262 -11.52659 -11.42984 -11.39601
 Alpha  occ. eigenvalues --  -11.35904  -1.82553  -1.65117  -1.22951  -1.05089
 Alpha  occ. eigenvalues --   -0.88198  -0.77853  -0.66240  -0.63970  -0.61247
 Alpha  occ. eigenvalues --   -0.57813  -0.57226  -0.50476  -0.48791  -0.46614
 Alpha  occ. eigenvalues --   -0.46298  -0.44433  -0.33942  -0.29710
 Alpha virt. eigenvalues --    0.03615   0.05312   0.05561   0.05763   0.06359
 Alpha virt. eigenvalues --    0.06425   0.07763   0.08090   0.10540   0.11633
 Alpha virt. eigenvalues --    0.13271   0.13492   0.14070   0.14946   0.15583

 Mulliken charges:
               1
     1  C    5.705651
     2  C   -3.849180
     3  C   -3.573285
     4  C   -2.570974
     5  O   -2.970730
     6  O   -3.142226
     7  H    1.256742
     8  H    1.256742
     9  H    1.045839
    10  H    1.466790
    11  H    1.466790
    12  H    1.461007
    13  H    1.461007
    14  H    0.985827
 Sum of Mulliken charges =  -0.00000

 Dipole moment (field-independent basis, Debye):
    X=             -0.0250    Y=              1.0362    Z=             -0.0000  Tot=              1.0365

 Test job not archived.
 1\1\GINC-SE049\SP\RHF\Aug-CC-pVDZ\C4H8O2\OHZDE\06-Apr-2025\0\\#t hf au
 g-cc-pvdz iop(5/13=1,5/36=2,99/5=2) pseudo=read geom=check guess=(read
 ,tcheck) scf=(maxcycle=1)\\title\\0,1\C,0,-1.045329,-0.494601,0.\C,0,2
 .460708,1.198934,0.\C,0,0.,0.591852,0.\C,0,1.432695,0.069636,0.\O,0,-0
 .842076,-1.681341,0.\O,0,-2.300401,0.024009,0.\H,0,2.354021,1.835295,0
 .881002\H,0,2.354021,1.835295,-0.881002\H,0,3.476451,0.802896,0.\H,0,-
 0.189161,1.228211,0.869185\H,0,-0.189161,1.228211,-0.869185\H,0,1.5803
 58,-0.571042,-0.870771\H,0,1.580358,-0.571042,0.870771\H,0,-2.915516,-

 Normal termination of Gaussian 16 at Sun Apr  6 08:11:45 2025.
