 Gaussian 16, Revision C.01,

 ----------------------------------------------------------------------
 #t hf aug-cc-pvdz symm=none int=(grid=ultrafine) guess=(read,tcheck) s
 table=(opt,rrhf)
 ----------------------------------------------------------------------
 -----
 title
 -----
 Symbolic Z-matrix:
 Charge =  0 Multiplicity = 1

 SCF Done:  E(RHF) =  -386.885399575     A.U. after   14 cycles
 Normal termination of Gaussian 16 at Sun Apr  6 08:13:57 2025.
 Gaussian 16:  ES64L-G16RevC.01  3-Jul-2019

 ----------------------------------------------------------------------
 #t hf aug-cc-pvdz iop(5/13=1,5/36=2,99/5=2) pseudo=read geom=check gue
 ss=(read,tcheck) scf=(maxcycle=1)
 ----------------------------------------------------------------------
 -----
 title
 -----
 Structure from the checkpoint file:  "butylbenzene.chk"
 Charge =  0 Multiplicity = 1

                         Standard orientation:
 ---------------------------------------------------------------------
 Center     Atomic      Atomic             Coordinates (Angstroms)
 Number     Number       Type             X           Y           Z
 ---------------------------------------------------------------------
      1          6           0        0.680345   -3.295333   -0.000000
      2          6           0        0.681769   -2.594527    1.200390
      3          6           0        0.681769   -2.594527   -1.200390
      4          6           0        0.681769   -1.204878    1.197095
      5          6           0        0.681769   -1.204878   -1.197095
      6          6           0        0.679166   -0.487390   -0.000000
      7          6           0       -2.241322    3.689088    0.000000
      8          6           0        0.640208    1.021053    0.000000
      9          6           0       -0.822953    3.121120    0.000000
     10          6           0       -0.786838    1.592902    0.000000
     11          1           0        0.683708   -4.377103   -0.000000
     12          1           0        0.687861   -3.130232    2.140693
     13          1           0        0.687861   -3.130232   -2.140693
     14          1           0        0.689431   -0.667833    2.138051
     15          1           0        0.689431   -0.667833   -2.138051
     16          1           0       -2.797599    3.361340    0.880573
     17          1           0       -2.797599    3.361340   -0.880573
     18          1           0       -2.234070    4.779958    0.000000
     19          1           0        1.173513    1.399551    0.875815
     20          1           0        1.173513    1.399551   -0.875815
     21          1           0       -0.280474    3.494116    0.873994
     22          1           0       -0.280474    3.494116   -0.873994
     23          1           0       -1.324598    1.213739    0.873915
     24          1           0       -1.324598    1.213739   -0.873915
 ---------------------------------------------------------------------

 SCF Done:  E(RHF) =  -388.827929627     A.U. after    2 cycles

 The electronic state is 1-A'.
 Alpha  occ. eigenvalues --  -11.51251 -11.43920 -11.42519 -11.42136 -11.40650
 Alpha  occ. eigenvalues --  -11.39866 -11.39725 -11.37178 -11.35490 -11.34433
 Alpha  occ. eigenvalues --   -1.35516  -1.23422  -1.12444  -1.08503  -1.03280
 Alpha  occ. eigenvalues --   -0.92371  -0.85773  -0.83662  -0.81494  -0.70140
 Alpha  occ. eigenvalues --   -0.65381  -0.64098  -0.59469  -0.58752  -0.57186
 Alpha  occ. eigenvalues --   -0.56386  -0.53885  -0.52473  -0.49302  -0.48696
 Alpha  occ. eigenvalues --   -0.46100  -0.45513  -0.44929  -0.43172  -0.39993
 Alpha  occ. eigenvalues --   -0.32416  -0.30866
 Alpha virt. eigenvalues --    0.03658   0.04731   0.04933   0.05234   0.05670
 Alpha virt. eigenvalues --    0.05985   0.06029   0.06596   0.06677   0.07062
 Alpha virt. eigenvalues --    0.07694   0.08127   0.09154   0.10190   0.11621

 Mulliken charges:
               1
     1  C   -2.925506
     2  C   -1.796854
     3  C   -1.796854
     4  C   -2.182140
     5  C   -2.182140
     6  C    4.991405
     7  C   -4.172673
     8  C   -5.009781
     9  C   -2.922560
    10  C   -2.730838
    11  H    1.530582
    12  H    1.504683
    13  H    1.504683
    14  H    1.768915
    15  H    1.768915
    16  H    1.309363
    17  H    1.309363
    18  H    1.091622
    19  H    1.341422
    20  H    1.341422
    21  H    1.409371
    22  H    1.409371
    23  H    1.719115
    24  H    1.719115
 Sum of Mulliken charges =  -0.00000

 Dipole moment (field-independent basis, Debye):
    X=             -0.0478    Y=              0.3664    Z=              0.0000  Tot=              0.3695

 Test job not archived.
 1\1\GINC-SE212\SP\RHF\Aug-CC-pVDZ\C10H14\OHZDE\06-Apr-2025\0\\#t hf au
 g-cc-pvdz iop(5/13=1,5/36=2,99/5=2) pseudo=read geom=check guess=(read
 ,tcheck) scf=(maxcycle=1)\\title\\0,1\C,0,0.680345,-3.295333,0.\C,0,0.
 681769,-2.594527,1.20039\C,0,0.681769,-2.594527,-1.20039\C,0,0.681769,
 -1.204878,1.197095\C,0,0.681769,-1.204878,-1.197095\C,0,0.679166,-0.48
 739,0.\C,0,-2.241322,3.689088,0.\C,0,0.640208,1.021053,0.\C,0,-0.82295
 3,3.12112,0.\C,0,-0.786838,1.592902,0.\H,0,0.683708,-4.377103,0.\H,0,0
 .687861,-3.130232,2.140693\H,0,0.687861,-3.130232,-2.140693\H,0,0.6894

 Normal termination of Gaussian 16 at Sun Apr  6 08:14:48 2025.
