 Gaussian 16, Revision C.01,

 ----------------------------------------------------------------------
 #t hf aug-cc-pvdz symm=none int=(grid=ultrafine) guess=(read,tcheck) s
 table=(opt,rrhf)
 ----------------------------------------------------------------------
 -----
 title
 -----
 Symbolic Z-matrix:
 Charge =  0 Multiplicity = 1

 SCF Done:  E(RHF) =  -383.994367484     A.U. after   13 cycles

 1\1\GINC-SE200\Stability\RHF\Aug-CC-pVDZ\C6H12O2\OHZDE\06-Apr-2025\0\\
 #t hf aug-cc-pvdz symm=none int=(grid=ultrafine) guess=(read,tcheck) s
 table=(opt,rrhf)\\title\\0,1\C,0,2.202488,0.116111,-0.000012\C,0,3.288
 179,-0.927156,0.000005\C,0,-3.962455,-0.357641,-0.000017\C,0,-2.678902
 ,0.470725,0.000022\C,0,-1.415543,-0.392205,-0.000009\C,0,-0.151969,0.4
 44179,0.000021\O,0,2.38092,1.308789,-0.00002\O,0,0.980632,-0.454908,0.
 \H,0,3.191841,-1.565826,-0.877925\H,0,3.192067,-1.565518,0.878188\H,0,
 4.258416,-0.440768,-0.000192\H,0,-4.016737,-1.000104,-0.880951\H,0,-4.

 Normal termination of Gaussian 16 at Sun Apr  6 08:12:30 2025.
 Gaussian 16:  ES64L-G16RevC.01  3-Jul-2019

 ----------------------------------------------------------------------
 #t hf aug-cc-pvdz iop(5/13=1,5/36=2,99/5=2) pseudo=read geom=check gue
 ss=(read,tcheck) scf=(maxcycle=1)
 ----------------------------------------------------------------------
 -----
 title
 -----
 Structure from the checkpoint file:  "butyl_acetate.chk"
 Charge =  0 Multiplicity = 1

                         Standard orientation:
 ---------------------------------------------------------------------
 Center     Atomic      Atomic             Coordinates (Angstroms)
 Number     Number       Type             X           Y           Z
 ---------------------------------------------------------------------
      1          6           0        2.202488    0.116111   -0.000012
      2          6           0        3.288179   -0.927156    0.000005
      3          6           0       -3.962455   -0.357641   -0.000017
      4          6           0       -2.678902    0.470725    0.000022
      5          6           0       -1.415543   -0.392205   -0.000009
      6          6           0       -0.151969    0.444179    0.000021
      7          8           0        2.380920    1.308789   -0.000020
      8          8           0        0.980632   -0.454908   -0.000000
      9          1           0        3.191841   -1.565826   -0.877925
     10          1           0        3.192067   -1.565518    0.878188
     11          1           0        4.258416   -0.440768   -0.000192
     12          1           0       -4.016737   -1.000104   -0.880951
     13          1           0       -4.016742   -1.000179    0.880862
     14          1           0       -4.846288    0.281106    0.000008
     15          1           0       -2.669921    1.127959   -0.874214
     16          1           0       -2.669927    1.127886    0.874314
     17          1           0       -1.412843   -1.045046    0.876714
     18          1           0       -1.412842   -1.044982   -0.876781
     19          1           0       -0.090109    1.085203   -0.880362
     20          1           0       -0.090117    1.085149    0.880444
 ---------------------------------------------------------------------

 SCF Done:  E(RHF) =  -385.785269369     A.U. after    2 cycles

 The electronic state is 1-A.
 Alpha  occ. eigenvalues --  -21.08240 -21.04284 -11.51724 -11.45080 -11.41716
 Alpha  occ. eigenvalues --  -11.39112 -11.38263 -11.35314  -1.83668  -1.65531
 Alpha  occ. eigenvalues --   -1.23728  -1.11789  -1.05287  -0.91997  -0.83969
 Alpha  occ. eigenvalues --   -0.75631  -0.67891  -0.64954  -0.62077  -0.60333
 Alpha  occ. eigenvalues --   -0.59053  -0.57569  -0.53975  -0.52194  -0.51809
 Alpha  occ. eigenvalues --   -0.47232  -0.46497  -0.45814  -0.43264  -0.40984
 Alpha  occ. eigenvalues --   -0.31857  -0.28973
 Alpha virt. eigenvalues --    0.03720   0.04519   0.04878   0.05635   0.05951
 Alpha virt. eigenvalues --    0.05984   0.06595   0.06978   0.07483   0.08025
 Alpha virt. eigenvalues --    0.08132   0.09754   0.09827   0.11527   0.13006

 Mulliken charges:
               1
     1  C    5.492501
     2  C   -4.816850
     3  C   -3.950785
     4  C   -2.668700
     5  C   -3.028355
     6  C   -1.377913
     7  O   -3.057361
     8  O   -3.390186
     9  H    1.304970
    10  H    1.304918
    11  H    1.256023
    12  H    1.312877
    13  H    1.312876
    14  H    1.071713
    15  H    1.415295
    16  H    1.415295
    17  H    1.543274
    18  H    1.543265
    19  H    1.658587
    20  H    1.658558
 Sum of Mulliken charges =  -0.00000

 Dipole moment (field-independent basis, Debye):
    X=             -1.0721    Y=             -1.1823    Z=              0.0000  Tot=              1.5960

 Test job not archived.
 1\1\GINC-SE200\SP\RHF\Aug-CC-pVDZ\C6H12O2\OHZDE\06-Apr-2025\0\\#t hf a
 ug-cc-pvdz iop(5/13=1,5/36=2,99/5=2) pseudo=read geom=check guess=(rea
 d,tcheck) scf=(maxcycle=1)\\title\\0,1\C,0,2.202488,0.116111,-0.000012
 \C,0,3.288179,-0.927156,0.000005\C,0,-3.962455,-0.357641,-0.000017\C,0
 ,-2.678902,0.470725,0.000022\C,0,-1.415543,-0.392205,-0.000009\C,0,-0.
 151969,0.444179,0.000021\O,0,2.38092,1.308789,-0.00002\O,0,0.980632,-0
 .454908,0.\H,0,3.191841,-1.565826,-0.877925\H,0,3.192067,-1.565518,0.8
 78188\H,0,4.258416,-0.440768,-0.000192\H,0,-4.016737,-1.000104,-0.8809

 Normal termination of Gaussian 16 at Sun Apr  6 08:12:39 2025.
