 Gaussian 16, Revision C.01,

 ----------------------------------------------------------------------
 #t hf aug-cc-pvdz symm=none int=(grid=ultrafine) guess=(read,tcheck) s
 table=(opt,rrhf)
 ----------------------------------------------------------------------
 -----
 title
 -----
 Symbolic Z-matrix:
 Charge =  0 Multiplicity = 1

 SCF Done:  E(RHF) =  -306.326624159     A.U. after   14 cycles
 Normal termination of Gaussian 16 at Sun Apr  6 08:11:56 2025.
 Gaussian 16:  ES64L-G16RevC.01  3-Jul-2019

 ----------------------------------------------------------------------
 #t hf aug-cc-pvdz iop(5/13=1,5/36=2,99/5=2) pseudo=read geom=check gue
 ss=(read,tcheck) scf=(maxcycle=1)
 ----------------------------------------------------------------------
 -----
 title
 -----
 Structure from the checkpoint file:  "calicene.chk"
 Charge =  0 Multiplicity = 1

                         Standard orientation:
 ---------------------------------------------------------------------
 Center     Atomic      Atomic             Coordinates (Angstroms)
 Number     Number       Type             X           Y           Z
 ---------------------------------------------------------------------
      1          6           0        0.000000   -0.000000   -0.043798
      2          6           0        0.000000    0.000000    1.304624
      3          6           0        0.000000    0.659873    2.562756
      4          6           0       -0.000000   -0.659873    2.562756
      5          6           0        0.000000    1.167314   -0.908995
      6          6           0       -0.000000   -1.167314   -0.908995
      7          6           0        0.000000    0.725289   -2.197208
      8          6           0       -0.000000   -0.725289   -2.197208
      9          1           0        0.000000    1.574226    3.129175
     10          1           0       -0.000000   -1.574226    3.129175
     11          1           0        0.000000    2.191202   -0.569441
     12          1           0       -0.000000   -2.191202   -0.569441
     13          1           0        0.000000    1.344285   -3.081535
     14          1           0       -0.000000   -1.344285   -3.081535
 ---------------------------------------------------------------------

 SCF Done:  E(RHF) =  -307.787393851     A.U. after    2 cycles

 The electronic state is 1-A1.
 Alpha  occ. eigenvalues --  -11.51281 -11.50839 -11.48399 -11.43230 -11.42396
 Alpha  occ. eigenvalues --  -11.36903 -11.36728 -11.33579  -1.38759  -1.29706
 Alpha  occ. eigenvalues --   -1.02314  -0.99290  -0.85344  -0.84173  -0.76839
 Alpha  occ. eigenvalues --   -0.73797  -0.70504  -0.57600  -0.54347  -0.52108
 Alpha  occ. eigenvalues --   -0.51189  -0.47299  -0.45452  -0.45219  -0.40294
 Alpha  occ. eigenvalues --   -0.26569  -0.26060
 Alpha virt. eigenvalues --    0.02758   0.03906   0.05527   0.06403   0.06857
 Alpha virt. eigenvalues --    0.07091   0.07375   0.08833   0.09147   0.10453
 Alpha virt. eigenvalues --    0.11704   0.12724   0.12982   0.13705   0.13990

 Mulliken charges:
               1
     1  C    5.268415
     2  C    6.170149
     3  C   -2.537544
     4  C   -2.537544
     5  C   -3.928713
     6  C   -3.928713
     7  C   -2.648971
     8  C   -2.648971
     9  H    0.823152
    10  H    0.823152
    11  H    1.259711
    12  H    1.259711
    13  H    1.313083
    14  H    1.313083
 Sum of Mulliken charges =  -0.00000

 Dipole moment (field-independent basis, Debye):
    X=              0.0000    Y=              0.0000    Z=              5.3569  Tot=              5.3569

 Test job not archived.
 1\1\GINC-SE050\SP\RHF\Aug-CC-pVDZ\C8H6\OHZDE\06-Apr-2025\0\\#t hf aug-
 cc-pvdz iop(5/13=1,5/36=2,99/5=2) pseudo=read geom=check guess=(read,t
 check) scf=(maxcycle=1)\\title\\0,1\C,0,0.,0.,-0.043798\C,0,0.,0.,1.30
 4624\C,0,0.,0.659873,2.562756\C,0,0.,-0.659873,2.562756\C,0,0.,1.16731
 4,-0.908995\C,0,0.,-1.167314,-0.908995\C,0,0.,0.725289,-2.197208\C,0,0
 .,-0.725289,-2.197208\H,0,0.,1.574226,3.129175\H,0,0.,-1.574226,3.1291
 75\H,0,0.,2.191202,-0.569441\H,0,0.,-2.191202,-0.569441\H,0,0.,1.34428
 5,-3.081535\H,0,0.,-1.344285,-3.081535\\Version=ES64L-G16RevC.01\State

 Normal termination of Gaussian 16 at Sun Apr  6 08:12:07 2025.
