 Gaussian 16, Revision C.01,

 ----------------------------------------------------------------------
 #t hf aug-cc-pvdz symm=none int=(grid=ultrafine) guess=(read,tcheck) s
 table=(opt,rrhf)
 ----------------------------------------------------------------------
 -----
 title
 -----
 Symbolic Z-matrix:
 Charge =  0 Multiplicity = 1

 SCF Done:  E(RHF) =  -1332.03008525     A.U. after   15 cycles
 Normal termination of Gaussian 16 at Sun Apr  6 08:11:29 2025.
 Gaussian 16:  ES64L-G16RevC.01  3-Jul-2019

 ----------------------------------------------------------------------
 #t hf aug-cc-pvdz iop(5/13=1,5/36=2,99/5=2) pseudo=read geom=check gue
 ss=(read,tcheck) scf=(maxcycle=1)
 ----------------------------------------------------------------------
 -----
 title
 -----
 Structure from the checkpoint file:  "carbonochloridodithioic_acid.chk"
 Charge =  0 Multiplicity = 1

                         Standard orientation:
 ---------------------------------------------------------------------
 Center     Atomic      Atomic             Coordinates (Angstroms)
 Number     Number       Type             X           Y           Z
 ---------------------------------------------------------------------
      1         17           0       -0.142353    1.682318    0.000006
      2         16           0        0.908059   -1.112252   -0.000003
      3         16           0       -1.983399   -0.651574   -0.000005
      4          6           0       -0.475009   -0.060877   -0.000000
      5          6           0        2.395894   -0.059942    0.000003
      6          1           0        2.437172    0.555719    0.893120
      7          1           0        3.225785   -0.764724    0.000001
      8          1           0        2.437174    0.555726   -0.893110
 ---------------------------------------------------------------------

 SCF Done:  E(RHF) =  -1333.10408338     A.U. after    2 cycles

 The electronic state is 1-A.
 Alpha  occ. eigenvalues --  -99.92535 -75.73031 -75.68204 -13.16609 -13.14795
 Alpha  occ. eigenvalues --  -13.13260 -13.05821 -13.01045 -12.99258 -11.52885
 Alpha  occ. eigenvalues --  -11.42352 -10.49848  -9.69655  -9.69122  -9.68851
 Alpha  occ. eigenvalues --   -8.07295  -8.02476  -1.40203  -1.24502  -1.14647
 Alpha  occ. eigenvalues --   -0.99856  -0.81005  -0.65114  -0.62242  -0.60338
 Alpha  occ. eigenvalues --   -0.58091  -0.56539  -0.44676  -0.40990  -0.40613
 Alpha  occ. eigenvalues --   -0.24580  -0.23502
 Alpha virt. eigenvalues --    0.01833   0.04586   0.04852   0.05522   0.05836
 Alpha virt. eigenvalues --    0.06552   0.08525   0.09625   0.12215   0.12758
 Alpha virt. eigenvalues --    0.13941   0.14257   0.15864   0.16229   0.16757

 Mulliken charges:
               1
     1  Cl  -0.117224
     2  S    1.762835
     3  S    1.755552
     4  C   -2.817134
     5  C   -4.698310
     6  H    1.381336
     7  H    1.351610
     8  H    1.381335
 Sum of Mulliken charges =   0.00000

 Dipole moment (field-independent basis, Debye):
    X=             -0.1089    Y=             -3.9244    Z=             -0.0000  Tot=              3.9260

 Test job not archived.
 1\1\GINC-SE165\SP\RHF\Aug-CC-pVDZ\C2H3Cl1S2\OHZDE\06-Apr-2025\0\\#t hf
  aug-cc-pvdz iop(5/13=1,5/36=2,99/5=2) pseudo=read geom=check guess=(r
 ead,tcheck) scf=(maxcycle=1)\\title\\0,1\Cl,0,-0.142353,1.682318,0.000
 006\S,0,0.908059,-1.112252,-0.000003\S,0,-1.983399,-0.651574,-0.000005
 \C,0,-0.475009,-0.060877,0.\C,0,2.395894,-0.059942,0.000003\H,0,2.4371
 72,0.555719,0.89312\H,0,3.225785,-0.764724,0.000001\H,0,2.437174,0.555
 726,-0.89311\\Version=ES64L-G16RevC.01\State=1-A\HF=-1333.1040834\RMSD
 =1.245e-01\Dipole=-0.0428474,-1.5439935,-0.0000073\Quadrupole=5.944774

 Normal termination of Gaussian 16 at Sun Apr  6 08:11:33 2025.
