 Gaussian 16, Revision C.01,

 ----------------------------------------------------------------------
 #t hf aug-cc-pvdz symm=none int=(grid=ultrafine) guess=(read,tcheck) s
 table=(opt,rrhf)
 ----------------------------------------------------------------------
 -----
 title
 -----
 Symbolic Z-matrix:
 Charge =  0 Multiplicity = 1

 SCF Done:  E(RHF) =  -147.926044017     A.U. after   12 cycles
 Normal termination of Gaussian 16 at Sun Apr  6 08:11:20 2025.
 Gaussian 16:  ES64L-G16RevC.01  3-Jul-2019

 ----------------------------------------------------------------------
 #t hf aug-cc-pvdz iop(5/13=1,5/36=2,99/5=2) pseudo=read geom=check gue
 ss=(read,tcheck) scf=(maxcycle=1)
 ----------------------------------------------------------------------
 -----
 title
 -----
 Structure from the checkpoint file:  "carbodiimide.chk"
 Charge =  0 Multiplicity = 1

                         Standard orientation:
 ---------------------------------------------------------------------
 Center     Atomic      Atomic             Coordinates (Angstroms)
 Number     Number       Type             X           Y           Z
 ---------------------------------------------------------------------
      1          6           0        0.000000   -0.000000    0.018127
      2          7           0        0.000000    1.215003   -0.079246
      3          7           0       -0.000000   -1.215003   -0.079246
      4          1           0        0.613213    1.770339    0.500341
      5          1           0       -0.613213   -1.770339    0.500341
 ---------------------------------------------------------------------

 SCF Done:  E(RHF) =  -148.587162422     A.U. after    2 cycles

 The electronic state is 1-A.
 Alpha  occ. eigenvalues --  -15.77208 -15.77137 -11.51912  -1.42053  -1.28051
 Alpha  occ. eigenvalues --   -0.80160  -0.70203  -0.57173  -0.55503  -0.38332
 Alpha  occ. eigenvalues --   -0.38143
 Alpha virt. eigenvalues --    0.03257   0.05159   0.10073   0.10828   0.11164
 Alpha virt. eigenvalues --    0.14645   0.17191   0.17476   0.17579   0.18518
 Alpha virt. eigenvalues --    0.18713   0.21003   0.25881   0.26644   0.30271

 Mulliken charges:
               1
     1  C    3.536202
     2  N   -2.553228
     3  N   -2.553228
     4  H    0.785127
     5  H    0.785127
 Sum of Mulliken charges =  -0.00000

 Dipole moment (field-independent basis, Debye):
    X=             -0.0000    Y=             -0.0000    Z=              1.8132  Tot=              1.8132

 Test job not archived.
 1\1\GINC-SE107\SP\RHF\Aug-CC-pVDZ\C1H2N2\OHZDE\06-Apr-2025\0\\#t hf au
 g-cc-pvdz iop(5/13=1,5/36=2,99/5=2) pseudo=read geom=check guess=(read
 ,tcheck) scf=(maxcycle=1)\\title\\0,1\C,0,0.,0.,0.018127\N,0,0.,1.2150
 03,-0.079246\N,0,0.,-1.215003,-0.079246\H,0,0.613213,1.770339,0.500341
 \H,0,-0.613213,-1.770339,0.500341\\Version=ES64L-G16RevC.01\State=1-A\
 HF=-148.5871624\RMSD=5.329e-02\Dipole=0.,0.,0.7133712\Quadrupole=-0.04
 94061,0.4542111,-0.404805,2.9440712,0.,0.\PG=C02 [C2(C1),X(H2N2)]\\@

 Normal termination of Gaussian 16 at Sun Apr  6 08:11:21 2025.
