 Gaussian 16, Revision C.01,

 ----------------------------------------------------------------------
 #t hf aug-cc-pvdz symm=none int=(grid=ultrafine) guess=(read,tcheck) s
 table=(opt,rrhf)
 ----------------------------------------------------------------------
 -----
 title
 -----
 Symbolic Z-matrix:
 Charge =  0 Multiplicity = 1

 SCF Done:  E(RHF) =  -656.666260403     A.U. after   14 cycles
 Normal termination of Gaussian 16 at Sun Apr  6 08:11:37 2025.
 Gaussian 16:  ES64L-G16RevC.01  3-Jul-2019

 ----------------------------------------------------------------------
 #t hf aug-cc-pvdz iop(5/13=1,5/36=2,99/5=2) pseudo=read geom=check gue
 ss=(read,tcheck) scf=(maxcycle=1)
 ----------------------------------------------------------------------
 -----
 title
 -----
 Structure from the checkpoint file:  "carbonothioic_dihydrazide.chk"
 Charge =  0 Multiplicity = 1

                         Standard orientation:
 ---------------------------------------------------------------------
 Center     Atomic      Atomic             Coordinates (Angstroms)
 Number     Number       Type             X           Y           Z
 ---------------------------------------------------------------------
      1          6           0       -0.008290   -0.208356   -0.024723
      2         16           0       -1.217170   -1.356869    0.021420
      3          7           0       -0.162614    1.134737   -0.015493
      4          7           0       -1.417749    1.738272    0.008702
      5          7           0        1.302148   -0.610414   -0.099972
      6          7           0        2.364793    0.297605    0.049141
      7          1           0        2.841583    0.157650    0.933495
      8          1           0        3.025732    0.182703   -0.708975
      9          1           0       -1.510815    2.327204    0.825721
     10          1           0       -1.567518    2.280758   -0.832165
     11          1           0        0.681476    1.689836   -0.040769
     12          1           0        1.447958   -1.599522    0.031666
 ---------------------------------------------------------------------

 SCF Done:  E(RHF) =  -658.096665687     A.U. after    2 cycles

 The electronic state is 1-A.
 Alpha  occ. eigenvalues --  -75.60608 -15.79776 -15.78749 -15.78629 -15.77411
 Alpha  occ. eigenvalues --  -13.09310 -12.95953 -12.91831 -11.48978  -7.94798
 Alpha  occ. eigenvalues --   -1.57124  -1.46744  -1.24876  -1.11816  -1.04353
 Alpha  occ. eigenvalues --   -0.81225  -0.74558  -0.71415  -0.69031  -0.68519
 Alpha  occ. eigenvalues --   -0.60811  -0.52708  -0.45515  -0.43422  -0.38306
 Alpha  occ. eigenvalues --   -0.36356  -0.22104  -0.19707
 Alpha virt. eigenvalues --    0.02629   0.03872   0.04963   0.05937   0.06613
 Alpha virt. eigenvalues --    0.06799   0.09413   0.11601   0.13863   0.14822
 Alpha virt. eigenvalues --    0.14930   0.15603   0.16403   0.16596   0.17132

 Mulliken charges:
               1
     1  C    1.207270
     2  S    1.301635
     3  N   -1.727450
     4  N   -1.855130
     5  N   -1.640335
     6  N   -1.789299
     7  H    0.704246
     8  H    0.744924
     9  H    0.637059
    10  H    0.621044
    11  H    0.954316
    12  H    0.841721
 Sum of Mulliken charges =  -0.00000

 Dipole moment (field-independent basis, Debye):
    X=              2.9654    Y=              2.6629    Z=              0.2531  Tot=              3.9936

 Test job not archived.
 1\1\GINC-SE208\SP\RHF\Aug-CC-pVDZ\C1H6N4S1\OHZDE\06-Apr-2025\0\\#t hf
 aug-cc-pvdz iop(5/13=1,5/36=2,99/5=2) pseudo=read geom=check guess=(re
 ad,tcheck) scf=(maxcycle=1)\\title\\0,1\C,0,-0.00829,-0.208356,-0.0247
 23\S,0,-1.21717,-1.356869,0.02142\N,0,-0.162614,1.134737,-0.015493\N,0
 ,-1.417749,1.738272,0.008702\N,0,1.302148,-0.610414,-0.099972\N,0,2.36
 4793,0.297605,0.049141\H,0,2.841583,0.15765,0.933495\H,0,3.025732,0.18
 2703,-0.708975\H,0,-1.510815,2.327204,0.825721\H,0,-1.567518,2.280758,
 -0.832165\H,0,0.681476,1.689836,-0.040769\H,0,1.447958,-1.599522,0.031

 Normal termination of Gaussian 16 at Sun Apr  6 08:11:42 2025.
