 Gaussian 16, Revision C.01,

 ----------------------------------------------------------------------
 #t hf aug-cc-pvdz symm=none int=(grid=ultrafine) guess=(read,tcheck) s
 table=(opt,rrhf)
 ----------------------------------------------------------------------
 -----
 title
 -----
 Symbolic Z-matrix:
 Charge =  0 Multiplicity = 1

 SCF Done:  E(RHF) =  -311.654004098     A.U. after   12 cycles
 Normal termination of Gaussian 16 at Sun Apr  6 08:11:24 2025.
 Gaussian 16:  ES64L-G16RevC.01  3-Jul-2019

 ----------------------------------------------------------------------
 #t hf aug-cc-pvdz iop(5/13=1,5/36=2,99/5=2) pseudo=read geom=check gue
 ss=(read,tcheck) scf=(maxcycle=1)
 ----------------------------------------------------------------------
 -----
 title
 -----
 Structure from the checkpoint file:  "carbonyl_fluoride.chk"
 Charge =  0 Multiplicity = 1

                         Standard orientation:
 ---------------------------------------------------------------------
 Center     Atomic      Atomic             Coordinates (Angstroms)
 Number     Number       Type             X           Y           Z
 ---------------------------------------------------------------------
      1          8           0        0.000000   -0.000000    1.316315
      2          6           0        0.000000   -0.000000    0.145081
      3          9           0        0.000000    1.065268   -0.633389
      4          9           0       -0.000000   -1.065268   -0.633389
 ---------------------------------------------------------------------

 SCF Done:  E(RHF) =  -312.776338819     A.U. after    2 cycles

 The electronic state is 1-A1.
 Alpha  occ. eigenvalues --  -29.36480 -29.36404 -21.12825 -11.62890  -1.82244
 Alpha  occ. eigenvalues --   -1.23152  -0.91664  -0.66781  -0.66169  -0.49577
 Alpha  occ. eigenvalues --   -0.48016  -0.40068  -0.34940  -0.34822  -0.33074
 Alpha  occ. eigenvalues --   -0.26654
 Alpha virt. eigenvalues --    0.08819   0.09671   0.12391   0.13179   0.18169
 Alpha virt. eigenvalues --    0.18261   0.20598   0.20870   0.23886   0.25814
 Alpha virt. eigenvalues --    0.30526   0.31121   0.34203   0.34280   0.36269

 Mulliken charges:
               1
     1  O   -2.466900
     2  C    0.868170
     3  F    0.799365
     4  F    0.799365
 Sum of Mulliken charges =   0.00000

 Dipole moment (field-independent basis, Debye):
    X=             -0.0000    Y=             -0.0000    Z=             -4.1521  Tot=              4.1521

 Test job not archived.
 1\1\GINC-SE209\SP\RHF\Aug-CC-pVDZ\C1F2O1\OHZDE\06-Apr-2025\0\\#t hf au
 g-cc-pvdz iop(5/13=1,5/36=2,99/5=2) pseudo=read geom=check guess=(read
 ,tcheck) scf=(maxcycle=1)\\title\\0,1\O,0,0.,0.,1.316315\C,0,0.,0.,0.1
 45081\F,0,0.,1.065268,-0.633389\F,0,0.,-1.065268,-0.633389\\Version=ES
 64L-G16RevC.01\State=1-A1\HF=-312.7763388\RMSD=3.339e-02\Dipole=0.,0.,
 -1.6335658\Quadrupole=0.1055019,1.8926889,-1.9981908,0.,0.,0.\PG=C02V
 [C2(C1O1),SGV(F2)]\\@

 Normal termination of Gaussian 16 at Sun Apr  6 08:11:25 2025.
