 Gaussian 16, Revision C.01,

 ----------------------------------------------------------------------
 #t hf aug-cc-pvdz symm=none int=(grid=ultrafine) guess=(read,tcheck) s
 table=(opt,rrhf)
 ----------------------------------------------------------------------
 -----
 title
 -----
 Symbolic Z-matrix:
 Charge =  0 Multiplicity = 1

 SCF Done:  E(RHF) =  -263.699428896     A.U. after   12 cycles
 Normal termination of Gaussian 16 at Sun Apr  6 08:11:24 2025.
 Gaussian 16:  ES64L-G16RevC.01  3-Jul-2019

 ----------------------------------------------------------------------
 #t hf aug-cc-pvdz iop(5/13=1,5/36=2,99/5=2) pseudo=read geom=check gue
 ss=(read,tcheck) scf=(maxcycle=1)
 ----------------------------------------------------------------------
 -----
 title
 -----
 Structure from the checkpoint file:  "carbonic_acid.chk"
 Charge =  0 Multiplicity = 1

                         Standard orientation:
 ---------------------------------------------------------------------
 Center     Atomic      Atomic             Coordinates (Angstroms)
 Number     Number       Type             X           Y           Z
 ---------------------------------------------------------------------
      1          6           0        0.000000   -0.000000    0.101922
      2          8           0        0.000000   -0.000000    1.305118
      3          8           0        0.000000    1.088420   -0.679394
      4          8           0       -0.000000   -1.088420   -0.679394
      5          1           0        0.000000    1.854503   -0.091082
      6          1           0       -0.000000   -1.854503   -0.091082
 ---------------------------------------------------------------------

 SCF Done:  E(RHF) =  -264.757853139     A.U. after    2 cycles

 The electronic state is 1-A1.
 Alpha  occ. eigenvalues --  -21.14438 -21.14389 -21.06471 -11.55440  -1.91091
 Alpha  occ. eigenvalues --   -1.72323  -1.67314  -0.86822  -0.64967  -0.64938
 Alpha  occ. eigenvalues --   -0.62204  -0.56777  -0.45727  -0.39656  -0.34695
 Alpha  occ. eigenvalues --   -0.31494
 Alpha virt. eigenvalues --    0.03439   0.05816   0.10859   0.11408   0.11927
 Alpha virt. eigenvalues --    0.15485   0.17149   0.18597   0.19639   0.20971
 Alpha virt. eigenvalues --    0.22055   0.22701   0.24285   0.24643   0.28364

 Mulliken charges:
               1
     1  C    6.135099
     2  O   -2.406821
     3  O   -2.441465
     4  O   -2.441465
     5  H    0.577326
     6  H    0.577326
 Sum of Mulliken charges =  -0.00000

 Dipole moment (field-independent basis, Debye):
    X=              0.0000    Y=             -0.0000    Z=             -0.8235  Tot=              0.8235

 Test job not archived.
 1\1\GINC-SE106\SP\RHF\Aug-CC-pVDZ\C1H2O3\OHZDE\06-Apr-2025\0\\#t hf au
 g-cc-pvdz iop(5/13=1,5/36=2,99/5=2) pseudo=read geom=check guess=(read
 ,tcheck) scf=(maxcycle=1)\\title\\0,1\C,0,0.,0.,0.101922\O,0,0.,0.,1.3
 05118\O,0,0.,1.08842,-0.679394\O,0,0.,-1.08842,-0.679394\H,0,0.,1.8545
 03,-0.091082\H,0,0.,-1.854503,-0.091082\\Version=ES64L-G16RevC.01\Stat
 e=1-A1\HF=-264.7578531\RMSD=4.699e-02\Dipole=0.,0.,-0.323998\Quadrupol
 e=-0.7140265,4.4970967,-3.7830702,0.,0.,0.\PG=C02V [C2(C1O1),SGV(H2O2)
 ]\\@

 Normal termination of Gaussian 16 at Sun Apr  6 08:11:25 2025.
