 Gaussian 16, Revision C.01,

 ----------------------------------------------------------------------
 #t hf aug-cc-pvdz symm=none int=(grid=ultrafine) guess=(read,tcheck) s
 table=(opt,rrhf)
 ----------------------------------------------------------------------
 -----
 title
 -----
 Symbolic Z-matrix:
 Charge =  0 Multiplicity = 1

 SCF Done:  E(RHF) =  -671.698963697     A.U. after   13 cycles
 Normal termination of Gaussian 16 at Sun Apr  6 08:11:25 2025.
 Gaussian 16:  ES64L-G16RevC.01  3-Jul-2019

 ----------------------------------------------------------------------
 #t hf aug-cc-pvdz iop(5/13=1,5/36=2,99/5=2) pseudo=read geom=check gue
 ss=(read,tcheck) scf=(maxcycle=1)
 ----------------------------------------------------------------------
 -----
 title
 -----
 Structure from the checkpoint file:  "carbonic_chloride_fluoride.chk"
 Charge =  0 Multiplicity = 1

                         Standard orientation:
 ---------------------------------------------------------------------
 Center     Atomic      Atomic             Coordinates (Angstroms)
 Number     Number       Type             X           Y           Z
 ---------------------------------------------------------------------
      1          6           0        0.000000    0.510905    0.000000
      2          8           0       -0.797403    1.370426    0.000000
      3         17           0       -0.321199   -1.202070    0.000000
      4          9           0        1.315513    0.711817    0.000000
 ---------------------------------------------------------------------

 SCF Done:  E(RHF) =  -672.729882277     A.U. after    2 cycles

 The electronic state is 1-A'.
 Alpha  occ. eigenvalues --  -99.95067 -29.35316 -21.12993 -11.61269 -10.52525
 Alpha  occ. eigenvalues --   -9.72278  -9.71434  -9.71369  -1.80808  -1.39309
 Alpha  occ. eigenvalues --   -1.07887  -0.79174  -0.66476  -0.65215  -0.55716
 Alpha  occ. eigenvalues --   -0.52033  -0.46994  -0.38503  -0.33770  -0.31577
 Alpha virt. eigenvalues --    0.05669   0.07507   0.09941   0.10087   0.12526
 Alpha virt. eigenvalues --    0.12963   0.14733   0.15050   0.17284   0.19364
 Alpha virt. eigenvalues --    0.23739   0.24372   0.26036   0.28241   0.29335

 Mulliken charges:
               1
     1  C    1.056436
     2  O   -2.071399
     3  Cl  -0.025547
     4  F    1.040510
 Sum of Mulliken charges =  -0.00000

 Dipole moment (field-independent basis, Debye):
    X=              3.4153    Y=              1.3592    Z=              0.0000  Tot=              3.6759

 Test job not archived.
 1\1\GINC-SE108\SP\RHF\Aug-CC-pVDZ\C1Cl1F1O1\OHZDE\06-Apr-2025\0\\#t hf
  aug-cc-pvdz iop(5/13=1,5/36=2,99/5=2) pseudo=read geom=check guess=(r
 ead,tcheck) scf=(maxcycle=1)\\title\\0,1\C,0,0.,0.510905,0.\O,0,-0.797
 403,1.370426,0.\Cl,0,-0.3212,-1.20207,0.\F,0,1.315513,0.711817,0.\\Ver
 sion=ES64L-G16RevC.01\State=1-A'\HF=-672.7298823\RMSD=3.828e-02\Dipole
 =1.3437006,0.534755,0.\Quadrupole=1.2866898,-0.7960722,-0.4906175,2.20
 91547,0.,0.\PG=CS [SG(C1Cl1F1O1)]\\@

 Normal termination of Gaussian 16 at Sun Apr  6 08:11:27 2025.
