 Gaussian 16, Revision C.01,

 ----------------------------------------------------------------------
 #t hf aug-cc-pvdz symm=none int=(grid=ultrafine) guess=(read,tcheck) s
 table=(opt,rrhf)
 ----------------------------------------------------------------------
 -----
 title
 -----
 Symbolic Z-matrix:
 Charge =  0 Multiplicity = 1

 SCF Done:  E(RHF) =  -832.930765530     A.U. after   10 cycles
 Normal termination of Gaussian 16 at Sun Apr  6 08:11:25 2025.
 Gaussian 16:  ES64L-G16RevC.01  3-Jul-2019

 ----------------------------------------------------------------------
 #t hf aug-cc-pvdz iop(5/13=1,5/36=2,99/5=2) pseudo=read geom=check gue
 ss=(read,tcheck) scf=(maxcycle=1)
 ----------------------------------------------------------------------
 -----
 title
 -----
 Structure from the checkpoint file:  "carbon_disulfide.chk"
 Charge =  0 Multiplicity = 1

                         Standard orientation:
 ---------------------------------------------------------------------
 Center     Atomic      Atomic             Coordinates (Angstroms)
 Number     Number       Type             X           Y           Z
 ---------------------------------------------------------------------
      1          6           0        0.000000    0.000000    0.000000
      2         16           0        0.000000    0.000000    1.557501
      3         16           0        0.000000    0.000000   -1.557501
 ---------------------------------------------------------------------

 SCF Done:  E(RHF) =  -833.544983159     A.U. after    2 cycles

 The electronic state is 1-SGG.
 Alpha  occ. eigenvalues --  -75.73185 -75.72890 -13.29015 -13.13951 -13.04374
 Alpha  occ. eigenvalues --  -13.04374 -13.03715 -13.03715 -11.54351  -8.07527
 Alpha  occ. eigenvalues --   -8.07283  -1.28843  -1.12791  -0.68621  -0.47516
 Alpha  occ. eigenvalues --   -0.47105  -0.47105  -0.24441  -0.24441
 Alpha virt. eigenvalues --    0.03552   0.06007   0.06007   0.06156   0.07492
 Alpha virt. eigenvalues --    0.15434   0.15434   0.15626   0.15626   0.15755
 Alpha virt. eigenvalues --    0.20718   0.20718   0.20942   0.25493   0.28653

 Mulliken charges:
               1
     1  C   -2.118414
     2  S    1.059207
     3  S    1.059207
 Sum of Mulliken charges =   0.00000

 Dipole moment (field-independent basis, Debye):
    X=              0.0000    Y=             -0.0000    Z=              0.0000  Tot=              0.0000

 Test job not archived.
 1\1\GINC-SE028\SP\RHF\Aug-CC-pVDZ\C1S2\OHZDE\06-Apr-2025\0\\#t hf aug-
 cc-pvdz iop(5/13=1,5/36=2,99/5=2) pseudo=read geom=check guess=(read,t
 check) scf=(maxcycle=1)\\title\\0,1\C,0,0.,0.,0.\S,0,0.,0.,1.557501\S,
 0,0.,0.,-1.557501\\Version=ES64L-G16RevC.01\State=1-SGG\HF=-833.544983
 2\RMSD=2.233e-01\Dipole=0.,0.,0.\Quadrupole=-3.8820238,-3.8820238,7.76
 40476,0.,0.,0.\PG=D*H [O(C1),C*(S1.S1)]\\@

 Normal termination of Gaussian 16 at Sun Apr  6 08:11:27 2025.
