 Gaussian 16, Revision C.01,

 ----------------------------------------------------------------------
 #t hf aug-cc-pvdz symm=none int=(grid=ultrafine) guess=(read,tcheck) s
 table=(opt,rrhf)
 ----------------------------------------------------------------------
 -----
 title
 -----
 Symbolic Z-matrix:
 Charge =  0 Multiplicity = 1

 SCF Done:  E(RHF) =  -510.299914328     A.U. after   12 cycles
 Normal termination of Gaussian 16 at Sun Apr  6 08:11:23 2025.
 Gaussian 16:  ES64L-G16RevC.01  3-Jul-2019

 ----------------------------------------------------------------------
 #t hf aug-cc-pvdz iop(5/13=1,5/36=2,99/5=2) pseudo=read geom=check gue
 ss=(read,tcheck) scf=(maxcycle=1)
 ----------------------------------------------------------------------
 -----
 title
 -----
 Structure from the checkpoint file:  "carbonyl_sulfide.chk"
 Charge =  0 Multiplicity = 1

                         Standard orientation:
 ---------------------------------------------------------------------
 Center     Atomic      Atomic             Coordinates (Angstroms)
 Number     Number       Type             X           Y           Z
 ---------------------------------------------------------------------
      1          6           0        0.000000    0.000000   -0.527573
      2          8           0        0.000000    0.000000   -1.683489
      3         16           0        0.000000    0.000000    1.039584
 ---------------------------------------------------------------------

 SCF Done:  E(RHF) =  -510.981776963     A.U. after    2 cycles

 The electronic state is 1-SG.
 Alpha  occ. eigenvalues --  -75.72843 -21.17161 -13.23316 -13.04203 -13.04203
 Alpha  occ. eigenvalues --  -11.59202  -8.07208  -1.80506  -1.20874  -0.71788
 Alpha  occ. eigenvalues --   -0.57795  -0.57795  -0.55435  -0.29065  -0.29065
 Alpha virt. eigenvalues --    0.03939   0.07216   0.10298   0.10298   0.11941
 Alpha virt. eigenvalues --    0.12981   0.12981   0.18173   0.18173   0.21915
 Alpha virt. eigenvalues --    0.23912   0.29943   0.29943   0.30038   0.30038

 Mulliken charges:
               1
     1  C    0.003515
     2  O   -1.775544
     3  S    1.772029
 Sum of Mulliken charges =   0.00000

 Dipole moment (field-independent basis, Debye):
    X=              0.0000    Y=              0.0000    Z=              2.1627  Tot=              2.1627

 Test job not archived.
 1\1\GINC-SE222\SP\RHF\Aug-CC-pVDZ\C1O1S1\OHZDE\06-Apr-2025\0\\#t hf au
 g-cc-pvdz iop(5/13=1,5/36=2,99/5=2) pseudo=read geom=check guess=(read
 ,tcheck) scf=(maxcycle=1)\\title\\0,1\C,0,0.,0.,-0.527573\O,0,0.,0.,-1
 .683489\S,0,0.,0.,1.039584\\Version=ES64L-G16RevC.01\State=1-SG\HF=-51
 0.981777\RMSD=1.622e-01\Dipole=0.,0.,0.8508752\Quadrupole=-1.3844527,-
 1.3844527,2.7689054,0.,0.,0.\PG=C*V [C*(O1C1S1)]\\@

 Normal termination of Gaussian 16 at Sun Apr  6 08:11:24 2025.
