 Gaussian 16, Revision C.01,

 ----------------------------------------------------------------------
 #t hf aug-cc-pvdz symm=none int=(grid=ultrafine) guess=(read,tcheck) s
 table=(opt,rrhf)
 ----------------------------------------------------------------------
 -----
 title
 -----
 Symbolic Z-matrix:
 Charge =  0 Multiplicity = 1

 SCF Done:  E(RHF) =  -187.662759194     A.U. after   10 cycles
 Normal termination of Gaussian 16 at Sun Apr  6 08:11:25 2025.
 Gaussian 16:  ES64L-G16RevC.01  3-Jul-2019

 ----------------------------------------------------------------------
 #t hf aug-cc-pvdz iop(5/13=1,5/36=2,99/5=2) pseudo=read geom=check gue
 ss=(read,tcheck) scf=(maxcycle=1)
 ----------------------------------------------------------------------
 -----
 title
 -----
 Structure from the checkpoint file:  "carbon_dioxide.chk"
 Charge =  0 Multiplicity = 1

                         Standard orientation:
 ---------------------------------------------------------------------
 Center     Atomic      Atomic             Coordinates (Angstroms)
 Number     Number       Type             X           Y           Z
 ---------------------------------------------------------------------
      1          6           0        0.000000    0.000000    0.000000
      2          8           0        0.000000    0.000000    1.160386
      3          8           0        0.000000    0.000000   -1.160386
 ---------------------------------------------------------------------

 SCF Done:  E(RHF) =  -188.395635960     A.U. after    2 cycles

 The electronic state is 1-SGG.
 Alpha  occ. eigenvalues --  -21.16222 -21.16155 -11.63743  -1.84809  -1.75191
 Alpha  occ. eigenvalues --   -0.73059  -0.63642  -0.63642  -0.60474  -0.37684
 Alpha  occ. eigenvalues --   -0.37684
 Alpha virt. eigenvalues --    0.05608   0.10336   0.10336   0.11094   0.18415
 Alpha virt. eigenvalues --    0.20513   0.20513   0.21490   0.21490   0.25247
 Alpha virt. eigenvalues --    0.26544   0.33592   0.33592   0.35549   0.35549

 Mulliken charges:
               1
     1  C    3.740532
     2  O   -1.870266
     3  O   -1.870266
 Sum of Mulliken charges =  -0.00000

 Dipole moment (field-independent basis, Debye):
    X=             -0.0000    Y=             -0.0000    Z=              0.0000  Tot=              0.0000

 Test job not archived.
 1\1\GINC-SE023\SP\RHF\Aug-CC-pVDZ\C1O2\OHZDE\06-Apr-2025\0\\#t hf aug-
 cc-pvdz iop(5/13=1,5/36=2,99/5=2) pseudo=read geom=check guess=(read,t
 check) scf=(maxcycle=1)\\title\\0,1\C,0,0.,0.,0.\O,0,0.,0.,1.160386\O,
 0,0.,0.,-1.160386\\Version=ES64L-G16RevC.01\State=1-SGG\HF=-188.395636
 \RMSD=5.490e-02\Dipole=0.,0.,0.\Quadrupole=0.4912146,0.4912146,-0.9824
 291,0.,0.,0.\PG=D*H [O(C1),C*(O1.O1)]\\@

 Normal termination of Gaussian 16 at Sun Apr  6 08:11:28 2025.
