 Gaussian 16, Revision C.01,

 ----------------------------------------------------------------------
 #t hf aug-cc-pvdz symm=none int=(grid=ultrafine) guess=(read,tcheck) s
 table=(opt,rrhf)
 ----------------------------------------------------------------------
 -----
 title
 -----
 Symbolic Z-matrix:
 Charge =  0 Multiplicity = 1

 SCF Done:  E(RHF) =  -535.739582690     A.U. after   12 cycles

 1\1\GINC-SE028\Stability\RHF\Aug-CC-pVDZ\C2H1Cl1\OHZDE\06-Apr-2025\0\\
 #t hf aug-cc-pvdz symm=none int=(grid=ultrafine) guess=(read,tcheck) s
 table=(opt,rrhf)\\title\\0,1\C,0,0.,0.,-0.615871\C,0,0.,0.,-1.813601\C
 l,0,0.,0.,1.02653\H,0,0.,0.,-2.874172\\Version=ES64L-G16RevC.01\HF=-53
 5.7395827\RMSD=4.200e-09\Dipole=0.,0.,-0.24535\Quadrupole=-1.925084,-1
 .925084,3.8501679,0.,0.,0.\PG=Unknown\\@
 The archive entry for this job was punched.

 Normal termination of Gaussian 16 at Sun Apr  6 08:11:55 2025.
 Gaussian 16:  ES64L-G16RevC.01  3-Jul-2019

 ----------------------------------------------------------------------
 #t hf aug-cc-pvdz iop(5/13=1,5/36=2,99/5=2) pseudo=read geom=check gue
 ss=(read,tcheck) scf=(maxcycle=1)
 ----------------------------------------------------------------------
 -----
 title
 -----
 Structure from the checkpoint file:  "chloroacetylene.chk"
 Charge =  0 Multiplicity = 1

                         Standard orientation:
 ---------------------------------------------------------------------
 Center     Atomic      Atomic             Coordinates (Angstroms)
 Number     Number       Type             X           Y           Z
 ---------------------------------------------------------------------
      1          6           0        0.000000    0.000000   -0.615871
      2          6           0        0.000000    0.000000   -1.813601
      3         17           0        0.000000    0.000000    1.026530
      4          1           0        0.000000    0.000000   -2.874172
 ---------------------------------------------------------------------

 SCF Done:  E(RHF) =  -536.340505375     A.U. after    2 cycles

 The electronic state is 1-SG.
 Alpha  occ. eigenvalues --  -99.94738 -11.45039 -11.41591 -10.52149  -9.72172
 Alpha  occ. eigenvalues --   -9.70989  -9.70989  -1.39478  -1.08780  -0.80153
 Alpha  occ. eigenvalues --   -0.68239  -0.59953  -0.59953  -0.39030  -0.39030
 Alpha virt. eigenvalues --    0.02925   0.06405   0.08008   0.10764   0.10764
 Alpha virt. eigenvalues --    0.12802   0.13156   0.13156   0.14444   0.17230
 Alpha virt. eigenvalues --    0.17230   0.20473   0.22797   0.22797   0.23456

 Mulliken charges:
               1
     1  C   -0.844485
     2  C   -0.326956
     3  Cl  -0.032661
     4  H    1.204102
 Sum of Mulliken charges =   0.00000

 Dipole moment (field-independent basis, Debye):
    X=             -0.0000    Y=              0.0000    Z=             -1.1623  Tot=              1.1623

 Test job not archived.
 1\1\GINC-SE028\SP\RHF\Aug-CC-pVDZ\C2H1Cl1\OHZDE\06-Apr-2025\0\\#t hf a
 ug-cc-pvdz iop(5/13=1,5/36=2,99/5=2) pseudo=read geom=check guess=(rea
 d,tcheck) scf=(maxcycle=1)\\title\\0,1\C,0,0.,0.,-0.615871\C,0,0.,0.,-
 1.813601\Cl,0,0.,0.,1.02653\H,0,0.,0.,-2.874172\\Version=ES64L-G16RevC
 .01\State=1-SG\HF=-536.3405054\RMSD=5.538e-01\Dipole=0.,0.,-0.4572971\
 Quadrupole=-2.4348494,-2.4348494,4.8696989,0.,0.,0.\PG=C*V [C*(H1C1C1C
 l1)]\\@

 Normal termination of Gaussian 16 at Sun Apr  6 08:12:04 2025.
