 Gaussian 16, Revision C.01,

 ----------------------------------------------------------------------
 #t hf aug-cc-pvdz symm=none int=(grid=ultrafine) guess=(read,tcheck) s
 table=(opt,rrhf)
 ----------------------------------------------------------------------
 -----
 title
 -----
 Symbolic Z-matrix:
 Charge =  0 Multiplicity = 1

 SCF Done:  E(RHF) =  -728.693189594     A.U. after   15 cycles

 1\1\GINC-SE208\Stability\RHF\Aug-CC-pVDZ\C7H7Cl1\OHZDE\06-Apr-2025\0\\
 #t hf aug-cc-pvdz symm=none int=(grid=ultrafine) guess=(read,tcheck) s
 table=(opt,rrhf)\\title\\0,1\C,0,0.420637,2.644566,0.\C,0,0.421753,1.9
 47096,1.20309\C,0,0.421753,1.947096,-1.20309\C,0,0.421753,0.558318,1.2
 01822\C,0,0.421753,0.558318,-1.201822\C,0,0.421492,-0.150366,0.\C,0,0.
 42614,-1.643412,0.\Cl,0,-1.272788,-2.340959,0.\H,0,0.421639,3.726146,0
 .\H,0,0.424437,2.484779,2.141585\H,0,0.424437,2.484779,-2.141585\H,0,0
 .419754,0.018155,2.140045\H,0,0.419754,0.018155,-2.140045\H,0,0.897849

 Normal termination of Gaussian 16 at Sun Apr  6 08:12:51 2025.
 Gaussian 16:  ES64L-G16RevC.01  3-Jul-2019

 ----------------------------------------------------------------------
 #t hf aug-cc-pvdz iop(5/13=1,5/36=2,99/5=2) pseudo=read geom=check gue
 ss=(read,tcheck) scf=(maxcycle=1)
 ----------------------------------------------------------------------
 -----
 title
 -----
 Structure from the checkpoint file:  "chloromethylbenzene.chk"
 Charge =  0 Multiplicity = 1

                         Standard orientation:
 ---------------------------------------------------------------------
 Center     Atomic      Atomic             Coordinates (Angstroms)
 Number     Number       Type             X           Y           Z
 ---------------------------------------------------------------------
      1          6           0        0.420637    2.644566    0.000000
      2          6           0        0.421753    1.947096    1.203090
      3          6           0        0.421753    1.947096   -1.203090
      4          6           0        0.421753    0.558318    1.201822
      5          6           0        0.421753    0.558318   -1.201822
      6          6           0        0.421492   -0.150366    0.000000
      7          6           0        0.426140   -1.643412   -0.000000
      8         17           0       -1.272788   -2.340959   -0.000000
      9          1           0        0.421639    3.726146    0.000000
     10          1           0        0.424437    2.484779    2.141585
     11          1           0        0.424437    2.484779   -2.141585
     12          1           0        0.419754    0.018155    2.140045
     13          1           0        0.419754    0.018155   -2.140045
     14          1           0        0.897849   -2.052701    0.887296
     15          1           0        0.897849   -2.052701   -0.887296
 ---------------------------------------------------------------------

 SCF Done:  E(RHF) =  -730.248171504     A.U. after    2 cycles

 The electronic state is 1-A'.
 Alpha  occ. eigenvalues --  -99.87313 -11.52401 -11.45795 -11.43718 -11.43493
 Alpha  occ. eigenvalues --  -11.41458 -11.41062 -11.36858 -10.44501  -9.64454
 Alpha  occ. eigenvalues --   -9.63760  -9.63682  -1.38026  -1.29281  -1.13296
 Alpha  occ. eigenvalues --   -1.10086  -0.98965  -0.87387  -0.84389  -0.71917
 Alpha  occ. eigenvalues --   -0.66332  -0.65593  -0.60943  -0.58825  -0.58200
 Alpha  occ. eigenvalues --   -0.55282  -0.50039  -0.49471  -0.47533  -0.44808
 Alpha  occ. eigenvalues --   -0.43938  -0.33747  -0.33367
 Alpha virt. eigenvalues --    0.03108   0.04668   0.04905   0.05443   0.06283
 Alpha virt. eigenvalues --    0.07113   0.07435   0.08089   0.09888   0.10139
 Alpha virt. eigenvalues --    0.10937   0.12320   0.12454   0.13657   0.13831

 Mulliken charges:
               1
     1  C   -3.062769
     2  C   -1.185588
     3  C   -1.185588
     4  C   -2.443941
     5  C   -2.443941
     6  C    4.718634
     7  C   -5.129332
     8  Cl   0.156705
     9  H    1.520462
    10  H    1.487215
    11  H    1.487215
    12  H    1.725327
    13  H    1.725327
    14  H    1.315138
    15  H    1.315138
 Sum of Mulliken charges =   0.00000

 Dipole moment (field-independent basis, Debye):
    X=              2.0959    Y=              1.7070    Z=              0.0000  Tot=              2.7031

 Test job not archived.
 1\1\GINC-SE208\SP\RHF\Aug-CC-pVDZ\C7H7Cl1\OHZDE\06-Apr-2025\0\\#t hf a
 ug-cc-pvdz iop(5/13=1,5/36=2,99/5=2) pseudo=read geom=check guess=(rea
 d,tcheck) scf=(maxcycle=1)\\title\\0,1\C,0,0.420637,2.644566,0.\C,0,0.
 421753,1.947096,1.20309\C,0,0.421753,1.947096,-1.20309\C,0,0.421753,0.
 558318,1.201822\C,0,0.421753,0.558318,-1.201822\C,0,0.421492,-0.150366
 ,0.\C,0,0.42614,-1.643412,0.\Cl,0,-1.272788,-2.340959,0.\H,0,0.421639,
 3.726146,0.\H,0,0.424437,2.484779,2.141585\H,0,0.424437,2.484779,-2.14
 1585\H,0,0.419754,0.018155,2.140045\H,0,0.419754,0.018155,-2.140045\H,

 Normal termination of Gaussian 16 at Sun Apr  6 08:12:57 2025.
