 Gaussian 16, Revision C.01,

 ----------------------------------------------------------------------
 #t hf aug-cc-pvdz symm=none int=(grid=ultrafine) guess=(read,tcheck) s
 table=(opt,rrhf)
 ----------------------------------------------------------------------
 -----
 title
 -----
 Symbolic Z-matrix:
 Charge =  0 Multiplicity = 1

 SCF Done:  E(RHF) =  -1180.52956281     A.U. after   15 cycles
 Normal termination of Gaussian 16 at Sun Apr  6 08:12:12 2025.
 Gaussian 16:  ES64L-G16RevC.01  3-Jul-2019

 ----------------------------------------------------------------------
 #t hf aug-cc-pvdz iop(5/13=1,5/36=2,99/5=2) pseudo=read geom=check gue
 ss=(read,tcheck) scf=(maxcycle=1)
 ----------------------------------------------------------------------
 -----
 title
 -----
 Structure from the checkpoint file:  "chlorochloromethylmalononitrile.chk"
 Charge =  0 Multiplicity = 1

                         Standard orientation:
 ---------------------------------------------------------------------
 Center     Atomic      Atomic             Coordinates (Angstroms)
 Number     Number       Type             X           Y           Z
 ---------------------------------------------------------------------
      1         17           0        0.454804   -1.139246    1.304813
      2         17           0       -2.281823   -0.133492   -0.404658
      3          7           0        0.212305    2.469029    0.884988
      4          7           0        2.741580   -0.189879   -1.346088
      5          6           0        0.469741    0.052344   -0.074733
      6          6           0       -0.644368   -0.282574   -1.092678
      7          6           0        0.324538    1.401661    0.476873
      8          6           0        1.759694   -0.075093   -0.761062
      9          1           0       -0.569014    0.407136   -1.929326
     10          1           0       -0.506489   -1.302670   -1.436011
 ---------------------------------------------------------------------

 SCF Done:  E(RHF) =  -1182.19132789     A.U. after    2 cycles

 The electronic state is 1-A.
 Alpha  occ. eigenvalues --  -99.94621 -99.92371 -15.81684 -15.81082 -11.60613
 Alpha  occ. eigenvalues --  -11.51465 -11.49290 -11.47756 -10.51844 -10.49677
 Alpha  occ. eigenvalues --   -9.71768  -9.71001  -9.70984  -9.69591  -9.68861
 Alpha  occ. eigenvalues --   -9.68733  -1.48050  -1.35765  -1.34010  -1.33474
 Alpha  occ. eigenvalues --   -1.19332  -1.02365  -0.85918  -0.77490  -0.71499
 Alpha  occ. eigenvalues --   -0.66806  -0.64244  -0.59187  -0.58058  -0.56025
 Alpha  occ. eigenvalues --   -0.54143  -0.53271  -0.52003  -0.49379  -0.49060
 Alpha  occ. eigenvalues --   -0.47510  -0.47099
 Alpha virt. eigenvalues --    0.00946   0.02579   0.05263   0.05572   0.07056
 Alpha virt. eigenvalues --    0.08926   0.09599   0.10209   0.10453   0.11159
 Alpha virt. eigenvalues --    0.11828   0.12351   0.13216   0.14115   0.14674

 Mulliken charges:
               1
     1  Cl   0.097553
     2  Cl   0.089145
     3  N   -2.611592
     4  N   -2.516983
     5  C    0.484267
     6  C   -3.655144
     7  C    2.559861
     8  C    2.401497
     9  H    1.602151
    10  H    1.549244
 Sum of Mulliken charges =   0.00000

 Dipole moment (field-independent basis, Debye):
    X=             -0.9168    Y=             -1.4470    Z=             -1.4970  Tot=              2.2749

 Test job not archived.
 1\1\GINC-SE101\SP\RHF\Aug-CC-pVDZ\C4H2Cl2N2\OHZDE\06-Apr-2025\0\\#t hf
  aug-cc-pvdz iop(5/13=1,5/36=2,99/5=2) pseudo=read geom=check guess=(r
 ead,tcheck) scf=(maxcycle=1)\\title\\0,1\Cl,0,0.454804,-1.139246,1.304
 813\Cl,0,-2.281823,-0.133493,-0.404658\N,0,0.212304,2.469029,0.884988\
 N,0,2.74158,-0.189878,-1.346088\C,0,0.469741,0.052344,-0.074733\C,0,-0
 .644368,-0.282574,-1.092678\C,0,0.324537,1.401661,0.476873\C,0,1.75969
 4,-0.075092,-0.761062\H,0,-0.569014,0.407136,-1.929326\H,0,-0.506489,-
 1.30267,-1.436011\\Version=ES64L-G16RevC.01\State=1-A\HF=-1182.1913279

 Normal termination of Gaussian 16 at Sun Apr  6 08:12:18 2025.
