 Gaussian 16, Revision C.01,

 ----------------------------------------------------------------------
 #t hf aug-cc-pvdz symm=none int=(grid=ultrafine) guess=(read,tcheck) s
 table=(opt,rrhf)
 ----------------------------------------------------------------------
 -----
 title
 -----
 Symbolic Z-matrix:
 Charge =  0 Multiplicity = 1

 SCF Done:  E(RHF) =  -610.654497224     A.U. after   13 cycles
 Normal termination of Gaussian 16 at Sun Apr  6 08:11:55 2025.
 Gaussian 16:  ES64L-G16RevC.01  3-Jul-2019

 ----------------------------------------------------------------------
 #t hf aug-cc-pvdz iop(5/13=1,5/36=2,99/5=2) pseudo=read geom=check gue
 ss=(read,tcheck) scf=(maxcycle=1)
 ----------------------------------------------------------------------
 -----
 title
 -----
 Structure from the checkpoint file:  "chloroketene.chk"
 Charge =  0 Multiplicity = 1

                         Standard orientation:
 ---------------------------------------------------------------------
 Center     Atomic      Atomic             Coordinates (Angstroms)
 Number     Number       Type             X           Y           Z
 ---------------------------------------------------------------------
      1         17           0       -1.452562   -0.235201    0.000013
      2          8           0        2.214395   -0.375124    0.000033
      3          6           0        0.002567    0.726842   -0.000115
      4          6           0        1.175372    0.139924   -0.000030
      5          1           0       -0.089246    1.798809    0.000383
 ---------------------------------------------------------------------

 SCF Done:  E(RHF) =  -611.538055093     A.U. after    2 cycles

 The electronic state is 1-A.
 Alpha  occ. eigenvalues --  -99.91861 -21.16184 -11.56503 -11.45156 -10.49100
 Alpha  occ. eigenvalues --   -9.68907  -9.68137  -9.68030  -1.79252  -1.36585
 Alpha  occ. eigenvalues --   -1.10139  -0.77095  -0.67726  -0.62067  -0.61045
 Alpha  occ. eigenvalues --   -0.53759  -0.52002  -0.50351  -0.31340
 Alpha virt. eigenvalues --    0.02613   0.05466   0.08424   0.09444   0.11921
 Alpha virt. eigenvalues --    0.12304   0.12440   0.13004   0.13652   0.15213
 Alpha virt. eigenvalues --    0.16371   0.16979   0.19587   0.20152   0.20449

 Mulliken charges:
               1
     1  Cl  -0.190819
     2  O   -2.086474
     3  C   -1.534405
     4  C    2.485017
     5  H    1.326681
 Sum of Mulliken charges =  -0.00000

 Dipole moment (field-independent basis, Debye):
    X=              2.1184    Y=              0.5342    Z=              0.0007  Tot=              2.1847

 Test job not archived.
 1\1\GINC-SE165\SP\RHF\Aug-CC-pVDZ\C2H1Cl1O1\OHZDE\06-Apr-2025\0\\#t hf
  aug-cc-pvdz iop(5/13=1,5/36=2,99/5=2) pseudo=read geom=check guess=(r
 ead,tcheck) scf=(maxcycle=1)\\title\\0,1\Cl,0,-1.452562,-0.235201,0.00
 0013\O,0,2.214395,-0.375124,0.000033\C,0,0.002567,0.726842,-0.000115\C
 ,0,1.175372,0.139924,-0.00003\H,0,-0.089246,1.798809,0.000383\\Version
 =ES64L-G16RevC.01\State=1-A\HF=-611.5380551\RMSD=2.452e-01\Dipole=0.83
 34327,0.2101771,0.0002907\Quadrupole=0.8986954,1.2761915,-2.1748868,0.
 4735943,0.0000244,0.001072\PG=C01 [X(C2H1Cl1O1)]\\@

 Normal termination of Gaussian 16 at Sun Apr  6 08:12:04 2025.
