 Gaussian 16, Revision C.01,

 ----------------------------------------------------------------------
 #t hf aug-cc-pvdz symm=none int=(grid=ultrafine) guess=(read,tcheck) s
 table=(opt,rrhf)
 ----------------------------------------------------------------------
 -----
 title
 -----
 Symbolic Z-matrix:
 Charge =  0 Multiplicity = 1

 SCF Done:  E(RHF) =  -611.858883127     A.U. after   14 cycles
 Normal termination of Gaussian 16 at Sun Apr  6 08:11:27 2025.
 Gaussian 16:  ES64L-G16RevC.01  3-Jul-2019

 ----------------------------------------------------------------------
 #t hf aug-cc-pvdz iop(5/13=1,5/36=2,99/5=2) pseudo=read geom=check gue
 ss=(read,tcheck) scf=(maxcycle=1)
 ----------------------------------------------------------------------
 -----
 title
 -----
 Structure from the checkpoint file:  "chloroacetaldehyde.chk"
 Charge =  0 Multiplicity = 1

                         Standard orientation:
 ---------------------------------------------------------------------
 Center     Atomic      Atomic             Coordinates (Angstroms)
 Number     Number       Type             X           Y           Z
 ---------------------------------------------------------------------
      1          6           0        0.028542    0.674903    0.133473
      2          6           0        1.166085   -0.321837    0.199900
      3         17           0       -1.550178   -0.167557   -0.077281
      4          8           0        2.264073   -0.071400   -0.217240
      5          1           0       -0.023974    1.228514    1.070602
      6          1           0        0.172885    1.363727   -0.692610
      7          1           0        0.923765   -1.290966    0.673464
 ---------------------------------------------------------------------

 SCF Done:  E(RHF) =  -612.771219009     A.U. after    2 cycles

 The electronic state is 1-A.
 Alpha  occ. eigenvalues --  -99.90318 -21.08892 -11.50709 -11.45511 -10.47572
 Alpha  occ. eigenvalues --   -9.67424  -9.66708  -9.66647  -1.73460  -1.35150
 Alpha  occ. eigenvalues --   -1.08501  -0.85585  -0.68664  -0.65425  -0.62533
 Alpha  occ. eigenvalues --   -0.54856  -0.50819  -0.49697  -0.45083  -0.32224
 Alpha virt. eigenvalues --    0.03171   0.05389   0.06109   0.06527   0.10300
 Alpha virt. eigenvalues --    0.10703   0.11295   0.12602   0.14098   0.14550
 Alpha virt. eigenvalues --    0.15536   0.15912   0.17513   0.18336   0.19017

 Mulliken charges:
               1
     1  C   -4.007391
     2  C    1.930931
     3  Cl   0.105577
     4  O   -2.650216
     5  H    1.587711
     6  H    1.518391
     7  H    1.514997
 Sum of Mulliken charges =  -0.00000

 Dipole moment (field-independent basis, Debye):
    X=              0.8489    Y=              0.8184    Z=              0.6012  Tot=              1.3236

 Test job not archived.
 1\1\GINC-SE223\SP\RHF\Aug-CC-pVDZ\C2H3Cl1O1\OHZDE\06-Apr-2025\0\\#t hf
  aug-cc-pvdz iop(5/13=1,5/36=2,99/5=2) pseudo=read geom=check guess=(r
 ead,tcheck) scf=(maxcycle=1)\\title\\0,1\C,0,0.028542,0.674903,0.13347
 3\C,0,1.166085,-0.321837,0.1999\Cl,0,-1.550178,-0.167557,-0.077281\O,0
 ,2.264073,-0.0714,-0.21724\H,0,-0.023974,1.228514,1.070602\H,0,0.17288
 5,1.363727,-0.69261\H,0,0.923765,-1.290966,0.673464\\Version=ES64L-G16
 RevC.01\State=1-A\HF=-612.771219\RMSD=1.363e-01\Dipole=0.3339791,0.321
 9883,0.2365256\Quadrupole=-2.5810743,1.498214,1.0828603,0.1779005,0.62

 Normal termination of Gaussian 16 at Sun Apr  6 08:11:30 2025.
