 Gaussian 16, Revision C.01,

 ----------------------------------------------------------------------
 #t hf aug-cc-pvdz symm=none int=(grid=ultrafine) guess=(read,tcheck) s
 table=(opt,rrhf)
 ----------------------------------------------------------------------
 -----
 title
 -----
 Symbolic Z-matrix:
 Charge =  0 Multiplicity = 1

 SCF Done:  E(RHF) =  -650.859450752     A.U. after   13 cycles
 Normal termination of Gaussian 16 at Sun Apr  6 08:12:03 2025.
 Gaussian 16:  ES64L-G16RevC.01  3-Jul-2019

 ----------------------------------------------------------------------
 #t hf aug-cc-pvdz iop(5/13=1,5/36=2,99/5=2) pseudo=read geom=check gue
 ss=(read,tcheck) scf=(maxcycle=1)
 ----------------------------------------------------------------------
 -----
 title
 -----
 Structure from the checkpoint file:  "chloromethyloxirane.chk"
 Charge =  0 Multiplicity = 1

                         Standard orientation:
 ---------------------------------------------------------------------
 Center     Atomic      Atomic             Coordinates (Angstroms)
 Number     Number       Type             X           Y           Z
 ---------------------------------------------------------------------
      1          6           0        0.385941   -0.723508    0.267146
      2         17           0        1.900475    0.227545   -0.033923
      3          6           0       -0.769906   -0.104546   -0.461481
      4          6           0       -1.663184    0.846606    0.196657
      5          8           0       -2.059013   -0.518958    0.002364
      6          1           0        0.215602   -0.732869    1.339395
      7          1           0        0.583531   -1.733301   -0.081694
      8          1           0       -0.670754   -0.061183   -1.541492
      9          1           0       -1.474553    1.128875    1.226754
     10          1           0       -2.206901    1.570555   -0.399129
 ---------------------------------------------------------------------

 SCF Done:  E(RHF) =  -651.979383221     A.U. after    2 cycles

 The electronic state is 1-A.
 Alpha  occ. eigenvalues --  -99.88672 -21.07456 -11.50374 -11.45530 -11.42187
 Alpha  occ. eigenvalues --  -10.45909  -9.65812  -9.65078  -9.65034  -1.79202
 Alpha  occ. eigenvalues --   -1.33462  -1.09040  -0.97542  -0.87078  -0.72104
 Alpha  occ. eigenvalues --   -0.65755  -0.62551  -0.60031  -0.55562  -0.48861
 Alpha  occ. eigenvalues --   -0.48560  -0.45033  -0.38549  -0.32654
 Alpha virt. eigenvalues --    0.03615   0.05466   0.05743   0.06018   0.06454
 Alpha virt. eigenvalues --    0.07381   0.10411   0.11354   0.12160   0.13154
 Alpha virt. eigenvalues --    0.14435   0.14789   0.15504   0.16784   0.17066

 Mulliken charges:
               1
     1  C   -4.446860
     2  Cl   0.073168
     3  C    1.515143
     4  C   -1.954482
     5  O   -2.498997
     6  H    1.534772
     7  H    1.506447
     8  H    1.395553
     9  H    1.458422
    10  H    1.416832
 Sum of Mulliken charges =   0.00000

 Dipole moment (field-independent basis, Debye):
    X=             -1.9483    Y=             -0.6885    Z=              0.2425  Tot=              2.0806

 Test job not archived.
 1\1\GINC-SE209\SP\RHF\Aug-CC-pVDZ\C3H5Cl1O1\OHZDE\06-Apr-2025\0\\#t hf
  aug-cc-pvdz iop(5/13=1,5/36=2,99/5=2) pseudo=read geom=check guess=(r
 ead,tcheck) scf=(maxcycle=1)\\title\\0,1\C,0,0.385941,-0.723508,0.2671
 46\Cl,0,1.900475,0.227545,-0.033923\C,0,-0.769906,-0.104546,-0.461481\
 C,0,-1.663184,0.846606,0.196657\O,0,-2.059013,-0.518958,0.002364\H,0,0
 .215602,-0.732869,1.339395\H,0,0.583531,-1.733301,-0.081694\H,0,-0.670
 754,-0.061183,-1.541492\H,0,-1.474553,1.128875,1.226754\H,0,-2.206901,
 1.570555,-0.399129\\Version=ES64L-G16RevC.01\State=1-A\HF=-651.9793832

 Normal termination of Gaussian 16 at Sun Apr  6 08:12:07 2025.
