 Gaussian 16, Revision C.01,

 ----------------------------------------------------------------------
 #t hf aug-cc-pvdz symm=none int=(grid=ultrafine) guess=(read,tcheck) s
 table=(opt,rrhf)
 ----------------------------------------------------------------------
 -----
 title
 -----
 Symbolic Z-matrix:
 Charge =  0 Multiplicity = 1

 SCF Done:  E(RHF) =  -538.165158826     A.U. after   12 cycles

 1\1\GINC-SE136\Stability\RHF\Aug-CC-pVDZ\C2H5Cl1\OHZDE\06-Apr-2025\0\\
 #t hf aug-cc-pvdz symm=none int=(grid=ultrafine) guess=(read,tcheck) s
 table=(opt,rrhf)\\title\\0,1\C,0,1.506018,0.680611,0.\C,0,0.,0.820714,
 0.\H,0,1.961216,1.673866,0.\H,0,1.851632,0.145961,0.883624\H,0,1.85163
 2,0.145961,-0.883624\Cl,0,-0.821829,-0.80243,0.\H,0,-0.364745,1.333788
 ,0.885068\H,0,-0.364745,1.333788,-0.885068\\Version=ES64L-G16RevC.01\H
 F=-538.1651588\RMSD=2.728e-09\Dipole=0.5127275,0.8280804,0.\Quadrupole
 =-0.5021465,0.4440586,0.0580879,-0.3181496,0.,0.\PG=Unknown\\@

 Normal termination of Gaussian 16 at Sun Apr  6 08:11:57 2025.
 Gaussian 16:  ES64L-G16RevC.01  3-Jul-2019

 ----------------------------------------------------------------------
 #t hf aug-cc-pvdz iop(5/13=1,5/36=2,99/5=2) pseudo=read geom=check gue
 ss=(read,tcheck) scf=(maxcycle=1)
 ----------------------------------------------------------------------
 -----
 title
 -----
 Structure from the checkpoint file:  "chloroethane.chk"
 Charge =  0 Multiplicity = 1

                         Standard orientation:
 ---------------------------------------------------------------------
 Center     Atomic      Atomic             Coordinates (Angstroms)
 Number     Number       Type             X           Y           Z
 ---------------------------------------------------------------------
      1          6           0        1.506018    0.680611    0.000000
      2          6           0        0.000000    0.820714    0.000000
      3          1           0        1.961216    1.673866    0.000000
      4          1           0        1.851632    0.145961    0.883624
      5          1           0        1.851632    0.145961   -0.883624
      6         17           0       -0.821829   -0.802430    0.000000
      7          1           0       -0.364745    1.333788    0.885068
      8          1           0       -0.364745    1.333788   -0.885068
 ---------------------------------------------------------------------

 SCF Done:  E(RHF) =  -538.826172947     A.U. after    2 cycles

 The electronic state is 1-A'.
 Alpha  occ. eigenvalues --  -99.87131 -11.44577 -11.38098 -10.44386  -9.64228
 Alpha  occ. eigenvalues --   -9.63541  -9.63493  -1.32763  -1.12302  -0.90194
 Alpha  occ. eigenvalues --   -0.66327  -0.63549  -0.56650  -0.53284  -0.51629
 Alpha  occ. eigenvalues --   -0.46633  -0.46354
 Alpha virt. eigenvalues --    0.03036   0.05305   0.05983   0.06215   0.07534
 Alpha virt. eigenvalues --    0.07926   0.11628   0.12854   0.13420   0.13982
 Alpha virt. eigenvalues --    0.15342   0.17401   0.18578   0.18743   0.19522

 Mulliken charges:
               1
     1  C   -3.109355
     2  C   -3.826173
     3  H    1.190792
     4  H    1.277615
     5  H    1.277615
     6  Cl   0.066263
     7  H    1.561622
     8  H    1.561622
 Sum of Mulliken charges =   0.00000

 Dipole moment (field-independent basis, Debye):
    X=              1.3352    Y=              2.1519    Z=             -0.0000  Tot=              2.5325

 Test job not archived.
 1\1\GINC-SE136\SP\RHF\Aug-CC-pVDZ\C2H5Cl1\OHZDE\06-Apr-2025\0\\#t hf a
 ug-cc-pvdz iop(5/13=1,5/36=2,99/5=2) pseudo=read geom=check guess=(rea
 d,tcheck) scf=(maxcycle=1)\\title\\0,1\C,0,1.506018,0.680611,0.\C,0,0.
 ,0.820714,0.\H,0,1.961216,1.673866,0.\H,0,1.851632,0.145961,0.883624\H
 ,0,1.851632,0.145961,-0.883624\Cl,0,-0.821829,-0.80243,0.\H,0,-0.36474
 5,1.333788,0.885068\H,0,-0.364745,1.333788,-0.885068\\Version=ES64L-G1
 6RevC.01\State=1-A'\HF=-538.8261729\RMSD=1.517e-01\Dipole=0.5253265,0.
 8466222,0.\Quadrupole=-0.6205408,0.8074236,-0.1868828,0.0900017,0.,0.\

 Normal termination of Gaussian 16 at Sun Apr  6 08:12:05 2025.
