 Gaussian 16, Revision C.01,

 ----------------------------------------------------------------------
 #t hf aug-cc-pvdz symm=none int=(grid=ultrafine) guess=(read,tcheck) s
 table=(opt,rrhf)
 ----------------------------------------------------------------------
 -----
 title
 -----
 Symbolic Z-matrix:
 Charge =  0 Multiplicity = 1

 SCF Done:  E(RHF) =  -696.853890625     A.U. after   12 cycles
 Normal termination of Gaussian 16 at Sun Apr  6 08:11:56 2025.
 Gaussian 16:  ES64L-G16RevC.01  3-Jul-2019

 ----------------------------------------------------------------------
 #t hf aug-cc-pvdz iop(5/13=1,5/36=2,99/5=2) pseudo=read geom=check gue
 ss=(read,tcheck) scf=(maxcycle=1)
 ----------------------------------------------------------------------
 -----
 title
 -----
 Structure from the checkpoint file:  "chlorodifluoromethane.chk"
 Charge =  0 Multiplicity = 1

                         Standard orientation:
 ---------------------------------------------------------------------
 Center     Atomic      Atomic             Coordinates (Angstroms)
 Number     Number       Type             X           Y           Z
 ---------------------------------------------------------------------
      1          6           0        0.570687   -0.092261   -0.000000
      2          9           0        0.570687   -0.879813    1.088316
      3          9           0        0.570687   -0.879813   -1.088316
      4         17           0       -0.890989    0.932054    0.000000
      5          1           0        1.450337    0.545289   -0.000000
 ---------------------------------------------------------------------

 SCF Done:  E(RHF) =  -697.946404121     A.U. after    2 cycles

 The electronic state is 1-A'.
 Alpha  occ. eigenvalues --  -99.91589 -29.31983 -29.31940 -11.57307 -10.49069
 Alpha  occ. eigenvalues --   -9.68780  -9.68002  -9.67997  -1.42820  -1.21230
 Alpha  occ. eigenvalues --   -0.85615  -0.80292  -0.73322  -0.54123  -0.53480
 Alpha  occ. eigenvalues --   -0.47113  -0.41256  -0.36349  -0.31917  -0.31866
 Alpha  occ. eigenvalues --   -0.24717
 Alpha virt. eigenvalues --    0.04113   0.06693   0.08610   0.11779   0.12245
 Alpha virt. eigenvalues --    0.14901   0.14943   0.15655   0.20563   0.22208
 Alpha virt. eigenvalues --    0.23195   0.24243   0.28075   0.28239   0.28870

 Mulliken charges:
               1
     1  C   -2.627557
     2  F    0.694975
     3  F    0.694975
     4  Cl  -0.305670
     5  H    1.543278
 Sum of Mulliken charges =  -0.00000

 Dipole moment (field-independent basis, Debye):
    X=              2.1555    Y=             -3.3963    Z=             -0.0000  Tot=              4.0226

 Test job not archived.
 1\1\GINC-SE104\SP\RHF\Aug-CC-pVDZ\C1H1Cl1F2\OHZDE\06-Apr-2025\0\\#t hf
  aug-cc-pvdz iop(5/13=1,5/36=2,99/5=2) pseudo=read geom=check guess=(r
 ead,tcheck) scf=(maxcycle=1)\\title\\0,1\C,0,0.570687,-0.092261,0.\F,0
 ,0.570687,-0.879813,1.088316\F,0,0.570687,-0.879813,-1.088316\Cl,0,-0.
 890989,0.932054,0.\H,0,1.450337,0.545289,0.\\Version=ES64L-G16RevC.01\
 State=1-A'\HF=-697.9464041\RMSD=5.392e-02\Dipole=0.8480552,-1.3362211,
 0.\Quadrupole=-0.4045586,-0.2696395,0.6741981,-0.551288,0.,0.\PG=CS [S
 G(C1H1Cl1),X(F2)]\\@

 Normal termination of Gaussian 16 at Sun Apr  6 08:12:04 2025.
