 Gaussian 16, Revision C.01,

 ----------------------------------------------------------------------
 #t hf aug-cc-pvdz symm=none int=(grid=ultrafine) guess=(read,tcheck) s
 table=(opt,rrhf)
 ----------------------------------------------------------------------
 -----
 title
 -----
 Symbolic Z-matrix:
 Charge =  0 Multiplicity = 1

 SCF Done:  E(RHF) =  -795.727379525     A.U. after   11 cycles

 1\1\GINC-SE222\Stability\RHF\Aug-CC-pVDZ\C1Cl1F3\OHZDE\06-Apr-2025\0\\
 #t hf aug-cc-pvdz symm=none int=(grid=ultrafine) guess=(read,tcheck) s
 table=(opt,rrhf)\\title\\0,1\C,0,0.,0.,-0.355296\Cl,0,0.,0.,1.420171\F
 ,0,0.,1.248182,-0.815227\F,0,1.080957,-0.624091,-0.815227\F,0,-1.08095
 7,-0.624091,-0.815227\\Version=ES64L-G16RevC.01\HF=-795.7273795\RMSD=8
 .189e-09\Dipole=0.,-0.0000003,0.2017229\Quadrupole=-0.4829326,-0.48293
 4,0.9658666,0.,0.,0.0000004\PG=Unknown\\@
 The archive entry for this job was punched.

 Normal termination of Gaussian 16 at Sun Apr  6 08:11:55 2025.
 Gaussian 16:  ES64L-G16RevC.01  3-Jul-2019

 ----------------------------------------------------------------------
 #t hf aug-cc-pvdz iop(5/13=1,5/36=2,99/5=2) pseudo=read geom=check gue
 ss=(read,tcheck) scf=(maxcycle=1)
 ----------------------------------------------------------------------
 -----
 title
 -----
 Structure from the checkpoint file:  "chlorotrifluoromethane.chk"
 Charge =  0 Multiplicity = 1

                         Standard orientation:
 ---------------------------------------------------------------------
 Center     Atomic      Atomic             Coordinates (Angstroms)
 Number     Number       Type             X           Y           Z
 ---------------------------------------------------------------------
      1          6           0        0.355296    0.000000    0.000000
      2         17           0       -1.420171    0.000000    0.000000
      3          9           0        0.815227    1.248182    0.000000
      4          9           0        0.815227   -0.624091    1.080957
      5          9           0        0.815227   -0.624091   -1.080957
 ---------------------------------------------------------------------

 SCF Done:  E(RHF) =  -797.142050275     A.U. after    2 cycles

 The electronic state is 1-A'.
 Alpha  occ. eigenvalues --  -99.93606 -29.34388 -29.34388 -29.34319 -11.63836
 Alpha  occ. eigenvalues --  -10.51150  -9.70856  -9.69999  -9.69999  -1.50942
 Alpha  occ. eigenvalues --   -1.28241  -0.94086  -0.94086  -0.80434  -0.56755
 Alpha  occ. eigenvalues --   -0.56755  -0.50693  -0.46354  -0.46354  -0.38722
 Alpha  occ. eigenvalues --   -0.38722  -0.38521  -0.28364  -0.28364  -0.24157
 Alpha virt. eigenvalues --    0.05359   0.07520   0.12107   0.12107   0.14364
 Alpha virt. eigenvalues --    0.14525   0.14525   0.18242   0.21058   0.21865
 Alpha virt. eigenvalues --    0.21865   0.26150   0.26150   0.27575   0.28703

 Mulliken charges:
               1
     1  C   -1.929066
     2  Cl  -0.583107
     3  F    0.837391
     4  F    0.837391
     5  F    0.837391
 Sum of Mulliken charges =  -0.00000

 Dipole moment (field-independent basis, Debye):
    X=              4.2758    Y=             -0.0000    Z=             -0.0000  Tot=              4.2758

 Test job not archived.
 1\1\GINC-SE222\SP\RHF\Aug-CC-pVDZ\C1Cl1F3\OHZDE\06-Apr-2025\0\\#t hf a
 ug-cc-pvdz iop(5/13=1,5/36=2,99/5=2) pseudo=read geom=check guess=(rea
 d,tcheck) scf=(maxcycle=1)\\title\\0,1\C,0,0.,0.,-0.355296\Cl,0,0.,0.,
 1.420171\F,0,0.,1.248182,-0.815227\F,0,1.080957,-0.624091,-0.815227\F,
 0,-1.080957,-0.624091,-0.815227\\Version=ES64L-G16RevC.01\State=1-A'\H
 F=-797.1420503\RMSD=3.023e-02\Dipole=0.,-0.0000004,-1.6822189\Quadrupo
 le=0.3219126,0.3219143,-0.6438269,0.,0.,0.0000007\PG=CS [SG(C1Cl1F1),X
 (F2)]\\@

 Normal termination of Gaussian 16 at Sun Apr  6 08:12:05 2025.
