 Gaussian 16, Revision C.01,

 ----------------------------------------------------------------------
 #t hf aug-cc-pvdz symm=none int=(grid=ultrafine) guess=(read,tcheck) s
 table=(opt,rrhf)
 ----------------------------------------------------------------------
 -----
 title
 -----
 Symbolic Z-matrix:
 Charge =  0 Multiplicity = 1

 SCF Done:  E(RHF) =  -597.982639300     A.U. after   12 cycles
 Normal termination of Gaussian 16 at Sun Apr  6 08:11:54 2025.
 Gaussian 16:  ES64L-G16RevC.01  3-Jul-2019

 ----------------------------------------------------------------------
 #t hf aug-cc-pvdz iop(5/13=1,5/36=2,99/5=2) pseudo=read geom=check gue
 ss=(read,tcheck) scf=(maxcycle=1)
 ----------------------------------------------------------------------
 -----
 title
 -----
 Structure from the checkpoint file:  "chlorofluoromethane.chk"
 Charge =  0 Multiplicity = 1

                         Standard orientation:
 ---------------------------------------------------------------------
 Center     Atomic      Atomic             Coordinates (Angstroms)
 Number     Number       Type             X           Y           Z
 ---------------------------------------------------------------------
      1         17           0        0.682538   -0.843775    0.000000
      2          9           0       -1.364381    0.762010    0.000000
      3          6           0        0.000000    0.812042    0.000000
      4          1           0        0.338141    1.306914    0.905061
      5          1           0        0.338141    1.306914   -0.905061
 ---------------------------------------------------------------------

 SCF Done:  E(RHF) =  -598.756487831     A.U. after    2 cycles

 The electronic state is 1-A'.
 Alpha  occ. eigenvalues --  -99.89806 -29.29079 -11.50246 -10.47180  -9.66908
 Alpha  occ. eigenvalues --   -9.66194  -9.66192  -1.36676  -1.11815  -0.73820
 Alpha  occ. eigenvalues --   -0.71423  -0.65861  -0.50947  -0.50823  -0.40394
 Alpha  occ. eigenvalues --   -0.29857  -0.28187
 Alpha virt. eigenvalues --    0.03468   0.05590   0.07104   0.10061   0.12654
 Alpha virt. eigenvalues --    0.15014   0.15261   0.15522   0.16900   0.19299
 Alpha virt. eigenvalues --    0.22991   0.25218   0.25735   0.28254   0.29626

 Mulliken charges:
               1
     1  Cl  -0.109885
     2  F    0.555219
     3  C   -3.439042
     4  H    1.496854
     5  H    1.496854
 Sum of Mulliken charges =  -0.00000

 Dipole moment (field-independent basis, Debye):
    X=             -2.4859    Y=              2.2356    Z=             -0.0000  Tot=              3.3433

 Test job not archived.
 1\1\GINC-SE155\SP\RHF\Aug-CC-pVDZ\C1H2Cl1F1\OHZDE\06-Apr-2025\0\\#t hf
  aug-cc-pvdz iop(5/13=1,5/36=2,99/5=2) pseudo=read geom=check guess=(r
 ead,tcheck) scf=(maxcycle=1)\\title\\0,1\Cl,0,0.682538,-0.843775,0.\F,
 0,-1.364381,0.76201,0.\C,0,0.,0.812042,0.\H,0,0.338141,1.306914,0.9050
 61\H,0,0.338141,1.306914,-0.905061\\Version=ES64L-G16RevC.01\State=1-A
 '\HF=-598.7564878\RMSD=6.044e-02\Dipole=-0.9780477,0.8795553,0.\Quadru
 pole=0.1819119,0.4550214,-0.6369332,-0.6672925,0.,0.\PG=CS [SG(C1Cl1F1
 ),X(H2)]\\@

 Normal termination of Gaussian 16 at Sun Apr  6 08:11:57 2025.
