 Gaussian 16, Revision C.01,

 ----------------------------------------------------------------------
 #t hf aug-cc-pvdz symm=none int=(grid=ultrafine) guess=(read,tcheck) s
 table=(opt,rrhf)
 ----------------------------------------------------------------------
 -----
 title
 -----
 Symbolic Z-matrix:
 Charge =  0 Multiplicity = 1

 SCF Done:  E(RHF) =  -590.854739982     A.U. after   14 cycles
 Normal termination of Gaussian 16 at Sun Apr  6 08:11:55 2025.
 Gaussian 16:  ES64L-G16RevC.01  3-Jul-2019

 ----------------------------------------------------------------------
 #t hf aug-cc-pvdz iop(5/13=1,5/36=2,99/5=2) pseudo=read geom=check gue
 ss=(read,tcheck) scf=(maxcycle=1)
 ----------------------------------------------------------------------
 -----
 title
 -----
 Structure from the checkpoint file:  "chloroacetonitrile.chk"
 Charge =  0 Multiplicity = 1

                         Standard orientation:
 ---------------------------------------------------------------------
 Center     Atomic      Atomic             Coordinates (Angstroms)
 Number     Number       Type             X           Y           Z
 ---------------------------------------------------------------------
      1         17           0       -1.385401   -0.338103    0.000000
      2          7           0        2.297547   -0.400037    0.000000
      3          6           0        0.000000    0.819137    0.000000
      4          6           0        1.275830    0.126036    0.000000
      5          1           0       -0.092993    1.438487    0.887765
      6          1           0       -0.092993    1.438487   -0.887765
 ---------------------------------------------------------------------

 SCF Done:  E(RHF) =  -591.692848870     A.U. after    2 cycles

 The electronic state is 1-A'.
 Alpha  occ. eigenvalues --  -99.91729 -15.78330 -11.51302 -11.45018 -10.48958
 Alpha  occ. eigenvalues --   -9.68780  -9.68065  -9.68008  -1.38945  -1.30612
 Alpha  occ. eigenvalues --   -1.09563  -0.75356  -0.70127  -0.65583  -0.55631
 Alpha  occ. eigenvalues --   -0.52275  -0.51208  -0.46021  -0.45511
 Alpha virt. eigenvalues --    0.01461   0.05094   0.05516   0.08450   0.09370
 Alpha virt. eigenvalues --    0.12066   0.12536   0.12648   0.14104   0.14231
 Alpha virt. eigenvalues --    0.14508   0.16995   0.17238   0.19428   0.20214

 Mulliken charges:
               1
     1  Cl   0.205639
     2  N   -2.335541
     3  C   -3.728573
     4  C    2.665323
     5  H    1.596576
     6  H    1.596576
 Sum of Mulliken charges =  -0.00000

 Dipole moment (field-independent basis, Debye):
    X=             -1.3670    Y=              2.4932    Z=              0.0000  Tot=              2.8433

 Test job not archived.
 1\1\GINC-SE023\SP\RHF\Aug-CC-pVDZ\C2H2Cl1N1\OHZDE\06-Apr-2025\0\\#t hf
  aug-cc-pvdz iop(5/13=1,5/36=2,99/5=2) pseudo=read geom=check guess=(r
 ead,tcheck) scf=(maxcycle=1)\\title\\0,1\Cl,0,-1.385401,-0.338103,0.\N
 ,0,2.297547,-0.400037,0.\C,0,0.,0.819137,0.\C,0,1.27583,0.126036,0.\H,
 0,-0.092993,1.438487,0.887765\H,0,-0.092993,1.438487,-0.887765\\Versio
 n=ES64L-G16RevC.01\State=1-A'\HF=-591.6928489\RMSD=1.777e-01\Dipole=-0
 .537827,0.9808867,0.\Quadrupole=-4.3288173,2.852817,1.4760003,1.701819
 6,0.,0.\PG=CS [SG(C2Cl1N1),X(H2)]\\@

 Normal termination of Gaussian 16 at Sun Apr  6 08:12:05 2025.
