 Gaussian 16, Revision C.01,

 ----------------------------------------------------------------------
 #t hf aug-cc-pvdz symm=none int=(grid=ultrafine) guess=(read,tcheck) s
 table=(opt,rrhf)
 ----------------------------------------------------------------------
 -----
 title
 -----
 Symbolic Z-matrix:
 Charge =  0 Multiplicity = 1

 SCF Done:  E(RHF) =  -536.967907115     A.U. after   13 cycles

 1\1\GINC-SE150\Stability\RHF\Aug-CC-pVDZ\C2H3Cl1\OHZDE\06-Apr-2025\0\\
 #t hf aug-cc-pvdz symm=none int=(grid=ultrafine) guess=(read,tcheck) s
 table=(opt,rrhf)\\title\\0,1\C,0,1.289018,1.047846,0.\C,0,0.,0.763426,
 0.\Cl,0,-0.623753,-0.866823,0.\H,0,1.603767,2.08231,0.\H,0,2.051033,0.
 282196,0.\H,0,-0.785113,1.503855,0.\\Version=ES64L-G16RevC.01\HF=-536.
 9679071\RMSD=2.016e-09\Dipole=0.3023211,0.6222077,0.\Quadrupole=0.9887
 49,1.1488569,-2.1376059,-0.103935,0.,0.\PG=Unknown\\@
 The archive entry for this job was punched.

 Normal termination of Gaussian 16 at Sun Apr  6 08:11:54 2025.
 Gaussian 16:  ES64L-G16RevC.01  3-Jul-2019

 ----------------------------------------------------------------------
 #t hf aug-cc-pvdz iop(5/13=1,5/36=2,99/5=2) pseudo=read geom=check gue
 ss=(read,tcheck) scf=(maxcycle=1)
 ----------------------------------------------------------------------
 -----
 title
 -----
 Structure from the checkpoint file:  "chloroethene.chk"
 Charge =  0 Multiplicity = 1

                         Standard orientation:
 ---------------------------------------------------------------------
 Center     Atomic      Atomic             Coordinates (Angstroms)
 Number     Number       Type             X           Y           Z
 ---------------------------------------------------------------------
      1          6           0        1.289018    1.047846    0.000000
      2          6           0        0.000000    0.763426    0.000000
      3         17           0       -0.623753   -0.866823    0.000000
      4          1           0        1.603767    2.082310    0.000000
      5          1           0        2.051033    0.282196    0.000000
      6          1           0       -0.785113    1.503855    0.000000
 ---------------------------------------------------------------------

 SCF Done:  E(RHF) =  -537.594145644     A.U. after    2 cycles

 The electronic state is 1-A'.
 Alpha  occ. eigenvalues --  -99.89476 -11.45330 -11.39896 -10.46850  -9.66666
 Alpha  occ. eigenvalues --   -9.65883  -9.65792  -1.35269  -1.11738  -0.84541
 Alpha  occ. eigenvalues --   -0.68441  -0.61364  -0.55584  -0.53720  -0.49555
 Alpha  occ. eigenvalues --   -0.37335
 Alpha virt. eigenvalues --    0.03283   0.05412   0.06154   0.07616   0.09384
 Alpha virt. eigenvalues --    0.11289   0.12715   0.13699   0.15495   0.16326
 Alpha virt. eigenvalues --    0.16898   0.17664   0.18796   0.19710   0.20331

 Mulliken charges:
               1
     1  C   -1.728148
     2  C   -2.097234
     3  Cl  -0.352274
     4  H    1.386416
     5  H    1.435962
     6  H    1.355278
 Sum of Mulliken charges =  -0.00000

 Dipole moment (field-independent basis, Debye):
    X=              0.9768    Y=              1.7051    Z=              0.0000  Tot=              1.9651

 Test job not archived.
 1\1\GINC-SE150\SP\RHF\Aug-CC-pVDZ\C2H3Cl1\OHZDE\06-Apr-2025\0\\#t hf a
 ug-cc-pvdz iop(5/13=1,5/36=2,99/5=2) pseudo=read geom=check guess=(rea
 d,tcheck) scf=(maxcycle=1)\\title\\0,1\C,0,1.289018,1.047846,0.\C,0,0.
 ,0.763426,0.\Cl,0,-0.623753,-0.866823,0.\H,0,1.603767,2.08231,0.\H,0,2
 .051033,0.282196,0.\H,0,-0.785113,1.503855,0.\\Version=ES64L-G16RevC.0
 1\State=1-A'\HF=-537.5941456\RMSD=3.328e-01\Dipole=0.3843113,0.6708294
 ,0.\Quadrupole=0.9444681,1.5192706,-2.4637387,0.3576284,0.,0.\PG=CS [S
 G(C2H3Cl1)]\\@

 Normal termination of Gaussian 16 at Sun Apr  6 08:11:56 2025.
