 Gaussian 16, Revision C.01,

 ----------------------------------------------------------------------
 #t hf aug-cc-pvdz symm=none int=(grid=ultrafine) guess=(read,tcheck) s
 table=(opt,rrhf)
 ----------------------------------------------------------------------
 -----
 title
 -----
 Symbolic Z-matrix:
 Charge =  0 Multiplicity = 1

 SCF Done:  E(RHF) =  -741.759495884     A.U. after   15 cycles
 Normal termination of Gaussian 16 at Sun Apr  6 08:12:01 2025.
 Gaussian 16:  ES64L-G16RevC.01  3-Jul-2019

 ----------------------------------------------------------------------
 #t hf aug-cc-pvdz iop(5/13=1,5/36=2,99/5=2) pseudo=read geom=check gue
 ss=(read,tcheck) scf=(maxcycle=1)
 ----------------------------------------------------------------------
 -----
 title
 -----
 Structure from the checkpoint file:  "chloroaminoacetic_acid.chk"
 Charge =  0 Multiplicity = 1

                         Standard orientation:
 ---------------------------------------------------------------------
 Center     Atomic      Atomic             Coordinates (Angstroms)
 Number     Number       Type             X           Y           Z
 ---------------------------------------------------------------------
      1         17           0        2.428631   -0.064395    0.032886
      2          8           0       -1.730300    1.196583    0.115542
      3          8           0       -2.527186   -0.891563   -0.130112
      4          7           0        0.770338    0.388259   -0.379853
      5          6           0       -0.158958   -0.592845    0.181441
      6          6           0       -1.598551   -0.146064    0.017450
      7          1           0       -0.003971   -0.777676    1.252540
      8          1           0       -0.042747   -1.538938   -0.340394
      9          1           0        0.644604    1.280659    0.086477
     10          1           0       -2.672033    1.406156    0.024511
 ---------------------------------------------------------------------

 SCF Done:  E(RHF) =  -743.210755267     A.U. after    2 cycles

 The electronic state is 1-A.
 Alpha  occ. eigenvalues --  -99.91374 -21.14369 -21.07390 -15.80321 -11.54685
 Alpha  occ. eigenvalues --  -11.44139 -10.48490  -9.68393  -9.67525  -9.67403
 Alpha  occ. eigenvalues --   -1.84986  -1.67612  -1.46112  -1.22639  -1.03379
 Alpha  occ. eigenvalues --   -0.83814  -0.70875  -0.67603  -0.65583  -0.61120
 Alpha  occ. eigenvalues --   -0.57594  -0.56141  -0.53003  -0.51731  -0.46946
 Alpha  occ. eigenvalues --   -0.40324  -0.35655  -0.31596
 Alpha virt. eigenvalues --    0.03152   0.05100   0.05570   0.05870   0.06816
 Alpha virt. eigenvalues --    0.09949   0.10232   0.11483   0.12172   0.14248
 Alpha virt. eigenvalues --    0.14463   0.15339   0.16408   0.17426   0.17871

 Mulliken charges:
               1
     1  Cl   0.373139
     2  O   -2.902688
     3  O   -3.015108
     4  N   -1.856460
     5  C   -2.615506
     6  C    5.582128
     7  H    1.420422
     8  H    1.322779
     9  H    0.749669
    10  H    0.941625
 Sum of Mulliken charges =  -0.00000

 Dipole moment (field-independent basis, Debye):
    X=             -1.5421    Y=              1.4241    Z=              0.7803  Tot=              2.2394

 Test job not archived.
 1\1\GINC-SE038\SP\RHF\Aug-CC-pVDZ\C2H4Cl1N1O2\OHZDE\06-Apr-2025\0\\#t
 hf aug-cc-pvdz iop(5/13=1,5/36=2,99/5=2) pseudo=read geom=check guess=
 (read,tcheck) scf=(maxcycle=1)\\title\\0,1\Cl,0,2.428631,-0.064395,0.0
 32886\O,0,-1.7303,1.196583,0.115542\O,0,-2.527186,-0.891563,-0.130112\
 N,0,0.770338,0.388259,-0.379853\C,0,-0.158958,-0.592845,0.181441\C,0,-
 1.598551,-0.146064,0.01745\H,0,-0.003971,-0.777676,1.25254\H,0,-0.0427
 47,-1.538938,-0.340394\H,0,0.644604,1.280659,0.086477\H,0,-2.672033,1.
 406156,0.024511\\Version=ES64L-G16RevC.01\State=1-A\HF=-743.2107553\RM

 Normal termination of Gaussian 16 at Sun Apr  6 08:12:06 2025.
