 Gaussian 16, Revision C.01,

 ----------------------------------------------------------------------
 #t hf aug-cc-pvdz symm=none int=(grid=ultrafine) guess=(read,tcheck) s
 table=(opt,rrhf)
 ----------------------------------------------------------------------
 -----
 title
 -----
 Symbolic Z-matrix:
 Charge =  0 Multiplicity = 1

 SCF Done:  E(RHF) =  -689.650757456     A.U. after   14 cycles

 1\1\GINC-SE049\Stability\RHF\Aug-CC-pVDZ\C6H5Cl1\OHZDE\06-Apr-2025\0\\
 #t hf aug-cc-pvdz symm=none int=(grid=ultrafine) guess=(read,tcheck) s
 table=(opt,rrhf)\\title\\0,1\C,0,0.,0.,-2.265776\C,0,0.,1.202168,-1.56
 8121\C,0,0.,-1.202168,-1.568121\C,0,0.,1.209985,-0.178204\C,0,0.,-1.20
 9985,-0.178204\C,0,0.,0.,0.5018\Cl,0,0.,0.,2.255827\H,0,0.,0.,-3.34703
 6\H,0,0.,2.141915,-2.103741\H,0,0.,-2.141915,-2.103741\H,0,0.,2.139131
 ,0.372605\H,0,0.,-2.139131,0.372605\\Version=ES64L-G16RevC.01\HF=-689.
 6507575\RMSD=7.168e-09\Dipole=0.,0.,-0.8020912\Quadrupole=-4.0281069,3

 Normal termination of Gaussian 16 at Sun Apr  6 08:12:08 2025.
 Gaussian 16:  ES64L-G16RevC.01  3-Jul-2019

 ----------------------------------------------------------------------
 #t hf aug-cc-pvdz iop(5/13=1,5/36=2,99/5=2) pseudo=read geom=check gue
 ss=(read,tcheck) scf=(maxcycle=1)
 ----------------------------------------------------------------------
 -----
 title
 -----
 Structure from the checkpoint file:  "chlorobenzene.chk"
 Charge =  0 Multiplicity = 1

                         Standard orientation:
 ---------------------------------------------------------------------
 Center     Atomic      Atomic             Coordinates (Angstroms)
 Number     Number       Type             X           Y           Z
 ---------------------------------------------------------------------
      1          6           0        0.000000   -0.000000   -2.265776
      2          6           0        0.000000    1.202168   -1.568121
      3          6           0       -0.000000   -1.202168   -1.568121
      4          6           0        0.000000    1.209985   -0.178204
      5          6           0       -0.000000   -1.209985   -0.178204
      6          6           0        0.000000    0.000000    0.501800
      7         17           0        0.000000    0.000000    2.255827
      8          1           0        0.000000   -0.000000   -3.347036
      9          1           0        0.000000    2.141915   -2.103741
     10          1           0       -0.000000   -2.141915   -2.103741
     11          1           0        0.000000    2.139131    0.372605
     12          1           0       -0.000000   -2.139131    0.372605
 ---------------------------------------------------------------------

 SCF Done:  E(RHF) =  -691.004224680     A.U. after    2 cycles

 The electronic state is 1-A1.
 Alpha  occ. eigenvalues --  -99.89365 -11.52423 -11.45798 -11.44411 -11.42146
 Alpha  occ. eigenvalues --  -11.41709 -11.37767 -10.46725  -9.66752  -9.65854
 Alpha  occ. eigenvalues --   -9.65684  -1.40304  -1.28072  -1.10919  -1.08358
 Alpha  occ. eigenvalues --   -0.88439  -0.86493  -0.73260  -0.67273  -0.61052
 Alpha  occ. eigenvalues --   -0.60109  -0.59678  -0.57313  -0.50351  -0.49240
 Alpha  occ. eigenvalues --   -0.47533  -0.45694  -0.34445  -0.33772
 Alpha virt. eigenvalues --    0.03074   0.04911   0.05076   0.06093   0.06554
 Alpha virt. eigenvalues --    0.08504   0.09740   0.10735   0.11230   0.12558
 Alpha virt. eigenvalues --    0.12958   0.13847   0.13939   0.14063   0.14350

 Mulliken charges:
               1
     1  C   -2.523136
     2  C   -0.070920
     3  C   -0.070920
     4  C   -1.605787
     5  C   -1.605787
     6  C   -1.203476
     7  Cl  -0.826147
     8  H    1.514891
     9  H    1.496308
    10  H    1.496308
    11  H    1.699333
    12  H    1.699333
 Sum of Mulliken charges =   0.00000

 Dipole moment (field-independent basis, Debye):
    X=             -0.0000    Y=              0.0000    Z=             -2.4627  Tot=              2.4627

 Test job not archived.
 1\1\GINC-SE049\SP\RHF\Aug-CC-pVDZ\C6H5Cl1\OHZDE\06-Apr-2025\0\\#t hf a
 ug-cc-pvdz iop(5/13=1,5/36=2,99/5=2) pseudo=read geom=check guess=(rea
 d,tcheck) scf=(maxcycle=1)\\title\\0,1\C,0,0.,0.,-2.265776\C,0,0.,1.20
 2168,-1.568121\C,0,0.,-1.202168,-1.568121\C,0,0.,1.209985,-0.178204\C,
 0,0.,-1.209985,-0.178204\C,0,0.,0.,0.5018\Cl,0,0.,0.,2.255827\H,0,0.,0
 .,-3.347036\H,0,0.,2.141915,-2.103741\H,0,0.,-2.141915,-2.103741\H,0,0
 .,2.139131,0.372605\H,0,0.,-2.139131,0.372605\\Version=ES64L-G16RevC.0
 1\State=1-A1\HF=-691.0042247\RMSD=2.147e+00\Dipole=0.,0.,-0.9689149\Qu

 Normal termination of Gaussian 16 at Sun Apr  6 08:12:12 2025.
