 Gaussian 16, Revision C.01,

 ----------------------------------------------------------------------
 #t hf aug-cc-pvdz symm=none int=(grid=ultrafine) guess=(read,tcheck) s
 table=(opt,rrhf)
 ----------------------------------------------------------------------
 -----
 title
 -----
 Symbolic Z-matrix:
 Charge =  0 Multiplicity = 1

 SCF Done:  E(RHF) =  -499.122236900     A.U. after   11 cycles

 1\1\GINC-SE177\Stability\RHF\Aug-CC-pVDZ\C1H3Cl1\OHZDE\06-Apr-2025\0\\
 #t hf aug-cc-pvdz symm=none int=(grid=ultrafine) guess=(read,tcheck) s
 table=(opt,rrhf)\\title\\0,1\C,0,0.,0.,-1.138108\Cl,0,0.,0.,0.662444\H
 ,0,0.,1.030124,-1.477634\H,0,0.892114,-0.515062,-1.477634\H,0,-0.89211
 4,-0.515062,-1.477634\\Version=ES64L-G16RevC.01\HF=-499.1222369\RMSD=1
 .741e-09\Dipole=0.,0.0000001,-0.8800484\Quadrupole=-0.4863062,-0.48630
 76,0.9726138,0.,0.,-0.0000005\PG=Unknown\\@
 The archive entry for this job was punched.

 Normal termination of Gaussian 16 at Sun Apr  6 08:12:02 2025.
 Gaussian 16:  ES64L-G16RevC.01  3-Jul-2019

 ----------------------------------------------------------------------
 #t hf aug-cc-pvdz iop(5/13=1,5/36=2,99/5=2) pseudo=read geom=check gue
 ss=(read,tcheck) scf=(maxcycle=1)
 ----------------------------------------------------------------------
 -----
 title
 -----
 Structure from the checkpoint file:  "chloromethane.chk"
 Charge =  0 Multiplicity = 1

                         Standard orientation:
 ---------------------------------------------------------------------
 Center     Atomic      Atomic             Coordinates (Angstroms)
 Number     Number       Type             X           Y           Z
 ---------------------------------------------------------------------
      1          6           0        0.000000   -1.138108    0.000000
      2         17           0        0.000000    0.662444    0.000000
      3          1           0        1.030124   -1.477634    0.000000
      4          1           0       -0.515062   -1.477634    0.892114
      5          1           0       -0.515062   -1.477634   -0.892114
 ---------------------------------------------------------------------

 SCF Done:  E(RHF) =  -499.577897273     A.U. after    2 cycles

 The electronic state is 1-A'.
 Alpha  occ. eigenvalues --  -99.87889 -11.42924 -10.45134  -9.64888  -9.64230
 Alpha  occ. eigenvalues --   -9.64230  -1.32068  -1.01085  -0.63219  -0.63219
 Alpha  occ. eigenvalues --   -0.58620  -0.47595  -0.47595
 Alpha virt. eigenvalues --    0.02210   0.06252   0.06252   0.07147   0.11267
 Alpha virt. eigenvalues --    0.15099   0.15677   0.15677   0.16501   0.16501
 Alpha virt. eigenvalues --    0.20175   0.25933   0.25933   0.26976   0.30086

 Mulliken charges:
               1
     1  C   -4.156856
     2  Cl  -0.014861
     3  H    1.390572
     4  H    1.390572
     5  H    1.390572
 Sum of Mulliken charges =   0.00000

 Dipole moment (field-independent basis, Debye):
    X=              0.0000    Y=             -2.2062    Z=             -0.0000  Tot=              2.2062

 Test job not archived.
 1\1\GINC-SE177\SP\RHF\Aug-CC-pVDZ\C1H3Cl1\OHZDE\06-Apr-2025\0\\#t hf a
 ug-cc-pvdz iop(5/13=1,5/36=2,99/5=2) pseudo=read geom=check guess=(rea
 d,tcheck) scf=(maxcycle=1)\\title\\0,1\C,0,0.,0.,-1.138108\Cl,0,0.,0.,
 0.662444\H,0,0.,1.030124,-1.477634\H,0,0.892114,-0.515062,-1.477634\H,
 0,-0.892114,-0.515062,-1.477634\\Version=ES64L-G16RevC.01\State=1-A'\H
 F=-499.5778973\RMSD=6.037e-02\Dipole=0.,0.0000001,-0.8679914\Quadrupol
 e=-0.7404966,-0.7404979,1.4809945,0.,0.,-0.0000006\PG=CS [SG(C1H1Cl1),
 X(H2)]\\@

 Normal termination of Gaussian 16 at Sun Apr  6 08:12:04 2025.
