 Gaussian 16, Revision C.01,

 ----------------------------------------------------------------------
 #t hf aug-cc-pvdz symm=none int=(grid=ultrafine) guess=(read,tcheck) s
 table=(opt,rrhf)
 ----------------------------------------------------------------------
 -----
 title
 -----
 Symbolic Z-matrix:
 Charge =  0 Multiplicity = 1

 SCF Done:  E(RHF) =  -420.367962602     A.U. after   16 cycles
 Normal termination of Gaussian 16 at Sun Apr  6 08:13:30 2025.
 Gaussian 16:  ES64L-G16RevC.01  3-Jul-2019

 ----------------------------------------------------------------------
 #t hf aug-cc-pvdz iop(5/13=1,5/36=2,99/5=2) pseudo=read geom=check gue
 ss=(read,tcheck) scf=(maxcycle=1)
 ----------------------------------------------------------------------
 -----
 title
 -----
 Structure from the checkpoint file:  "cinnamaldehyde.chk"
 Charge =  0 Multiplicity = 1

                         Standard orientation:
 ---------------------------------------------------------------------
 Center     Atomic      Atomic             Coordinates (Angstroms)
 Number     Number       Type             X           Y           Z
 ---------------------------------------------------------------------
      1          6           0       -1.730590   -2.882390    0.000000
      2          8           0       -1.562058   -4.083390    0.000000
      3          6           0       -0.655985   -1.894403    0.000000
      4          6           0       -0.933573   -0.580286    0.000000
      5          6           0        0.000000    0.539524    0.000000
      6          6           0       -0.511516    1.844139    0.000000
      7          6           0        0.333448    2.945067    0.000000
      8          6           0        1.710603    2.761404    0.000000
      9          6           0        2.236083    1.470696    0.000000
     10          6           0        1.393141    0.372360    0.000000
     11          1           0       -2.755406   -2.457004    0.000000
     12          1           0        0.353546   -2.285206    0.000000
     13          1           0       -1.983825   -0.299778    0.000000
     14          1           0       -1.584212    1.989985    0.000000
     15          1           0       -0.081742    3.943603    0.000000
     16          1           0        2.373203    3.616136    0.000000
     17          1           0        3.307662    1.324322    0.000000
     18          1           0        1.817575   -0.621621    0.000000
 ---------------------------------------------------------------------

 SCF Done:  E(RHF) =  -422.316265496     A.U. after    2 cycles

 The electronic state is 1-A'.
 Alpha  occ. eigenvalues --  -21.05253 -11.53367 -11.48542 -11.47728 -11.45083
 Alpha  occ. eigenvalues --  -11.44341 -11.43728 -11.42389 -11.41648 -11.38301
 Alpha  occ. eigenvalues --   -1.69783  -1.37771  -1.21621  -1.11133  -1.09659
 Alpha  occ. eigenvalues --   -0.94258  -0.88425  -0.84127  -0.80343  -0.72850
 Alpha  occ. eigenvalues --   -0.67012  -0.65029  -0.60490  -0.59670  -0.57096
 Alpha  occ. eigenvalues --   -0.53382  -0.52859  -0.50751  -0.48526  -0.45815
 Alpha  occ. eigenvalues --   -0.45448  -0.39764  -0.34712  -0.29974  -0.29056
 Alpha virt. eigenvalues --    0.02842   0.04542   0.04741   0.05497   0.06070
 Alpha virt. eigenvalues --    0.06638   0.06998   0.08186   0.08775   0.09351
 Alpha virt. eigenvalues --    0.09372   0.10992   0.11405   0.12513   0.12704

 Mulliken charges:
               1
     1  C   -1.240485
     2  O   -3.038806
     3  C   -1.461690
     4  C    1.994271
     5  C    5.419515
     6  C   -3.701497
     7  C   -2.414888
     8  C   -3.288929
     9  C   -3.825615
    10  C   -0.545564
    11  H    1.153103
    12  H    1.371495
    13  H    1.704929
    14  H    1.621403
    15  H    1.451869
    16  H    1.483230
    17  H    1.438962
    18  H    1.878697
 Sum of Mulliken charges =   0.00000

 Dipole moment (field-independent basis, Debye):
    X=              0.9348    Y=              2.8848    Z=              0.0000  Tot=              3.0325

 Test job not archived.
 1\1\GINC-SE223\SP\RHF\Aug-CC-pVDZ\C9H8O1\OHZDE\06-Apr-2025\0\\#t hf au
 g-cc-pvdz iop(5/13=1,5/36=2,99/5=2) pseudo=read geom=check guess=(read
 ,tcheck) scf=(maxcycle=1)\\title\\0,1\C,0,-1.73059,-2.88239,0.\O,0,-1.
 562058,-4.08339,0.\C,0,-0.655985,-1.894403,0.\C,0,-0.933573,-0.580286,
 0.\C,0,0.,0.539524,0.\C,0,-0.511516,1.844139,0.\C,0,0.333448,2.945067,
 0.\C,0,1.710603,2.761404,0.\C,0,2.236083,1.470696,0.\C,0,1.393141,0.37
 236,0.\H,0,-2.755406,-2.457004,0.\H,0,0.353546,-2.285206,0.\H,0,-1.983
 825,-0.299778,0.\H,0,-1.584212,1.989985,0.\H,0,-0.081742,3.943603,0.\H

 Normal termination of Gaussian 16 at Sun Apr  6 08:13:39 2025.
