 Gaussian 16, Revision C.01,

 ----------------------------------------------------------------------
 #t hf aug-cc-pvdz symm=none int=(grid=ultrafine) guess=(read,tcheck) s
 table=(opt,rrhf)
 ----------------------------------------------------------------------
 -----
 title
 -----
 Symbolic Z-matrix:
 Charge =  0 Multiplicity = 1

 SCF Done:  E(RHF) =  -234.196332471     A.U. after   11 cycles
 Normal termination of Gaussian 16 at Sun Apr  6 08:12:27 2025.
 Gaussian 16:  ES64L-G16RevC.01  3-Jul-2019

 ----------------------------------------------------------------------
 #t hf aug-cc-pvdz iop(5/13=1,5/36=2,99/5=2) pseudo=read geom=check gue
 ss=(read,tcheck) scf=(maxcycle=1)
 ----------------------------------------------------------------------
 -----
 title
 -----
 Structure from the checkpoint file:  "cis-1-3-dimethylcyclobutane.chk"
 Charge =  0 Multiplicity = 1

                         Standard orientation:
 ---------------------------------------------------------------------
 Center     Atomic      Atomic             Coordinates (Angstroms)
 Number     Number       Type             X           Y           Z
 ---------------------------------------------------------------------
      1          6           0       -1.077960    0.000000   -0.148679
      2          6           0        1.077960   -0.000000   -0.148679
      3          6           0        0.000000    1.086408   -0.403813
      4          6           0       -0.000000   -1.086408   -0.403813
      5          6           0        0.000000    2.344796    0.443912
      6          6           0       -0.000000   -2.344796    0.443912
      7          1           0       -1.394186    0.000000    0.897568
      8          1           0       -1.966460    0.000000   -0.780419
      9          1           0        1.394186   -0.000000    0.897568
     10          1           0        1.966460   -0.000000   -0.780419
     11          1           0        0.000000    1.356060   -1.462683
     12          1           0       -0.000000   -1.356060   -1.462683
     13          1           0        0.000000    2.098731    1.508187
     14          1           0       -0.000000   -2.098731    1.508187
     15          1           0        0.881667    2.958111    0.244413
     16          1           0       -0.881667    2.958111    0.244413
     17          1           0       -0.881667   -2.958111    0.244413
     18          1           0        0.881667   -2.958111    0.244413
 ---------------------------------------------------------------------

 SCF Done:  E(RHF) =  -235.419510148     A.U. after    2 cycles

 The electronic state is 1-A1.
 Alpha  occ. eigenvalues --  -11.49373 -11.39598 -11.39000 -11.37586 -11.36173
 Alpha  occ. eigenvalues --  -11.32806  -1.34197  -1.09977  -1.01277  -0.94853
 Alpha  occ. eigenvalues --   -0.83502  -0.77133  -0.66648  -0.58597  -0.57844
 Alpha  occ. eigenvalues --   -0.57758  -0.54880  -0.53136  -0.52166  -0.46982
 Alpha  occ. eigenvalues --   -0.42760  -0.41704  -0.38599  -0.36806
 Alpha virt. eigenvalues --    0.04227   0.05052   0.05488   0.05603   0.05823
 Alpha virt. eigenvalues --    0.05879   0.06034   0.06681   0.06709   0.08300
 Alpha virt. eigenvalues --    0.08750   0.09646   0.11666   0.12693   0.14036

 Mulliken charges:
               1
     1  C   -3.163623
     2  C   -3.163623
     3  C   -0.069716
     4  C   -0.069716
     5  C   -4.510721
     6  C   -4.510721
     7  H    1.592042
     8  H    1.193543
     9  H    1.592042
    10  H    1.193543
    11  H    1.334410
    12  H    1.334410
    13  H    1.219340
    14  H    1.219340
    15  H    1.202362
    16  H    1.202362
    17  H    1.202362
    18  H    1.202362
 Sum of Mulliken charges =   0.00000

 Dipole moment (field-independent basis, Debye):
    X=              0.0000    Y=             -0.0000    Z=             -0.2884  Tot=              0.2884

 Test job not archived.
 1\1\GINC-SE047\SP\RHF\Aug-CC-pVDZ\C6H12\OHZDE\06-Apr-2025\0\\#t hf aug
 -cc-pvdz iop(5/13=1,5/36=2,99/5=2) pseudo=read geom=check guess=(read,
 tcheck) scf=(maxcycle=1)\\title\\0,1\C,0,-1.07796,0.,-0.148679\C,0,1.0
 7796,0.,-0.148679\C,0,0.,1.086408,-0.403813\C,0,0.,-1.086408,-0.403813
 \C,0,0.,2.344796,0.443912\C,0,0.,-2.344796,0.443912\H,0,-1.394186,0.,0
 .897568\H,0,-1.96646,0.,-0.780419\H,0,1.394186,0.,0.897568\H,0,1.96646
 ,0.,-0.780419\H,0,0.,1.35606,-1.462683\H,0,0.,-1.35606,-1.462683\H,0,0
 .,2.098731,1.508187\H,0,0.,-2.098731,1.508187\H,0,0.881667,2.958111,0.

 Normal termination of Gaussian 16 at Sun Apr  6 08:12:32 2025.
