 Gaussian 16, Revision C.01,

 ----------------------------------------------------------------------
 #t hf aug-cc-pvdz symm=none int=(grid=ultrafine) guess=(read,tcheck) s
 table=(opt,rrhf)
 ----------------------------------------------------------------------
 -----
 title
 -----
 Symbolic Z-matrix:
 Charge =  0 Multiplicity = 1

 SCF Done:  E(RHF) =  -350.135596504     A.U. after   12 cycles
 Normal termination of Gaussian 16 at Sun Apr  6 08:14:10 2025.
 Gaussian 16:  ES64L-G16RevC.01  3-Jul-2019

 ----------------------------------------------------------------------
 #t hf aug-cc-pvdz iop(5/13=1,5/36=2,99/5=2) pseudo=read geom=check gue
 ss=(read,tcheck) scf=(maxcycle=1)
 ----------------------------------------------------------------------
 -----
 title
 -----
 Structure from the checkpoint file:  "cis-bicyclo-6-1-0-nonane.chk"
 Charge =  0 Multiplicity = 1

                         Standard orientation:
 ---------------------------------------------------------------------
 Center     Atomic      Atomic             Coordinates (Angstroms)
 Number     Number       Type             X           Y           Z
 ---------------------------------------------------------------------
      1          6           0        1.927322    0.636513   -0.258294
      2          6           0        1.743892   -0.637759    0.593827
      3          6           0        0.967529    1.802826    0.029936
      4          6           0        1.010427   -1.805008   -0.082822
      5          6           0       -0.389151   -1.492307   -0.630603
      6          6           0       -2.508959   -0.040026   -0.047710
      7          6           0       -1.316135    0.696622    0.507138
      8          6           0       -1.283474   -0.807165    0.375253
      9          6           0       -0.501762    1.619138   -0.377467
     10          1           0        1.877073    0.382557   -1.322304
     11          1           0        2.940001    1.013596   -0.097779
     12          1           0        1.232847   -0.376497    1.523302
     13          1           0        2.727826   -1.006927    0.892208
     14          1           0        1.350022    2.683406   -0.493672
     15          1           0        1.017205    2.045069    1.097068
     16          1           0        0.931656   -2.621757    0.641307
     17          1           0        1.627908   -2.187488   -0.901162
     18          1           0       -0.854124   -2.427139   -0.957440
     19          1           0       -2.696494    0.053458   -1.110254
     20          1           0       -1.427595    1.064908    1.521416
     21          1           0       -0.986303    2.600318   -0.368695
     22          1           0       -0.546416    1.282133   -1.416116
     23          1           0       -3.404364   -0.117946    0.553456
     24          1           0       -0.305848   -0.875995   -1.527448
     25          1           0       -1.381530   -1.348693    1.310563
 ---------------------------------------------------------------------

 SCF Done:  E(RHF) =  -351.940928730     A.U. after    2 cycles

 The electronic state is 1-A.
 Alpha  occ. eigenvalues --  -11.44764 -11.44139 -11.43464 -11.41982 -11.40315
 Alpha  occ. eigenvalues --  -11.38358 -11.36520 -11.35176 -11.33646  -1.34801
 Alpha  occ. eigenvalues --   -1.21876  -1.16897  -1.03008  -0.97062  -0.86663
 Alpha  occ. eigenvalues --   -0.82696  -0.81646  -0.75386  -0.67977  -0.63551
 Alpha  occ. eigenvalues --   -0.62638  -0.59187  -0.58162  -0.56264  -0.54127
 Alpha  occ. eigenvalues --   -0.51420  -0.49102  -0.47182  -0.45429  -0.45215
 Alpha  occ. eigenvalues --   -0.42609  -0.41763  -0.40285  -0.35184  -0.34474
 Alpha virt. eigenvalues --    0.04576   0.04837   0.04997   0.05079   0.05198
 Alpha virt. eigenvalues --    0.05377   0.05938   0.06160   0.06992   0.07745
 Alpha virt. eigenvalues --    0.07969   0.08057   0.08461   0.08538   0.09038

 Mulliken charges:
               1
     1  C   -2.989433
     2  C   -3.304057
     3  C   -2.980510
     4  C   -2.719763
     5  C   -3.948737
     6  C   -4.095159
     7  C    1.325021
     8  C    0.773205
     9  C   -4.297544
    10  H    1.598990
    11  H    1.290858
    12  H    1.844634
    13  H    1.218106
    14  H    1.248033
    15  H    1.504024
    16  H    1.316521
    17  H    1.272949
    18  H    1.204308
    19  H    1.430825
    20  H    1.297944
    21  H    1.220827
    22  H    1.609714
    23  H    1.170917
    24  H    1.612212
    25  H    1.396118
 Sum of Mulliken charges =   0.00000

 Dipole moment (field-independent basis, Debye):
    X=              0.0792    Y=              0.0404    Z=              0.0692  Tot=              0.1127

 Test job not archived.
 1\1\GINC-SE106\SP\RHF\Aug-CC-pVDZ\C9H16\OHZDE\06-Apr-2025\0\\#t hf aug
 -cc-pvdz iop(5/13=1,5/36=2,99/5=2) pseudo=read geom=check guess=(read,
 tcheck) scf=(maxcycle=1)\\title\\0,1\C,0,1.927322,0.636513,-0.258294\C
 ,0,1.743892,-0.637759,0.593827\C,0,0.967529,1.802826,0.029936\C,0,1.01
 0427,-1.805008,-0.082822\C,0,-0.389151,-1.492307,-0.630603\C,0,-2.5089
 59,-0.040026,-0.04771\C,0,-1.316135,0.696622,0.507138\C,0,-1.283474,-0
 .807165,0.375253\C,0,-0.501762,1.619138,-0.377467\H,0,1.877073,0.38255
 7,-1.322304\H,0,2.940001,1.013596,-0.097779\H,0,1.232847,-0.376497,1.5

 Normal termination of Gaussian 16 at Sun Apr  6 08:14:54 2025.
