 Gaussian 16, Revision C.01,

 ----------------------------------------------------------------------
 #t hf aug-cc-pvdz symm=none int=(grid=ultrafine) guess=(read,tcheck) s
 table=(opt,rrhf)
 ----------------------------------------------------------------------
 -----
 title
 -----
 Symbolic Z-matrix:
 Charge =  0 Multiplicity = 1

 SCF Done:  E(RHF) =  -231.794280115     A.U. after   12 cycles
 Normal termination of Gaussian 16 at Sun Apr  6 08:12:11 2025.
 Gaussian 16:  ES64L-G16RevC.01  3-Jul-2019

 ----------------------------------------------------------------------
 #t hf aug-cc-pvdz iop(5/13=1,5/36=2,99/5=2) pseudo=read geom=check gue
 ss=(read,tcheck) scf=(maxcycle=1)
 ----------------------------------------------------------------------
 -----
 title
 -----
 Structure from the checkpoint file:  "cis-2-3-4-hexatriene.chk"
 Charge =  0 Multiplicity = 1

                         Standard orientation:
 ---------------------------------------------------------------------
 Center     Atomic      Atomic             Coordinates (Angstroms)
 Number     Number       Type             X           Y           Z
 ---------------------------------------------------------------------
      1          1           0        0.000000    2.213829    1.634446
      2          1           0        0.877402    3.463699    0.738497
      3          1           0       -0.877402    3.463699    0.738497
      4          1           0       -0.000000   -2.213829    1.634446
      5          1           0        0.877402   -3.463699    0.738497
      6          1           0       -0.877402   -3.463699    0.738497
      7          6           0        0.000000    2.811524    0.725249
      8          6           0       -0.000000   -2.811524    0.725249
      9          1           0        0.000000    2.459711   -1.459498
     10          1           0       -0.000000   -2.459711   -1.459498
     11          6           0        0.000000   -0.631593   -0.499294
     12          6           0        0.000000    0.631593   -0.499294
     13          6           0        0.000000    1.946711   -0.501278
     14          6           0       -0.000000   -1.946711   -0.501278
 ---------------------------------------------------------------------

 SCF Done:  E(RHF) =  -232.944745047     A.U. after    2 cycles

 The electronic state is 1-A1.
 Alpha  occ. eigenvalues --  -11.44269 -11.43278 -11.42099 -11.40525 -11.39059
 Alpha  occ. eigenvalues --  -11.37653  -1.24370  -1.16751  -1.03851  -0.94257
 Alpha  occ. eigenvalues --   -0.84705  -0.68017  -0.64308  -0.57177  -0.56656
 Alpha  occ. eigenvalues --   -0.55521  -0.55076  -0.51543  -0.51021  -0.44120
 Alpha  occ. eigenvalues --   -0.33851  -0.28494
 Alpha virt. eigenvalues --    0.03266   0.04742   0.05591   0.05954   0.06097
 Alpha virt. eigenvalues --    0.06706   0.07097   0.08733   0.09458   0.10175
 Alpha virt. eigenvalues --    0.11597   0.12020   0.13041   0.13500   0.13886

 Mulliken charges:
               1
     1  H    1.175305
     2  H    1.124322
     3  H    1.124322
     4  H    1.175305
     5  H    1.124322
     6  H    1.124322
     7  C   -4.724674
     8  C   -4.724674
     9  H    1.084015
    10  H    1.084015
    11  C    3.238430
    12  C    3.238430
    13  C   -3.021719
    14  C   -3.021719
 Sum of Mulliken charges =  -0.00000

 Dipole moment (field-independent basis, Debye):
    X=              0.0000    Y=              0.0000    Z=              0.2785  Tot=              0.2785

 Test job not archived.
 1\1\GINC-SE047\SP\RHF\Aug-CC-pVDZ\C6H8\OHZDE\06-Apr-2025\0\\#t hf aug-
 cc-pvdz iop(5/13=1,5/36=2,99/5=2) pseudo=read geom=check guess=(read,t
 check) scf=(maxcycle=1)\\title\\0,1\H,0,0.,2.213829,1.634446\H,0,0.877
 402,3.463699,0.738497\H,0,-0.877402,3.463699,0.738497\H,0,0.,-2.213829
 ,1.634446\H,0,0.877402,-3.463699,0.738497\H,0,-0.877402,-3.463699,0.73
 8497\C,0,0.,2.811524,0.725249\C,0,0.,-2.811524,0.725249\H,0,0.,2.45971
 1,-1.459498\H,0,0.,-2.459711,-1.459498\C,0,0.,-0.631593,-0.499294\C,0,
 0.,0.631593,-0.499294\C,0,0.,1.946711,-0.501278\C,0,0.,-1.946711,-0.50

 Normal termination of Gaussian 16 at Sun Apr  6 08:12:14 2025.
