 Gaussian 16, Revision C.01,

 ----------------------------------------------------------------------
 #t hf aug-cc-pvdz symm=none int=(grid=ultrafine) guess=(read,tcheck) s
 table=(opt,rrhf)
 ----------------------------------------------------------------------
 -----
 title
 -----
 Symbolic Z-matrix:
 Charge =  0 Multiplicity = 1

 SCF Done:  E(RHF) =  -234.192901591     A.U. after   11 cycles
 Normal termination of Gaussian 16 at Sun Apr  6 08:12:27 2025.
 Gaussian 16:  ES64L-G16RevC.01  3-Jul-2019

 ----------------------------------------------------------------------
 #t hf aug-cc-pvdz iop(5/13=1,5/36=2,99/5=2) pseudo=read geom=check gue
 ss=(read,tcheck) scf=(maxcycle=1)
 ----------------------------------------------------------------------
 -----
 title
 -----
 Structure from the checkpoint file:  "cis-1-2-dimethylcyclobutane.chk"
 Charge =  0 Multiplicity = 1

                         Standard orientation:
 ---------------------------------------------------------------------
 Center     Atomic      Atomic             Coordinates (Angstroms)
 Number     Number       Type             X           Y           Z
 ---------------------------------------------------------------------
      1          6           0        0.636065    0.415283    0.571630
      2          6           0       -0.713037   -0.368475    0.430685
      3          6           0        1.364965   -0.856683    0.052791
      4          6           0        0.013200   -1.382989   -0.489869
      5          6           0        0.802735    1.630562   -0.331113
      6          6           0       -1.968744    0.323549   -0.068200
      7          1           0        0.880376    0.697694    1.597241
      8          1           0       -0.928293   -0.850203    1.387512
      9          1           0        2.167047   -0.700311   -0.668994
     10          1           0       -0.125626   -1.141655   -1.544800
     11          1           0        1.747856   -1.473016    0.866030
     12          1           0       -0.212001   -2.439705   -0.348512
     13          1           0        0.603423    1.391862   -1.377604
     14          1           0       -1.805638    0.816530   -1.027783
     15          1           0        0.132470    2.442392   -0.042514
     16          1           0        1.825302    2.008700   -0.271645
     17          1           0       -2.318826    1.078652    0.639323
     18          1           0       -2.777199   -0.398427   -0.203797
 ---------------------------------------------------------------------

 SCF Done:  E(RHF) =  -235.417217473     A.U. after    2 cycles

 The electronic state is 1-A.
 Alpha  occ. eigenvalues --  -11.49245 -11.39710 -11.39055 -11.37080 -11.36636
 Alpha  occ. eigenvalues --  -11.32853  -1.34012  -1.07827  -1.05133  -0.89565
 Alpha  occ. eigenvalues --   -0.88535  -0.74360  -0.67551  -0.60786  -0.58921
 Alpha  occ. eigenvalues --   -0.56586  -0.53791  -0.52923  -0.50447  -0.49139
 Alpha  occ. eigenvalues --   -0.42522  -0.41302  -0.37667  -0.37177
 Alpha virt. eigenvalues --    0.04178   0.05259   0.05491   0.05636   0.05693
 Alpha virt. eigenvalues --    0.05890   0.06046   0.06262   0.06674   0.08783
 Alpha virt. eigenvalues --    0.09203   0.09342   0.12461   0.13290   0.13603

 Mulliken charges:
               1
     1  C   -1.190904
     2  C   -0.071066
     3  C   -3.081696
     4  C   -2.973550
     5  C   -4.067571
     6  C   -4.233391
     7  H    1.503957
     8  H    1.292767
     9  H    1.377890
    10  H    1.495356
    11  H    1.308056
    12  H    1.204865
    13  H    1.405503
    14  H    1.300085
    15  H    1.293450
    16  H    1.122744
    17  H    1.208997
    18  H    1.104509
 Sum of Mulliken charges =   0.00000

 Dipole moment (field-independent basis, Debye):
    X=             -0.0139    Y=              0.0014    Z=              0.2162  Tot=              0.2167

 Test job not archived.
 1\1\GINC-SE046\SP\RHF\Aug-CC-pVDZ\C6H12\OHZDE\06-Apr-2025\0\\#t hf aug
 -cc-pvdz iop(5/13=1,5/36=2,99/5=2) pseudo=read geom=check guess=(read,
 tcheck) scf=(maxcycle=1)\\title\\0,1\C,0,0.636065,0.415283,0.57163\C,0
 ,-0.713037,-0.368475,0.430685\C,0,1.364965,-0.856683,0.052791\C,0,0.01
 32,-1.382989,-0.489869\C,0,0.802735,1.630562,-0.331113\C,0,-1.968744,0
 .323549,-0.0682\H,0,0.880376,0.697694,1.597241\H,0,-0.928293,-0.850203
 ,1.387512\H,0,2.167047,-0.700311,-0.668994\H,0,-0.125626,-1.141655,-1.
 5448\H,0,1.747856,-1.473016,0.86603\H,0,-0.212001,-2.439705,-0.348512\

 Normal termination of Gaussian 16 at Sun Apr  6 08:12:33 2025.
