 Gaussian 16, Revision C.01,

 ----------------------------------------------------------------------
 #t hf aug-cc-pvdz symm=none int=(grid=ultrafine) guess=(read,tcheck) s
 table=(opt,rrhf)
 ----------------------------------------------------------------------
 -----
 title
 -----
 Symbolic Z-matrix:
 Charge =  0 Multiplicity = 1

 SCF Done:  E(RHF) =  -304.742669837     A.U. after   14 cycles
 Normal termination of Gaussian 16 at Sun Apr  6 08:12:06 2025.
 Gaussian 16:  ES64L-G16RevC.01  3-Jul-2019

 ----------------------------------------------------------------------
 #t hf aug-cc-pvdz iop(5/13=1,5/36=2,99/5=2) pseudo=read geom=check gue
 ss=(read,tcheck) scf=(maxcycle=1)
 ----------------------------------------------------------------------
 -----
 title
 -----
 Structure from the checkpoint file:  "crotonoic_acid.chk"
 Charge =  0 Multiplicity = 1

                         Standard orientation:
 ---------------------------------------------------------------------
 Center     Atomic      Atomic             Coordinates (Angstroms)
 Number     Number       Type             X           Y           Z
 ---------------------------------------------------------------------
      1          6           0       -2.749597   -0.147991    0.000003
      2          6           0       -1.333822    0.314316    0.000006
      3          6           0       -0.264018   -0.479484   -0.000015
      4          6           0        1.099386    0.081029   -0.000004
      5          8           0        1.398388    1.251758   -0.000006
      6          8           0        2.037208   -0.903645    0.000010
      7          1           0       -2.827857   -1.234217   -0.000022
      8          1           0       -3.278292    0.239886    0.874582
      9          1           0       -3.278303    0.239927   -0.874551
     10          1           0       -1.161440    1.385990    0.000028
     11          1           0       -0.351243   -1.557948   -0.000032
     12          1           0        2.900674   -0.465762    0.000017
 ---------------------------------------------------------------------

 SCF Done:  E(RHF) =  -306.089542487     A.U. after    2 cycles

 The electronic state is 1-A.
 Alpha  occ. eigenvalues --  -21.11718 -21.04352 -11.52746 -11.45635 -11.41236
 Alpha  occ. eigenvalues --  -11.38634  -1.82096  -1.64486  -1.23193  -1.05163
 Alpha  occ. eigenvalues --   -0.87544  -0.75970  -0.65954  -0.62218  -0.58693
 Alpha  occ. eigenvalues --   -0.57890  -0.55285  -0.52073  -0.50796  -0.45109
 Alpha  occ. eigenvalues --   -0.36742  -0.32437  -0.29484
 Alpha virt. eigenvalues --    0.03178   0.05392   0.05585   0.06063   0.06494
 Alpha virt. eigenvalues --    0.07752   0.09062   0.10602   0.11590   0.13085
 Alpha virt. eigenvalues --    0.13117   0.13491   0.14409   0.15462   0.16403

 Mulliken charges:
               1
     1  C   -4.354668
     2  C    1.024016
     3  C   -2.942636
     4  C    5.399544
     5  O   -3.379968
     6  O   -3.329290
     7  H    1.239423
     8  H    1.107302
     9  H    1.107300
    10  H    1.560645
    11  H    1.488824
    12  H    1.079508
 Sum of Mulliken charges =  -0.00000

 Dipole moment (field-independent basis, Debye):
    X=             -1.3869    Y=             -0.8742    Z=              0.0000  Tot=              1.6395

 Test job not archived.
 1\1\GINC-SE108\SP\RHF\Aug-CC-pVDZ\C4H6O2\OHZDE\06-Apr-2025\0\\#t hf au
 g-cc-pvdz iop(5/13=1,5/36=2,99/5=2) pseudo=read geom=check guess=(read
 ,tcheck) scf=(maxcycle=1)\\title\\0,1\C,0,-2.749597,-0.147991,0.000003
 \C,0,-1.333822,0.314316,0.000006\C,0,-0.264018,-0.479484,-0.000015\C,0
 ,1.099386,0.081029,-0.000004\O,0,1.398388,1.251758,-0.000006\O,0,2.037
 208,-0.903645,0.00001\H,0,-2.827857,-1.234217,-0.000022\H,0,-3.278292,
 0.239886,0.874582\H,0,-3.278303,0.239927,-0.874551\H,0,-1.16144,1.3859
 9,0.000028\H,0,-0.351243,-1.557948,-0.000032\H,0,2.900674,-0.465762,0.

 Normal termination of Gaussian 16 at Sun Apr  6 08:12:10 2025.
