 Gaussian 16, Revision C.01,

 ----------------------------------------------------------------------
 #t hf aug-cc-pvdz symm=none int=(grid=ultrafine) guess=(read,tcheck) s
 table=(opt,rrhf)
 ----------------------------------------------------------------------
 -----
 title
 -----
 Symbolic Z-matrix:
 Charge =  0 Multiplicity = 1

 SCF Done:  E(RHF) =  -307.424632065     A.U. after   10 cycles
 Normal termination of Gaussian 16 at Sun Apr  6 08:12:45 2025.
 Gaussian 16:  ES64L-G16RevC.01  3-Jul-2019

 ----------------------------------------------------------------------
 #t hf aug-cc-pvdz iop(5/13=1,5/36=2,99/5=2) pseudo=read geom=check gue
 ss=(read,tcheck) scf=(maxcycle=1)
 ----------------------------------------------------------------------
 -----
 title
 -----
 Structure from the checkpoint file:  "cubane.chk"
 Charge =  0 Multiplicity = 1

                         Standard orientation:
 ---------------------------------------------------------------------
 Center     Atomic      Atomic             Coordinates (Angstroms)
 Number     Number       Type             X           Y           Z
 ---------------------------------------------------------------------
      1          6           0        0.783809    0.783809    0.783809
      2          6           0       -0.783809    0.783809    0.783809
      3          6           0        0.783809    0.783809   -0.783809
      4          6           0       -0.783809    0.783809   -0.783809
      5          6           0        0.783809   -0.783809    0.783809
      6          6           0       -0.783809   -0.783809    0.783809
      7          6           0        0.783809   -0.783809   -0.783809
      8          6           0       -0.783809   -0.783809   -0.783809
      9          1           0        1.410999    1.410999    1.410999
     10          1           0       -1.410999    1.410999    1.410999
     11          1           0        1.410999    1.410999   -1.410999
     12          1           0       -1.410999    1.410999   -1.410999
     13          1           0        1.410999   -1.410999    1.410999
     14          1           0       -1.410999   -1.410999    1.410999
     15          1           0        1.410999   -1.410999   -1.410999
     16          1           0       -1.410999   -1.410999   -1.410999
 ---------------------------------------------------------------------

 SCF Done:  E(RHF) =  -308.930695654     A.U. after    2 cycles

 The electronic state is 1-A1G.
 Alpha  occ. eigenvalues --  -11.63796 -11.53116 -11.53116 -11.53116 -11.36262
 Alpha  occ. eigenvalues --  -11.36262 -11.36262 -11.31886  -1.54160  -1.05647
 Alpha  occ. eigenvalues --   -1.05647  -1.05647  -0.81581  -0.81581  -0.81581
 Alpha  occ. eigenvalues --   -0.75025  -0.66605  -0.58780  -0.58780  -0.57077
 Alpha  occ. eigenvalues --   -0.57077  -0.57077  -0.34342  -0.34342  -0.34342
 Alpha  occ. eigenvalues --   -0.34331  -0.34331  -0.34331
 Alpha virt. eigenvalues --    0.04073   0.04387   0.04387   0.04387   0.06784
 Alpha virt. eigenvalues --    0.06784   0.06784   0.08364   0.11816   0.11816
 Alpha virt. eigenvalues --    0.11816   0.12383   0.12383   0.14092   0.14092

 Mulliken charges:
               1
     1  C   -1.430125
     2  C   -1.430125
     3  C   -1.430125
     4  C   -1.430125
     5  C   -1.430125
     6  C   -1.430125
     7  C   -1.430125
     8  C   -1.430125
     9  H    1.430125
    10  H    1.430125
    11  H    1.430125
    12  H    1.430125
    13  H    1.430125
    14  H    1.430125
    15  H    1.430125
    16  H    1.430125
 Sum of Mulliken charges =   0.00000

 Dipole moment (field-independent basis, Debye):
    X=             -0.0000    Y=              0.0000    Z=              0.0000  Tot=              0.0000

 Test job not archived.
 1\1\GINC-SE107\SP\RHF\Aug-CC-pVDZ\C8H8\OHZDE\06-Apr-2025\0\\#t hf aug-
 cc-pvdz iop(5/13=1,5/36=2,99/5=2) pseudo=read geom=check guess=(read,t
 check) scf=(maxcycle=1)\\title\\0,1\C,0,0.783809,0.783809,0.783809\C,0
 ,-0.783809,0.783809,0.783809\C,0,0.783809,0.783809,-0.783809\C,0,-0.78
 3809,0.783809,-0.783809\C,0,0.783809,-0.783809,0.783809\C,0,-0.783809,
 -0.783809,0.783809\C,0,0.783809,-0.783809,-0.783809\C,0,-0.783809,-0.7
 83809,-0.783809\H,0,1.410999,1.410999,1.410999\H,0,-1.410999,1.410999,
 1.410999\H,0,1.410999,1.410999,-1.410999\H,0,-1.410999,1.410999,-1.410

 Normal termination of Gaussian 16 at Sun Apr  6 08:12:51 2025.
