 Gaussian 16, Revision C.01,

 ----------------------------------------------------------------------
 #t hf aug-cc-pvdz symm=none int=(grid=ultrafine) guess=(read,tcheck) s
 table=(opt,rrhf)
 ----------------------------------------------------------------------
 -----
 title
 -----
 Symbolic Z-matrix:
 Charge =  0 Multiplicity = 1

 SCF Done:  E(RHF) =  -411.318218191     A.U. after   15 cycles
 Normal termination of Gaussian 16 at Sun Apr  6 08:12:09 2025.
 Gaussian 16:  ES64L-G16RevC.01  3-Jul-2019

 ----------------------------------------------------------------------
 #t hf aug-cc-pvdz iop(5/13=1,5/36=2,99/5=2) pseudo=read geom=check gue
 ss=(read,tcheck) scf=(maxcycle=1)
 ----------------------------------------------------------------------
 -----
 title
 -----
 Structure from the checkpoint file:  "cyanoacetyl_isocyanate.chk"
 Charge =  0 Multiplicity = 1

                         Standard orientation:
 ---------------------------------------------------------------------
 Center     Atomic      Atomic             Coordinates (Angstroms)
 Number     Number       Type             X           Y           Z
 ---------------------------------------------------------------------
      1          8           0       -0.110702    1.322911   -0.000131
      2          8           0        3.466618    0.112051   -0.000002
      3          7           0        1.198390   -0.579867    0.000060
      4          7           0       -3.543633    0.280825   -0.000038
      5          6           0       -1.194850   -0.840419    0.000081
      6          6           0       -0.022543    0.130129   -0.000013
      7          6           0       -2.498057   -0.193546    0.000012
      8          6           0        2.344250   -0.163499    0.000022
      9          1           0       -1.101710   -1.491289   -0.872483
     10          1           0       -1.101714   -1.491113    0.872777
 ---------------------------------------------------------------------

 SCF Done:  E(RHF) =  -413.058162015     A.U. after    2 cycles

 The electronic state is 1-A.
 Alpha  occ. eigenvalues --  -21.18065 -21.10270 -15.80837 -15.77657 -11.64272
 Alpha  occ. eigenvalues --  -11.58209 -11.49699 -11.44464  -1.82549  -1.77502
 Alpha  occ. eigenvalues --   -1.43837  -1.33307  -1.18605  -0.95555  -0.73265
 Alpha  occ. eigenvalues --   -0.72493  -0.69831  -0.68163  -0.63992  -0.63100
 Alpha  occ. eigenvalues --   -0.57065  -0.53065  -0.51188  -0.45853  -0.44977
 Alpha  occ. eigenvalues --   -0.43138  -0.37074  -0.34153
 Alpha virt. eigenvalues --    0.02332   0.05491   0.06232   0.08348   0.09210
 Alpha virt. eigenvalues --    0.09283   0.10273   0.10648   0.10661   0.11578
 Alpha virt. eigenvalues --    0.11839   0.12461   0.13478   0.14356   0.15284

 Mulliken charges:
               1
     1  O   -2.888327
     2  O   -2.763521
     3  N   -2.560545
     4  N   -2.462737
     5  C   -3.323970
     6  C    4.532694
     7  C    2.467013
     8  C    3.941797
     9  H    1.528799
    10  H    1.528798
 Sum of Mulliken charges =  -0.00000

 Dipole moment (field-independent basis, Debye):
    X=              3.8088    Y=             -1.4536    Z=              0.0002  Tot=              4.0767

 Test job not archived.
 1\1\GINC-SE085\SP\RHF\Aug-CC-pVDZ\C4H2N2O2\OHZDE\06-Apr-2025\0\\#t hf
 aug-cc-pvdz iop(5/13=1,5/36=2,99/5=2) pseudo=read geom=check guess=(re
 ad,tcheck) scf=(maxcycle=1)\\title\\0,1\O,0,-0.110702,1.322911,-0.0001
 31\O,0,3.466618,0.112051,-0.000002\N,0,1.19839,-0.579867,0.00006\N,0,-
 3.543633,0.280825,-0.000038\C,0,-1.19485,-0.840419,0.000081\C,0,-0.022
 543,0.130129,-0.000013\C,0,-2.498057,-0.193546,0.000012\C,0,2.34425,-0
 .163499,0.000022\H,0,-1.10171,-1.491289,-0.872483\H,0,-1.101714,-1.491
 113,0.872777\\Version=ES64L-G16RevC.01\State=1-A\HF=-413.058162\RMSD=3

 Normal termination of Gaussian 16 at Sun Apr  6 08:12:13 2025.
