 Gaussian 16, Revision C.01,

 ----------------------------------------------------------------------
 #t hf aug-cc-pvdz symm=none int=(grid=ultrafine) guess=(read,tcheck) s
 table=(opt,rrhf)
 ----------------------------------------------------------------------
 -----
 title
 -----
 Symbolic Z-matrix:
 Charge =  0 Multiplicity = 1

 SCF Done:  E(RHF) =  -147.935561219     A.U. after   12 cycles
 Normal termination of Gaussian 16 at Sun Apr  6 08:11:54 2025.
 Gaussian 16:  ES64L-G16RevC.01  3-Jul-2019

 ----------------------------------------------------------------------
 #t hf aug-cc-pvdz iop(5/13=1,5/36=2,99/5=2) pseudo=read geom=check gue
 ss=(read,tcheck) scf=(maxcycle=1)
 ----------------------------------------------------------------------
 -----
 title
 -----
 Structure from the checkpoint file:  "cyanamide.chk"
 Charge =  0 Multiplicity = 1

                         Standard orientation:
 ---------------------------------------------------------------------
 Center     Atomic      Atomic             Coordinates (Angstroms)
 Number     Number       Type             X           Y           Z
 ---------------------------------------------------------------------
      1          7           0       -1.375785    0.000002    0.012410
      2          7           0        1.116606    0.000001   -0.079764
      3          6           0       -0.221237   -0.000004   -0.000219
      4          1           0        1.570840    0.843614    0.236395
      5          1           0        1.570840   -0.843611    0.236395
 ---------------------------------------------------------------------

 SCF Done:  E(RHF) =  -148.594041366     A.U. after    2 cycles

 The electronic state is 1-A.
 Alpha  occ. eigenvalues --  -15.82716 -15.74991 -11.45655  -1.42349  -1.25715
 Alpha  occ. eigenvalues --   -0.78315  -0.73257  -0.55730  -0.52079  -0.44102
 Alpha  occ. eigenvalues --   -0.36827
 Alpha virt. eigenvalues --    0.02203   0.05191   0.09316   0.11167   0.11998
 Alpha virt. eigenvalues --    0.12870   0.15774   0.16990   0.18042   0.20349
 Alpha virt. eigenvalues --    0.21487   0.22344   0.25351   0.26936   0.29199

 Mulliken charges:
               1
     1  N   -2.243564
     2  N   -2.412430
     3  C    3.225903
     4  H    0.715044
     5  H    0.715047
 Sum of Mulliken charges =  -0.00000

 Dipole moment (field-independent basis, Debye):
    X=              4.0983    Y=              0.0000    Z=              0.7887  Tot=              4.1735

 Test job not archived.
 1\1\GINC-SE107\SP\RHF\Aug-CC-pVDZ\C1H2N2\OHZDE\06-Apr-2025\0\\#t hf au
 g-cc-pvdz iop(5/13=1,5/36=2,99/5=2) pseudo=read geom=check guess=(read
 ,tcheck) scf=(maxcycle=1)\\title\\0,1\N,0,-1.375785,0.000002,0.01241\N
 ,0,1.116606,0.000001,-0.079764\C,0,-0.221237,-0.000004,-0.000219\H,0,1
 .57084,0.843614,0.236395\H,0,1.57084,-0.843611,0.236395\\Version=ES64L
 -G16RevC.01\State=1-A\HF=-148.5940414\RMSD=5.311e-02\Dipole=1.6124108,
 0.0000011,0.3102834\Quadrupole=-0.6672948,1.632033,-0.9647382,0.000005
 5,1.2421796,0.000001\PG=C01 [X(C1H2N2)]\\@

 Normal termination of Gaussian 16 at Sun Apr  6 08:11:55 2025.
