 Gaussian 16, Revision C.01,

 ----------------------------------------------------------------------
 #t hf aug-cc-pvdz symm=none int=(grid=ultrafine) guess=(read,tcheck) s
 table=(opt,rrhf)
 ----------------------------------------------------------------------
 -----
 title
 -----
 Symbolic Z-matrix:
 Charge =  0 Multiplicity = 1

 SCF Done:  E(RHF) =  -191.721432591     A.U. after   11 cycles
 Normal termination of Gaussian 16 at Sun Apr  6 08:11:53 2025.
 Gaussian 16:  ES64L-G16RevC.01  3-Jul-2019

 ----------------------------------------------------------------------
 #t hf aug-cc-pvdz iop(5/13=1,5/36=2,99/5=2) pseudo=read geom=check gue
 ss=(read,tcheck) scf=(maxcycle=1)
 ----------------------------------------------------------------------
 -----
 title
 -----
 Structure from the checkpoint file:  "cyanic_fluoride.chk"
 Charge =  0 Multiplicity = 1

                         Standard orientation:
 ---------------------------------------------------------------------
 Center     Atomic      Atomic             Coordinates (Angstroms)
 Number     Number       Type             X           Y           Z
 ---------------------------------------------------------------------
      1          6           0        0.000000    0.000000   -0.151984
      2          9           0        0.000000    0.000000    1.114358
      3          7           0        0.000000    0.000000   -1.302474
 ---------------------------------------------------------------------

 SCF Done:  E(RHF) =  -192.441967168     A.U. after    2 cycles

 The electronic state is 1-SG.
 Alpha  occ. eigenvalues --  -29.42116 -15.79733 -11.52431  -1.36761  -1.06000
 Alpha  occ. eigenvalues --   -0.59847  -0.59847  -0.57252  -0.49583  -0.34558
 Alpha  occ. eigenvalues --   -0.34558
 Alpha virt. eigenvalues --    0.08029   0.09790   0.09790   0.12181   0.16579
 Alpha virt. eigenvalues --    0.18793   0.18793   0.22864   0.22864   0.24651
 Alpha virt. eigenvalues --    0.28664   0.33211   0.33211   0.36361   0.36361

 Mulliken charges:
               1
     1  C    1.336286
     2  F    0.747039
     3  N   -2.083326
 Sum of Mulliken charges =   0.00000

 Dipole moment (field-independent basis, Debye):
    X=             -0.0000    Y=             -0.0000    Z=              5.3029  Tot=              5.3029

 Test job not archived.
 1\1\GINC-SE085\SP\RHF\Aug-CC-pVDZ\C1F1N1\OHZDE\06-Apr-2025\0\\#t hf au
 g-cc-pvdz iop(5/13=1,5/36=2,99/5=2) pseudo=read geom=check guess=(read
 ,tcheck) scf=(maxcycle=1)\\title\\0,1\C,0,0.,0.,-0.151984\F,0,0.,0.,1.
 114358\N,0,0.,0.,-1.302474\\Version=ES64L-G16RevC.01\State=1-SG\HF=-19
 2.4419672\RMSD=3.813e-02\Dipole=0.,0.,2.0863384\Quadrupole=0.1680374,0
 .1680374,-0.3360749,0.,0.,0.\PG=C*V [C*(N1C1F1)]\\@

 Normal termination of Gaussian 16 at Sun Apr  6 08:11:55 2025.
