 Gaussian 16, Revision C.01,

 ----------------------------------------------------------------------
 #t hf aug-cc-pvdz symm=none int=(grid=ultrafine) guess=(read,tcheck) s
 table=(opt,rrhf)
 ----------------------------------------------------------------------
 -----
 title
 -----
 Symbolic Z-matrix:
 Charge =  0 Multiplicity = 1

 SCF Done:  E(RHF) =  -167.753026488     A.U. after   13 cycles
 Normal termination of Gaussian 16 at Sun Apr  6 08:11:55 2025.
 Gaussian 16:  ES64L-G16RevC.01  3-Jul-2019

 ----------------------------------------------------------------------
 #t hf aug-cc-pvdz iop(5/13=1,5/36=2,99/5=2) pseudo=read geom=check gue
 ss=(read,tcheck) scf=(maxcycle=1)
 ----------------------------------------------------------------------
 -----
 title
 -----
 Structure from the checkpoint file:  "cyanic_acid.chk"
 Charge =  0 Multiplicity = 1

                         Standard orientation:
 ---------------------------------------------------------------------
 Center     Atomic      Atomic             Coordinates (Angstroms)
 Number     Number       Type             X           Y           Z
 ---------------------------------------------------------------------
      1          7           0        0.042434    1.333654   -0.000000
      2          6           0        0.000000    0.181234   -0.000000
      3          8           0       -0.128988   -1.109677    0.000000
      4          1           0        0.734865   -1.545562    0.000000
 ---------------------------------------------------------------------

 SCF Done:  E(RHF) =  -168.445613414     A.U. after    2 cycles

 The electronic state is 1-A'.
 Alpha  occ. eigenvalues --  -21.20009 -15.76587 -11.48928  -1.83973  -1.29723
 Alpha  occ. eigenvalues --   -0.80391  -0.62875  -0.58023  -0.53179  -0.43044
 Alpha  occ. eigenvalues --   -0.37394
 Alpha virt. eigenvalues --    0.02105   0.08840   0.10628   0.10919   0.12059
 Alpha virt. eigenvalues --    0.17353   0.18010   0.19020   0.19590   0.22599
 Alpha virt. eigenvalues --    0.22600   0.26246   0.28593   0.30298   0.30902

 Mulliken charges:
               1
     1  N   -2.187378
     2  C    3.625677
     3  O   -2.336307
     4  H    0.898008
 Sum of Mulliken charges =   0.00000

 Dipole moment (field-independent basis, Debye):
    X=              0.7977    Y=             -3.5537    Z=              0.0000  Tot=              3.6422

 Test job not archived.
 1\1\GINC-SE084\SP\RHF\Aug-CC-pVDZ\C1H1N1O1\OHZDE\06-Apr-2025\0\\#t hf
 aug-cc-pvdz iop(5/13=1,5/36=2,99/5=2) pseudo=read geom=check guess=(re
 ad,tcheck) scf=(maxcycle=1)\\title\\0,1\N,0,0.042436,1.333654,0.\C,0,0
 .,0.181234,0.\O,0,-0.12899,-1.109677,0.\H,0,0.734862,-1.545563,0.\\Ver
 sion=ES64L-G16RevC.01\State=1-A'\HF=-168.4456134\RMSD=4.982e-02\Dipole
 =0.313856,-1.3981378,0.\Quadrupole=1.0417007,-0.7622658,-0.2794348,-1.
 6711371,0.,0.\PG=CS [SG(C1H1N1O1)]\\@

 Normal termination of Gaussian 16 at Sun Apr  6 08:12:04 2025.
