 Gaussian 16, Revision C.01,

 ----------------------------------------------------------------------
 #t hf aug-cc-pvdz symm=none int=(grid=ultrafine) guess=(read,tcheck) s
 table=(opt,rrhf)
 ----------------------------------------------------------------------
 -----
 title
 -----
 Symbolic Z-matrix:
 Charge =  0 Multiplicity = 1

 SCF Done:  E(RHF) =  -831.004208198     A.U. after   15 cycles
 Normal termination of Gaussian 16 at Sun Apr  6 08:12:49 2025.
 Gaussian 16:  ES64L-G16RevC.01  3-Jul-2019

 ----------------------------------------------------------------------
 #t hf aug-cc-pvdz iop(5/13=1,5/36=2,99/5=2) pseudo=read geom=check gue
 ss=(read,tcheck) scf=(maxcycle=1)
 ----------------------------------------------------------------------
 -----
 title
 -----
 Structure from the checkpoint file:  "cyanomethylsulfanylhydroxyacetic_acid.chk"
 Charge =  0 Multiplicity = 1

                         Standard orientation:
 ---------------------------------------------------------------------
 Center     Atomic      Atomic             Coordinates (Angstroms)
 Number     Number       Type             X           Y           Z
 ---------------------------------------------------------------------
      1         16           0       -0.536792   -0.543833   -0.276416
      2          8           0        0.866478    1.705968    0.049598
      3          8           0        2.489216   -1.419387    0.583107
      4          8           0        2.845768    0.218453   -0.891343
      5          7           0       -4.192497   -0.407208   -0.402880
      6          6           0        0.859914    0.349946    0.489306
      7          6           0        2.146941   -0.391213    0.076767
      8          6           0       -1.899041    0.431745    0.492309
      9          6           0       -3.177957   -0.037706   -0.008686
     10          1           0        1.217959    2.266909    0.750986
     11          1           0        2.393223    1.045651   -1.126008
     12          1           0        0.773010    0.288303    1.574137
     13          1           0       -1.868393    0.311523    1.575605
     14          1           0       -1.770497    1.482491    0.239021
 ---------------------------------------------------------------------

 SCF Done:  E(RHF) =  -833.077426338     A.U. after    2 cycles

 The electronic state is 1-A.
 Alpha  occ. eigenvalues --  -75.73120 -21.14240 -21.14133 -21.07458 -15.77853
 Alpha  occ. eigenvalues --  -13.19014 -13.13949 -13.06832 -11.56176 -11.49488
 Alpha  occ. eigenvalues --  -11.49221 -11.44686  -8.07141  -1.85904  -1.77311
 Alpha  occ. eigenvalues --   -1.67927  -1.34834  -1.24744  -1.11122  -0.97832
 Alpha  occ. eigenvalues --   -0.81667  -0.74988  -0.73307  -0.71212  -0.67147
 Alpha  occ. eigenvalues --   -0.62550  -0.55972  -0.54979  -0.52792  -0.49551
 Alpha  occ. eigenvalues --   -0.48451  -0.45575  -0.44627  -0.42107  -0.40235
 Alpha  occ. eigenvalues --   -0.35605  -0.30592  -0.27034
 Alpha virt. eigenvalues --    0.01650   0.03429   0.04299   0.05371   0.06496
 Alpha virt. eigenvalues --    0.07352   0.09753   0.10006   0.10333   0.10717
 Alpha virt. eigenvalues --    0.11021   0.12071   0.12902   0.13272   0.13475

 Mulliken charges:
               1
     1  S    1.272002
     2  O   -2.358901
     3  O   -3.282684
     4  O   -3.216102
     5  N   -2.230193
     6  C   -1.539816
     7  C    6.287583
     8  C   -3.360166
     9  C    1.936897
    10  H    0.624080
    11  H    1.128511
    12  H    1.589094
    13  H    1.486943
    14  H    1.662752
 Sum of Mulliken charges =  -0.00000

 Dipole moment (field-independent basis, Debye):
    X=              2.0226    Y=              2.5116    Z=              0.7873  Tot=              3.3195

 Test job not archived.
 1\1\GINC-SE168\SP\RHF\Aug-CC-pVDZ\C4H5N1O3S1\OHZDE\06-Apr-2025\0\\#t h
 f aug-cc-pvdz iop(5/13=1,5/36=2,99/5=2) pseudo=read geom=check guess=(
 read,tcheck) scf=(maxcycle=1)\\title\\0,1\S,0,-0.536792,-0.543833,-0.2
 76416\O,0,0.866478,1.705968,0.049598\O,0,2.489216,-1.419387,0.583107\O
 ,0,2.845768,0.218453,-0.891343\N,0,-4.192497,-0.407208,-0.40288\C,0,0.
 859914,0.349946,0.489306\C,0,2.146941,-0.391213,0.076767\C,0,-1.899041
 ,0.431745,0.492309\C,0,-3.177957,-0.037706,-0.008686\H,0,1.217959,2.26
 6909,0.750986\H,0,2.393223,1.045651,-1.126008\H,0,0.77301,0.288303,1.5

 Normal termination of Gaussian 16 at Sun Apr  6 08:12:56 2025.
