 Gaussian 16, Revision C.01,

 ----------------------------------------------------------------------
 #t hf aug-cc-pvdz symm=none int=(grid=ultrafine) guess=(read,tcheck) s
 table=(opt,rrhf)
 ----------------------------------------------------------------------
 -----
 title
 -----
 Symbolic Z-matrix:
 Charge =  0 Multiplicity = 1

 SCF Done:  E(RHF) =  -551.795905064     A.U. after   12 cycles

 1\1\GINC-SE086\Stability\RHF\Aug-CC-pVDZ\C1Cl1N1\OHZDE\06-Apr-2025\0\\
 #t hf aug-cc-pvdz symm=none int=(grid=ultrafine) guess=(read,tcheck) s
 table=(opt,rrhf)\\title\\0,1\Cl,0,0.,0.,0.978264\C,0,0.,0.,-0.658524\N
 ,0,0.,0.,-1.811335\\Version=ES64L-G16RevC.01\HF=-551.7959051\RMSD=1.29
 8e-09\Dipole=0.,0.,1.1995822\Quadrupole=0.9945298,0.9945298,-1.9890595
 ,0.,0.,0.\PG=Unknown\\@
 The archive entry for this job was punched.

 Normal termination of Gaussian 16 at Sun Apr  6 08:11:54 2025.
 Gaussian 16:  ES64L-G16RevC.01  3-Jul-2019

 ----------------------------------------------------------------------
 #t hf aug-cc-pvdz iop(5/13=1,5/36=2,99/5=2) pseudo=read geom=check gue
 ss=(read,tcheck) scf=(maxcycle=1)
 ----------------------------------------------------------------------
 -----
 title
 -----
 Structure from the checkpoint file:  "cyanogen_chloride.chk"
 Charge =  0 Multiplicity = 1

                         Standard orientation:
 ---------------------------------------------------------------------
 Center     Atomic      Atomic             Coordinates (Angstroms)
 Number     Number       Type             X           Y           Z
 ---------------------------------------------------------------------
      1         17           0        0.000000    0.000000    0.978264
      2          6           0        0.000000    0.000000   -0.658524
      3          7           0        0.000000    0.000000   -1.811335
 ---------------------------------------------------------------------

 SCF Done:  E(RHF) =  -552.432271629     A.U. after    2 cycles

 The electronic state is 1-SG.
 Alpha  occ. eigenvalues --  -99.98934 -15.79330 -11.48496 -10.56370  -9.76413
 Alpha  occ. eigenvalues --   -9.75134  -9.75134  -1.44804  -1.29878  -0.83377
 Alpha  occ. eigenvalues --   -0.64481  -0.64481  -0.55738  -0.45911  -0.45911
 Alpha virt. eigenvalues --    0.03118   0.06293   0.09501   0.11067   0.11067
 Alpha virt. eigenvalues --    0.12245   0.12245   0.14905   0.16095   0.16095
 Alpha virt. eigenvalues --    0.22153   0.24151   0.25558   0.25558   0.26083

 Mulliken charges:
               1
     1  Cl   0.419961
     2  C    1.328003
     3  N   -1.747963
 Sum of Mulliken charges =  -0.00000

 Dipole moment (field-independent basis, Debye):
    X=              0.0000    Y=              0.0000    Z=              2.0982  Tot=              2.0982

 Test job not archived.
 1\1\GINC-SE086\SP\RHF\Aug-CC-pVDZ\C1Cl1N1\OHZDE\06-Apr-2025\0\\#t hf a
 ug-cc-pvdz iop(5/13=1,5/36=2,99/5=2) pseudo=read geom=check guess=(rea
 d,tcheck) scf=(maxcycle=1)\\title\\0,1\Cl,0,0.,0.,0.978264\C,0,0.,0.,-
 0.658524\N,0,0.,0.,-1.811335\\Version=ES64L-G16RevC.01\State=1-SG\HF=-
 552.4322716\RMSD=4.733e-02\Dipole=0.,0.,0.8254944\Quadrupole=0.193283,
 0.193283,-0.3865661,0.,0.,0.\PG=C*V [C*(N1C1Cl1)]\\@

 Normal termination of Gaussian 16 at Sun Apr  6 08:11:56 2025.
