 Gaussian 16, Revision C.01,

 ----------------------------------------------------------------------
 #t hf aug-cc-pvdz symm=none int=(grid=ultrafine) guess=(read,tcheck) s
 table=(opt,rrhf)
 ----------------------------------------------------------------------
 -----
 title
 -----
 Symbolic Z-matrix:
 Charge =  0 Multiplicity = 1

 SCF Done:  E(RHF) =  -184.611153465     A.U. after   10 cycles
 Normal termination of Gaussian 16 at Sun Apr  6 08:11:53 2025.
 Gaussian 16:  ES64L-G16RevC.01  3-Jul-2019

 ----------------------------------------------------------------------
 #t hf aug-cc-pvdz iop(5/13=1,5/36=2,99/5=2) pseudo=read geom=check gue
 ss=(read,tcheck) scf=(maxcycle=1)
 ----------------------------------------------------------------------
 -----
 title
 -----
 Structure from the checkpoint file:  "cyanogen.chk"
 Charge =  0 Multiplicity = 1

                         Standard orientation:
 ---------------------------------------------------------------------
 Center     Atomic      Atomic             Coordinates (Angstroms)
 Number     Number       Type             X           Y           Z
 ---------------------------------------------------------------------
      1          6           0        0.000000    0.000000    0.687813
      2          6           0        0.000000    0.000000   -0.687813
      3          7           0        0.000000    0.000000    1.839967
      4          7           0        0.000000    0.000000   -1.839967
 ---------------------------------------------------------------------

 SCF Done:  E(RHF) =  -185.400414081     A.U. after    2 cycles

 The electronic state is 1-SGG.
 Alpha  occ. eigenvalues --  -15.84352 -15.84272 -11.53009 -11.50456  -1.40759
 Alpha  occ. eigenvalues --   -1.34057  -0.99513  -0.61733  -0.58835  -0.58835
 Alpha  occ. eigenvalues --   -0.58071  -0.46022  -0.46022
 Alpha virt. eigenvalues --    0.04901   0.08369   0.08369   0.08808   0.11922
 Alpha virt. eigenvalues --    0.12208   0.12208   0.12262   0.12262   0.19345
 Alpha virt. eigenvalues --    0.21705   0.24454   0.24454   0.25484   0.25537

 Mulliken charges:
               1
     1  C    2.845605
     2  C    2.845605
     3  N   -2.845605
     4  N   -2.845605
 Sum of Mulliken charges =   0.00000

 Dipole moment (field-independent basis, Debye):
    X=              0.0000    Y=             -0.0000    Z=              0.0000  Tot=              0.0000

 Test job not archived.
 1\1\GINC-SE086\SP\RHF\Aug-CC-pVDZ\C2N2\OHZDE\06-Apr-2025\0\\#t hf aug-
 cc-pvdz iop(5/13=1,5/36=2,99/5=2) pseudo=read geom=check guess=(read,t
 check) scf=(maxcycle=1)\\title\\0,1\C,0,0.,0.,0.687813\C,0,0.,0.,-0.68
 7813\N,0,0.,0.,1.839967\N,0,0.,0.,-1.839967\\Version=ES64L-G16RevC.01\
 State=1-SGG\HF=-185.4004141\RMSD=4.488e-01\Dipole=0.,0.,0.\Quadrupole=
 1.7412404,1.7412404,-3.4824807,0.,0.,0.\PG=D*H [C*(N1C1.C1N1)]\\@

 Normal termination of Gaussian 16 at Sun Apr  6 08:11:55 2025.
