 Gaussian 16, Revision C.01,

 ----------------------------------------------------------------------
 #t hf aug-cc-pvdz symm=none int=(grid=ultrafine) guess=(read,tcheck) s
 table=(opt,rrhf)
 ----------------------------------------------------------------------
 -----
 title
 -----
 Symbolic Z-matrix:
 Charge =  0 Multiplicity = 1

 SCF Done:  E(RHF) =  -286.930239760     A.U. after   14 cycles
 Normal termination of Gaussian 16 at Sun Apr  6 08:12:58 2025.
 Gaussian 16:  ES64L-G16RevC.01  3-Jul-2019

 ----------------------------------------------------------------------
 #t hf aug-cc-pvdz iop(5/13=1,5/36=2,99/5=2) pseudo=read geom=check gue
 ss=(read,tcheck) scf=(maxcycle=1)
 ----------------------------------------------------------------------
 -----
 title
 -----
 Structure from the checkpoint file:  "cyclopentanecarbonitrile.chk"
 Charge =  0 Multiplicity = 1

                         Standard orientation:
 ---------------------------------------------------------------------
 Center     Atomic      Atomic             Coordinates (Angstroms)
 Number     Number       Type             X           Y           Z
 ---------------------------------------------------------------------
      1          6           0        1.602438    0.009053   -0.031364
      2          6           0       -1.371859    0.746330   -0.653168
      3          6           0       -1.307418   -0.806205   -0.645590
      4          6           0       -0.501396    1.220231    0.531175
      5          6           0       -0.485334   -1.190374    0.598276
      6          6           0        0.432357    0.028014    0.847230
      7          7           0        2.515785   -0.006019   -0.731269
      8          1           0       -0.984080    1.137519   -1.592694
      9          1           0       -2.392524    1.113594   -0.555555
     10          1           0       -2.295941   -1.262646   -0.625195
     11          1           0       -0.810388   -1.165675   -1.546124
     12          1           0        0.045306    2.137508    0.322211
     13          1           0       -1.117683    1.398437    1.413455
     14          1           0       -1.132932   -1.299095    1.469966
     15          1           0        0.067826   -2.119975    0.478891
     16          1           0        0.797203    0.060175    1.874581
 ---------------------------------------------------------------------

 SCF Done:  E(RHF) =  -288.333010049     A.U. after    2 cycles

 The electronic state is 1-A.
 Alpha  occ. eigenvalues --  -15.75041 -11.48720 -11.47693 -11.43342 -11.40036
 Alpha  occ. eigenvalues --  -11.39816 -11.35969  -1.37473  -1.27402  -1.08219
 Alpha  occ. eigenvalues --   -1.06355  -0.88494  -0.83440  -0.71201  -0.69647
 Alpha  occ. eigenvalues --   -0.63634  -0.60864  -0.54117  -0.51177  -0.50156
 Alpha  occ. eigenvalues --   -0.47928  -0.47515  -0.45439  -0.45388  -0.41749
 Alpha  occ. eigenvalues --   -0.40412
 Alpha virt. eigenvalues --    0.03337   0.04945   0.05003   0.05315   0.05359
 Alpha virt. eigenvalues --    0.05508   0.06781   0.06882   0.08822   0.09998
 Alpha virt. eigenvalues --    0.11435   0.12956   0.13165   0.13870   0.13935

 Mulliken charges:
               1
     1  C    2.500499
     2  C   -2.602190
     3  C   -2.640947
     4  C   -2.962225
     5  C   -2.931801
     6  C   -1.411376
     7  N   -2.530210
     8  H    1.373711
     9  H    1.354851
    10  H    1.317869
    11  H    1.419778
    12  H    1.450322
    13  H    1.276353
    14  H    1.303014
    15  H    1.426563
    16  H    1.655790
 Sum of Mulliken charges =   0.00000

 Dipole moment (field-independent basis, Debye):
    X=             -3.2910    Y=              0.0255    Z=              1.8165  Tot=              3.7591

 Test job not archived.
 1\1\GINC-SE047\SP\RHF\Aug-CC-pVDZ\C6H9N1\OHZDE\06-Apr-2025\0\\#t hf au
 g-cc-pvdz iop(5/13=1,5/36=2,99/5=2) pseudo=read geom=check guess=(read
 ,tcheck) scf=(maxcycle=1)\\title\\0,1\C,0,1.602438,0.009053,-0.031364\
 C,0,-1.371859,0.74633,-0.653168\C,0,-1.307418,-0.806205,-0.64559\C,0,-
 0.501396,1.220231,0.531175\C,0,-0.485334,-1.190374,0.598276\C,0,0.4323
 57,0.028014,0.84723\N,0,2.515785,-0.006019,-0.731269\H,0,-0.98408,1.13
 7519,-1.592694\H,0,-2.392524,1.113594,-0.555555\H,0,-2.295941,-1.26264
 6,-0.625195\H,0,-0.810388,-1.165675,-1.546124\H,0,0.045306,2.137508,0.

 Normal termination of Gaussian 16 at Sun Apr  6 08:13:04 2025.
