 Gaussian 16, Revision C.01,

 ----------------------------------------------------------------------
 #t hf aug-cc-pvdz symm=none int=(grid=ultrafine) guess=(read,tcheck) s
 table=(opt,rrhf)
 ----------------------------------------------------------------------
 -----
 title
 -----
 Symbolic Z-matrix:
 Charge =  0 Multiplicity = 1

 SCF Done:  E(RHF) =  -208.817796322     A.U. after   14 cycles
 Normal termination of Gaussian 16 at Sun Apr  6 08:12:26 2025.
 Gaussian 16:  ES64L-G16RevC.01  3-Jul-2019

 ----------------------------------------------------------------------
 #t hf aug-cc-pvdz iop(5/13=1,5/36=2,99/5=2) pseudo=read geom=check gue
 ss=(read,tcheck) scf=(maxcycle=1)
 ----------------------------------------------------------------------
 -----
 title
 -----
 Structure from the checkpoint file:  "cyclopropanecarbonitrile.chk"
 Charge =  0 Multiplicity = 1

                         Standard orientation:
 ---------------------------------------------------------------------
 Center     Atomic      Atomic             Coordinates (Angstroms)
 Number     Number       Type             X           Y           Z
 ---------------------------------------------------------------------
      1          1           0        0.336332    2.019953    1.266776
      2          1           0        0.336332    2.019953   -1.266776
      3          1           0       -1.118471    0.924048   -1.256429
      4          1           0       -1.118471    0.924048    1.256429
      5          1           0        1.651115    0.325415   -0.000000
      6          6           0        0.575980    0.213094   -0.000000
      7          7           0       -0.228299   -2.244511    0.000000
      8          6           0        0.132495   -1.150808    0.000000
      9          6           0       -0.228299    1.260370    0.746697
     10          6           0       -0.228299    1.260370   -0.746697
 ---------------------------------------------------------------------

 SCF Done:  E(RHF) =  -209.805851032     A.U. after    2 cycles

 The electronic state is 1-A'.
 Alpha  occ. eigenvalues --  -15.75312 -11.46769 -11.44169 -11.42752 -11.39988
 Alpha  occ. eigenvalues --   -1.37178  -1.26957  -0.95579  -0.89379  -0.74582
 Alpha  occ. eigenvalues --   -0.68411  -0.59537  -0.54180  -0.51281  -0.50946
 Alpha  occ. eigenvalues --   -0.47146  -0.41202  -0.38060
 Alpha virt. eigenvalues --    0.03255   0.04952   0.05339   0.06018   0.06323
 Alpha virt. eigenvalues --    0.09589   0.09940   0.11203   0.11767   0.13324
 Alpha virt. eigenvalues --    0.13826   0.14657   0.14674   0.15291   0.15824

 Mulliken charges:
               1
     1  H    1.180111
     2  H    1.180111
     3  H    1.295692
     4  H    1.295692
     5  H    1.254773
     6  C   -0.871834
     7  N   -2.423854
     8  C    1.429766
     9  C   -2.170228
    10  C   -2.170228
 Sum of Mulliken charges =  -0.00000

 Dipole moment (field-independent basis, Debye):
    X=              0.7593    Y=              3.9186    Z=             -0.0000  Tot=              3.9915

 Test job not archived.
 1\1\GINC-SE177\SP\RHF\Aug-CC-pVDZ\C4H5N1\OHZDE\06-Apr-2025\0\\#t hf au
 g-cc-pvdz iop(5/13=1,5/36=2,99/5=2) pseudo=read geom=check guess=(read
 ,tcheck) scf=(maxcycle=1)\\title\\0,1\H,0,0.336332,2.019953,1.266776\H
 ,0,0.336332,2.019953,-1.266776\H,0,-1.118471,0.924048,-1.256429\H,0,-1
 .118471,0.924048,1.256429\H,0,1.651115,0.325415,0.\C,0,0.57598,0.21309
 4,0.\N,0,-0.228299,-2.244511,0.\C,0,0.132495,-1.150808,0.\C,0,-0.22829
 9,1.26037,0.746697\C,0,-0.228299,1.26037,-0.746697\\Version=ES64L-G16R
 evC.01\State=1-A'\HF=-209.805851\RMSD=3.440e-01\Dipole=0.2987461,1.541

 Normal termination of Gaussian 16 at Sun Apr  6 08:12:29 2025.
