 Gaussian 16, Revision C.01,

 ----------------------------------------------------------------------
 #t hf aug-cc-pvdz symm=none int=(grid=ultrafine) guess=(read,tcheck) s
 table=(opt,rrhf)
 ----------------------------------------------------------------------
 -----
 title
 -----
 Symbolic Z-matrix:
 Charge =  0 Multiplicity = 1

 SCF Done:  E(RHF) =  -268.899919965     A.U. after   14 cycles
 Normal termination of Gaussian 16 at Sun Apr  6 08:12:42 2025.
 Gaussian 16:  ES64L-G16RevC.01  3-Jul-2019

 ----------------------------------------------------------------------
 #t hf aug-cc-pvdz iop(5/13=1,5/36=2,99/5=2) pseudo=read geom=check gue
 ss=(read,tcheck) scf=(maxcycle=1)
 ----------------------------------------------------------------------
 -----
 title
 -----
 Structure from the checkpoint file:  "cyclopentanone.chk"
 Charge =  0 Multiplicity = 1

                         Standard orientation:
 ---------------------------------------------------------------------
 Center     Atomic      Atomic             Coordinates (Angstroms)
 Number     Number       Type             X           Y           Z
 ---------------------------------------------------------------------
      1          6           0        0.000000    0.771638   -1.378323
      2          1           0       -0.624422    1.190682   -2.165746
      3          1           0        1.015837    1.139927   -1.539367
      4          6           0       -0.000000   -0.771638   -1.378323
      5          1           0        0.624422   -1.190682   -2.165746
      6          1           0       -1.015837   -1.139927   -1.539367
      7          6           0        0.473205   -1.145341    0.031186
      8          1           0        1.566143   -1.166083    0.089614
      9          1           0        0.115834   -2.102523    0.407428
     10          6           0       -0.473205    1.145341    0.031186
     11          1           0       -0.115834    2.102523    0.407428
     12          1           0       -1.566143    1.166083    0.089614
     13          6           0        0.000000   -0.000000    0.924314
     14          8           0        0.000000   -0.000000    2.129486
 ---------------------------------------------------------------------

 SCF Done:  E(RHF) =  -270.170345478     A.U. after    2 cycles

 The electronic state is 1-A.
 Alpha  occ. eigenvalues --  -21.04645 -11.49664 -11.44167 -11.41505 -11.38778
 Alpha  occ. eigenvalues --  -11.36006  -1.70109  -1.31064  -1.06885  -1.00041
 Alpha  occ. eigenvalues --   -0.84860  -0.75387  -0.67522  -0.63072  -0.59711
 Alpha  occ. eigenvalues --   -0.56466  -0.53220  -0.48431  -0.47330  -0.46496
 Alpha  occ. eigenvalues --   -0.45470  -0.39638  -0.26715
 Alpha virt. eigenvalues --    0.03501   0.05171   0.05317   0.05327   0.05704
 Alpha virt. eigenvalues --    0.05792   0.06905   0.07190   0.09685   0.12447
 Alpha virt. eigenvalues --    0.13398   0.14249   0.14259   0.14507   0.14836

 Mulliken charges:
               1
     1  C   -2.617204
     2  H    1.272951
     3  H    1.381312
     4  C   -2.617204
     5  H    1.272951
     6  H    1.381312
     7  C   -3.377070
     8  H    1.381663
     9  H    1.332299
    10  C   -3.377070
    11  H    1.332299
    12  H    1.381663
    13  C    4.617400
    14  O   -3.365305
 Sum of Mulliken charges =  -0.00000

 Dipole moment (field-independent basis, Debye):
    X=              0.0000    Y=             -0.0000    Z=             -1.8964  Tot=              1.8964

 Test job not archived.
 1\1\GINC-SE150\SP\RHF\Aug-CC-pVDZ\C5H8O1\OHZDE\06-Apr-2025\0\\#t hf au
 g-cc-pvdz iop(5/13=1,5/36=2,99/5=2) pseudo=read geom=check guess=(read
 ,tcheck) scf=(maxcycle=1)\\title\\0,1\C,0,0.,0.771638,-1.378323\H,0,-0
 .624422,1.190682,-2.165746\H,0,1.015837,1.139927,-1.539367\C,0,0.,-0.7
 71638,-1.378323\H,0,0.624422,-1.190682,-2.165746\H,0,-1.015837,-1.1399
 27,-1.539367\C,0,0.473205,-1.145341,0.031186\H,0,1.566143,-1.166083,0.
 089614\H,0,0.115834,-2.102523,0.407428\C,0,-0.473205,1.145341,0.031186
 \H,0,-0.115834,2.102523,0.407428\H,0,-1.566143,1.166083,0.089614\C,0,0

 Normal termination of Gaussian 16 at Sun Apr  6 08:12:47 2025.
