 Gaussian 16, Revision C.01,

 ----------------------------------------------------------------------
 #t hf aug-cc-pvdz symm=none int=(grid=ultrafine) guess=(read,tcheck) s
 table=(opt,rrhf)
 ----------------------------------------------------------------------
 -----
 title
 -----
 Symbolic Z-matrix:
 Charge =  0 Multiplicity = 1

 SCF Done:  E(RHF) =  -270.056265165     A.U. after   12 cycles

 1\1\GINC-SE136\Stability\RHF\Aug-CC-pVDZ\C5H10O1\OHZDE\06-Apr-2025\0\\
 #t hf aug-cc-pvdz symm=none int=(grid=ultrafine) guess=(read,tcheck) s
 table=(opt,rrhf)\\title\\0,1\C,0,1.478824,0.602081,-0.167602\C,0,1.131
 874,-0.871035,-0.441609\C,0,0.138007,1.266828,0.236745\C,0,-0.007005,-
 1.147497,0.545787\C,0,-0.865878,0.122768,0.481642\O,0,-1.764277,0.1003
 55,-0.639892\H,0,2.191316,0.663706,0.657603\H,0,1.942541,1.089472,-1.0
 24485\H,0,0.768396,-0.991211,-1.463462\H,0,1.983364,-1.539018,-0.31224
 4\H,0,0.250934,1.884221,1.127542\H,0,-0.256769,1.906427,-0.551166\H,0,

 Normal termination of Gaussian 16 at Sun Apr  6 08:12:48 2025.
 Gaussian 16:  ES64L-G16RevC.01  3-Jul-2019

 ----------------------------------------------------------------------
 #t hf aug-cc-pvdz iop(5/13=1,5/36=2,99/5=2) pseudo=read geom=check gue
 ss=(read,tcheck) scf=(maxcycle=1)
 ----------------------------------------------------------------------
 -----
 title
 -----
 Structure from the checkpoint file:  "cyclopentanol.chk"
 Charge =  0 Multiplicity = 1

                         Standard orientation:
 ---------------------------------------------------------------------
 Center     Atomic      Atomic             Coordinates (Angstroms)
 Number     Number       Type             X           Y           Z
 ---------------------------------------------------------------------
      1          6           0        1.478824    0.602081   -0.167602
      2          6           0        1.131874   -0.871035   -0.441609
      3          6           0        0.138007    1.266828    0.236745
      4          6           0       -0.007005   -1.147497    0.545787
      5          6           0       -0.865878    0.122768    0.481642
      6          8           0       -1.764277    0.100356   -0.639892
      7          1           0        2.191316    0.663706    0.657603
      8          1           0        1.942541    1.089472   -1.024485
      9          1           0        0.768396   -0.991211   -1.463462
     10          1           0        1.983364   -1.539018   -0.312244
     11          1           0        0.250935    1.884221    1.127542
     12          1           0       -0.256768    1.906427   -0.551166
     13          1           0       -0.583006   -2.047024    0.320771
     14          1           0        0.393171   -1.259290    1.558075
     15          1           0       -1.443380    0.274161    1.398057
     16          1           0       -2.387285   -0.623159   -0.521332
 ---------------------------------------------------------------------

 SCF Done:  E(RHF) =  -271.364994949     A.U. after    2 cycles

 The electronic state is 1-A.
 Alpha  occ. eigenvalues --  -21.05757 -11.48026 -11.42610 -11.38354 -11.37171
 Alpha  occ. eigenvalues --  -11.33511  -1.70263  -1.28835  -1.04109  -1.01382
 Alpha  occ. eigenvalues --   -0.82219  -0.79908  -0.68409  -0.65338  -0.61313
 Alpha  occ. eigenvalues --   -0.57662  -0.50397  -0.48587  -0.45813  -0.44223
 Alpha  occ. eigenvalues --   -0.43690  -0.42985  -0.38298  -0.30770
 Alpha virt. eigenvalues --    0.04133   0.05157   0.05490   0.05617   0.05720
 Alpha virt. eigenvalues --    0.05867   0.06402   0.07096   0.07305   0.08953
 Alpha virt. eigenvalues --    0.13239   0.13322   0.14279   0.14735   0.15077

 Mulliken charges:
               1
     1  C   -2.733518
     2  C   -2.870912
     3  C   -3.268776
     4  C   -2.841713
     5  C    1.713740
     6  O   -3.188303
     7  H    1.380632
     8  H    1.296603
     9  H    1.409060
    10  H    1.259782
    11  H    1.289490
    12  H    1.456472
    13  H    1.335595
    14  H    1.355227
    15  H    1.710357
    16  H    0.696265
 Sum of Mulliken charges =  -0.00000

 Dipole moment (field-independent basis, Debye):
    X=              0.0748    Y=             -0.3870    Z=              0.4489  Tot=              0.5974

 Test job not archived.
 1\1\GINC-SE136\SP\RHF\Aug-CC-pVDZ\C5H10O1\OHZDE\06-Apr-2025\0\\#t hf a
 ug-cc-pvdz iop(5/13=1,5/36=2,99/5=2) pseudo=read geom=check guess=(rea
 d,tcheck) scf=(maxcycle=1)\\title\\0,1\C,0,1.478824,0.602081,-0.167602
 \C,0,1.131874,-0.871035,-0.441609\C,0,0.138007,1.266828,0.236745\C,0,-
 0.007005,-1.147497,0.545787\C,0,-0.865878,0.122768,0.481642\O,0,-1.764
 277,0.100355,-0.639892\H,0,2.191316,0.663706,0.657603\H,0,1.942541,1.0
 89472,-1.024485\H,0,0.768396,-0.991211,-1.463462\H,0,1.983364,-1.53901
 8,-0.312244\H,0,0.250934,1.884221,1.127542\H,0,-0.256769,1.906427,-0.5

 Normal termination of Gaussian 16 at Sun Apr  6 08:12:53 2025.
