 Gaussian 16, Revision C.01,

 ----------------------------------------------------------------------
 #t hf aug-cc-pvdz symm=none int=(grid=ultrafine) guess=(read,tcheck) s
 table=(opt,rrhf)
 ----------------------------------------------------------------------
 -----
 title
 -----
 Symbolic Z-matrix:
 Charge =  0 Multiplicity = 1

 SCF Done:  E(RHF) =  -304.727555914     A.U. after   14 cycles
 Normal termination of Gaussian 16 at Sun Apr  6 08:12:44 2025.
 Gaussian 16:  ES64L-G16RevC.01  3-Jul-2019

 ----------------------------------------------------------------------
 #t hf aug-cc-pvdz iop(5/13=1,5/36=2,99/5=2) pseudo=read geom=check gue
 ss=(read,tcheck) scf=(maxcycle=1)
 ----------------------------------------------------------------------
 -----
 title
 -----
 Structure from the checkpoint file:  "cyclopropanecarboxylic_acid.chk"
 Charge =  0 Multiplicity = 1

                         Standard orientation:
 ---------------------------------------------------------------------
 Center     Atomic      Atomic             Coordinates (Angstroms)
 Number     Number       Type             X           Y           Z
 ---------------------------------------------------------------------
      1          6           0       -0.270459   -0.778426    0.000000
      2          6           0        0.336510    1.596630    0.743093
      3          6           0        0.336510    1.596630   -0.743093
      4          6           0        0.710072    0.327080    0.000000
      5          8           0       -1.472192   -0.658476    0.000000
      6          8           0        0.336510   -1.992090    0.000000
      7          1           0        1.135578    2.100682    1.266594
      8          1           0       -0.620002    1.590351    1.244203
      9          1           0       -0.620002    1.590351   -1.244203
     10          1           0        1.135578    2.100682   -1.266594
     11          1           0        1.746444    0.027754    0.000000
     12          1           0       -0.367938   -2.656783    0.000000
 ---------------------------------------------------------------------

 SCF Done:  E(RHF) =  -306.080206944     A.U. after    2 cycles

 The electronic state is 1-A'.
 Alpha  occ. eigenvalues --  -21.12073 -21.04613 -11.53347 -11.42665 -11.42542
 Alpha  occ. eigenvalues --  -11.37885  -1.82522  -1.64922  -1.31925  -0.96992
 Alpha  occ. eigenvalues --   -0.87589  -0.76865  -0.70984  -0.63987  -0.59237
 Alpha  occ. eigenvalues --   -0.56678  -0.56254  -0.51941  -0.45569  -0.41856
 Alpha  occ. eigenvalues --   -0.39844  -0.33244  -0.29815
 Alpha virt. eigenvalues --    0.03988   0.05335   0.05569   0.05897   0.06715
 Alpha virt. eigenvalues --    0.06994   0.10161   0.11660   0.11975   0.12928
 Alpha virt. eigenvalues --    0.13293   0.14455   0.14903   0.15469   0.15924

 Mulliken charges:
               1
     1  C    5.219739
     2  C   -2.075709
     3  C   -2.075709
     4  C   -2.104924
     5  O   -3.124100
     6  O   -3.069016
     7  H    1.191676
     8  H    1.276480
     9  H    1.276480
    10  H    1.191676
    11  H    1.350369
    12  H    0.943039
 Sum of Mulliken charges =   0.00000

 Dipole moment (field-independent basis, Debye):
    X=              1.2715    Y=              0.3624    Z=              0.0000  Tot=              1.3222

 Test job not archived.
 1\1\GINC-SE101\SP\RHF\Aug-CC-pVDZ\C4H6O2\OHZDE\06-Apr-2025\0\\#t hf au
 g-cc-pvdz iop(5/13=1,5/36=2,99/5=2) pseudo=read geom=check guess=(read
 ,tcheck) scf=(maxcycle=1)\\title\\0,1\C,0,-0.270459,-0.778426,0.\C,0,0
 .33651,1.59663,0.743093\C,0,0.33651,1.59663,-0.743093\C,0,0.710072,0.3
 2708,0.\O,0,-1.472192,-0.658476,0.\O,0,0.33651,-1.99209,0.\H,0,1.13557
 8,2.100682,1.266594\H,0,-0.620002,1.590351,1.244203\H,0,-0.620002,1.59
 0351,-1.244203\H,0,1.135578,2.100682,-1.266594\H,0,1.746444,0.027754,0
 .\H,0,-0.367938,-2.656783,0.\\Version=ES64L-G16RevC.01\State=1-A'\HF=-

 Normal termination of Gaussian 16 at Sun Apr  6 08:12:49 2025.
