 Gaussian 16, Revision C.01,

 ----------------------------------------------------------------------
 #t hf aug-cc-pvdz symm=none int=(grid=ultrafine) guess=(read,tcheck) s
 table=(opt,rrhf)
 ----------------------------------------------------------------------
 -----
 title
 -----
 Symbolic Z-matrix:
 Charge =  0 Multiplicity = 1

 SCF Done:  E(RHF) =  -192.752686818     A.U. after   13 cycles
 Normal termination of Gaussian 16 at Sun Apr  6 08:12:31 2025.
 Gaussian 16:  ES64L-G16RevC.01  3-Jul-2019

 ----------------------------------------------------------------------
 #t hf aug-cc-pvdz iop(5/13=1,5/36=2,99/5=2) pseudo=read geom=check gue
 ss=(read,tcheck) scf=(maxcycle=1)
 ----------------------------------------------------------------------
 -----
 title
 -----
 Structure from the checkpoint file:  "cyclopropylacetylene.chk"
 Charge =  0 Multiplicity = 1

                         Standard orientation:
 ---------------------------------------------------------------------
 Center     Atomic      Atomic             Coordinates (Angstroms)
 Number     Number       Type             X           Y           Z
 ---------------------------------------------------------------------
      1          6           0        0.611276    0.150433    0.000000
      2          6           0       -0.558771    0.979132   -0.000000
      3          1           0        1.547692    0.693190    0.000000
      4          6           0        0.611276   -1.169532    0.748025
      5          6           0        0.611276   -1.169532   -0.748025
      6          6           0       -1.538704    1.673681   -0.000000
      7          1           0       -2.403449    2.288355   -0.000000
      8          1           0        1.520070   -1.440716    1.265675
      9          1           0       -0.301248   -1.442601    1.256473
     10          1           0        1.520070   -1.440716   -1.265675
     11          1           0       -0.301248   -1.442601   -1.256473
 ---------------------------------------------------------------------

 SCF Done:  E(RHF) =  -193.700302837     A.U. after    2 cycles

 The electronic state is 1-A'.
 Alpha  occ. eigenvalues --  -11.44943 -11.41694 -11.40461 -11.39597 -11.37489
 Alpha  occ. eigenvalues --   -1.32993  -1.08554  -0.90065  -0.87009  -0.73663
 Alpha  occ. eigenvalues --   -0.68550  -0.63842  -0.53909  -0.51843  -0.46468
 Alpha  occ. eigenvalues --   -0.43511  -0.35651  -0.32739
 Alpha virt. eigenvalues --    0.03618   0.05245   0.05682   0.05963   0.06642
 Alpha virt. eigenvalues --    0.06668   0.10016   0.10779   0.12007   0.12154
 Alpha virt. eigenvalues --    0.12671   0.13056   0.14837   0.15094   0.15598

 Mulliken charges:
               1
     1  C   -1.616505
     2  C    3.945457
     3  H    0.926621
     4  C   -2.338850
     5  C   -2.338850
     6  C   -4.266842
     7  H    0.805202
     8  H    1.156697
     9  H    1.285187
    10  H    1.156697
    11  H    1.285187
 Sum of Mulliken charges =   0.00000

 Dipole moment (field-independent basis, Debye):
    X=              0.5677    Y=             -0.6898    Z=             -0.0000  Tot=              0.8934

 Test job not archived.
 1\1\GINC-SE009\SP\RHF\Aug-CC-pVDZ\C5H6\OHZDE\06-Apr-2025\0\\#t hf aug-
 cc-pvdz iop(5/13=1,5/36=2,99/5=2) pseudo=read geom=check guess=(read,t
 check) scf=(maxcycle=1)\\title\\0,1\C,0,0.611276,0.150433,0.\C,0,-0.55
 8771,0.979132,0.\H,0,1.547692,0.69319,0.\C,0,0.611276,-1.169532,0.7480
 25\C,0,0.611276,-1.169532,-0.748025\C,0,-1.538704,1.673681,0.\H,0,-2.4
 03449,2.288355,0.\H,0,1.52007,-1.440716,1.265675\H,0,-0.301248,-1.4426
 01,1.256473\H,0,1.52007,-1.440716,-1.265675\H,0,-0.301248,-1.442601,-1
 .256473\\Version=ES64L-G16RevC.01\State=1-A'\HF=-193.7003028\RMSD=9.30

 Normal termination of Gaussian 16 at Sun Apr  6 08:12:34 2025.
