 Gaussian 16, Revision C.01,

 ----------------------------------------------------------------------
 #t hf aug-cc-pvdz symm=none int=(grid=ultrafine) guess=(read,tcheck) s
 table=(opt,rrhf)
 ----------------------------------------------------------------------
 -----
 title
 -----
 Symbolic Z-matrix:
 Charge =  0 Multiplicity = 1

 SCF Done:  E(RHF) =  -190.751062823     A.U. after   13 cycles
 Normal termination of Gaussian 16 at Sun Apr  6 08:12:28 2025.
 Gaussian 16:  ES64L-G16RevC.01  3-Jul-2019

 ----------------------------------------------------------------------
 #t hf aug-cc-pvdz iop(5/13=1,5/36=2,99/5=2) pseudo=read geom=check gue
 ss=(read,tcheck) scf=(maxcycle=1)
 ----------------------------------------------------------------------
 -----
 title
 -----
 Structure from the checkpoint file:  "cyclopropanone.chk"
 Charge =  0 Multiplicity = 1

                         Standard orientation:
 ---------------------------------------------------------------------
 Center     Atomic      Atomic             Coordinates (Angstroms)
 Number     Number       Type             X           Y           Z
 ---------------------------------------------------------------------
      1          6           0        0.000000   -0.000000    0.381094
      2          8           0        0.000000   -0.000000    1.576449
      3          6           0        0.000000    0.785897   -0.855963
      4          6           0       -0.000000   -0.785897   -0.855963
      5          1           0        0.911746    1.287106   -1.156649
      6          1           0       -0.911746    1.287106   -1.156649
      7          1           0       -0.911746   -1.287106   -1.156649
      8          1           0        0.911746   -1.287106   -1.156649
 ---------------------------------------------------------------------

 SCF Done:  E(RHF) =  -191.603796280     A.U. after    2 cycles

 The electronic state is 1-A1.
 Alpha  occ. eigenvalues --  -21.07451 -11.50030 -11.44421 -11.39834  -1.71323
 Alpha  occ. eigenvalues --   -1.28376  -0.90456  -0.77073  -0.67905  -0.58085
 Alpha  occ. eigenvalues --   -0.55271  -0.54172  -0.43181  -0.42679  -0.26978
 Alpha virt. eigenvalues --    0.03243   0.05401   0.05785   0.05904   0.08785
 Alpha virt. eigenvalues --    0.11269   0.11501   0.11979   0.12100   0.14410
 Alpha virt. eigenvalues --    0.14824   0.15612   0.16339   0.18617   0.18821

 Mulliken charges:
               1
     1  C    3.141784
     2  O   -2.738726
     3  C   -2.667166
     4  C   -2.667166
     5  H    1.232819
     6  H    1.232819
     7  H    1.232819
     8  H    1.232819
 Sum of Mulliken charges =  -0.00000

 Dipole moment (field-independent basis, Debye):
    X=              0.0000    Y=              0.0000    Z=             -1.6479  Tot=              1.6479

 Test job not archived.
 1\1\GINC-SE209\SP\RHF\Aug-CC-pVDZ\C3H4O1\OHZDE\06-Apr-2025\0\\#t hf au
 g-cc-pvdz iop(5/13=1,5/36=2,99/5=2) pseudo=read geom=check guess=(read
 ,tcheck) scf=(maxcycle=1)\\title\\0,1\C,0,0.,0.,0.381094\O,0,0.,0.,1.5
 76449\C,0,0.,0.785897,-0.855963\C,0,0.,-0.785897,-0.855963\H,0,0.91174
 6,1.287106,-1.156649\H,0,-0.911746,1.287106,-1.156649\H,0,-0.911746,-1
 .287106,-1.156649\H,0,0.911746,-1.287106,-1.156649\\Version=ES64L-G16R
 evC.01\State=1-A1\HF=-191.6037963\RMSD=4.763e-01\Dipole=0.,0.,-0.64831
 43\Quadrupole=1.6789977,0.3367123,-2.01571,0.,0.,0.\PG=C02V [C2(C1O1),

 Normal termination of Gaussian 16 at Sun Apr  6 08:12:29 2025.
