 Gaussian 16, Revision C.01,

 ----------------------------------------------------------------------
 #t hf aug-cc-pvdz symm=none int=(grid=ultrafine) guess=(read,tcheck) s
 table=(opt,rrhf)
 ----------------------------------------------------------------------
 -----
 title
 -----
 Symbolic Z-matrix:
 Charge =  0 Multiplicity = 1

 SCF Done:  E(RHF) =  -172.109951274     A.U. after   12 cycles
 Normal termination of Gaussian 16 at Sun Apr  6 08:12:28 2025.
 Gaussian 16:  ES64L-G16RevC.01  3-Jul-2019

 ----------------------------------------------------------------------
 #t hf aug-cc-pvdz iop(5/13=1,5/36=2,99/5=2) pseudo=read geom=check gue
 ss=(read,tcheck) scf=(maxcycle=1)
 ----------------------------------------------------------------------
 -----
 title
 -----
 Structure from the checkpoint file:  "cyclopropylamine.chk"
 Charge =  0 Multiplicity = 1

                         Standard orientation:
 ---------------------------------------------------------------------
 Center     Atomic      Atomic             Coordinates (Angstroms)
 Number     Number       Type             X           Y           Z
 ---------------------------------------------------------------------
      1          6           0       -0.320050    0.416085   -0.000000
      2          1           0       -1.260116    0.962973   -0.000000
      3          7           0        0.903346    1.179214   -0.000000
      4          6           0       -0.320050   -0.882833    0.753840
      5          6           0       -0.320050   -0.882833   -0.753840
      6          1           0        0.970739    1.771825    0.818204
      7          1           0        0.970739    1.771825   -0.818204
      8          1           0       -1.223024   -1.176047    1.270152
      9          1           0       -1.223024   -1.176047   -1.270152
     10          1           0        0.601086   -1.155773    1.247962
     11          1           0        0.601086   -1.155773   -1.247962
 ---------------------------------------------------------------------

 SCF Done:  E(RHF) =  -172.969557802     A.U. after    2 cycles

 The electronic state is 1-A'.
 Alpha  occ. eigenvalues --  -15.72916 -11.41361 -11.39123 -11.35056  -1.37483
 Alpha  occ. eigenvalues --   -1.18590  -0.85727  -0.82275  -0.68772  -0.63492
 Alpha  occ. eigenvalues --   -0.60798  -0.52489  -0.50066  -0.40955  -0.38091
 Alpha  occ. eigenvalues --   -0.34430
 Alpha virt. eigenvalues --    0.04303   0.05750   0.05931   0.05983   0.06248
 Alpha virt. eigenvalues --    0.06821   0.07184   0.11598   0.12190   0.13830
 Alpha virt. eigenvalues --    0.14300   0.15177   0.16134   0.16515   0.17488

 Mulliken charges:
               1
     1  C    0.684505
     2  H    1.322686
     3  N   -2.960493
     4  C   -2.531315
     5  C   -2.531315
     6  H    0.576893
     7  H    0.576893
     8  H    1.202768
     9  H    1.202768
    10  H    1.228306
    11  H    1.228306
 Sum of Mulliken charges =   0.00000

 Dipole moment (field-independent basis, Debye):
    X=             -0.5920    Y=              0.8774    Z=              0.0000  Tot=              1.0584

 Test job not archived.
 1\1\GINC-SE010\SP\RHF\Aug-CC-pVDZ\C3H7N1\OHZDE\06-Apr-2025\0\\#t hf au
 g-cc-pvdz iop(5/13=1,5/36=2,99/5=2) pseudo=read geom=check guess=(read
 ,tcheck) scf=(maxcycle=1)\\title\\0,1\C,0,-0.32005,0.416085,0.\H,0,-1.
 260116,0.962973,0.\N,0,0.903346,1.179214,0.\C,0,-0.32005,-0.882833,0.7
 5384\C,0,-0.32005,-0.882833,-0.75384\H,0,0.970739,1.771825,0.818204\H,
 0,0.970739,1.771825,-0.818204\H,0,-1.223024,-1.176047,1.270152\H,0,-1.
 223024,-1.176047,-1.270152\H,0,0.601086,-1.155773,1.247962\H,0,0.60108
 6,-1.155773,-1.247962\\Version=ES64L-G16RevC.01\State=1-A'\HF=-172.969

 Normal termination of Gaussian 16 at Sun Apr  6 08:12:31 2025.
