 Gaussian 16, Revision C.01,

 ----------------------------------------------------------------------
 #t hf aug-cc-pvdz symm=none int=(grid=ultrafine) guess=(read,tcheck) s
 table=(opt,rrhf)
 ----------------------------------------------------------------------
 -----
 title
 -----
 Symbolic Z-matrix:
 Charge =  0 Multiplicity = 1

 SCF Done:  E(RHF) =  -247.859840760     A.U. after   14 cycles
 Normal termination of Gaussian 16 at Sun Apr  6 08:12:12 2025.
 Gaussian 16:  ES64L-G16RevC.01  3-Jul-2019

 ----------------------------------------------------------------------
 #t hf aug-cc-pvdz iop(5/13=1,5/36=2,99/5=2) pseudo=read geom=check gue
 ss=(read,tcheck) scf=(maxcycle=1)
 ----------------------------------------------------------------------
 -----
 title
 -----
 Structure from the checkpoint file:  "cyclobutanecarbonitrile.chk"
 Charge =  0 Multiplicity = 1

                         Standard orientation:
 ---------------------------------------------------------------------
 Center     Atomic      Atomic             Coordinates (Angstroms)
 Number     Number       Type             X           Y           Z
 ---------------------------------------------------------------------
      1          1           0        1.757205   -0.189555    1.463765
      2          1           0        0.080822   -0.525541    1.928692
      3          6           0        0.759101   -0.406803    1.087809
      4          1           0       -0.167443   -2.080157   -0.000000
      5          1           0        1.596662   -2.202628   -0.000000
      6          6           0        0.759101   -1.508440   -0.000000
      7          1           0        0.080822   -0.525541   -1.928692
      8          1           0        1.757205   -0.189555   -1.463765
      9          6           0        0.759101   -0.406803   -1.087809
     10          1           0        0.914383    1.569711    0.000000
     11          6           0        0.347469    0.639812    0.000000
     12          7           0       -2.193925    1.206944    0.000000
     13          6           0       -1.068470    0.964678    0.000000
 ---------------------------------------------------------------------

 SCF Done:  E(RHF) =  -249.056925288     A.U. after    2 cycles

 The electronic state is 1-A'.
 Alpha  occ. eigenvalues --  -15.75130 -11.52429 -11.44491 -11.41701 -11.41400
 Alpha  occ. eigenvalues --  -11.37060  -1.37787  -1.27307  -1.01863  -0.98206
 Alpha  occ. eigenvalues --   -0.84144  -0.71535  -0.69536  -0.61588  -0.57340
 Alpha  occ. eigenvalues --   -0.53310  -0.52420  -0.47751  -0.46732  -0.44727
 Alpha  occ. eigenvalues --   -0.40276  -0.40085
 Alpha virt. eigenvalues --    0.03350   0.04974   0.05146   0.05213   0.05893
 Alpha virt. eigenvalues --    0.06479   0.06838   0.09990   0.11410   0.11648
 Alpha virt. eigenvalues --    0.12435   0.12531   0.14172   0.14556   0.14714

 Mulliken charges:
               1
     1  H    1.308568
     2  H    1.383583
     3  C   -2.601984
     4  H    1.384467
     5  H    1.245343
     6  C   -2.504456
     7  H    1.383583
     8  H    1.308568
     9  C   -2.601984
    10  H    1.370088
    11  C   -1.322364
    12  N   -2.512249
    13  C    2.158835
 Sum of Mulliken charges =  -0.00000

 Dipole moment (field-independent basis, Debye):
    X=              3.6370    Y=             -1.2939    Z=             -0.0000  Tot=              3.8603

 Test job not archived.
 1\1\GINC-SE170\SP\RHF\Aug-CC-pVDZ\C5H7N1\OHZDE\06-Apr-2025\0\\#t hf au
 g-cc-pvdz iop(5/13=1,5/36=2,99/5=2) pseudo=read geom=check guess=(read
 ,tcheck) scf=(maxcycle=1)\\title\\0,1\H,0,1.757205,-0.189555,1.463765\
 H,0,0.080822,-0.525541,1.928692\C,0,0.759101,-0.406803,1.087809\H,0,-0
 .167443,-2.080157,0.\H,0,1.596662,-2.202628,0.\C,0,0.759101,-1.50844,0
 .\H,0,0.080822,-0.525541,-1.928692\H,0,1.757205,-0.189555,-1.463765\C,
 0,0.759101,-0.406803,-1.087809\H,0,0.914383,1.569711,0.\C,0,0.347469,0
 .639812,0.\N,0,-2.193925,1.206944,0.\C,0,-1.06847,0.964678,0.\\Version

 Normal termination of Gaussian 16 at Sun Apr  6 08:12:15 2025.
