 Gaussian 16, Revision C.01,

 ----------------------------------------------------------------------
 #t hf aug-cc-pvdz symm=none int=(grid=ultrafine) guess=(read,tcheck) s
 table=(opt,rrhf)
 ----------------------------------------------------------------------
 -----
 title
 -----
 Symbolic Z-matrix:
 Charge =  0 Multiplicity = 1

 SCF Done:  E(RHF) =  -153.661898498     A.U. after   10 cycles
 Normal termination of Gaussian 16 at Sun Apr  6 08:11:55 2025.
 Gaussian 16:  ES64L-G16RevC.01  3-Jul-2019

 ----------------------------------------------------------------------
 #t hf aug-cc-pvdz iop(5/13=1,5/36=2,99/5=2) pseudo=read geom=check gue
 ss=(read,tcheck) scf=(maxcycle=1)
 ----------------------------------------------------------------------
 -----
 title
 -----
 Structure from the checkpoint file:  "cyclobutadiene.chk"
 Charge =  0 Multiplicity = 1

                         Standard orientation:
 ---------------------------------------------------------------------
 Center     Atomic      Atomic             Coordinates (Angstroms)
 Number     Number       Type             X           Y           Z
 ---------------------------------------------------------------------
      1          6           0        0.000000    0.664652    0.787189
      2          6           0        0.000000    0.664652   -0.787189
      3          6           0       -0.000000   -0.664652    0.787189
      4          6           0       -0.000000   -0.664652   -0.787189
      5          1           0        0.000000    1.428618    1.548923
      6          1           0        0.000000    1.428618   -1.548923
      7          1           0       -0.000000   -1.428618    1.548923
      8          1           0       -0.000000   -1.428618   -1.548923
 ---------------------------------------------------------------------

 SCF Done:  E(RHF) =  -154.403653113     A.U. after    2 cycles

 The electronic state is 1-AG.
 Alpha  occ. eigenvalues --  -11.48405 -11.41691 -11.41140 -11.36784  -1.32295
 Alpha  occ. eigenvalues --   -0.95253  -0.85890  -0.72601  -0.71141  -0.52342
 Alpha  occ. eigenvalues --   -0.50590  -0.47025  -0.42289  -0.25481
 Alpha virt. eigenvalues --    0.03790   0.04897   0.05781   0.05880   0.06764
 Alpha virt. eigenvalues --    0.12668   0.13192   0.13551   0.13615   0.14387
 Alpha virt. eigenvalues --    0.15132   0.15182   0.15404   0.16072   0.16861

 Mulliken charges:
               1
     1  C   -0.989866
     2  C   -0.989866
     3  C   -0.989866
     4  C   -0.989866
     5  H    0.989866
     6  H    0.989866
     7  H    0.989866
     8  H    0.989866
 Sum of Mulliken charges =   0.00000

 Dipole moment (field-independent basis, Debye):
    X=             -0.0000    Y=             -0.0000    Z=              0.0000  Tot=              0.0000

 Test job not archived.
 1\1\GINC-SE167\SP\RHF\Aug-CC-pVDZ\C4H4\OHZDE\06-Apr-2025\0\\#t hf aug-
 cc-pvdz iop(5/13=1,5/36=2,99/5=2) pseudo=read geom=check guess=(read,t
 check) scf=(maxcycle=1)\\title\\0,1\C,0,0.,0.664652,0.787189\C,0,0.,0.
 664652,-0.787189\C,0,0.,-0.664652,0.787189\C,0,0.,-0.664652,-0.787189\
 H,0,0.,1.428618,1.548923\H,0,0.,1.428618,-1.548923\H,0,0.,-1.428618,1.
 548923\H,0,0.,-1.428618,-1.548923\\Version=ES64L-G16RevC.01\State=1-AG
 \HF=-154.4036531\RMSD=1.991e+00\Dipole=0.,0.,0.\Quadrupole=-2.9945466,
 2.4723053,0.5222413,0.,0.,0.\PG=D02H [SG(C4H4)]\\@

 Normal termination of Gaussian 16 at Sun Apr  6 08:12:04 2025.
