 Gaussian 16, Revision C.01,

 ----------------------------------------------------------------------
 #t hf aug-cc-pvdz symm=none int=(grid=ultrafine) guess=(read,tcheck) s
 table=(opt,rrhf)
 ----------------------------------------------------------------------
 -----
 title
 -----
 Symbolic Z-matrix:
 Charge =  0 Multiplicity = 1

 SCF Done:  E(RHF) =  -193.999133794     A.U. after   11 cycles
 Normal termination of Gaussian 16 at Sun Apr  6 08:12:32 2025.
 Gaussian 16:  ES64L-G16RevC.01  3-Jul-2019

 ----------------------------------------------------------------------
 #t hf aug-cc-pvdz iop(5/13=1,5/36=2,99/5=2) pseudo=read geom=check gue
 ss=(read,tcheck) scf=(maxcycle=1)
 ----------------------------------------------------------------------
 -----
 title
 -----
 Structure from the checkpoint file:  "cyclopentene.chk"
 Charge =  0 Multiplicity = 1

                         Standard orientation:
 ---------------------------------------------------------------------
 Center     Atomic      Atomic             Coordinates (Angstroms)
 Number     Number       Type             X           Y           Z
 ---------------------------------------------------------------------
      1          6           0       -0.063692    1.072090    0.664505
      2          6           0       -0.063692    1.072090   -0.664505
      3          6           0       -0.063692   -0.324395    1.233989
      4          6           0       -0.063692   -0.324395   -1.233989
      5          6           0        0.247090   -1.207905   -0.000000
      6          1           0       -0.098837    1.958513    1.283789
      7          1           0       -0.098837    1.958513   -1.283789
      8          1           0        0.667358   -0.455946    2.034338
      9          1           0       -1.041041   -0.560191    1.669221
     10          1           0       -1.041041   -0.560191   -1.669221
     11          1           0        0.667358   -0.455946   -2.034338
     12          1           0        1.305988   -1.468869   -0.000000
     13          1           0       -0.314874   -2.140795   -0.000000
 ---------------------------------------------------------------------

 SCF Done:  E(RHF) =  -194.983331002     A.U. after    2 cycles

 The electronic state is 1-A'.
 Alpha  occ. eigenvalues --  -11.43105 -11.42961 -11.38268 -11.36761 -11.33842
 Alpha  occ. eigenvalues --   -1.31824  -1.02468  -1.02431  -0.82122  -0.74984
 Alpha  occ. eigenvalues --   -0.68542  -0.63736  -0.54856  -0.49873  -0.47408
 Alpha  occ. eigenvalues --   -0.46639  -0.44985  -0.43443  -0.32307
 Alpha virt. eigenvalues --    0.03854   0.05577   0.05802   0.05898   0.06268
 Alpha virt. eigenvalues --    0.06497   0.06500   0.07025   0.12218   0.12842
 Alpha virt. eigenvalues --    0.13325   0.13804   0.14911   0.15405   0.15526

 Mulliken charges:
               1
     1  C   -0.265971
     2  C   -0.265971
     3  C   -3.611738
     4  C   -3.611738
     5  C   -2.694689
     6  H    1.384947
     7  H    1.384947
     8  H    1.203456
     9  H    1.307684
    10  H    1.307684
    11  H    1.203456
    12  H    1.379473
    13  H    1.278461
 Sum of Mulliken charges =   0.00000

 Dipole moment (field-independent basis, Debye):
    X=             -0.0727    Y=             -0.1362    Z=              0.0000  Tot=              0.1544

 Test job not archived.
 1\1\GINC-SE155\SP\RHF\Aug-CC-pVDZ\C5H8\OHZDE\06-Apr-2025\0\\#t hf aug-
 cc-pvdz iop(5/13=1,5/36=2,99/5=2) pseudo=read geom=check guess=(read,t
 check) scf=(maxcycle=1)\\title\\0,1\C,0,-0.063692,1.07209,0.664505\C,0
 ,-0.063692,1.07209,-0.664505\C,0,-0.063692,-0.324395,1.233989\C,0,-0.0
 63692,-0.324395,-1.233989\C,0,0.24709,-1.207905,0.\H,0,-0.098837,1.958
 513,1.283789\H,0,-0.098837,1.958513,-1.283789\H,0,0.667358,-0.455946,2
 .034338\H,0,-1.041041,-0.560191,1.669221\H,0,-1.041041,-0.560191,-1.66
 9221\H,0,0.667358,-0.455946,-2.034338\H,0,1.305988,-1.468869,0.\H,0,-0

 Normal termination of Gaussian 16 at Sun Apr  6 08:12:35 2025.
