 Gaussian 16, Revision C.01,

 ----------------------------------------------------------------------
 #t hf aug-cc-pvdz symm=none int=(grid=ultrafine) guess=(read,tcheck) s
 table=(opt,rrhf)
 ----------------------------------------------------------------------
 -----
 title
 -----
 Symbolic Z-matrix:
 Charge =  0 Multiplicity = 1

 SCF Done:  E(RHF) =  -154.917343715     A.U. after   11 cycles
 Normal termination of Gaussian 16 at Sun Apr  6 08:11:57 2025.
 Gaussian 16:  ES64L-G16RevC.01  3-Jul-2019

 ----------------------------------------------------------------------
 #t hf aug-cc-pvdz iop(5/13=1,5/36=2,99/5=2) pseudo=read geom=check gue
 ss=(read,tcheck) scf=(maxcycle=1)
 ----------------------------------------------------------------------
 -----
 title
 -----
 Structure from the checkpoint file:  "cyclobutene.chk"
 Charge =  0 Multiplicity = 1

                         Standard orientation:
 ---------------------------------------------------------------------
 Center     Atomic      Atomic             Coordinates (Angstroms)
 Number     Number       Type             X           Y           Z
 ---------------------------------------------------------------------
      1          6           0        0.000000    0.667446    0.812417
      2          6           0       -0.000000   -0.667446    0.812417
      3          6           0        0.000000    0.784886   -0.698476
      4          6           0       -0.000000   -0.784886   -0.698476
      5          1           0        0.000000    1.411038    1.598258
      6          1           0       -0.000000   -1.411038    1.598258
      7          1           0        0.886543    1.242452   -1.140953
      8          1           0       -0.886543   -1.242452   -1.140953
      9          1           0       -0.886543    1.242452   -1.140953
     10          1           0        0.886543   -1.242452   -1.140953
 ---------------------------------------------------------------------

 SCF Done:  E(RHF) =  -155.698637270     A.U. after    2 cycles

 The electronic state is 1-A1.
 Alpha  occ. eigenvalues --  -11.46941 -11.40109 -11.38423 -11.34586  -1.32304
 Alpha  occ. eigenvalues --   -0.94012  -0.92320  -0.73589  -0.68789  -0.62527
 Alpha  occ. eigenvalues --   -0.49808  -0.49540  -0.43402  -0.42148  -0.33509
 Alpha virt. eigenvalues --    0.04011   0.05384   0.06047   0.06170   0.06255
 Alpha virt. eigenvalues --    0.06757   0.10895   0.12748   0.12798   0.13466
 Alpha virt. eigenvalues --    0.13667   0.14144   0.14736   0.16243   0.17227

 Mulliken charges:
               1
     1  C   -0.483712
     2  C   -0.483712
     3  C   -3.103432
     4  C   -3.103432
     5  H    1.120487
     6  H    1.120487
     7  H    1.233329
     8  H    1.233329
     9  H    1.233329
    10  H    1.233329
 Sum of Mulliken charges =  -0.00000

 Dipole moment (field-independent basis, Debye):
    X=              0.0000    Y=              0.0000    Z=              0.0073  Tot=              0.0073

 Test job not archived.
 1\1\GINC-SE009\SP\RHF\Aug-CC-pVDZ\C4H6\OHZDE\06-Apr-2025\0\\#t hf aug-
 cc-pvdz iop(5/13=1,5/36=2,99/5=2) pseudo=read geom=check guess=(read,t
 check) scf=(maxcycle=1)\\title\\0,1\C,0,0.,0.667446,0.812417\C,0,0.,-0
 .667446,0.812417\C,0,0.,0.784886,-0.698476\C,0,0.,-0.784886,-0.698476\
 H,0,0.,1.411038,1.598258\H,0,0.,-1.411038,1.598258\H,0,0.886543,1.2424
 52,-1.140953\H,0,-0.886543,-1.242452,-1.140953\H,0,-0.886543,1.242452,
 -1.140953\H,0,0.886543,-1.242452,-1.140953\\Version=ES64L-G16RevC.01\S
 tate=1-A1\HF=-155.6986373\RMSD=1.649e+00\Dipole=0.,0.,0.0028769\Quadru

 Normal termination of Gaussian 16 at Sun Apr  6 08:12:04 2025.
