 Gaussian 16, Revision C.01,

 ----------------------------------------------------------------------
 #t hf aug-cc-pvdz symm=none int=(grid=ultrafine) guess=(read,tcheck) s
 table=(opt,rrhf)
 ----------------------------------------------------------------------
 -----
 title
 -----
 Symbolic Z-matrix:
 Charge =  0 Multiplicity = 1

 SCF Done:  E(RHF) =  -115.836539130     A.U. after   11 cycles
 Normal termination of Gaussian 16 at Sun Apr  6 08:12:25 2025.
 Gaussian 16:  ES64L-G16RevC.01  3-Jul-2019

 ----------------------------------------------------------------------
 #t hf aug-cc-pvdz iop(5/13=1,5/36=2,99/5=2) pseudo=read geom=check gue
 ss=(read,tcheck) scf=(maxcycle=1)
 ----------------------------------------------------------------------
 -----
 title
 -----
 Structure from the checkpoint file:  "cyclopropene.chk"
 Charge =  0 Multiplicity = 1

                         Standard orientation:
 ---------------------------------------------------------------------
 Center     Atomic      Atomic             Coordinates (Angstroms)
 Number     Number       Type             X           Y           Z
 ---------------------------------------------------------------------
      1          6           0        0.000000    0.000000    0.861410
      2          6           0        0.000000    0.643280   -0.499979
      3          6           0       -0.000000   -0.643280   -0.499979
      4          1           0        0.000000    1.571117   -1.041246
      5          1           0       -0.000000   -1.571117   -1.041246
      6          1           0        0.910708   -0.000000    1.456887
      7          1           0       -0.910708    0.000000    1.456887
 ---------------------------------------------------------------------

 SCF Done:  E(RHF) =  -116.407565526     A.U. after    2 cycles

 The electronic state is 1-A1.
 Alpha  occ. eigenvalues --  -11.43638 -11.42164 -11.38144  -1.28469  -0.85471
 Alpha  occ. eigenvalues --   -0.79124  -0.68551  -0.59455  -0.45724  -0.39471
 Alpha  occ. eigenvalues --   -0.33832
 Alpha virt. eigenvalues --    0.03887   0.05222   0.05831   0.06817   0.09865
 Alpha virt. eigenvalues --    0.10677   0.11412   0.12970   0.13582   0.15380
 Alpha virt. eigenvalues --    0.15831   0.15890   0.16377   0.20527   0.22824

 Mulliken charges:
               1
     1  C   -2.623708
     2  C   -0.537421
     3  C   -0.537421
     4  H    0.694281
     5  H    0.694281
     6  H    1.154994
     7  H    1.154994
 Sum of Mulliken charges =   0.00000

 Dipole moment (field-independent basis, Debye):
    X=             -0.0000    Y=             -0.0000    Z=             -0.5575  Tot=              0.5575

 Test job not archived.
 1\1\GINC-SE222\SP\RHF\Aug-CC-pVDZ\C3H4\OHZDE\06-Apr-2025\0\\#t hf aug-
 cc-pvdz iop(5/13=1,5/36=2,99/5=2) pseudo=read geom=check guess=(read,t
 check) scf=(maxcycle=1)\\title\\0,1\C,0,0.,0.,0.86141\C,0,0.,0.64328,-
 0.499979\C,0,0.,-0.64328,-0.499979\H,0,0.,1.571117,-1.041246\H,0,0.,-1
 .571117,-1.041246\H,0,0.910708,0.,1.456887\H,0,-0.910708,0.,1.456887\\
 Version=ES64L-G16RevC.01\State=1-A1\HF=-116.4075655\RMSD=9.405e-01\Dip
 ole=0.,0.,-0.2193531\Quadrupole=-0.9865288,1.2988139,-0.3122851,0.,0.,
 0.\PG=C02V [C2(C1),SGV(C2H2),SGV'(H2)]\\@

 Normal termination of Gaussian 16 at Sun Apr  6 08:12:26 2025.
