 Gaussian 16, Revision C.01,

 ----------------------------------------------------------------------
 #t hf aug-cc-pvdz symm=none int=(grid=ultrafine) guess=(read,tcheck) s
 table=(opt,rrhf)
 ----------------------------------------------------------------------
 -----
 title
 -----
 Symbolic Z-matrix:
 Charge =  0 Multiplicity = 1

 SCF Done:  E(RHF) =  -312.288848937     A.U. after   11 cycles
 Normal termination of Gaussian 16 at Sun Apr  6 08:13:26 2025.
 Gaussian 16:  ES64L-G16RevC.01  3-Jul-2019

 ----------------------------------------------------------------------
 #t hf aug-cc-pvdz iop(5/13=1,5/36=2,99/5=2) pseudo=read geom=check gue
 ss=(read,tcheck) scf=(maxcycle=1)
 ----------------------------------------------------------------------
 -----
 title
 -----
 Structure from the checkpoint file:  "cyclooctane.chk"
 Charge =  0 Multiplicity = 1

                         Standard orientation:
 ---------------------------------------------------------------------
 Center     Atomic      Atomic             Coordinates (Angstroms)
 Number     Number       Type             X           Y           Z
 ---------------------------------------------------------------------
      1          6           0       -0.924984    1.455665    0.000000
      2          6           0       -0.134405    1.385461    1.310207
      3          6           0       -0.134405    1.385461   -1.310207
      4          6           0        0.629237    0.082662    1.610338
      5          6           0        0.629237    0.082662   -1.610338
      6          6           0       -0.134405   -1.227318    1.323869
      7          6           0       -0.134405   -1.227318   -1.323869
      8          6           0        0.207639   -1.929091   -0.000000
      9          1           0       -1.479369    2.398329    0.000000
     10          1           0        0.570283    2.221967    1.352098
     11          1           0        0.570283    2.221967   -1.352098
     12          1           0       -0.845053    1.554786    2.124992
     13          1           0       -0.845053    1.554786   -2.124992
     14          1           0       -1.689785    0.675570    0.000000
     15          1           0        0.902756    0.108766    2.667617
     16          1           0        0.902756    0.108766   -2.667617
     17          1           0        1.576536    0.069346    1.069122
     18          1           0        1.576536    0.069346   -1.069122
     19          1           0       -1.212799   -1.052435    1.383389
     20          1           0       -1.212799   -1.052435   -1.383389
     21          1           0        0.088126   -1.939415    2.121981
     22          1           0        0.088126   -1.939415   -2.121981
     23          1           0        1.281288   -2.147303   -0.000000
     24          1           0       -0.292875   -2.901727   -0.000000
 ---------------------------------------------------------------------

 SCF Done:  E(RHF) =  -313.925050388     A.U. after    2 cycles

 The electronic state is 1-A'.
 Alpha  occ. eigenvalues --  -11.44386 -11.43899 -11.42294 -11.39678 -11.39335
 Alpha  occ. eigenvalues --  -11.35642 -11.35501 -11.32945  -1.29527  -1.16459
 Alpha  occ. eigenvalues --   -1.16409  -0.98031  -0.97616  -0.83061  -0.83038
 Alpha  occ. eigenvalues --   -0.76580  -0.64944  -0.63789  -0.60160  -0.59529
 Alpha  occ. eigenvalues --   -0.58235  -0.57232  -0.54199  -0.50217  -0.47499
 Alpha  occ. eigenvalues --   -0.44732  -0.44604  -0.44344  -0.42941  -0.40307
 Alpha  occ. eigenvalues --   -0.38812  -0.38203
 Alpha virt. eigenvalues --    0.04374   0.05087   0.05090   0.05223   0.05307
 Alpha virt. eigenvalues --    0.05569   0.05995   0.06014   0.06864   0.07973
 Alpha virt. eigenvalues --    0.07992   0.08332   0.08608   0.08748   0.09347

 Mulliken charges:
               1
     1  C   -2.351873
     2  C   -3.010103
     3  C   -3.010103
     4  C   -2.758634
     5  C   -2.758634
     6  C   -2.965277
     7  C   -2.965277
     8  C   -2.693508
     9  H    1.170675
    10  H    1.316810
    11  H    1.316810
    12  H    1.240314
    13  H    1.240314
    14  H    1.846309
    15  H    1.199008
    16  H    1.199008
    17  H    1.827999
    18  H    1.827999
    19  H    1.635046
    20  H    1.635046
    21  H    1.260697
    22  H    1.260697
    23  H    1.334920
    24  H    1.201754
 Sum of Mulliken charges =  -0.00000

 Dipole moment (field-independent basis, Debye):
    X=             -0.0197    Y=             -0.0445    Z=             -0.0000  Tot=              0.0487

 Test job not archived.
 1\1\GINC-SE364\SP\RHF\Aug-CC-pVDZ\C8H16\OHZDE\06-Apr-2025\0\\#t hf aug
 -cc-pvdz iop(5/13=1,5/36=2,99/5=2) pseudo=read geom=check guess=(read,
 tcheck) scf=(maxcycle=1)\\title\\0,1\C,0,-0.924984,1.455665,0.\C,0,-0.
 134405,1.385461,1.310207\C,0,-0.134405,1.385461,-1.310207\C,0,0.629237
 ,0.082662,1.610338\C,0,0.629237,0.082662,-1.610338\C,0,-0.134405,-1.22
 7318,1.323869\C,0,-0.134405,-1.227318,-1.323869\C,0,0.207639,-1.929091
 ,0.\H,0,-1.479369,2.398329,0.\H,0,0.570283,2.221967,1.352098\H,0,0.570
 283,2.221967,-1.352098\H,0,-0.845053,1.554786,2.124992\H,0,-0.845053,1

 Normal termination of Gaussian 16 at Sun Apr  6 08:13:33 2025.
