 Gaussian 16, Revision C.01,

 ----------------------------------------------------------------------
 #t hf aug-cc-pvdz symm=none int=(grid=ultrafine) guess=(read,tcheck) s
 table=(opt,rrhf)
 ----------------------------------------------------------------------
 -----
 title
 -----
 Symbolic Z-matrix:
 Charge =  0 Multiplicity = 1

 SCF Done:  E(RHF) =  -211.151547250     A.U. after   12 cycles
 Normal termination of Gaussian 16 at Sun Apr  6 08:12:09 2025.
 Gaussian 16:  ES64L-G16RevC.01  3-Jul-2019

 ----------------------------------------------------------------------
 #t hf aug-cc-pvdz iop(5/13=1,5/36=2,99/5=2) pseudo=read geom=check gue
 ss=(read,tcheck) scf=(maxcycle=1)
 ----------------------------------------------------------------------
 -----
 title
 -----
 Structure from the checkpoint file:  "cyclobutylamine.chk"
 Charge =  0 Multiplicity = 1

                         Standard orientation:
 ---------------------------------------------------------------------
 Center     Atomic      Atomic             Coordinates (Angstroms)
 Number     Number       Type             X           Y           Z
 ---------------------------------------------------------------------
      1          7           0       -1.392026    0.964971   -0.000000
      2          1           0       -1.686104    1.489839    0.815536
      3          1           0       -1.686104    1.489839   -0.815536
      4          6           0        0.483446   -0.254439   -1.082525
      5          1           0       -0.198668   -0.373542   -1.923807
      6          1           0        1.483527   -0.047564   -1.463346
      7          6           0        0.483446   -0.254439    1.082525
      8          1           0       -0.198668   -0.373542    1.923807
      9          1           0        1.483527   -0.047564    1.463346
     10          6           0        0.057064    0.770920   -0.000000
     11          1           0        0.619951    1.711232   -0.000000
     12          6           0        0.483446   -1.364057    0.000000
     13          1           0        1.324266   -2.055871    0.000000
     14          1           0       -0.441946   -1.935530    0.000000
 ---------------------------------------------------------------------

 SCF Done:  E(RHF) =  -212.217679005     A.U. after    2 cycles

 The electronic state is 1-A'.
 Alpha  occ. eigenvalues --  -15.72336 -11.47875 -11.38866 -11.38037 -11.33137
 Alpha  occ. eigenvalues --   -1.38111  -1.20330  -0.95128  -0.91615  -0.76807
 Alpha  occ. eigenvalues --   -0.67656  -0.63944  -0.63786  -0.54549  -0.52955
 Alpha  occ. eigenvalues --   -0.45081  -0.44604  -0.41483  -0.39302  -0.33741
 Alpha virt. eigenvalues --    0.04332   0.05465   0.05737   0.05925   0.06130
 Alpha virt. eigenvalues --    0.06313   0.06727   0.07241   0.07464   0.12817
 Alpha virt. eigenvalues --    0.13528   0.13632   0.14539   0.14669   0.14955

 Mulliken charges:
               1
     1  N   -2.933829
     2  H    0.545592
     3  H    0.545592
     4  C   -2.703241
     5  H    1.369057
     6  H    1.291023
     7  C   -2.703241
     8  H    1.369057
     9  H    1.291023
    10  C    0.512295
    11  H    1.581116
    12  C   -2.719358
    13  H    1.253110
    14  H    1.301806
 Sum of Mulliken charges =   0.00000

 Dipole moment (field-independent basis, Debye):
    X=              0.2247    Y=              0.9758    Z=              0.0000  Tot=              1.0013

 Test job not archived.
 1\1\GINC-SE010\SP\RHF\Aug-CC-pVDZ\C4H9N1\OHZDE\06-Apr-2025\0\\#t hf au
 g-cc-pvdz iop(5/13=1,5/36=2,99/5=2) pseudo=read geom=check guess=(read
 ,tcheck) scf=(maxcycle=1)\\title\\0,1\N,0,-1.392026,0.964971,0.\H,0,-1
 .686104,1.489839,0.815536\H,0,-1.686104,1.489839,-0.815536\C,0,0.48344
 6,-0.254439,-1.082525\H,0,-0.198668,-0.373542,-1.923807\H,0,1.483527,-
 0.047564,-1.463346\C,0,0.483446,-0.254439,1.082525\H,0,-0.198668,-0.37
 3542,1.923807\H,0,1.483527,-0.047564,1.463346\C,0,0.057064,0.77092,0.\
 H,0,0.619951,1.711232,0.\C,0,0.483446,-1.364057,0.\H,0,1.324266,-2.055

 Normal termination of Gaussian 16 at Sun Apr  6 08:12:12 2025.
