 Gaussian 16, Revision C.01,

 ----------------------------------------------------------------------
 #t hf aug-cc-pvdz symm=none int=(grid=ultrafine) guess=(read,tcheck) s
 table=(opt,rrhf)
 ----------------------------------------------------------------------
 -----
 title
 -----
 Symbolic Z-matrix:
 Charge =  0 Multiplicity = 1

 SCF Done:  E(RHF) =  -592.718638495     A.U. after   12 cycles

 1\1\GINC-SE104\Stability\RHF\Aug-CC-pVDZ\C5H10S1\OHZDE\06-Apr-2025\0\\
 #t hf aug-cc-pvdz symm=none int=(grid=ultrafine) guess=(read,tcheck) s
 table=(opt,rrhf)\\title\\0,1\H,0,-2.590075,1.232318,-0.681766\H,0,-2.2
 38693,1.10127,1.02853\C,0,-1.912106,0.776892,0.039228\H,0,-2.427878,-1
 .128437,-0.935303\H,0,-2.435411,-1.206457,0.811001\C,0,-1.913085,-0.77
 5183,-0.042566\H,0,-0.116781,-1.457884,-1.078076\H,0,-0.224491,-2.0762
 59,0.562195\C,0,-0.425486,-1.206167,-0.060963\H,0,-0.202025,2.158408,0
 .251061\H,0,-0.233592,1.261134,-1.263701\C,0,-0.451026,1.195668,-0.195

 Normal termination of Gaussian 16 at Sun Apr  6 08:12:50 2025.
 Gaussian 16:  ES64L-G16RevC.01  3-Jul-2019

 ----------------------------------------------------------------------
 #t hf aug-cc-pvdz iop(5/13=1,5/36=2,99/5=2) pseudo=read geom=check gue
 ss=(read,tcheck) scf=(maxcycle=1)
 ----------------------------------------------------------------------
 -----
 title
 -----
 Structure from the checkpoint file:  "cyclopentanethiol.chk"
 Charge =  0 Multiplicity = 1

                         Standard orientation:
 ---------------------------------------------------------------------
 Center     Atomic      Atomic             Coordinates (Angstroms)
 Number     Number       Type             X           Y           Z
 ---------------------------------------------------------------------
      1          1           0       -2.590075    1.232318   -0.681766
      2          1           0       -2.238693    1.101270    1.028530
      3          6           0       -1.912106    0.776892    0.039228
      4          1           0       -2.427878   -1.128437   -0.935303
      5          1           0       -2.435411   -1.206457    0.811001
      6          6           0       -1.913085   -0.775183   -0.042566
      7          1           0       -0.116781   -1.457884   -1.078076
      8          1           0       -0.224491   -2.076259    0.562195
      9          6           0       -0.425486   -1.206167   -0.060963
     10          1           0       -0.202025    2.158408    0.251061
     11          1           0       -0.233592    1.261134   -1.263701
     12          6           0       -0.451026    1.195668   -0.195623
     13          1           0        0.319079    0.094769    1.494721
     14          6           0        0.345505    0.036292    0.405726
     15          1           0        2.525374    1.067170    0.480115
     16         16           0        2.110105   -0.075690   -0.096475
 ---------------------------------------------------------------------

 SCF Done:  E(RHF) =  -593.952174577     A.U. after    2 cycles

 The electronic state is 1-A.
 Alpha  occ. eigenvalues --  -75.67764 -13.13845 -13.08999 -13.01932 -11.46807
 Alpha  occ. eigenvalues --  -11.43913 -11.38323 -11.37929 -11.34456  -8.01632
 Alpha  occ. eigenvalues --   -1.34508  -1.12826  -1.04684  -0.98967  -0.82430
 Alpha  occ. eigenvalues --   -0.80886  -0.67652  -0.64078  -0.58942  -0.58467
 Alpha  occ. eigenvalues --   -0.49801  -0.46957  -0.46413  -0.44723  -0.44446
 Alpha  occ. eigenvalues --   -0.42489  -0.36204  -0.23187
 Alpha virt. eigenvalues --    0.03678   0.04660   0.05712   0.05827   0.05851
 Alpha virt. eigenvalues --    0.05910   0.06115   0.06313   0.06750   0.09285
 Alpha virt. eigenvalues --    0.10671   0.12082   0.13779   0.14019   0.14482

 Mulliken charges:
               1
     1  H    1.326736
     2  H    1.327127
     3  C   -2.763187
     4  H    1.352336
     5  H    1.331471
     6  C   -2.535924
     7  H    1.436158
     8  H    1.308142
     9  C   -3.094134
    10  H    1.323433
    11  H    1.541811
    12  C   -2.776503
    13  H    1.557689
    14  C   -1.706892
    15  H    0.928424
    16  S   -0.556687
 Sum of Mulliken charges =  -0.00000

 Dipole moment (field-independent basis, Debye):
    X=             -0.8468    Y=             -0.7743    Z=             -0.2734  Tot=              1.1795

 Test job not archived.
 1\1\GINC-SE104\SP\RHF\Aug-CC-pVDZ\C5H10S1\OHZDE\06-Apr-2025\0\\#t hf a
 ug-cc-pvdz iop(5/13=1,5/36=2,99/5=2) pseudo=read geom=check guess=(rea
 d,tcheck) scf=(maxcycle=1)\\title\\0,1\H,0,-2.590075,1.232318,-0.68176
 6\H,0,-2.238693,1.10127,1.02853\C,0,-1.912106,0.776892,0.039228\H,0,-2
 .427878,-1.128437,-0.935303\H,0,-2.435411,-1.206457,0.811001\C,0,-1.91
 3085,-0.775183,-0.042566\H,0,-0.116781,-1.457884,-1.078076\H,0,-0.2244
 91,-2.076259,0.562195\C,0,-0.425486,-1.206167,-0.060963\H,0,-0.202025,
 2.158408,0.251061\H,0,-0.233592,1.261134,-1.263701\C,0,-0.451026,1.195

 Normal termination of Gaussian 16 at Sun Apr  6 08:12:57 2025.
