 Gaussian 16, Revision C.01,

 ----------------------------------------------------------------------
 #t hf aug-cc-pvdz symm=none int=(grid=ultrafine) guess=(read,tcheck) s
 table=(opt,rrhf)
 ----------------------------------------------------------------------
 -----
 title
 -----
 Symbolic Z-matrix:
 Charge =  0 Multiplicity = 1

 SCF Done:  E(RHF) =  -289.268718044     A.U. after   12 cycles

 1\1\GINC-SE364\Stability\RHF\Aug-CC-pVDZ\C6H13N1\OHZDE\06-Apr-2025\0\\
 #t hf aug-cc-pvdz symm=none int=(grid=ultrafine) guess=(read,tcheck) s
 table=(opt,rrhf)\\title\\0,1\C,0,-0.974235,1.501801,0.\C,0,-0.31371,0.
 943702,1.264192\C,0,-0.31371,0.943702,-1.264192\C,0,-0.31371,-0.588507
 ,1.262787\C,0,-0.31371,-0.588507,-1.262787\C,0,0.322144,-1.187508,0.\N
 ,0,1.768888,-0.919814,0.\H,0,-2.037859,1.237524,0.\H,0,-0.926534,2.593
 057,0.\H,0,0.714983,1.30509,1.322149\H,0,-0.829805,1.310092,2.154594\H
 ,0,-0.829805,1.310092,-2.154594\H,0,0.714983,1.30509,-1.322149\H,0,0.2

 Normal termination of Gaussian 16 at Sun Apr  6 08:12:45 2025.
 Gaussian 16:  ES64L-G16RevC.01  3-Jul-2019

 ----------------------------------------------------------------------
 #t hf aug-cc-pvdz iop(5/13=1,5/36=2,99/5=2) pseudo=read geom=check gue
 ss=(read,tcheck) scf=(maxcycle=1)
 ----------------------------------------------------------------------
 -----
 title
 -----
 Structure from the checkpoint file:  "cyclohexylamine.chk"
 Charge =  0 Multiplicity = 1

                         Standard orientation:
 ---------------------------------------------------------------------
 Center     Atomic      Atomic             Coordinates (Angstroms)
 Number     Number       Type             X           Y           Z
 ---------------------------------------------------------------------
      1          6           0       -0.974235    1.501801   -0.000000
      2          6           0       -0.313710    0.943702    1.264192
      3          6           0       -0.313710    0.943702   -1.264192
      4          6           0       -0.313710   -0.588507    1.262787
      5          6           0       -0.313710   -0.588507   -1.262787
      6          6           0        0.322144   -1.187508    0.000000
      7          7           0        1.768888   -0.919814    0.000000
      8          1           0       -2.037859    1.237524   -0.000000
      9          1           0       -0.926534    2.593057   -0.000000
     10          1           0        0.714983    1.305090    1.322149
     11          1           0       -0.829805    1.310092    2.154594
     12          1           0       -0.829805    1.310092   -2.154594
     13          1           0        0.714983    1.305090   -1.322149
     14          1           0        0.204080   -0.970114    2.147778
     15          1           0       -1.343580   -0.952418    1.329721
     16          1           0       -1.343580   -0.952418   -1.329721
     17          1           0        0.204080   -0.970114   -2.147778
     18          1           0        0.112103   -2.266434    0.000000
     19          1           0        2.210148   -1.329430   -0.814645
     20          1           0        2.210148   -1.329430    0.814645
 ---------------------------------------------------------------------

 SCF Done:  E(RHF) =  -290.743951038     A.U. after    2 cycles

 The electronic state is 1-A'.
 Alpha  occ. eigenvalues --  -15.71853 -11.43977 -11.42790 -11.40985 -11.37170
 Alpha  occ. eigenvalues --  -11.36702 -11.32817  -1.37213  -1.22737  -1.09642
 Alpha  occ. eigenvalues --   -1.05381  -0.87805  -0.85861  -0.75907  -0.66513
 Alpha  occ. eigenvalues --   -0.65002  -0.62325  -0.59643  -0.57455  -0.53257
 Alpha  occ. eigenvalues --   -0.51713  -0.46595  -0.46221  -0.45421  -0.43784
 Alpha  occ. eigenvalues --   -0.39073  -0.37814  -0.33719
 Alpha virt. eigenvalues --    0.04179   0.05038   0.05263   0.05384   0.05736
 Alpha virt. eigenvalues --    0.05786   0.06107   0.06183   0.06899   0.08398
 Alpha virt. eigenvalues --    0.08832   0.09050   0.09228   0.12982   0.13727

 Mulliken charges:
               1
     1  C   -2.708857
     2  C   -2.956804
     3  C   -2.956804
     4  C   -2.889248
     5  C   -2.889248
     6  C    1.435578
     7  N   -3.183844
     8  H    1.417269
     9  H    1.322381
    10  H    1.460274
    11  H    1.252331
    12  H    1.252331
    13  H    1.460274
    14  H    1.363168
    15  H    1.253066
    16  H    1.253066
    17  H    1.363168
    18  H    1.622218
    19  H    0.564840
    20  H    0.564840
 Sum of Mulliken charges =  -0.00000

 Dipole moment (field-independent basis, Debye):
    X=              0.1452    Y=             -0.8892    Z=             -0.0000  Tot=              0.9010

 Test job not archived.
 1\1\GINC-SE364\SP\RHF\Aug-CC-pVDZ\C6H13N1\OHZDE\06-Apr-2025\0\\#t hf a
 ug-cc-pvdz iop(5/13=1,5/36=2,99/5=2) pseudo=read geom=check guess=(rea
 d,tcheck) scf=(maxcycle=1)\\title\\0,1\C,0,-0.974235,1.501801,0.\C,0,-
 0.31371,0.943702,1.264192\C,0,-0.31371,0.943702,-1.264192\C,0,-0.31371
 ,-0.588507,1.262787\C,0,-0.31371,-0.588507,-1.262787\C,0,0.322144,-1.1
 87508,0.\N,0,1.768888,-0.919814,0.\H,0,-2.037859,1.237524,0.\H,0,-0.92
 6534,2.593057,0.\H,0,0.714983,1.30509,1.322149\H,0,-0.829805,1.310092,
 2.154594\H,0,-0.829805,1.310092,-2.154594\H,0,0.714983,1.30509,-1.3221

 Normal termination of Gaussian 16 at Sun Apr  6 08:12:51 2025.
