 Gaussian 16, Revision C.01,

 ----------------------------------------------------------------------
 #t hf aug-cc-pvdz symm=none int=(grid=ultrafine) guess=(read,tcheck) s
 table=(opt,rrhf)
 ----------------------------------------------------------------------
 -----
 title
 -----
 Symbolic Z-matrix:
 Charge =  0 Multiplicity = 1

 SCF Done:  E(RHF) =  -269.712399223     A.U. after   13 cycles
 Normal termination of Gaussian 16 at Sun Apr  6 08:12:26 2025.
 Gaussian 16:  ES64L-G16RevC.01  3-Jul-2019

 ----------------------------------------------------------------------
 #t hf aug-cc-pvdz iop(5/13=1,5/36=2,99/5=2) pseudo=read geom=check gue
 ss=(read,tcheck) scf=(maxcycle=1)
 ----------------------------------------------------------------------
 -----
 title
 -----
 Structure from the checkpoint file:  "cycloheptatriene.chk"
 Charge =  0 Multiplicity = 1

                         Standard orientation:
 ---------------------------------------------------------------------
 Center     Atomic      Atomic             Coordinates (Angstroms)
 Number     Number       Type             X           Y           Z
 ---------------------------------------------------------------------
      1          6           0       -0.252782   -1.416887    0.679421
      2          6           0       -0.252782   -1.416887   -0.679421
      3          6           0        0.246301   -0.359998    1.524391
      4          6           0        0.246301   -0.359998   -1.524391
      5          6           0        0.246301    0.949673    1.219657
      6          6           0        0.246301    0.949673   -1.219657
      7          6           0       -0.452117    1.486050    0.000000
      8          1           0       -0.530553   -2.340484    1.174711
      9          1           0       -0.530553   -2.340484   -1.174711
     10          1           0        0.673266   -0.666831    2.473189
     11          1           0        0.673266   -0.666831   -2.473189
     12          1           0        0.749061    1.649053    1.876836
     13          1           0        0.749061    1.649053   -1.876836
     14          1           0       -1.495770    1.152463    0.000000
     15          1           0       -0.452905    2.574307    0.000000
 ---------------------------------------------------------------------

 SCF Done:  E(RHF) =  -271.036639560     A.U. after    2 cycles

 The electronic state is 1-A'.
 Alpha  occ. eigenvalues --  -11.46395 -11.43889 -11.42934 -11.40491 -11.39646
 Alpha  occ. eigenvalues --  -11.38629 -11.35777  -1.31761  -1.13424  -1.13051
 Alpha  occ. eigenvalues --   -0.94555  -0.89768  -0.75178  -0.70074  -0.70057
 Alpha  occ. eigenvalues --   -0.61748  -0.61015  -0.56973  -0.49477  -0.48564
 Alpha  occ. eigenvalues --   -0.47744  -0.45306  -0.41863  -0.33389  -0.28558
 Alpha virt. eigenvalues --    0.03532   0.04936   0.05304   0.05963   0.06069
 Alpha virt. eigenvalues --    0.06308   0.07149   0.07259   0.09896   0.11615
 Alpha virt. eigenvalues --    0.11919   0.13321   0.14058   0.14430   0.14876

 Mulliken charges:
               1
     1  C   -0.703604
     2  C   -0.703604
     3  C   -1.110271
     4  C   -1.110271
     5  C   -1.106726
     6  C   -1.106726
     7  C   -4.485249
     8  H    1.310711
     9  H    1.310711
    10  H    1.359642
    11  H    1.359642
    12  H    1.282810
    13  H    1.282810
    14  H    1.284861
    15  H    1.135262
 Sum of Mulliken charges =   0.00000

 Dipole moment (field-independent basis, Debye):
    X=              0.1246    Y=              0.3706    Z=              0.0000  Tot=              0.3910

 Test job not archived.
 1\1\GINC-SE012\SP\RHF\Aug-CC-pVDZ\C7H8\OHZDE\06-Apr-2025\0\\#t hf aug-
 cc-pvdz iop(5/13=1,5/36=2,99/5=2) pseudo=read geom=check guess=(read,t
 check) scf=(maxcycle=1)\\title\\0,1\C,0,-0.252782,-1.416887,0.679421\C
 ,0,-0.252782,-1.416887,-0.679421\C,0,0.246301,-0.359998,1.524391\C,0,0
 .246301,-0.359998,-1.524391\C,0,0.246301,0.949673,1.219657\C,0,0.24630
 1,0.949673,-1.219657\C,0,-0.452117,1.48605,0.\H,0,-0.530553,-2.340484,
 1.174711\H,0,-0.530553,-2.340484,-1.174711\H,0,0.673266,-0.666831,2.47
 3189\H,0,0.673266,-0.666831,-2.473189\H,0,0.749061,1.649053,1.876836\H

 Normal termination of Gaussian 16 at Sun Apr  6 08:12:30 2025.
