 Gaussian 16, Revision C.01,

 ----------------------------------------------------------------------
 #t hf aug-cc-pvdz symm=none int=(grid=ultrafine) guess=(read,tcheck) s
 table=(opt,rrhf)
 ----------------------------------------------------------------------
 -----
 title
 -----
 Symbolic Z-matrix:
 Charge =  0 Multiplicity = 1

 SCF Done:  E(RHF) =  -458.848569584     A.U. after   12 cycles

 1\1\GINC-SE012\Stability\RHF\Aug-CC-pVDZ\C6H12O3\OHZDE\06-Apr-2025\0\\
 #t hf aug-cc-pvdz symm=none int=(grid=ultrafine) guess=(read,tcheck) s
 table=(opt,rrhf)\\title\\0,1\C,0,-1.366891,0.474228,-0.146969\C,0,0.27
 5353,-1.434457,-0.131432\C,0,1.099759,0.948113,-0.139858\C,0,-1.098479
 ,-0.958309,0.321858\C,0,-0.269625,1.432558,0.31925\C,0,1.373754,-0.482
 882,0.325882\O,0,-2.056536,-1.879394,-0.2041\O,0,-0.446869,2.750757,-0
 .204758\O,0,2.605127,-0.984857,-0.196602\H,0,-1.412028,0.488864,-1.238
 475\H,0,-2.339459,0.812617,0.226852\H,0,0.466279,-2.43616,0.253202\H,0

 Normal termination of Gaussian 16 at Sun Apr  6 08:13:29 2025.
 Gaussian 16:  ES64L-G16RevC.01  3-Jul-2019

 ----------------------------------------------------------------------
 #t hf aug-cc-pvdz iop(5/13=1,5/36=2,99/5=2) pseudo=read geom=check gue
 ss=(read,tcheck) scf=(maxcycle=1)
 ----------------------------------------------------------------------
 -----
 title
 -----
 Structure from the checkpoint file:  "cyclohexane-1-3-5-triol.chk"
 Charge =  0 Multiplicity = 1

                         Standard orientation:
 ---------------------------------------------------------------------
 Center     Atomic      Atomic             Coordinates (Angstroms)
 Number     Number       Type             X           Y           Z
 ---------------------------------------------------------------------
      1          6           0       -1.366892    0.474226   -0.146969
      2          6           0        0.275355   -1.434457   -0.131432
      3          6           0        1.099758    0.948114   -0.139858
      4          6           0       -1.098478   -0.958311    0.321858
      5          6           0       -0.269627    1.432557    0.319250
      6          6           0        1.373755   -0.482880    0.325882
      7          8           0       -2.056533   -1.879397   -0.204100
      8          8           0       -0.446873    2.750756   -0.204758
      9          8           0        2.605129   -0.984853   -0.196602
     10          1           0       -1.412029    0.488862   -1.238475
     11          1           0       -2.339460    0.812613    0.226852
     12          1           0        0.466283   -2.436159    0.253202
     13          1           0        0.288583   -1.495060   -1.222313
     14          1           0        1.141056    0.982012   -1.231171
     15          1           0        1.867906    1.627154    0.238193
     16          1           0       -1.139104   -0.987593    1.419260
     17          1           0       -0.278933    1.479267    1.416737
     18          1           0        1.418950   -0.497587    1.423644
     19          1           0       -2.934025   -1.628562    0.100071
     20          1           0       -1.297935    3.093157    0.085131
     21          1           0        3.321705   -0.405646    0.080163
 ---------------------------------------------------------------------

 SCF Done:  E(RHF) =  -460.942644425     A.U. after    2 cycles

 The electronic state is 1-A.
 Alpha  occ. eigenvalues --  -21.07142 -21.06873 -21.06572 -11.48202 -11.47902
 Alpha  occ. eigenvalues --  -11.45277 -11.41276 -11.40834 -11.35432  -1.73799
 Alpha  occ. eigenvalues --   -1.70293  -1.70014  -1.25958  -1.08535  -1.08463
 Alpha  occ. eigenvalues --   -0.88070  -0.87333  -0.80452  -0.67257  -0.66922
 Alpha  occ. eigenvalues --   -0.66248  -0.63653  -0.60712  -0.55782  -0.52216
 Alpha  occ. eigenvalues --   -0.50865  -0.50491  -0.49561  -0.47447  -0.44648
 Alpha  occ. eigenvalues --   -0.41744  -0.39004  -0.38126  -0.34354  -0.31226
 Alpha  occ. eigenvalues --   -0.29313
 Alpha virt. eigenvalues --    0.03747   0.04451   0.04693   0.04866   0.05503
 Alpha virt. eigenvalues --    0.06050   0.06237   0.07158   0.07393   0.07765
 Alpha virt. eigenvalues --    0.08486   0.08663   0.12689   0.13505   0.13875

 Mulliken charges:
               1
     1  C   -3.713087
     2  C   -3.984799
     3  C   -3.745155
     4  C    2.310934
     5  C    2.154128
     6  C    2.408758
     7  O   -3.506859
     8  O   -3.494942
     9  O   -3.533516
    10  H    1.275271
    11  H    1.363613
    12  H    1.378343
    13  H    1.220955
    14  H    1.247111
    15  H    1.366836
    16  H    1.676202
    17  H    1.682207
    18  H    1.671060
    19  H    0.737119
    20  H    0.733660
    21  H    0.752162
 Sum of Mulliken charges =  -0.00000

 Dipole moment (field-independent basis, Debye):
    X=             -0.5762    Y=              0.6589    Z=              1.1009  Tot=              1.4065

 Test job not archived.
 1\1\GINC-SE012\SP\RHF\Aug-CC-pVDZ\C6H12O3\OHZDE\06-Apr-2025\0\\#t hf a
 ug-cc-pvdz iop(5/13=1,5/36=2,99/5=2) pseudo=read geom=check guess=(rea
 d,tcheck) scf=(maxcycle=1)\\title\\0,1\C,0,-1.366891,0.474228,-0.14696
 9\C,0,0.275353,-1.434457,-0.131432\C,0,1.099759,0.948113,-0.139858\C,0
 ,-1.098479,-0.958309,0.321858\C,0,-0.269625,1.432558,0.31925\C,0,1.373
 754,-0.482882,0.325882\O,0,-2.056536,-1.879394,-0.2041\O,0,-0.446869,2
 .750757,-0.204758\O,0,2.605127,-0.984857,-0.196602\H,0,-1.412028,0.488
 864,-1.238475\H,0,-2.339459,0.812617,0.226852\H,0,0.466279,-2.43616,0.

 Normal termination of Gaussian 16 at Sun Apr  6 08:13:40 2025.
