 Gaussian 16, Revision C.01,

 ----------------------------------------------------------------------
 #t hf aug-cc-pvdz symm=none int=(grid=ultrafine) guess=(read,tcheck) s
 table=(opt,rrhf)
 ----------------------------------------------------------------------
 -----
 title
 -----
 Symbolic Z-matrix:
 Charge =  0 Multiplicity = 1

 SCF Done:  E(RHF) =  -381.651089816     A.U. after   12 cycles
 Normal termination of Gaussian 16 at Sun Apr  6 08:12:34 2025.
 Gaussian 16:  ES64L-G16RevC.01  3-Jul-2019

 ----------------------------------------------------------------------
 #t hf aug-cc-pvdz iop(5/13=1,5/36=2,99/5=2) pseudo=read geom=check gue
 ss=(read,tcheck) scf=(maxcycle=1)
 ----------------------------------------------------------------------
 -----
 title
 -----
 Structure from the checkpoint file:  "cyclohexane-1-4-dione.chk"
 Charge =  0 Multiplicity = 1

                         Standard orientation:
 ---------------------------------------------------------------------
 Center     Atomic      Atomic             Coordinates (Angstroms)
 Number     Number       Type             X           Y           Z
 ---------------------------------------------------------------------
      1          6           0       -0.061344    1.463150   -0.000000
      2          6           0        0.061344   -1.463150   -0.000000
      3          6           0       -0.332830    0.695697    1.281972
      4          6           0       -0.332830    0.695697   -1.281972
      5          6           0        0.332830   -0.695697    1.281972
      6          6           0        0.332830   -0.695697   -1.281972
      7          8           0        0.332830    2.606139   -0.000000
      8          8           0       -0.332830   -2.606139   -0.000000
      9          1           0       -0.003435    1.294970    2.128181
     10          1           0       -1.417638    0.571706    1.364952
     11          1           0       -1.417638    0.571706   -1.364952
     12          1           0       -0.003435    1.294970   -2.128181
     13          1           0        0.003435   -1.294970    2.128181
     14          1           0        1.417638   -0.571706    1.364952
     15          1           0        1.417638   -0.571706   -1.364952
     16          1           0        0.003435   -1.294970   -2.128181
 ---------------------------------------------------------------------

 SCF Done:  E(RHF) =  -383.378152693     A.U. after    2 cycles

 The electronic state is 1-AG.
 Alpha  occ. eigenvalues --  -21.06441 -21.06437 -11.51208 -11.50527 -11.46138
 Alpha  occ. eigenvalues --  -11.43606 -11.40847 -11.39072  -1.72771  -1.71107
 Alpha  occ. eigenvalues --   -1.29005  -1.15380  -1.04409  -0.94717  -0.81112
 Alpha  occ. eigenvalues --   -0.73091  -0.66433  -0.64563  -0.62969  -0.60936
 Alpha  occ. eigenvalues --   -0.59196  -0.56799  -0.51114  -0.50777  -0.49309
 Alpha  occ. eigenvalues --   -0.45642  -0.43667  -0.40202  -0.29269  -0.28354
 Alpha virt. eigenvalues --    0.02988   0.04546   0.04626   0.05969   0.06126
 Alpha virt. eigenvalues --    0.06145   0.06839   0.08576   0.09145   0.11188
 Alpha virt. eigenvalues --    0.11487   0.11994   0.12328   0.13271   0.13381

 Mulliken charges:
               1
     1  C    5.273000
     2  C    5.273000
     3  C   -3.581772
     4  C   -3.581772
     5  C   -3.581772
     6  C   -3.581772
     7  O   -3.582780
     8  O   -3.582780
     9  H    1.349130
    10  H    1.387532
    11  H    1.387532
    12  H    1.349130
    13  H    1.349130
    14  H    1.387532
    15  H    1.387532
    16  H    1.349130
 Sum of Mulliken charges =  -0.00000

 Dipole moment (field-independent basis, Debye):
    X=             -0.0000    Y=             -0.0000    Z=             -0.0000  Tot=              0.0000

 Test job not archived.
 1\1\GINC-SE013\SP\RHF\Aug-CC-pVDZ\C6H8O2\OHZDE\06-Apr-2025\0\\#t hf au
 g-cc-pvdz iop(5/13=1,5/36=2,99/5=2) pseudo=read geom=check guess=(read
 ,tcheck) scf=(maxcycle=1)\\title\\0,1\C,0,-0.061344,1.46315,0.\C,0,0.0
 61344,-1.46315,0.\C,0,-0.33283,0.695697,1.281972\C,0,-0.33283,0.695697
 ,-1.281972\C,0,0.33283,-0.695697,1.281972\C,0,0.33283,-0.695697,-1.281
 972\O,0,0.33283,2.606139,0.\O,0,-0.33283,-2.606139,0.\H,0,-0.003435,1.
 29497,2.128181\H,0,-1.417638,0.571706,1.364952\H,0,-1.417638,0.571706,
 -1.364952\H,0,-0.003435,1.29497,-2.128181\H,0,0.003435,-1.29497,2.1281

 Normal termination of Gaussian 16 at Sun Apr  6 08:12:39 2025.
