 Gaussian 16, Revision C.01,

 ----------------------------------------------------------------------
 #t hf aug-cc-pvdz symm=none int=(grid=ultrafine) guess=(read,tcheck) s
 table=(opt,rrhf)
 ----------------------------------------------------------------------
 -----
 title
 -----
 Symbolic Z-matrix:
 Charge =  0 Multiplicity = 1

 SCF Done:  E(RHF) =  -348.131177501     A.U. after   12 cycles

 1\1\GINC-SE014\Stability\RHF\Aug-CC-pVDZ\C7H14O1\OHZDE\06-Apr-2025\0\\
 #t hf aug-cc-pvdz symm=none int=(grid=ultrafine) guess=(read,tcheck) s
 table=(opt,rrhf)\\title\\0,1\C,0,1.73728,0.792495,-0.479503\C,0,2.0198
 7,-0.672323,-0.100223\C,0,0.725512,1.538451,0.401741\C,0,0.827926,-1.4
 95424,0.414755\C,0,-0.7392,1.302862,0.010037\C,0,-0.519506,-1.262644,-
 0.28354\C,0,-1.31536,-0.085645,0.291439\O,0,-2.684418,-0.139555,-0.132
 94\H,0,2.688253,1.329635,-0.472454\H,0,1.383423,0.840676,-1.513335\H,0
 ,2.448382,-1.17047,-0.97396\H,0,2.799085,-0.698261,0.666057\H,0,0.8800

 Normal termination of Gaussian 16 at Sun Apr  6 08:13:18 2025.
 Gaussian 16:  ES64L-G16RevC.01  3-Jul-2019

 ----------------------------------------------------------------------
 #t hf aug-cc-pvdz iop(5/13=1,5/36=2,99/5=2) pseudo=read geom=check gue
 ss=(read,tcheck) scf=(maxcycle=1)
 ----------------------------------------------------------------------
 -----
 title
 -----
 Structure from the checkpoint file:  "cycloheptanol.chk"
 Charge =  0 Multiplicity = 1

                         Standard orientation:
 ---------------------------------------------------------------------
 Center     Atomic      Atomic             Coordinates (Angstroms)
 Number     Number       Type             X           Y           Z
 ---------------------------------------------------------------------
      1          6           0        1.737280    0.792495   -0.479503
      2          6           0        2.019870   -0.672323   -0.100223
      3          6           0        0.725512    1.538451    0.401741
      4          6           0        0.827926   -1.495424    0.414755
      5          6           0       -0.739200    1.302862    0.010037
      6          6           0       -0.519506   -1.262644   -0.283540
      7          6           0       -1.315360   -0.085645    0.291439
      8          8           0       -2.684418   -0.139555   -0.132940
      9          1           0        2.688253    1.329635   -0.472454
     10          1           0        1.383423    0.840676   -1.513335
     11          1           0        2.448382   -1.170470   -0.973960
     12          1           0        2.799085   -0.698261    0.666057
     13          1           0        0.880078    1.290425    1.456387
     14          1           0        0.917245    2.610333    0.318106
     15          1           0        1.092130   -2.551954    0.338093
     16          1           0        0.690935   -1.308620    1.483722
     17          1           0       -1.377340    2.026147    0.521809
     18          1           0       -0.844172    1.505605   -1.063458
     19          1           0       -0.381135   -1.129922   -1.362564
     20          1           0       -1.146124   -2.147322   -0.159163
     21          1           0       -1.374227   -0.226165    1.374425
     22          1           0       -2.720326    0.039705   -1.078385
 ---------------------------------------------------------------------

 SCF Done:  E(RHF) =  -349.850940257     A.U. after    2 cycles

 The electronic state is 1-A.
 Alpha  occ. eigenvalues --  -21.05606 -11.46515 -11.44943 -11.42809 -11.42014
 Alpha  occ. eigenvalues --  -11.37342 -11.37016 -11.33984  -1.70130  -1.28634
 Alpha  occ. eigenvalues --   -1.14696  -1.11759  -0.94531  -0.92356  -0.80979
 Alpha  occ. eigenvalues --   -0.79092  -0.66594  -0.63356  -0.62232  -0.60411
 Alpha  occ. eigenvalues --   -0.57463  -0.56542  -0.51916  -0.51412  -0.48825
 Alpha  occ. eigenvalues --   -0.46741  -0.45422  -0.42811  -0.42371  -0.40533
 Alpha  occ. eigenvalues --   -0.36527  -0.29769
 Alpha virt. eigenvalues --    0.04224   0.04846   0.05069   0.05196   0.05442
 Alpha virt. eigenvalues --    0.05563   0.06214   0.06321   0.06871   0.08062
 Alpha virt. eigenvalues --    0.08314   0.08519   0.08734   0.09225   0.12653

 Mulliken charges:
               1
     1  C   -2.763127
     2  C   -2.621955
     3  C   -2.807816
     4  C   -2.492635
     5  C   -3.412939
     6  C   -3.475321
     7  C    2.454697
     8  O   -3.432586
     9  H    1.273102
    10  H    1.476368
    11  H    1.248702
    12  H    1.246853
    13  H    1.556053
    14  H    1.218315
    15  H    1.199570
    16  H    1.491187
    17  H    1.288227
    18  H    1.320407
    19  H    1.476385
    20  H    1.280564
    21  H    1.781487
    22  H    0.694461
 Sum of Mulliken charges =  -0.00000

 Dipole moment (field-independent basis, Debye):
    X=              0.8475    Y=              0.1474    Z=             -0.2089  Tot=              0.8852

 Test job not archived.
 1\1\GINC-SE014\SP\RHF\Aug-CC-pVDZ\C7H14O1\OHZDE\06-Apr-2025\0\\#t hf a
 ug-cc-pvdz iop(5/13=1,5/36=2,99/5=2) pseudo=read geom=check guess=(rea
 d,tcheck) scf=(maxcycle=1)\\title\\0,1\C,0,1.73728,0.792495,-0.479503\
 C,0,2.01987,-0.672323,-0.100223\C,0,0.725512,1.538451,0.401741\C,0,0.8
 27926,-1.495424,0.414755\C,0,-0.7392,1.302862,0.010037\C,0,-0.519506,-
 1.262644,-0.28354\C,0,-1.31536,-0.085645,0.291439\O,0,-2.684418,-0.139
 555,-0.13294\H,0,2.688253,1.329635,-0.472454\H,0,1.383423,0.840676,-1.
 513335\H,0,2.448382,-1.17047,-0.97396\H,0,2.799085,-0.698261,0.666057\

 Normal termination of Gaussian 16 at Sun Apr  6 08:13:29 2025.
