 Gaussian 16, Revision C.01,

 ----------------------------------------------------------------------
 #t hf aug-cc-pvdz symm=none int=(grid=ultrafine) guess=(read,tcheck) s
 table=(opt,rrhf)
 ----------------------------------------------------------------------
 -----
 title
 -----
 Symbolic Z-matrix:
 Charge =  0 Multiplicity = 1

 SCF Done:  E(RHF) =  -309.105592653     A.U. after   12 cycles

 1\1\GINC-SE366\Stability\RHF\Aug-CC-pVDZ\C6H12O1\OHZDE\06-Apr-2025\0\\
 #t hf aug-cc-pvdz symm=none int=(grid=ultrafine) guess=(read,tcheck) s
 table=(opt,rrhf)\\title\\0,1\C,0,1.868671,0.015665,-0.274924\C,0,1.165
 857,-1.254608,0.213738\C,0,1.14321,1.27565,0.20707\C,0,-0.316921,-1.26
 6074,-0.173397\C,0,-0.338799,1.251562,-0.185476\C,0,-1.031529,-0.01431
 5,0.318188\O,0,-2.389229,-0.097381,-0.127585\H,0,2.90705,0.026674,0.06
 3303\H,0,1.897315,0.013456,-1.369367\H,0,1.659644,-2.140622,-0.189833\
 H,0,1.257836,-1.320104,1.302922\H,0,1.229487,1.346791,1.29633\H,0,1.62

 Normal termination of Gaussian 16 at Sun Apr  6 08:12:39 2025.
 Gaussian 16:  ES64L-G16RevC.01  3-Jul-2019

 ----------------------------------------------------------------------
 #t hf aug-cc-pvdz iop(5/13=1,5/36=2,99/5=2) pseudo=read geom=check gue
 ss=(read,tcheck) scf=(maxcycle=1)
 ----------------------------------------------------------------------
 -----
 title
 -----
 Structure from the checkpoint file:  "cyclohexanol.chk"
 Charge =  0 Multiplicity = 1

                         Standard orientation:
 ---------------------------------------------------------------------
 Center     Atomic      Atomic             Coordinates (Angstroms)
 Number     Number       Type             X           Y           Z
 ---------------------------------------------------------------------
      1          6           0        1.868671    0.015665   -0.274924
      2          6           0        1.165857   -1.254608    0.213738
      3          6           0        1.143210    1.275650    0.207070
      4          6           0       -0.316921   -1.266074   -0.173397
      5          6           0       -0.338799    1.251562   -0.185476
      6          6           0       -1.031529   -0.014315    0.318188
      7          8           0       -2.389229   -0.097382   -0.127585
      8          1           0        2.907050    0.026675    0.063303
      9          1           0        1.897315    0.013456   -1.369367
     10          1           0        1.659644   -2.140622   -0.189833
     11          1           0        1.257836   -1.320104    1.302922
     12          1           0        1.229487    1.346791    1.296330
     13          1           0        1.621045    2.169628   -0.198474
     14          1           0       -0.419613   -1.310640   -1.261741
     15          1           0       -0.817792   -2.148289    0.228615
     16          1           0       -0.850241    2.135483    0.207891
     17          1           0       -0.437987    1.283978   -1.274557
     18          1           0       -1.013629   -0.011453    1.417302
     19          1           0       -2.862212    0.686871    0.167083
 ---------------------------------------------------------------------

 SCF Done:  E(RHF) =  -310.618004014     A.U. after    2 cycles

 The electronic state is 1-A.
 Alpha  occ. eigenvalues --  -21.05785 -11.45433 -11.43480 -11.41865 -11.37772
 Alpha  occ. eigenvalues --  -11.37535 -11.33766  -1.70331  -1.29437  -1.10383
 Alpha  occ. eigenvalues --   -1.07501  -0.88817  -0.86361  -0.78359  -0.65958
 Alpha  occ. eigenvalues --   -0.64261  -0.61636  -0.60901  -0.55451  -0.52555
 Alpha  occ. eigenvalues --   -0.49973  -0.48849  -0.46924  -0.44619  -0.42640
 Alpha  occ. eigenvalues --   -0.39330  -0.37500  -0.30544
 Alpha virt. eigenvalues --    0.04230   0.05008   0.05132   0.05390   0.05567
 Alpha virt. eigenvalues --    0.05741   0.06018   0.06704   0.07068   0.08341
 Alpha virt. eigenvalues --    0.08728   0.08917   0.12891   0.13396   0.14127

 Mulliken charges:
               1
     1  C   -2.739217
     2  C   -2.556220
     3  C   -2.575047
     4  C   -3.086469
     5  C   -3.141666
     6  C    1.721607
     7  O   -3.380794
     8  H    1.325681
     9  H    1.357790
    10  H    1.283427
    11  H    1.328990
    12  H    1.342062
    13  H    1.281877
    14  H    1.330458
    15  H    1.322580
    16  H    1.329794
    17  H    1.328991
    18  H    1.794236
    19  H    0.731921
 Sum of Mulliken charges =   0.00000

 Dipole moment (field-independent basis, Debye):
    X=              0.5393    Y=              0.4453    Z=              0.3445  Tot=              0.7797

 Test job not archived.
 1\1\GINC-SE366\SP\RHF\Aug-CC-pVDZ\C6H12O1\OHZDE\06-Apr-2025\0\\#t hf a
 ug-cc-pvdz iop(5/13=1,5/36=2,99/5=2) pseudo=read geom=check guess=(rea
 d,tcheck) scf=(maxcycle=1)\\title\\0,1\C,0,1.868671,0.015665,-0.274924
 \C,0,1.165857,-1.254608,0.213738\C,0,1.14321,1.27565,0.20707\C,0,-0.31
 6921,-1.266074,-0.173397\C,0,-0.338799,1.251562,-0.185476\C,0,-1.03152
 9,-0.014315,0.318188\O,0,-2.389229,-0.097381,-0.127585\H,0,2.90705,0.0
 26674,0.063303\H,0,1.897315,0.013456,-1.369367\H,0,1.659644,-2.140622,
 -0.189833\H,0,1.257836,-1.320104,1.302922\H,0,1.229487,1.346791,1.2963

 Normal termination of Gaussian 16 at Sun Apr  6 08:12:51 2025.
