 Gaussian 16, Revision C.01,

 ----------------------------------------------------------------------
 #t hf aug-cc-pvdz symm=none int=(grid=ultrafine) guess=(read,tcheck) s
 table=(opt,rrhf)
 ----------------------------------------------------------------------
 -----
 title
 -----
 Symbolic Z-matrix:
 Charge =  0 Multiplicity = 1

 SCF Done:  E(RHF) =  -234.232279177     A.U. after   10 cycles
 Normal termination of Gaussian 16 at Sun Apr  6 08:12:29 2025.
 Gaussian 16:  ES64L-G16RevC.01  3-Jul-2019

 ----------------------------------------------------------------------
 #t hf aug-cc-pvdz iop(5/13=1,5/36=2,99/5=2) pseudo=read geom=check gue
 ss=(read,tcheck) scf=(maxcycle=1)
 ----------------------------------------------------------------------
 -----
 title
 -----
 Structure from the checkpoint file:  "cyclohexane.chk"
 Charge =  0 Multiplicity = 1

                         Standard orientation:
 ---------------------------------------------------------------------
 Center     Atomic      Atomic             Coordinates (Angstroms)
 Number     Number       Type             X           Y           Z
 ---------------------------------------------------------------------
      1          6           0        0.227515    0.731652    1.267259
      2          6           0       -0.227515    1.463304    0.000000
      3          6           0       -0.227515   -0.731652    1.267259
      4          6           0        0.227515   -1.463304    0.000000
      5          6           0       -0.227515   -0.731652   -1.267259
      6          6           0        0.227515    0.731652   -1.267259
      7          1           0       -0.149267    1.244327   -2.155238
      8          1           0       -0.149267    1.244327    2.155238
      9          1           0        0.149267    2.488655    0.000000
     10          1           0        0.149267   -1.244327   -2.155238
     11          1           0       -1.320511   -0.767324   -1.329045
     12          1           0       -1.320511   -0.767324    1.329045
     13          1           0       -1.320511    1.534649    0.000000
     14          1           0       -0.149267   -2.488655    0.000000
     15          1           0        1.320511   -1.534649    0.000000
     16          1           0        0.149267   -1.244327    2.155238
     17          1           0        1.320511    0.767324    1.329045
     18          1           0        1.320511    0.767324   -1.329045
 ---------------------------------------------------------------------

 SCF Done:  E(RHF) =  -235.453852289     A.U. after    2 cycles

 The electronic state is 1-AG.
 Alpha  occ. eigenvalues --  -11.42071 -11.42071 -11.40825 -11.36157 -11.36157
 Alpha  occ. eigenvalues --  -11.32843  -1.30862  -1.09363  -1.09363  -0.87226
 Alpha  occ. eigenvalues --   -0.87226  -0.77201  -0.65679  -0.61063  -0.59985
 Alpha  occ. eigenvalues --   -0.59985  -0.51909  -0.51909  -0.47026  -0.46052
 Alpha  occ. eigenvalues --   -0.46052  -0.43243  -0.38209  -0.38209
 Alpha virt. eigenvalues --    0.04334   0.05476   0.05476   0.05476   0.05737
 Alpha virt. eigenvalues --    0.05737   0.06094   0.06094   0.06775   0.08552
 Alpha virt. eigenvalues --    0.08965   0.08965   0.13061   0.13947   0.13947

 Mulliken charges:
               1
     1  C   -2.688740
     2  C   -2.688736
     3  C   -2.688740
     4  C   -2.688736
     5  C   -2.688740
     6  C   -2.688740
     7  H    1.300425
     8  H    1.300425
     9  H    1.300424
    10  H    1.300425
    11  H    1.388314
    12  H    1.388314
    13  H    1.388314
    14  H    1.300424
    15  H    1.388314
    16  H    1.300425
    17  H    1.388314
    18  H    1.388314
 Sum of Mulliken charges =   0.00000

 Dipole moment (field-independent basis, Debye):
    X=             -0.0000    Y=              0.0000    Z=             -0.0000  Tot=              0.0000

 Test job not archived.
 1\1\GINC-SE013\SP\RHF\Aug-CC-pVDZ\C6H12\OHZDE\06-Apr-2025\0\\#t hf aug
 -cc-pvdz iop(5/13=1,5/36=2,99/5=2) pseudo=read geom=check guess=(read,
 tcheck) scf=(maxcycle=1)\\title\\0,1\C,0,-1.267259,0.731652,0.227515\C
 ,0,0.,1.463304,-0.227515\C,0,-1.267259,-0.731652,-0.227515\C,0,0.,-1.4
 63304,0.227515\C,0,1.267259,-0.731652,-0.227515\C,0,1.267259,0.731652,
 0.227515\H,0,2.155238,1.244327,-0.149267\H,0,-2.155238,1.244327,-0.149
 267\H,0,0.,2.488655,0.149267\H,0,2.155238,-1.244327,0.149267\H,0,1.329
 045,-0.767324,-1.320511\H,0,-1.329045,-0.767324,-1.320511\H,0,0.,1.534

 Normal termination of Gaussian 16 at Sun Apr  6 08:12:34 2025.
