 Gaussian 16, Revision C.01,

 ----------------------------------------------------------------------
 #t hf aug-cc-pvdz symm=none int=(grid=ultrafine) guess=(read,tcheck) s
 table=(opt,rrhf)
 ----------------------------------------------------------------------
 -----
 title
 -----
 Symbolic Z-matrix:
 Charge =  0 Multiplicity = 1

 SCF Done:  E(RHF) =  -233.045372858     A.U. after   11 cycles
 Normal termination of Gaussian 16 at Sun Apr  6 08:12:18 2025.
 Gaussian 16:  ES64L-G16RevC.01  3-Jul-2019

 ----------------------------------------------------------------------
 #t hf aug-cc-pvdz iop(5/13=1,5/36=2,99/5=2) pseudo=read geom=check gue
 ss=(read,tcheck) scf=(maxcycle=1)
 ----------------------------------------------------------------------
 -----
 title
 -----
 Structure from the checkpoint file:  "cyclohexene.chk"
 Charge =  0 Multiplicity = 1

                         Standard orientation:
 ---------------------------------------------------------------------
 Center     Atomic      Atomic             Coordinates (Angstroms)
 Number     Number       Type             X           Y           Z
 ---------------------------------------------------------------------
      1          6           0        0.005646    0.665273    1.302124
      2          6           0       -0.005646   -0.665273    1.302124
      3          6           0       -0.005646    1.497566    0.048624
      4          6           0        0.005646   -1.497566    0.048624
      5          6           0       -0.367769    0.670959   -1.190000
      6          6           0        0.367769   -0.670959   -1.190000
      7          1           0        0.020501    1.196537    2.247558
      8          1           0       -0.020501   -1.196537    2.247558
      9          1           0       -0.708445    2.326979    0.166811
     10          1           0        0.977019    1.965639   -0.085347
     11          1           0        0.708445   -2.326979    0.166811
     12          1           0       -0.977019   -1.965639   -0.085347
     13          1           0       -1.446378    0.487192   -1.195721
     14          1           0       -0.141259    1.233380   -2.097788
     15          1           0        1.446378   -0.487192   -1.195721
     16          1           0        0.141259   -1.233380   -2.097788
 ---------------------------------------------------------------------

 SCF Done:  E(RHF) =  -234.230751782     A.U. after    2 cycles

 The electronic state is 1-A.
 Alpha  occ. eigenvalues --  -11.44454 -11.40918 -11.40752 -11.38388 -11.36922
 Alpha  occ. eigenvalues --  -11.33814  -1.31004  -1.09355  -1.08748  -0.88768
 Alpha  occ. eigenvalues --   -0.85631  -0.71616  -0.67691  -0.61786  -0.58617
 Alpha  occ. eigenvalues --   -0.54736  -0.52479  -0.51366  -0.50272  -0.44669
 Alpha  occ. eigenvalues --   -0.40505  -0.39445  -0.32315
 Alpha virt. eigenvalues --    0.03847   0.05196   0.05529   0.05607   0.06015
 Alpha virt. eigenvalues --    0.06195   0.06213   0.06909   0.07624   0.08393
 Alpha virt. eigenvalues --    0.13007   0.13392   0.13741   0.13806   0.14492

 Mulliken charges:
               1
     1  C   -0.064609
     2  C   -0.064609
     3  C   -3.420137
     4  C   -3.420137
     5  C   -3.045036
     6  C   -3.045036
     7  H    1.408746
     8  H    1.408746
     9  H    1.159717
    10  H    1.233019
    11  H    1.159717
    12  H    1.233019
    13  H    1.443777
    14  H    1.284522
    15  H    1.443777
    16  H    1.284522
 Sum of Mulliken charges =   0.00000

 Dipole moment (field-independent basis, Debye):
    X=              0.0000    Y=              0.0000    Z=             -0.3198  Tot=              0.3198

 Test job not archived.
 1\1\GINC-SE249\SP\RHF\Aug-CC-pVDZ\C6H10\OHZDE\06-Apr-2025\0\\#t hf aug
 -cc-pvdz iop(5/13=1,5/36=2,99/5=2) pseudo=read geom=check guess=(read,
 tcheck) scf=(maxcycle=1)\\title\\0,1\C,0,0.005646,0.665273,1.302124\C,
 0,-0.005646,-0.665273,1.302124\C,0,-0.005646,1.497566,0.048624\C,0,0.0
 05646,-1.497566,0.048624\C,0,-0.367769,0.670959,-1.19\C,0,0.367769,-0.
 670959,-1.19\H,0,0.020501,1.196537,2.247558\H,0,-0.020501,-1.196537,2.
 247558\H,0,-0.708445,2.326979,0.166811\H,0,0.977019,1.965639,-0.085347
 \H,0,0.708445,-2.326979,0.166811\H,0,-0.977019,-1.965639,-0.085347\H,0

 Normal termination of Gaussian 16 at Sun Apr  6 08:12:21 2025.
