 Gaussian 16, Revision C.01,

 ----------------------------------------------------------------------
 #t hf aug-cc-pvdz symm=none int=(grid=ultrafine) guess=(read,tcheck) s
 table=(opt,rrhf)
 ----------------------------------------------------------------------
 -----
 title
 -----
 Symbolic Z-matrix:
 Charge =  0 Multiplicity = 1

 SCF Done:  E(RHF) =  -250.221894148     A.U. after   12 cycles

 1\1\GINC-SE028\Stability\RHF\Aug-CC-pVDZ\C5H11N1\OHZDE\06-Apr-2025\0\\
 #t hf aug-cc-pvdz symm=none int=(grid=ultrafine) guess=(read,tcheck) s
 table=(opt,rrhf)\\title\\0,1\N,0,0.137512,2.151652,0.\C,0,0.448122,0.7
 21591,0.\H,0,1.532762,0.530144,0.\H,0,0.53356,2.608259,0.8131\H,0,0.53
 356,2.608259,-0.8131\C,0,-0.167084,-1.496898,0.778524\C,0,-0.167084,-1
 .496898,-0.778524\C,0,-0.167084,-0.013012,-1.194728\C,0,-0.167084,-0.0
 13012,1.194728\H,0,-1.025406,-2.027487,-1.189237\H,0,-1.025406,-2.0274
 87,1.189237\H,0,0.721946,-2.002668,1.157019\H,0,0.721946,-2.002668,-1.

 Normal termination of Gaussian 16 at Sun Apr  6 08:12:53 2025.
 Gaussian 16:  ES64L-G16RevC.01  3-Jul-2019

 ----------------------------------------------------------------------
 #t hf aug-cc-pvdz iop(5/13=1,5/36=2,99/5=2) pseudo=read geom=check gue
 ss=(read,tcheck) scf=(maxcycle=1)
 ----------------------------------------------------------------------
 -----
 title
 -----
 Structure from the checkpoint file:  "cyclopentanamine.chk"
 Charge =  0 Multiplicity = 1

                         Standard orientation:
 ---------------------------------------------------------------------
 Center     Atomic      Atomic             Coordinates (Angstroms)
 Number     Number       Type             X           Y           Z
 ---------------------------------------------------------------------
      1          7           0        0.137512    2.151652    0.000000
      2          6           0        0.448122    0.721591    0.000000
      3          1           0        1.532762    0.530144    0.000000
      4          1           0        0.533560    2.608259    0.813100
      5          1           0        0.533560    2.608259   -0.813100
      6          6           0       -0.167084   -1.496898    0.778524
      7          6           0       -0.167084   -1.496898   -0.778524
      8          6           0       -0.167084   -0.013012   -1.194728
      9          6           0       -0.167084   -0.013012    1.194728
     10          1           0       -1.025406   -2.027487   -1.189237
     11          1           0       -1.025406   -2.027487    1.189237
     12          1           0        0.721946   -2.002668    1.157019
     13          1           0        0.721946   -2.002668   -1.157019
     14          1           0       -1.187175    0.355253   -1.326931
     15          1           0       -1.187175    0.355253    1.326931
     16          1           0        0.370046    0.165478   -2.127734
     17          1           0        0.370046    0.165478    2.127734
 ---------------------------------------------------------------------

 SCF Done:  E(RHF) =  -251.491340095     A.U. after    2 cycles

 The electronic state is 1-A'.
 Alpha  occ. eigenvalues --  -15.72177 -11.46581 -11.42828 -11.37096 -11.37016
 Alpha  occ. eigenvalues --  -11.33020  -1.37797  -1.22250  -1.03628  -0.99590
 Alpha  occ. eigenvalues --   -0.81510  -0.80056  -0.67060  -0.64380  -0.62744
 Alpha  occ. eigenvalues --   -0.59351  -0.56848  -0.47003  -0.45743  -0.44467
 Alpha  occ. eigenvalues --   -0.43244  -0.43098  -0.40910  -0.34528
 Alpha virt. eigenvalues --    0.04275   0.05367   0.05415   0.05733   0.05852
 Alpha virt. eigenvalues --    0.06037   0.06435   0.06479   0.07137   0.08892
 Alpha virt. eigenvalues --    0.09262   0.12790   0.13909   0.14405   0.14767

 Mulliken charges:
               1
     1  N   -3.107273
     2  C    0.403867
     3  H    1.715700
     4  H    0.575614
     5  H    0.575614
     6  C   -2.594858
     7  C   -2.594858
     8  C   -2.842215
     9  C   -2.842215
    10  H    1.363384
    11  H    1.363384
    12  H    1.303820
    13  H    1.303820
    14  H    1.377670
    15  H    1.377670
    16  H    1.310438
    17  H    1.310438
 Sum of Mulliken charges =   0.00000

 Dipole moment (field-independent basis, Debye):
    X=              0.9916    Y=              0.0396    Z=             -0.0000  Tot=              0.9924

 Test job not archived.
 1\1\GINC-SE028\SP\RHF\Aug-CC-pVDZ\C5H11N1\OHZDE\06-Apr-2025\0\\#t hf a
 ug-cc-pvdz iop(5/13=1,5/36=2,99/5=2) pseudo=read geom=check guess=(rea
 d,tcheck) scf=(maxcycle=1)\\title\\0,1\N,0,0.137512,2.151652,0.\C,0,0.
 448122,0.721591,0.\H,0,1.532762,0.530144,0.\H,0,0.53356,2.608259,0.813
 1\H,0,0.53356,2.608259,-0.8131\C,0,-0.167084,-1.496898,0.778524\C,0,-0
 .167084,-1.496898,-0.778524\C,0,-0.167084,-0.013012,-1.194728\C,0,-0.1
 67084,-0.013012,1.194728\H,0,-1.025406,-2.027487,-1.189237\H,0,-1.0254
 06,-2.027487,1.189237\H,0,0.721946,-2.002668,1.157019\H,0,0.721946,-2.

 Normal termination of Gaussian 16 at Sun Apr  6 08:12:57 2025.
