 Gaussian 16, Revision C.01,

 ----------------------------------------------------------------------
 #t hf aug-cc-pvdz symm=none int=(grid=ultrafine) guess=(read,tcheck) s
 table=(opt,rrhf)
 ----------------------------------------------------------------------
 -----
 title
 -----
 Symbolic Z-matrix:
 Charge =  0 Multiplicity = 1

 SCF Done:  E(RHF) =  -229.827238494     A.U. after   13 cycles
 Normal termination of Gaussian 16 at Sun Apr  6 08:11:59 2025.
 Gaussian 16:  ES64L-G16RevC.01  3-Jul-2019

 ----------------------------------------------------------------------
 #t hf aug-cc-pvdz iop(5/13=1,5/36=2,99/5=2) pseudo=read geom=check gue
 ss=(read,tcheck) scf=(maxcycle=1)
 ----------------------------------------------------------------------
 -----
 title
 -----
 Structure from the checkpoint file:  "cyclobutanone.chk"
 Charge =  0 Multiplicity = 1

                         Standard orientation:
 ---------------------------------------------------------------------
 Center     Atomic      Atomic             Coordinates (Angstroms)
 Number     Number       Type             X           Y           Z
 ---------------------------------------------------------------------
      1          1           0       -0.839567   -2.094249    0.000000
      2          1           0        0.927182   -2.122428    0.000000
      3          6           0        0.054138   -1.475036    0.000000
      4          8           0       -0.153392    1.866794   -0.000000
      5          6           0       -0.034224    0.676084   -0.000000
      6          1           0        0.974306   -0.304588    1.688889
      7          1           0        0.974306   -0.304588   -1.688889
      8          1           0       -0.789114   -0.376716    1.798667
      9          1           0       -0.789114   -0.376716   -1.798667
     10          6           0        0.054138   -0.380113    1.107874
     11          6           0        0.054138   -0.380113   -1.107874
 ---------------------------------------------------------------------

 SCF Done:  E(RHF) =  -230.895520794     A.U. after    2 cycles

 The electronic state is 1-A'.
 Alpha  occ. eigenvalues --  -21.05828 -11.51227 -11.45074 -11.39965 -11.36711
 Alpha  occ. eigenvalues --   -1.70631  -1.30367  -0.99099  -0.91055  -0.74804
 Alpha  occ. eigenvalues --   -0.67085  -0.60085  -0.57154  -0.56418  -0.51764
 Alpha  occ. eigenvalues --   -0.45107  -0.43777  -0.40814  -0.27692
 Alpha virt. eigenvalues --    0.03415   0.05309   0.05335   0.05608   0.06186
 Alpha virt. eigenvalues --    0.07149   0.08881   0.11894   0.11975   0.13253
 Alpha virt. eigenvalues --    0.14155   0.14448   0.14594   0.15394   0.15684

 Mulliken charges:
               1
     1  H    1.305995
     2  H    1.280545
     3  C   -2.779467
     4  O   -2.964621
     5  C    3.712541
     6  H    1.362544
     7  H    1.362544
     8  H    1.315384
     9  H    1.315384
    10  C   -2.955424
    11  C   -2.955424
 Sum of Mulliken charges =  -0.00000

 Dipole moment (field-independent basis, Debye):
    X=              0.1462    Y=             -1.5970    Z=             -0.0000  Tot=              1.6037

 Test job not archived.
 1\1\GINC-SE169\SP\RHF\Aug-CC-pVDZ\C4H6O1\OHZDE\06-Apr-2025\0\\#t hf au
 g-cc-pvdz iop(5/13=1,5/36=2,99/5=2) pseudo=read geom=check guess=(read
 ,tcheck) scf=(maxcycle=1)\\title\\0,1\H,0,-0.839567,-2.094249,0.\H,0,0
 .927182,-2.122428,0.\C,0,0.054138,-1.475036,0.\O,0,-0.153392,1.866794,
 0.\C,0,-0.034224,0.676084,0.\H,0,0.974306,-0.304588,1.688889\H,0,0.974
 306,-0.304588,-1.688889\H,0,-0.789114,-0.376716,1.798667\H,0,-0.789114
 ,-0.376716,-1.798667\C,0,0.054138,-0.380113,1.107874\C,0,0.054138,-0.3
 80113,-1.107874\\Version=ES64L-G16RevC.01\State=1-A'\HF=-230.8955208\R

 Normal termination of Gaussian 16 at Sun Apr  6 08:12:05 2025.
