 Gaussian 16, Revision C.01,

 ----------------------------------------------------------------------
 #t hf aug-cc-pvdz symm=none int=(grid=ultrafine) guess=(read,tcheck) s
 table=(opt,rrhf)
 ----------------------------------------------------------------------
 -----
 title
 -----
 Symbolic Z-matrix:
 Charge =  0 Multiplicity = 1

 SCF Done:  E(RHF) =  -307.943883290     A.U. after   13 cycles

 1\1\GINC-SE398\Stability\RHF\Aug-CC-pVDZ\C6H10O1\OHZDE\06-Apr-2025\0\\
 #t hf aug-cc-pvdz symm=none int=(grid=ultrafine) guess=(read,tcheck) s
 table=(opt,rrhf)\\title\\0,1\C,0,-0.407739,1.083702,0.\C,0,0.155829,0.
 499472,1.282325\C,0,0.155829,0.499472,-1.282325\C,0,0.155829,-1.039311
 ,1.263183\C,0,0.155829,-1.039311,-1.263183\C,0,0.820538,-1.590283,0.\O
 ,0,-1.249483,1.95449,0.\H,0,1.188471,0.854961,1.375218\H,0,-0.408079,0
 .898882,2.123656\H,0,-0.408079,0.898882,-2.123656\H,0,1.188471,0.85496
 1,-1.375218\H,0,0.657166,-1.415176,2.156695\H,0,-0.876952,-1.39618,1.3

 Normal termination of Gaussian 16 at Sun Apr  6 08:12:27 2025.
 Gaussian 16:  ES64L-G16RevC.01  3-Jul-2019

 ----------------------------------------------------------------------
 #t hf aug-cc-pvdz iop(5/13=1,5/36=2,99/5=2) pseudo=read geom=check gue
 ss=(read,tcheck) scf=(maxcycle=1)
 ----------------------------------------------------------------------
 -----
 title
 -----
 Structure from the checkpoint file:  "cyclohexanone.chk"
 Charge =  0 Multiplicity = 1

                         Standard orientation:
 ---------------------------------------------------------------------
 Center     Atomic      Atomic             Coordinates (Angstroms)
 Number     Number       Type             X           Y           Z
 ---------------------------------------------------------------------
      1          6           0       -0.407739    1.083702   -0.000000
      2          6           0        0.155829    0.499472    1.282325
      3          6           0        0.155829    0.499472   -1.282325
      4          6           0        0.155829   -1.039311    1.263183
      5          6           0        0.155829   -1.039311   -1.263183
      6          6           0        0.820538   -1.590283    0.000000
      7          8           0       -1.249483    1.954490   -0.000000
      8          1           0        1.188471    0.854961    1.375218
      9          1           0       -0.408079    0.898882    2.123656
     10          1           0       -0.408079    0.898882   -2.123656
     11          1           0        1.188471    0.854961   -1.375218
     12          1           0        0.657166   -1.415176    2.156695
     13          1           0       -0.876952   -1.396180    1.313350
     14          1           0       -0.876952   -1.396180   -1.313350
     15          1           0        0.657166   -1.415176   -2.156695
     16          1           0        1.882221   -1.322209    0.000000
     17          1           0        0.775740   -2.681122    0.000000
 ---------------------------------------------------------------------

 SCF Done:  E(RHF) =  -309.418517810     A.U. after    2 cycles

 The electronic state is 1-A'.
 Alpha  occ. eigenvalues --  -21.04381 -11.48897 -11.44053 -11.43540 -11.39832
 Alpha  occ. eigenvalues --  -11.38495 -11.35699  -1.69964  -1.30359  -1.12411
 Alpha  occ. eigenvalues --   -1.07028  -0.91018  -0.84984  -0.74423  -0.65582
 Alpha  occ. eigenvalues --   -0.63588  -0.61820  -0.59509  -0.54803  -0.54302
 Alpha  occ. eigenvalues --   -0.50579  -0.48600  -0.47126  -0.42954  -0.42671
 Alpha  occ. eigenvalues --   -0.38831  -0.26825
 Alpha virt. eigenvalues --    0.03649   0.04966   0.05014   0.05235   0.05242
 Alpha virt. eigenvalues --    0.05637   0.06711   0.06954   0.07528   0.08772
 Alpha virt. eigenvalues --    0.10854   0.12503   0.13070   0.13497   0.13890

 Mulliken charges:
               1
     1  C    5.154887
     2  C   -3.472938
     3  C   -3.472938
     4  C   -2.890949
     5  C   -2.890949
     6  C   -2.473601
     7  O   -3.580597
     8  H    1.370722
     9  H    1.371819
    10  H    1.371819
    11  H    1.370722
    12  H    1.301004
    13  H    1.429267
    14  H    1.429267
    15  H    1.301004
    16  H    1.420112
    17  H    1.261351
 Sum of Mulliken charges =   0.00000

 Dipole moment (field-independent basis, Debye):
    X=              1.1964    Y=             -1.6148    Z=             -0.0000  Tot=              2.0097

 Test job not archived.
 1\1\GINC-SE398\SP\RHF\Aug-CC-pVDZ\C6H10O1\OHZDE\06-Apr-2025\0\\#t hf a
 ug-cc-pvdz iop(5/13=1,5/36=2,99/5=2) pseudo=read geom=check guess=(rea
 d,tcheck) scf=(maxcycle=1)\\title\\0,1\C,0,-0.407739,1.083702,0.\C,0,0
 .155829,0.499472,1.282325\C,0,0.155829,0.499472,-1.282325\C,0,0.155829
 ,-1.039311,1.263183\C,0,0.155829,-1.039311,-1.263183\C,0,0.820538,-1.5
 90283,0.\O,0,-1.249483,1.95449,0.\H,0,1.188471,0.854961,1.375218\H,0,-
 0.408079,0.898882,2.123656\H,0,-0.408079,0.898882,-2.123656\H,0,1.1884
 71,0.854961,-1.375218\H,0,0.657166,-1.415176,2.156695\H,0,-0.876952,-1

 Normal termination of Gaussian 16 at Sun Apr  6 08:12:32 2025.
