 Gaussian 16, Revision C.01,

 ----------------------------------------------------------------------
 #t hf aug-cc-pvdz symm=none int=(grid=ultrafine) guess=(read,tcheck) s
 table=(opt,rrhf)
 ----------------------------------------------------------------------
 -----
 title
 -----
 Symbolic Z-matrix:
 Charge =  0 Multiplicity = 1

 SCF Done:  E(RHF) =  -273.258642816     A.U. after   11 cycles
 Normal termination of Gaussian 16 at Sun Apr  6 08:12:56 2025.
 Gaussian 16:  ES64L-G16RevC.01  3-Jul-2019

 ----------------------------------------------------------------------
 #t hf aug-cc-pvdz iop(5/13=1,5/36=2,99/5=2) pseudo=read geom=check gue
 ss=(read,tcheck) scf=(maxcycle=1)
 ----------------------------------------------------------------------
 -----
 title
 -----
 Structure from the checkpoint file:  "cycloheptane.chk"
 Charge =  0 Multiplicity = 1

                         Standard orientation:
 ---------------------------------------------------------------------
 Center     Atomic      Atomic             Coordinates (Angstroms)
 Number     Number       Type             X           Y           Z
 ---------------------------------------------------------------------
      1          6           0        0.000000   -0.000000    1.772157
      2          6           0        0.703601    1.107660    0.968327
      3          6           0       -0.703601   -1.107660    0.968327
      4          6           0       -0.000000    1.576287   -0.314065
      5          6           0       -0.000000   -1.576287   -0.314065
      6          6           0        0.302469    0.703389   -1.539522
      7          6           0       -0.302469   -0.703389   -1.539522
      8          1           0       -0.742021    0.456246    2.433052
      9          1           0        0.742021   -0.456246    2.433052
     10          1           0        1.710243    0.776893    0.696626
     11          1           0       -1.710243   -0.776893    0.696626
     12          1           0        0.847619    1.961484    1.634661
     13          1           0       -0.847619   -1.961484    1.634661
     14          1           0        0.331829    2.593009   -0.538454
     15          1           0       -0.331829   -2.593009   -0.538454
     16          1           0       -1.081166    1.642958   -0.154172
     17          1           0        1.081166   -1.642958   -0.154172
     18          1           0        1.390576    0.624307   -1.637984
     19          1           0       -1.390576   -0.624307   -1.637984
     20          1           0       -0.042785    1.221357   -2.438645
     21          1           0        0.042785   -1.221357   -2.438645
 ---------------------------------------------------------------------

 SCF Done:  E(RHF) =  -274.686293104     A.U. after    2 cycles

 The electronic state is 1-A.
 Alpha  occ. eigenvalues --  -11.44109 -11.43424 -11.40718 -11.40428 -11.35900
 Alpha  occ. eigenvalues --  -11.35653 -11.32910  -1.29751  -1.13682  -1.13564
 Alpha  occ. eigenvalues --   -0.93081  -0.93075  -0.79340  -0.78020  -0.65170
 Alpha  occ. eigenvalues --   -0.62442  -0.61409  -0.58836  -0.55894  -0.55119
 Alpha  occ. eigenvalues --   -0.50845  -0.50102  -0.44130  -0.42178  -0.41901
 Alpha  occ. eigenvalues --   -0.41837  -0.39772  -0.39527
 Alpha virt. eigenvalues --    0.04277   0.05351   0.05382   0.05412   0.05426
 Alpha virt. eigenvalues --    0.05708   0.05963   0.06033   0.06869   0.08318
 Alpha virt. eigenvalues --    0.08360   0.08724   0.08963   0.09044   0.13051

 Mulliken charges:
               1
     1  C   -2.701187
     2  C   -2.519217
     3  C   -2.519217
     4  C   -3.033270
     5  C   -3.033270
     6  C   -2.626603
     7  C   -2.626603
     8  H    1.232513
     9  H    1.232513
    10  H    1.519334
    11  H    1.519334
    12  H    1.261338
    13  H    1.261338
    14  H    1.258660
    15  H    1.258660
    16  H    1.599083
    17  H    1.599083
    18  H    1.384467
    19  H    1.384467
    20  H    1.274288
    21  H    1.274288
 Sum of Mulliken charges =  -0.00000

 Dipole moment (field-independent basis, Debye):
    X=             -0.0000    Y=              0.0000    Z=             -0.0186  Tot=              0.0186

 Test job not archived.
 1\1\GINC-SE011\SP\RHF\Aug-CC-pVDZ\C7H14\OHZDE\06-Apr-2025\0\\#t hf aug
 -cc-pvdz iop(5/13=1,5/36=2,99/5=2) pseudo=read geom=check guess=(read,
 tcheck) scf=(maxcycle=1)\\title\\0,1\C,0,0.,0.,1.772157\C,0,0.703601,1
 .10766,0.968327\C,0,-0.703601,-1.10766,0.968327\C,0,0.,1.576287,-0.314
 065\C,0,0.,-1.576287,-0.314065\C,0,0.302469,0.703389,-1.539522\C,0,-0.
 302469,-0.703389,-1.539522\H,0,-0.742021,0.456246,2.433052\H,0,0.74202
 1,-0.456246,2.433052\H,0,1.710243,0.776893,0.696626\H,0,-1.710243,-0.7
 76893,0.696626\H,0,0.847619,1.961484,1.634661\H,0,-0.847619,-1.961484,

 Normal termination of Gaussian 16 at Sun Apr  6 08:13:02 2025.
