 Gaussian 16, Revision C.01,

 ----------------------------------------------------------------------
 #t hf aug-cc-pvdz symm=none int=(grid=ultrafine) guess=(read,tcheck) s
 table=(opt,rrhf)
 ----------------------------------------------------------------------
 -----
 title
 -----
 Symbolic Z-matrix:
 Charge =  0 Multiplicity = 1

 SCF Done:  E(RHF) =  -307.559574478     A.U. after   11 cycles
 Normal termination of Gaussian 16 at Sun Apr  6 08:12:58 2025.
 Gaussian 16:  ES64L-G16RevC.01  3-Jul-2019

 ----------------------------------------------------------------------
 #t hf aug-cc-pvdz iop(5/13=1,5/36=2,99/5=2) pseudo=read geom=check gue
 ss=(read,tcheck) scf=(maxcycle=1)
 ----------------------------------------------------------------------
 -----
 title
 -----
 Structure from the checkpoint file:  "cyclooctatetraene.chk"
 Charge =  0 Multiplicity = 1

                         Standard orientation:
 ---------------------------------------------------------------------
 Center     Atomic      Atomic             Coordinates (Angstroms)
 Number     Number       Type             X           Y           Z
 ---------------------------------------------------------------------
      1          6           0        0.667787    1.563913    0.371103
      2          6           0       -0.667787    1.563913    0.371103
      3          6           0        0.667787   -1.563913    0.371103
      4          6           0       -0.667787   -1.563913    0.371103
      5          6           0        1.563913    0.667787   -0.371103
      6          6           0       -1.563913    0.667787   -0.371103
      7          6           0        1.563913   -0.667787   -0.371103
      8          6           0       -1.563913   -0.667787   -0.371103
      9          1           0        1.166556    2.358559    0.918777
     10          1           0       -1.166556    2.358559    0.918777
     11          1           0        1.166556   -2.358559    0.918777
     12          1           0       -1.166556   -2.358559    0.918777
     13          1           0        2.358559    1.166556   -0.918777
     14          1           0       -2.358559    1.166556   -0.918777
     15          1           0        2.358559   -1.166556   -0.918777
     16          1           0       -2.358559   -1.166556   -0.918777
 ---------------------------------------------------------------------

 SCF Done:  E(RHF) =  -309.045282149     A.U. after    2 cycles

 The electronic state is 1-A1.
 Alpha  occ. eigenvalues --  -11.47347 -11.44961 -11.44298 -11.44298 -11.39621
 Alpha  occ. eigenvalues --  -11.39621 -11.39284 -11.36295  -1.30345  -1.16570
 Alpha  occ. eigenvalues --   -1.16570  -0.99680  -0.94465  -0.79607  -0.79607
 Alpha  occ. eigenvalues --   -0.69335  -0.64528  -0.62934  -0.62934  -0.57055
 Alpha  occ. eigenvalues --   -0.56459  -0.46928  -0.46928  -0.44704  -0.42340
 Alpha  occ. eigenvalues --   -0.36267  -0.36267  -0.27758
 Alpha virt. eigenvalues --    0.03403   0.04919   0.05223   0.05223   0.06318
 Alpha virt. eigenvalues --    0.06318   0.06576   0.07481   0.09551   0.11595
 Alpha virt. eigenvalues --    0.11595   0.12578   0.13548   0.14027   0.14629

 Mulliken charges:
               1
     1  C   -1.294048
     2  C   -1.294048
     3  C   -1.294048
     4  C   -1.294048
     5  C   -1.294048
     6  C   -1.294048
     7  C   -1.294048
     8  C   -1.294048
     9  H    1.294048
    10  H    1.294048
    11  H    1.294048
    12  H    1.294048
    13  H    1.294048
    14  H    1.294048
    15  H    1.294048
    16  H    1.294048
 Sum of Mulliken charges =   0.00000

 Dipole moment (field-independent basis, Debye):
    X=              0.0000    Y=             -0.0000    Z=              0.0000  Tot=              0.0000

 Test job not archived.
 1\1\GINC-SE023\SP\RHF\Aug-CC-pVDZ\C8H8\OHZDE\06-Apr-2025\0\\#t hf aug-
 cc-pvdz iop(5/13=1,5/36=2,99/5=2) pseudo=read geom=check guess=(read,t
 check) scf=(maxcycle=1)\\title\\0,1\C,0,0.667787,1.563913,0.371103\C,0
 ,-0.667787,1.563913,0.371103\C,0,0.667787,-1.563913,0.371103\C,0,-0.66
 7787,-1.563913,0.371103\C,0,1.563913,0.667787,-0.371103\C,0,-1.563913,
 0.667787,-0.371103\C,0,1.563913,-0.667787,-0.371103\C,0,-1.563913,-0.6
 67787,-0.371103\H,0,1.166556,2.358559,0.918777\H,0,-1.166556,2.358559,
 0.918777\H,0,1.166556,-2.358559,0.918777\H,0,-1.166556,-2.358559,0.918

 Normal termination of Gaussian 16 at Sun Apr  6 08:13:03 2025.
