 Gaussian 16, Revision C.01,

 ----------------------------------------------------------------------
 #t hf aug-cc-pvdz symm=none int=(grid=ultrafine) guess=(read,tcheck) s
 table=(opt,rrhf)
 ----------------------------------------------------------------------
 -----
 title
 -----
 Symbolic Z-matrix:
 Charge =  0 Multiplicity = 1

 SCF Done:  E(RHF) =  -383.873946311     A.U. after   13 cycles

 1\1\GINC-SE249\Stability\RHF\Aug-CC-pVDZ\C6H12O2\OHZDE\06-Apr-2025\0\\
 #t hf aug-cc-pvdz symm=none int=(grid=ultrafine) guess=(read,tcheck) s
 table=(opt,rrhf)\\title\\0,1\C,0,2.273854,0.274215,-0.203952\C,0,1.762
 908,-1.084479,0.283467\C,0,0.328202,-1.357217,-0.186256\C,0,-0.603815,
 -0.222061,0.229009\C,0,-0.109581,1.12903,-0.279562\C,0,1.321941,1.4042
 84,0.197425\O,0,-1.885928,-0.581152,-0.300631\O,0,-2.882481,0.292841,0
 .300204\H,0,3.273677,0.463179,0.192478\H,0,2.36937,0.253715,-1.294443\
 H,0,1.79563,-1.111497,1.377231\H,0,2.418338,-1.885041,-0.064459\H,0,-0

 Normal termination of Gaussian 16 at Sun Apr  6 08:13:02 2025.
 Gaussian 16:  ES64L-G16RevC.01  3-Jul-2019

 ----------------------------------------------------------------------
 #t hf aug-cc-pvdz iop(5/13=1,5/36=2,99/5=2) pseudo=read geom=check gue
 ss=(read,tcheck) scf=(maxcycle=1)
 ----------------------------------------------------------------------
 -----
 title
 -----
 Structure from the checkpoint file:  "cyclohexyl_hydroperoxide.chk"
 Charge =  0 Multiplicity = 1

                         Standard orientation:
 ---------------------------------------------------------------------
 Center     Atomic      Atomic             Coordinates (Angstroms)
 Number     Number       Type             X           Y           Z
 ---------------------------------------------------------------------
      1          6           0        2.273854    0.274215   -0.203952
      2          6           0        1.762908   -1.084479    0.283467
      3          6           0        0.328202   -1.357217   -0.186256
      4          6           0       -0.603815   -0.222061    0.229009
      5          6           0       -0.109581    1.129030   -0.279562
      6          6           0        1.321941    1.404284    0.197425
      7          8           0       -1.885928   -0.581152   -0.300631
      8          8           0       -2.882481    0.292841    0.300204
      9          1           0        3.273677    0.463179    0.192478
     10          1           0        2.369370    0.253715   -1.294443
     11          1           0        1.795630   -1.111497    1.377231
     12          1           0        2.418338   -1.885041   -0.064459
     13          1           0       -0.041640   -2.299048    0.220652
     14          1           0        0.306159   -1.447044   -1.276226
     15          1           0       -0.688027   -0.199332    1.321058
     16          1           0       -0.139153    1.116756   -1.373872
     17          1           0       -0.781503    1.918852    0.057557
     18          1           0        1.326109    1.510541    1.287156
     19          1           0        1.670130    2.357427   -0.205005
     20          1           0       -3.202874    0.765346   -0.479497
 ---------------------------------------------------------------------

 SCF Done:  E(RHF) =  -385.675151513     A.U. after    2 cycles

 The electronic state is 1-A.
 Alpha  occ. eigenvalues --  -21.10830 -21.08371 -11.46250 -11.44037 -11.42332
 Alpha  occ. eigenvalues --  -11.38301 -11.38151 -11.34301  -1.92576  -1.44896
 Alpha  occ. eigenvalues --   -1.28997  -1.10879  -1.06935  -0.89269  -0.86336
 Alpha  occ. eigenvalues --   -0.79129  -0.67073  -0.64059  -0.61842  -0.61746
 Alpha  occ. eigenvalues --   -0.58049  -0.54057  -0.52899  -0.52343  -0.48271
 Alpha  occ. eigenvalues --   -0.47427  -0.44862  -0.42821  -0.40714  -0.37970
 Alpha  occ. eigenvalues --   -0.33490  -0.28119
 Alpha virt. eigenvalues --    0.04183   0.04841   0.05106   0.05155   0.05518
 Alpha virt. eigenvalues --    0.05747   0.06102   0.06957   0.07057   0.08279
 Alpha virt. eigenvalues --    0.08598   0.08901   0.12997   0.13167   0.13575

 Mulliken charges:
               1
     1  C   -2.691528
     2  C   -2.771200
     3  C   -3.202486
     4  C    1.765410
     5  C   -3.228893
     6  C   -2.539904
     7  O   -2.503394
     8  O   -1.011832
     9  H    1.330869
    10  H    1.363355
    11  H    1.318970
    12  H    1.275405
    13  H    1.347136
    14  H    1.325027
    15  H    1.966202
    16  H    1.336084
    17  H    1.437714
    18  H    1.316305
    19  H    1.255594
    20  H    0.911167
 Sum of Mulliken charges =  -0.00000

 Dipole moment (field-independent basis, Debye):
    X=              0.8408    Y=              0.5007    Z=             -0.2676  Tot=              1.0145

 Test job not archived.
 1\1\GINC-SE249\SP\RHF\Aug-CC-pVDZ\C6H12O2\OHZDE\06-Apr-2025\0\\#t hf a
 ug-cc-pvdz iop(5/13=1,5/36=2,99/5=2) pseudo=read geom=check guess=(rea
 d,tcheck) scf=(maxcycle=1)\\title\\0,1\C,0,2.273854,0.274215,-0.203952
 \C,0,1.762908,-1.084479,0.283467\C,0,0.328202,-1.357217,-0.186256\C,0,
 -0.603815,-0.222061,0.229009\C,0,-0.109581,1.12903,-0.279562\C,0,1.321
 941,1.404284,0.197425\O,0,-1.885928,-0.581152,-0.300631\O,0,-2.882481,
 0.292841,0.300204\H,0,3.273677,0.463179,0.192478\H,0,2.36937,0.253715,
 -1.294443\H,0,1.79563,-1.111497,1.377231\H,0,2.418338,-1.885041,-0.064

 Normal termination of Gaussian 16 at Sun Apr  6 08:13:21 2025.
