 Gaussian 16, Revision C.01,

 ----------------------------------------------------------------------
 #t hf aug-cc-pvdz symm=none int=(grid=ultrafine) guess=(read,tcheck) s
 table=(opt,rrhf)
 ----------------------------------------------------------------------
 -----
 title
 -----
 Symbolic Z-matrix:
 Charge =  0 Multiplicity = 1

 SCF Done:  E(RHF) =  -719.453041133     A.U. after   14 cycles
 Normal termination of Gaussian 16 at Sun Apr  6 08:12:58 2025.
 Gaussian 16:  ES64L-G16RevC.01  3-Jul-2019

 ----------------------------------------------------------------------
 #t hf aug-cc-pvdz iop(5/13=1,5/36=2,99/5=2) pseudo=read geom=check gue
 ss=(read,tcheck) scf=(maxcycle=1)
 ----------------------------------------------------------------------
 -----
 title
 -----
 Structure from the checkpoint file:  "cysteine.chk"
 Charge =  0 Multiplicity = 1

                         Standard orientation:
 ---------------------------------------------------------------------
 Center     Atomic      Atomic             Coordinates (Angstroms)
 Number     Number       Type             X           Y           Z
 ---------------------------------------------------------------------
      1          7           0        0.132502    1.611883    0.297686
      2          6           0        0.232379    0.161878    0.470580
      3          6           0        1.642693   -0.320889    0.078786
      4          8           0        2.061362   -1.407821    0.371619
      5          8           0        2.340267    0.562288   -0.647593
      6          1           0        1.773757    1.361340   -0.710982
      7          6           0       -0.766023   -0.575233   -0.432100
      8         16           0       -2.526785   -0.165977   -0.120311
      9          1           0        0.072670   -0.163602    1.501691
     10          1           0       -0.615582   -1.646562   -0.340585
     11          1           0       -0.604235   -0.298474   -1.474310
     12          1           0       -2.603154   -0.697517    1.114290
     13          1           0       -0.830276    1.882258    0.128698
     14          1           0        0.440533    2.104739    1.126558
 ---------------------------------------------------------------------

 SCF Done:  E(RHF) =  -721.103704709     A.U. after    2 cycles

 The electronic state is 1-A.
 Alpha  occ. eigenvalues --  -75.70793 -21.11273 -21.04855 -15.76998 -13.15911
 Alpha  occ. eigenvalues --  -13.11922 -13.06053 -11.52905 -11.47422 -11.42346
 Alpha  occ. eigenvalues --   -8.04650  -1.82264  -1.65565  -1.39351  -1.20491
 Alpha  occ. eigenvalues --   -1.06494  -0.91820  -0.78321  -0.72464  -0.71262
 Alpha  occ. eigenvalues --   -0.65151  -0.59593  -0.57092  -0.51629  -0.51097
 Alpha  occ. eigenvalues --   -0.50468  -0.46362  -0.41178  -0.39754  -0.33151
 Alpha  occ. eigenvalues --   -0.29219  -0.26017
 Alpha virt. eigenvalues --    0.03012   0.04036   0.04689   0.04806   0.05808
 Alpha virt. eigenvalues --    0.06724   0.07810   0.09812   0.10616   0.11494
 Alpha virt. eigenvalues --    0.12287   0.12529   0.13574   0.14011   0.15231

 Mulliken charges:
               1
     1  N   -2.734778
     2  C   -1.176421
     3  C    6.721747
     4  O   -3.377448
     5  O   -3.259565
     6  H    1.096014
     7  C   -3.478775
     8  S   -0.715518
     9  H    1.728860
    10  H    1.349744
    11  H    1.514056
    12  H    1.019401
    13  H    0.734410
    14  H    0.578274
 Sum of Mulliken charges =   0.00000

 Dipole moment (field-independent basis, Debye):
    X=             -2.7256    Y=              2.3664    Z=             -0.3068  Tot=              3.6225

 Test job not archived.
 1\1\GINC-SE049\SP\RHF\Aug-CC-pVDZ\C3H7N1O2S1\OHZDE\06-Apr-2025\0\\#t h
 f aug-cc-pvdz iop(5/13=1,5/36=2,99/5=2) pseudo=read geom=check guess=(
 read,tcheck) scf=(maxcycle=1)\\title\\0,1\N,0,0.132502,1.611883,0.2976
 86\C,0,0.232379,0.161878,0.47058\C,0,1.642693,-0.320889,0.078786\O,0,2
 .061362,-1.407821,0.371619\O,0,2.340267,0.562288,-0.647593\H,0,1.77375
 7,1.36134,-0.710982\C,0,-0.766023,-0.575233,-0.4321\S,0,-2.526785,-0.1
 65977,-0.120311\H,0,0.07267,-0.163602,1.501691\H,0,-0.615582,-1.646562
 ,-0.340585\H,0,-0.604235,-0.298474,-1.47431\H,0,-2.603154,-0.697517,1.

 Normal termination of Gaussian 16 at Sun Apr  6 08:13:03 2025.
