 Gaussian 16, Revision C.01,

 ----------------------------------------------------------------------
 #t hf aug-cc-pvdz symm=none int=(grid=ultrafine) guess=(read,tcheck) s
 table=(opt,rrhf)
 ----------------------------------------------------------------------
 -----
 title
 -----
 Symbolic Z-matrix:
 Charge =  0 Multiplicity = 1

 SCF Done:  E(RHF) =  -392.678308357     A.U. after   15 cycles
 Normal termination of Gaussian 16 at Sun Apr  6 08:12:59 2025.
 Gaussian 16:  ES64L-G16RevC.01  3-Jul-2019

 ----------------------------------------------------------------------
 #t hf aug-cc-pvdz iop(5/13=1,5/36=2,99/5=2) pseudo=read geom=check gue
 ss=(read,tcheck) scf=(maxcycle=1)
 ----------------------------------------------------------------------
 -----
 title
 -----
 Structure from the checkpoint file:  "cytosine.chk"
 Charge =  0 Multiplicity = 1

                         Standard orientation:
 ---------------------------------------------------------------------
 Center     Atomic      Atomic             Coordinates (Angstroms)
 Number     Number       Type             X           Y           Z
 ---------------------------------------------------------------------
      1          7           0       -1.278679    0.891680    0.000794
      2          6           0       -1.183279   -0.527836   -0.000005
      3          8           0       -2.212368   -1.174968    0.000543
      4          7           0        0.081477   -1.045063    0.000860
      5          6           0        1.129520   -0.251037   -0.001356
      6          7           0        2.350160   -0.839822   -0.016923
      7          6           0        1.044869    1.182278   -0.000701
      8          6           0       -0.202442    1.706311    0.000829
      9          1           0       -2.216305    1.259538    0.001831
     10          1           0        2.393103   -1.842117    0.040782
     11          1           0        3.193278   -0.305790    0.070447
     12          1           0        1.919772    1.812089   -0.004556
     13          1           0       -0.393620    2.770157    0.001442
 ---------------------------------------------------------------------

 SCF Done:  E(RHF) =  -394.432383111     A.U. after    2 cycles

 The electronic state is 1-A.
 Alpha  occ. eigenvalues --  -21.00404 -15.79543 -15.78966 -15.70828 -11.52236
 Alpha  occ. eigenvalues --  -11.49969 -11.48861 -11.40315  -1.70148  -1.51030
 Alpha  occ. eigenvalues --   -1.40434  -1.27494  -1.14536  -0.93735  -0.90465
 Alpha  occ. eigenvalues --   -0.76319  -0.73157  -0.69591  -0.64957  -0.62222
 Alpha  occ. eigenvalues --   -0.58859  -0.56582  -0.51458  -0.48078  -0.45074
 Alpha  occ. eigenvalues --   -0.37374  -0.34116  -0.28217  -0.27083
 Alpha virt. eigenvalues --    0.02488   0.03899   0.04551   0.06288   0.07039
 Alpha virt. eigenvalues --    0.09289   0.09680   0.11816   0.12159   0.12295
 Alpha virt. eigenvalues --    0.12639   0.12967   0.13214   0.13871   0.14721

 Mulliken charges:
               1
     1  N   -2.936240
     2  C    4.955850
     3  O   -3.262876
     4  N   -3.208078
     5  C    3.499253
     6  N   -3.567082
     7  C   -0.701999
     8  C    0.015386
     9  H    0.671488
    10  H    0.830811
    11  H    0.649364
    12  H    1.561320
    13  H    1.492802
 Sum of Mulliken charges =   0.00000

 Dipole moment (field-independent basis, Debye):
    X=              3.2845    Y=              4.0796    Z=              0.1735  Tot=              5.2403

 Test job not archived.
 1\1\GINC-SE050\SP\RHF\Aug-CC-pVDZ\C4H5N3O1\OHZDE\06-Apr-2025\0\\#t hf
 aug-cc-pvdz iop(5/13=1,5/36=2,99/5=2) pseudo=read geom=check guess=(re
 ad,tcheck) scf=(maxcycle=1)\\title\\0,1\N,0,-1.278679,0.89168,0.000794
 \C,0,-1.183279,-0.527836,-0.000005\O,0,-2.212368,-1.174968,0.000543\N,
 0,0.081477,-1.045063,0.00086\C,0,1.12952,-0.251037,-0.001356\N,0,2.350
 16,-0.839822,-0.016923\C,0,1.044869,1.182278,-0.000701\C,0,-0.202442,1
 .706311,0.000829\H,0,-2.216305,1.259538,0.001831\H,0,2.393103,-1.84211
 7,0.040782\H,0,3.193278,-0.30579,0.070447\H,0,1.919772,1.812089,-0.004

 Normal termination of Gaussian 16 at Sun Apr  6 08:13:05 2025.
