 Gaussian 16, Revision C.01,

 ----------------------------------------------------------------------
 #t hf aug-cc-pvdz symm=none int=(grid=ultrafine) guess=(read,tcheck) s
 table=(opt,rrhf)
 ----------------------------------------------------------------------
 -----
 title
 -----
 Symbolic Z-matrix:
 Charge =  0 Multiplicity = 1

 SCF Done:  E(RHF) =  -391.548021700     A.U. after   11 cycles
 Normal termination of Gaussian 16 at Sun Apr  6 08:16:49 2025.
 Gaussian 16:  ES64L-G16RevC.01  3-Jul-2019

 ----------------------------------------------------------------------
 #t hf aug-cc-pvdz iop(5/13=1,5/36=2,99/5=2) pseudo=read geom=check gue
 ss=(read,tcheck) scf=(maxcycle=1)
 ----------------------------------------------------------------------
 -----
 title
 -----
 Structure from the checkpoint file:  "decane.chk"
 Charge =  0 Multiplicity = 1

                         Standard orientation:
 ---------------------------------------------------------------------
 Center     Atomic      Atomic             Coordinates (Angstroms)
 Number     Number       Type             X           Y           Z
 ---------------------------------------------------------------------
      1          6           0        2.789368    5.050688    0.000000
      2          6           0       -2.789368   -5.050688    0.000000
      3          6           0        2.800552    3.522861    0.000000
      4          6           0       -2.800552   -3.522861    0.000000
      5          6           0        1.400494    2.907631    0.000000
      6          6           0       -1.400494   -2.907631    0.000000
      7          6           0        1.400494    1.378640    0.000000
      8          6           0       -1.400494   -1.378640    0.000000
      9          6           0       -0.000057    0.764608    0.000000
     10          6           0        0.000057   -0.764608    0.000000
     11          1           0        3.801408    5.458123    0.000000
     12          1           0        2.275152    5.441067    0.880579
     13          1           0        2.275152    5.441067   -0.880579
     14          1           0       -3.801408   -5.458123    0.000000
     15          1           0       -2.275152   -5.441067   -0.880579
     16          1           0       -2.275152   -5.441067    0.880579
     17          1           0        3.351669    3.162311    0.873843
     18          1           0        3.351669    3.162311   -0.873843
     19          1           0       -3.351669   -3.162311    0.873843
     20          1           0       -3.351669   -3.162311   -0.873843
     21          1           0        0.848853    3.269313   -0.874391
     22          1           0        0.848853    3.269313    0.874391
     23          1           0       -0.848853   -3.269313   -0.874391
     24          1           0       -0.848853   -3.269313    0.874391
     25          1           0        1.952511    1.017990    0.874412
     26          1           0        1.952511    1.017990   -0.874412
     27          1           0       -1.952511   -1.017990    0.874412
     28          1           0       -1.952511   -1.017990   -0.874412
     29          1           0       -0.551998    1.125266   -0.874385
     30          1           0       -0.551998    1.125266    0.874385
     31          1           0        0.551998   -1.125266    0.874385
     32          1           0        0.551998   -1.125266   -0.874385
 ---------------------------------------------------------------------

 SCF Done:  E(RHF) =  -393.621991808     A.U. after    2 cycles

 The electronic state is 1-AG.
 Alpha  occ. eigenvalues --  -11.42497 -11.42467 -11.40934 -11.40837 -11.39307
 Alpha  occ. eigenvalues --  -11.37641 -11.36208 -11.35392 -11.34480 -11.33070
 Alpha  occ. eigenvalues --   -1.29349  -1.23338  -1.15995  -1.08329  -1.00933
 Alpha  occ. eigenvalues --   -0.94034  -0.87502  -0.82773  -0.81670  -0.81244
 Alpha  occ. eigenvalues --   -0.66860  -0.64652  -0.61370  -0.58963  -0.58031
 Alpha  occ. eigenvalues --   -0.57631  -0.56571  -0.53816  -0.52762  -0.52176
 Alpha  occ. eigenvalues --   -0.50142  -0.48346  -0.47078  -0.45149  -0.45032
 Alpha  occ. eigenvalues --   -0.44508  -0.44449  -0.43918  -0.43859  -0.43352
 Alpha  occ. eigenvalues --   -0.35541
 Alpha virt. eigenvalues --    0.04227   0.04461   0.04567   0.05464   0.05562
 Alpha virt. eigenvalues --    0.05923   0.05972   0.06211   0.06364   0.06426
 Alpha virt. eigenvalues --    0.06572   0.06841   0.07550   0.08545   0.08648

 Mulliken charges:
               1
     1  C   -4.818942
     2  C   -4.818942
     3  C   -3.689059
     4  C   -3.689059
     5  C   -2.983597
     6  C   -2.983597
     7  C   -2.660607
     8  C   -2.660607
     9  C   -2.421690
    10  C   -2.421690
    11  H    1.080145
    12  H    1.360688
    13  H    1.360688
    14  H    1.080145
    15  H    1.360688
    16  H    1.360688
    17  H    1.500348
    18  H    1.500348
    19  H    1.500348
    20  H    1.500348
    21  H    1.613232
    22  H    1.613232
    23  H    1.613232
    24  H    1.613232
    25  H    1.659487
    26  H    1.659487
    27  H    1.659487
    28  H    1.659487
    29  H    1.613121
    30  H    1.613121
    31  H    1.613121
    32  H    1.613121
 Sum of Mulliken charges =   0.00000

 Dipole moment (field-independent basis, Debye):
    X=              0.0000    Y=              0.0000    Z=             -0.0000  Tot=              0.0000

 Test job not archived.
 1\1\GINC-SE108\SP\RHF\Aug-CC-pVDZ\C10H22\OHZDE\06-Apr-2025\0\\#t hf au
 g-cc-pvdz iop(5/13=1,5/36=2,99/5=2) pseudo=read geom=check guess=(read
 ,tcheck) scf=(maxcycle=1)\\title\\0,1\C,0,2.789368,5.050688,0.\C,0,-2.
 789368,-5.050688,0.\C,0,2.800552,3.522861,0.\C,0,-2.800552,-3.522861,0
 .\C,0,1.400494,2.907631,0.\C,0,-1.400494,-2.907631,0.\C,0,1.400494,1.3
 7864,0.\C,0,-1.400494,-1.37864,0.\C,0,-0.000057,0.764608,0.\C,0,0.0000
 57,-0.764608,0.\H,0,3.801408,5.458123,0.\H,0,2.275152,5.441067,0.88057
 9\H,0,2.275152,5.441067,-0.880579\H,0,-3.801408,-5.458123,0.\H,0,-2.27

 Normal termination of Gaussian 16 at Sun Apr  6 08:17:15 2025.
