 Gaussian 16, Revision C.01,

 ----------------------------------------------------------------------
 #t hf aug-cc-pvdz symm=none int=(grid=ultrafine) guess=(read,tcheck) s
 table=(opt,rrhf)
 ----------------------------------------------------------------------
 -----
 title
 -----
 Symbolic Z-matrix:
 Charge =  0 Multiplicity = 1

 SCF Done:  E(RHF) =  -465.260797578     A.U. after   13 cycles
 Normal termination of Gaussian 16 at Sun Apr  6 08:16:48 2025.
 Gaussian 16:  ES64L-G16RevC.01  3-Jul-2019

 ----------------------------------------------------------------------
 #t hf aug-cc-pvdz iop(5/13=1,5/36=2,99/5=2) pseudo=read geom=check gue
 ss=(read,tcheck) scf=(maxcycle=1)
 ----------------------------------------------------------------------
 -----
 title
 -----
 Structure from the checkpoint file:  "decan-2-one.chk"
 Charge =  0 Multiplicity = 1

                         Standard orientation:
 ---------------------------------------------------------------------
 Center     Atomic      Atomic             Coordinates (Angstroms)
 Number     Number       Type             X           Y           Z
 ---------------------------------------------------------------------
      1          6           0       -4.175993    0.207367   -0.005507
      2          6           0       -5.448491   -0.614286    0.019396
      3          6           0        6.054156    0.386362    0.006408
      4          6           0       -2.871799   -0.571984   -0.012818
      5          6           0        4.792505   -0.475092   -0.009332
      6          6           0       -1.613136    0.286980    0.008336
      7          6           0        3.501105    0.343620    0.008693
      8          6           0       -0.327445   -0.540456   -0.008111
      9          6           0        2.232016   -0.508852   -0.007095
     10          6           0        0.941983    0.311836    0.009646
     11          8           0       -4.204668    1.417596   -0.016635
     12          1           0       -5.462714   -1.326538   -0.807857
     13          1           0       -5.497683   -1.198360    0.941164
     14          1           0       -6.314776    0.039007   -0.041572
     15          1           0        6.089348    1.049308   -0.860580
     16          1           0        6.956755   -0.226164   -0.008139
     17          1           0        6.092680    1.012377    0.900299
     18          1           0       -2.890569   -1.259757    0.840286
     19          1           0       -2.883947   -1.221971   -0.895528
     20          1           0        4.801833   -1.150837    0.851256
     21          1           0        4.799527   -1.115634   -0.896480
     22          1           0       -1.631210    0.927231    0.893082
     23          1           0       -1.629208    0.965732   -0.846946
     24          1           0        3.492536    1.020304   -0.852403
     25          1           0        3.494509    0.985345    0.896184
     26          1           0       -0.318063   -1.217877    0.852696
     27          1           0       -0.317710   -1.181637   -0.896260
     28          1           0        2.240008   -1.150711   -0.894489
     29          1           0        2.241093   -1.184885    0.854517
     30          1           0        0.932828    0.988464   -0.851005
     31          1           0        0.932699    0.952874    0.897157
 ---------------------------------------------------------------------

 SCF Done:  E(RHF) =  -467.587742545     A.U. after    2 cycles

 The electronic state is 1-A.
 Alpha  occ. eigenvalues --  -21.04471 -11.49681 -11.43266 -11.42587 -11.41639
 Alpha  occ. eigenvalues --  -11.40650 -11.38855 -11.38380 -11.36632 -11.35442
 Alpha  occ. eigenvalues --  -11.33729  -1.70254  -1.29007  -1.21993  -1.14649
 Alpha  occ. eigenvalues --   -1.09030  -1.02722  -0.95153  -0.87581  -0.82617
 Alpha  occ. eigenvalues --   -0.81845  -0.73759  -0.67255  -0.64733  -0.62684
 Alpha  occ. eigenvalues --   -0.61157  -0.58702  -0.58507  -0.58122  -0.55031
 Alpha  occ. eigenvalues --   -0.54907  -0.53774  -0.50775  -0.49474  -0.47116
 Alpha  occ. eigenvalues --   -0.46688  -0.46192  -0.45218  -0.44755  -0.44440
 Alpha  occ. eigenvalues --   -0.44109  -0.40604  -0.37171  -0.27788
 Alpha virt. eigenvalues --    0.03572   0.04347   0.04380   0.05296   0.05710
 Alpha virt. eigenvalues --    0.05744   0.05938   0.06225   0.06255   0.06500
 Alpha virt. eigenvalues --    0.06837   0.07751   0.08089   0.08326   0.08614

 Mulliken charges:
               1
     1  C    4.843645
     2  C   -5.615146
     3  C   -4.772527
     4  C   -4.417760
     5  C   -3.639528
     6  C   -2.505863
     7  C   -2.949706
     8  C   -2.532127
     9  C   -2.609562
    10  C   -2.575509
    11  O   -3.454546
    12  H    1.329540
    13  H    1.311973
    14  H    1.313287
    15  H    1.355557
    16  H    1.075146
    17  H    1.354321
    18  H    1.649469
    19  H    1.611283
    20  H    1.495865
    21  H    1.494008
    22  H    1.636332
    23  H    1.642606
    24  H    1.615962
    25  H    1.620514
    26  H    1.607722
    27  H    1.598271
    28  H    1.662663
    29  H    1.655402
    30  H    1.604038
    31  H    1.594671
 Sum of Mulliken charges =   0.00000

 Dipole moment (field-independent basis, Debye):
    X=              0.2649    Y=             -1.3011    Z=              0.0137  Tot=              1.3278

 Test job not archived.
 1\1\GINC-SE107\SP\RHF\Aug-CC-pVDZ\C10H20O1\OHZDE\06-Apr-2025\0\\#t hf
 aug-cc-pvdz iop(5/13=1,5/36=2,99/5=2) pseudo=read geom=check guess=(re
 ad,tcheck) scf=(maxcycle=1)\\title\\0,1\C,0,-4.175993,0.207367,-0.0055
 07\C,0,-5.448491,-0.614286,0.019396\C,0,6.054156,0.386362,0.006408\C,0
 ,-2.871799,-0.571984,-0.012818\C,0,4.792505,-0.475092,-0.009332\C,0,-1
 .613136,0.28698,0.008336\C,0,3.501105,0.34362,0.008693\C,0,-0.327445,-
 0.540456,-0.008111\C,0,2.232016,-0.508852,-0.007095\C,0,0.941983,0.311
 836,0.009646\O,0,-4.204668,1.417596,-0.016635\H,0,-5.462714,-1.326538,

 Normal termination of Gaussian 16 at Sun Apr  6 08:17:11 2025.
