 Gaussian 16, Revision C.01,

 ----------------------------------------------------------------------
 #t hf aug-cc-pvdz symm=none int=(grid=ultrafine) guess=(read,tcheck) s
 table=(opt,rrhf)
 ----------------------------------------------------------------------
 -----
 title
 -----
 Symbolic Z-matrix:
 Charge =  0 Multiplicity = 1

 SCF Done:  E(RHF) =  -454.989128565     A.U. after   14 cycles
 Normal termination of Gaussian 16 at Sun Apr  6 08:13:13 2025.
 Gaussian 16:  ES64L-G16RevC.01  3-Jul-2019

 ----------------------------------------------------------------------
 #t hf aug-cc-pvdz iop(5/13=1,5/36=2,99/5=2) pseudo=read geom=check gue
 ss=(read,tcheck) scf=(maxcycle=1)
 ----------------------------------------------------------------------
 -----
 title
 -----
 Structure from the checkpoint file:  "di-2-propyn-1-yltrioxidane.chk"
 Charge =  0 Multiplicity = 1

                         Standard orientation:
 ---------------------------------------------------------------------
 Center     Atomic      Atomic             Coordinates (Angstroms)
 Number     Number       Type             X           Y           Z
 ---------------------------------------------------------------------
      1          8           0        0.000000    1.471034   -0.000000
      2          8           0       -1.045393    0.632131    0.498632
      3          8           0        1.045393    0.632130   -0.498632
      4          6           0       -1.857587    0.241250   -0.631137
      5          6           0        1.857587    0.241251    0.631137
      6          6           0       -2.930054   -0.597279   -0.127689
      7          6           0        2.930054   -0.597279    0.127689
      8          6           0       -3.820304   -1.289211    0.276887
      9          6           0        3.820303   -1.289212   -0.276887
     10          1           0       -2.252972    1.138284   -1.112154
     11          1           0       -1.237646   -0.305795   -1.343916
     12          1           0        2.252972    1.138285    1.112154
     13          1           0        1.237646   -0.305794    1.343917
     14          1           0       -4.609105   -1.902231    0.635967
     15          1           0        4.609104   -1.902232   -0.635966
 ---------------------------------------------------------------------

 SCF Done:  E(RHF) =  -456.985221354     A.U. after    2 cycles

 The electronic state is 1-A.
 Alpha  occ. eigenvalues --  -21.15215 -21.11773 -21.11665 -11.49021 -11.48836
 Alpha  occ. eigenvalues --  -11.42385 -11.42277 -11.41107 -11.41054  -2.07423
 Alpha  occ. eigenvalues --   -1.73977  -1.35669  -1.15554  -1.12531  -0.99961
 Alpha  occ. eigenvalues --   -0.97121  -0.76511  -0.75524  -0.68681  -0.67515
 Alpha  occ. eigenvalues --   -0.65492  -0.63771  -0.61446  -0.54333  -0.50006
 Alpha  occ. eigenvalues --   -0.49202  -0.39650  -0.39095  -0.38486  -0.38063
 Alpha  occ. eigenvalues --   -0.33182  -0.32379  -0.31186
 Alpha virt. eigenvalues --    0.03122   0.04006   0.05255   0.05727   0.06604
 Alpha virt. eigenvalues --    0.07438   0.09447   0.09559   0.10853   0.11190
 Alpha virt. eigenvalues --    0.11702   0.11919   0.11998   0.12660   0.13578

 Mulliken charges:
               1
     1  O    0.221542
     2  O   -1.543921
     3  O   -1.543922
     4  C   -2.250772
     5  C   -2.250770
     6  C    4.000061
     7  C    4.000061
     8  C   -3.894243
     9  C   -3.894242
    10  H    1.302796
    11  H    1.458678
    12  H    1.302796
    13  H    1.458677
    14  H    0.816629
    15  H    0.816628
 Sum of Mulliken charges =  -0.00000

 Dipole moment (field-independent basis, Debye):
    X=             -0.0000    Y=             -0.5515    Z=              0.0000  Tot=              0.5515

 Test job not archived.
 1\1\GINC-SE146\SP\RHF\Aug-CC-pVDZ\C6H6O3\OHZDE\06-Apr-2025\0\\#t hf au
 g-cc-pvdz iop(5/13=1,5/36=2,99/5=2) pseudo=read geom=check guess=(read
 ,tcheck) scf=(maxcycle=1)\\title\\0,1\O,0,0.,1.471034,0.\O,0,-1.045393
 ,0.632131,0.498632\O,0,1.045393,0.63213,-0.498632\C,0,-1.857587,0.2412
 5,-0.631137\C,0,1.857587,0.241251,0.631137\C,0,-2.930054,-0.597279,-0.
 127689\C,0,2.930054,-0.597279,0.127689\C,0,-3.820304,-1.289211,0.27688
 7\C,0,3.820303,-1.289212,-0.276887\H,0,-2.252972,1.138284,-1.112154\H,
 0,-1.237646,-0.305795,-1.343916\H,0,2.252972,1.138285,1.112154\H,0,1.2

 Normal termination of Gaussian 16 at Sun Apr  6 08:13:20 2025.
