 Gaussian 16, Revision C.01,

 ----------------------------------------------------------------------
 #t hf aug-cc-pvdz symm=none int=(grid=ultrafine) guess=(read,tcheck) s
 table=(opt,rrhf)
 ----------------------------------------------------------------------
 -----
 title
 -----
 Symbolic Z-matrix:
 Charge =  0 Multiplicity = 1

 SCF Done:  E(RHF) =  -1150.02256832     A.U. after   12 cycles
 Normal termination of Gaussian 16 at Sun Apr  6 08:13:10 2025.
 Gaussian 16:  ES64L-G16RevC.01  3-Jul-2019

 ----------------------------------------------------------------------
 #t hf aug-cc-pvdz iop(5/13=1,5/36=2,99/5=2) pseudo=read geom=check gue
 ss=(read,tcheck) scf=(maxcycle=1)
 ----------------------------------------------------------------------
 -----
 title
 -----
 Structure from the checkpoint file:  "di-2-chloroethylether.chk"
 Charge =  0 Multiplicity = 1

                         Standard orientation:
 ---------------------------------------------------------------------
 Center     Atomic      Atomic             Coordinates (Angstroms)
 Number     Number       Type             X           Y           Z
 ---------------------------------------------------------------------
      1          6           0        0.595129    1.129270    1.179795
      2          6           0        0.595129    1.129270   -1.179795
      3          6           0       -0.195354    0.681761    2.384225
      4          6           0       -0.195354    0.681761   -2.384225
      5          8           0       -0.097253    0.782414    0.000000
      6         17           0       -0.195354   -1.116216    2.587045
      7         17           0       -0.195354   -1.116216   -2.587045
      8          1           0        0.715987    2.221674    1.242336
      9          1           0        1.594518    0.679296    1.190046
     10          1           0        1.594518    0.679296   -1.190046
     11          1           0        0.715987    2.221674   -1.242336
     12          1           0        0.235929    1.094093    3.292028
     13          1           0       -1.235057    0.984758    2.300171
     14          1           0       -1.235057    0.984758   -2.300171
     15          1           0        0.235929    1.094093   -3.292028
 ---------------------------------------------------------------------

 SCF Done:  E(RHF) =  -1151.60348172     A.U. after    2 cycles

 The electronic state is 1-A'.
 Alpha  occ. eigenvalues --  -99.87299 -99.87297 -21.05940 -11.48441 -11.46275
 Alpha  occ. eigenvalues --  -11.42301 -11.41476 -10.44560 -10.44555  -9.64488
 Alpha  occ. eigenvalues --   -9.64416  -9.63855  -9.63715  -9.63675  -9.63667
 Alpha  occ. eigenvalues --   -1.77826  -1.33117  -1.31691  -1.13478  -1.06674
 Alpha  occ. eigenvalues --   -0.90888  -0.88019  -0.69969  -0.68271  -0.65109
 Alpha  occ. eigenvalues --   -0.65063  -0.62095  -0.56677  -0.56160  -0.53822
 Alpha  occ. eigenvalues --   -0.52892  -0.48169  -0.47616  -0.46947  -0.44137
 Alpha  occ. eigenvalues --   -0.40681  -0.31872
 Alpha virt. eigenvalues --    0.03458   0.04050   0.04617   0.05627   0.05751
 Alpha virt. eigenvalues --    0.06189   0.06791   0.07924   0.08489   0.09350
 Alpha virt. eigenvalues --    0.10587   0.12506   0.12682   0.13542   0.14273

 Mulliken charges:
               1
     1  C   -0.491504
     2  C   -0.491504
     3  C   -4.429162
     4  C   -4.429162
     5  O   -2.762749
     6  Cl   0.093584
     7  Cl   0.093584
     8  H    1.472541
     9  H    1.671174
    10  H    1.671174
    11  H    1.472541
    12  H    1.458484
    13  H    1.606257
    14  H    1.606257
    15  H    1.458484
 Sum of Mulliken charges =  -0.00000

 Dipole moment (field-independent basis, Debye):
    X=              0.4819    Y=              4.5088    Z=              0.0000  Tot=              4.5345

 Test job not archived.
 1\1\GINC-SE146\SP\RHF\Aug-CC-pVDZ\C4H8Cl2O1\OHZDE\06-Apr-2025\0\\#t hf
  aug-cc-pvdz iop(5/13=1,5/36=2,99/5=2) pseudo=read geom=check guess=(r
 ead,tcheck) scf=(maxcycle=1)\\title\\0,1\C,0,0.595129,1.12927,1.179795
 \C,0,0.595129,1.12927,-1.179795\C,0,-0.195354,0.681761,2.384225\C,0,-0
 .195354,0.681761,-2.384225\O,0,-0.097253,0.782414,0.\Cl,0,-0.195354,-1
 .116216,2.587045\Cl,0,-0.195354,-1.116216,-2.587045\H,0,0.715987,2.221
 674,1.242336\H,0,1.594518,0.679296,1.190046\H,0,1.594518,0.679296,-1.1
 90046\H,0,0.715987,2.221674,-1.242336\H,0,0.235929,1.094093,3.292028\H

 Normal termination of Gaussian 16 at Sun Apr  6 08:13:16 2025.
