 Gaussian 16, Revision C.01,

 ----------------------------------------------------------------------
 #t hf aug-cc-pvdz symm=none int=(grid=ultrafine) guess=(read,tcheck) s
 table=(opt,rrhf)
 ----------------------------------------------------------------------
 -----
 title
 -----
 Symbolic Z-matrix:
 Charge =  0 Multiplicity = 1

 SCF Done:  E(RHF) =  -785.803158284     A.U. after   15 cycles
 Normal termination of Gaussian 16 at Sun Apr  6 08:17:39 2025.
 Gaussian 16:  ES64L-G16RevC.01  3-Jul-2019

 ----------------------------------------------------------------------
 #t hf aug-cc-pvdz iop(5/13=1,5/36=2,99/5=2) pseudo=read geom=check gue
 ss=(read,tcheck) scf=(maxcycle=1)
 ----------------------------------------------------------------------
 -----
 title
 -----
 Structure from the checkpoint file:  "di-t-butyl_sulfoxide.chk"
 Charge =  0 Multiplicity = 1

                         Standard orientation:
 ---------------------------------------------------------------------
 Center     Atomic      Atomic             Coordinates (Angstroms)
 Number     Number       Type             X           Y           Z
 ---------------------------------------------------------------------
      1          6           0        2.663848   -0.782766   -0.312447
      2          6           0        1.574850    0.243819    0.027897
      3         16           0        0.003172   -0.652999   -0.591505
      4          8           0       -0.020248   -1.977073    0.141990
      5          6           0        1.557609    0.507360    1.528193
      6          6           0        1.785704    1.512671   -0.796723
      7          6           0       -1.573874    0.251467    0.029249
      8          6           0       -1.560609    1.730836   -0.336792
      9          6           0       -1.776120    0.006480    1.519693
     10          6           0       -2.659747   -0.480531   -0.773418
     11          1           0        2.509176   -1.714151    0.227716
     12          1           0        2.686446   -1.005976   -1.380264
     13          1           0        3.635357   -0.369465   -0.033555
     14          1           0        1.255380   -0.384375    2.076591
     15          1           0        0.895101    1.328817    1.794977
     16          1           0        2.563900    0.776586    1.859022
     17          1           0        1.684867    1.314388   -1.864966
     18          1           0        2.799008    1.883799   -0.626678
     19          1           0        1.096530    2.309355   -0.528584
     20          1           0       -1.282606    1.890906   -1.379789
     21          1           0       -0.889760    2.308180    0.296527
     22          1           0       -2.565562    2.138481   -0.202592
     23          1           0       -1.549414   -1.030527    1.766119
     24          1           0       -2.819894    0.198857    1.778581
     25          1           0       -1.156770    0.655303    2.134375
     26          1           0       -2.534148   -0.333472   -1.846700
     27          1           0       -2.647862   -1.549896   -0.566985
     28          1           0       -3.638489   -0.088261   -0.489546
 ---------------------------------------------------------------------

 SCF Done:  E(RHF) =  -788.024171872     A.U. after    2 cycles

 The electronic state is 1-A.
 Alpha  occ. eigenvalues --  -75.75702 -20.97996 -13.30951 -13.27400 -13.17561
 Alpha  occ. eigenvalues --  -11.45716 -11.43760 -11.41235 -11.40674 -11.39736
 Alpha  occ. eigenvalues --  -11.39335 -11.36618 -11.36096  -8.09842  -1.66256
 Alpha  occ. eigenvalues --   -1.30457  -1.26238  -1.03064  -1.02225  -1.01634
 Alpha  occ. eigenvalues --   -1.01559  -0.99852  -0.80839  -0.76349  -0.65580
 Alpha  occ. eigenvalues --   -0.63574  -0.61974  -0.61310  -0.60674  -0.60375
 Alpha  occ. eigenvalues --   -0.56894  -0.55135  -0.54745  -0.54185  -0.52727
 Alpha  occ. eigenvalues --   -0.51558  -0.47123  -0.46635  -0.45303  -0.44872
 Alpha  occ. eigenvalues --   -0.41713  -0.41159  -0.35235  -0.28935  -0.23124
 Alpha virt. eigenvalues --    0.03775   0.04579   0.04913   0.05222   0.05240
 Alpha virt. eigenvalues --    0.05569   0.05630   0.06210   0.06673   0.06983
 Alpha virt. eigenvalues --    0.07565   0.07914   0.08340   0.08499   0.09264

 Mulliken charges:
               1
     1  C   -4.958383
     2  C    4.111774
     3  S    2.330913
     4  O   -2.733628
     5  C   -5.974009
     6  C   -4.723373
     7  C    4.056260
     8  C   -4.980704
     9  C   -5.548342
    10  C   -4.858404
    11  H    1.424546
    12  H    1.263689
    13  H    1.205893
    14  H    1.380337
    15  H    1.593219
    16  H    0.978526
    17  H    1.282452
    18  H    0.985535
    19  H    1.486567
    20  H    1.342486
    21  H    1.705486
    22  H    0.906248
    23  H    1.482136
    24  H    0.964696
    25  H    1.480445
    26  H    1.278606
    27  H    1.299053
    28  H    1.217977
 Sum of Mulliken charges =  -0.00000

 Dipole moment (field-independent basis, Debye):
    X=              0.0438    Y=              1.4197    Z=             -0.4341  Tot=              1.4852

 Test job not archived.
 1\1\GINC-SE167\SP\RHF\Aug-CC-pVDZ\C8H18O1S1\OHZDE\06-Apr-2025\0\\#t hf
  aug-cc-pvdz iop(5/13=1,5/36=2,99/5=2) pseudo=read geom=check guess=(r
 ead,tcheck) scf=(maxcycle=1)\\title\\0,1\C,0,2.663848,-0.782766,-0.312
 447\C,0,1.57485,0.243819,0.027897\S,0,0.003172,-0.652999,-0.591505\O,0
 ,-0.020248,-1.977073,0.14199\C,0,1.557609,0.50736,1.528193\C,0,1.78570
 4,1.512671,-0.796723\C,0,-1.573874,0.251467,0.029249\C,0,-1.560609,1.7
 30836,-0.336792\C,0,-1.77612,0.00648,1.519693\C,0,-2.659747,-0.480531,
 -0.773418\H,0,2.509176,-1.714151,0.227716\H,0,2.686446,-1.005976,-1.38

 Normal termination of Gaussian 16 at Sun Apr  6 08:20:45 2025.
