 Gaussian 16, Revision C.01,

 ----------------------------------------------------------------------
 #t hf aug-cc-pvdz symm=none int=(grid=ultrafine) guess=(read,tcheck) s
 table=(opt,rrhf)
 ----------------------------------------------------------------------
 -----
 title
 -----
 Symbolic Z-matrix:
 Charge =  0 Multiplicity = 1

 SCF Done:  E(RHF) =  -463.113080261     A.U. after   13 cycles

 1\1\GINC-SE167\Stability\RHF\Aug-CC-pVDZ\C8H18O2\OHZDE\06-Apr-2025\0\\
 #t hf aug-cc-pvdz symm=none int=(grid=ultrafine) guess=(read,tcheck) s
 table=(opt,rrhf)\\title\\0,1\O,0,0.57355,-0.456962,-0.218509\O,0,-0.57
 355,0.456962,-0.218509\C,0,-0.08017,1.796241,-0.00302\C,0,0.884776,2.1
 95036,-1.121036\C,0,-1.367264,2.619106,-0.073034\C,0,0.57355,1.917363,
 1.374169\C,0,0.08017,-1.796241,-0.00302\C,0,-0.884776,-2.195036,-1.121
 036\C,0,1.367264,-2.619106,-0.073034\C,0,-0.57355,-1.917363,1.374169\H
 ,0,0.409795,2.068957,-2.094034\H,0,1.176355,3.240428,-1.01102\H,0,1.78

 Normal termination of Gaussian 16 at Sun Apr  6 08:16:35 2025.
 Gaussian 16:  ES64L-G16RevC.01  3-Jul-2019

 ----------------------------------------------------------------------
 #t hf aug-cc-pvdz iop(5/13=1,5/36=2,99/5=2) pseudo=read geom=check gue
 ss=(read,tcheck) scf=(maxcycle=1)
 ----------------------------------------------------------------------
 -----
 title
 -----
 Structure from the checkpoint file:  "di-t-butyl_peroxide.chk"
 Charge =  0 Multiplicity = 1

                         Standard orientation:
 ---------------------------------------------------------------------
 Center     Atomic      Atomic             Coordinates (Angstroms)
 Number     Number       Type             X           Y           Z
 ---------------------------------------------------------------------
      1          8           0        0.573550   -0.456962   -0.218509
      2          8           0       -0.573550    0.456962   -0.218509
      3          6           0       -0.080170    1.796241   -0.003020
      4          6           0        0.884776    2.195036   -1.121036
      5          6           0       -1.367264    2.619106   -0.073034
      6          6           0        0.573550    1.917363    1.374169
      7          6           0        0.080170   -1.796241   -0.003020
      8          6           0       -0.884776   -2.195036   -1.121036
      9          6           0        1.367264   -2.619106   -0.073034
     10          6           0       -0.573550   -1.917363    1.374169
     11          1           0        0.409795    2.068957   -2.094034
     12          1           0        1.176355    3.240428   -1.011020
     13          1           0        1.784373    1.583641   -1.095314
     14          1           0       -2.069771    2.304245    0.698415
     15          1           0       -1.138092    3.673801    0.079206
     16          1           0       -1.845273    2.506130   -1.045680
     17          1           0        1.459710    1.289466    1.438562
     18          1           0        0.871203    2.950204    1.559960
     19          1           0       -0.124150    1.615244    2.155502
     20          1           0       -0.409795   -2.068957   -2.094034
     21          1           0       -1.176355   -3.240428   -1.011020
     22          1           0       -1.784373   -1.583641   -1.095314
     23          1           0        2.069771   -2.304245    0.698415
     24          1           0        1.138092   -3.673801    0.079206
     25          1           0        1.845273   -2.506130   -1.045680
     26          1           0       -1.459710   -1.289466    1.438562
     27          1           0       -0.871203   -2.950204    1.559960
     28          1           0        0.124150   -1.615244    2.155502
 ---------------------------------------------------------------------

 SCF Done:  E(RHF) =  -465.367933590     A.U. after    2 cycles

 The electronic state is 1-A.
 Alpha  occ. eigenvalues --  -21.06607 -21.06394 -11.44674 -11.44471 -11.39226
 Alpha  occ. eigenvalues --  -11.39114 -11.38938 -11.38589 -11.34667 -11.34514
 Alpha  occ. eigenvalues --   -1.92822  -1.49416  -1.20124  -1.16842  -1.01325
 Alpha  occ. eigenvalues --   -1.01010  -1.00845  -1.00535  -0.79629  -0.75851
 Alpha  occ. eigenvalues --   -0.64285  -0.62773  -0.62411  -0.61072  -0.59846
 Alpha  occ. eigenvalues --   -0.59260  -0.55631  -0.54565  -0.54389  -0.53885
 Alpha  occ. eigenvalues --   -0.51258  -0.50992  -0.47818  -0.47507  -0.46632
 Alpha  occ. eigenvalues --   -0.45343  -0.42833  -0.40196  -0.37723  -0.32864
 Alpha  occ. eigenvalues --   -0.23686
 Alpha virt. eigenvalues --    0.04066   0.04425   0.04519   0.04949   0.04992
 Alpha virt. eigenvalues --    0.05382   0.05665   0.06756   0.06867   0.07171
 Alpha virt. eigenvalues --    0.07670   0.07671   0.08657   0.08878   0.09610

 Mulliken charges:
               1
     1  O   -2.864197
     2  O   -2.864197
     3  C    4.292747
     4  C   -4.477749
     5  C   -3.990710
     6  C   -4.529680
     7  C    4.292747
     8  C   -4.477749
     9  C   -3.990710
    10  C   -4.529680
    11  H    1.311972
    12  H    1.176687
    13  H    1.367604
    14  H    1.314271
    15  H    1.152370
    16  H    1.354550
    17  H    1.362164
    18  H    1.160468
    19  H    1.369502
    20  H    1.311972
    21  H    1.176687
    22  H    1.367604
    23  H    1.314271
    24  H    1.152370
    25  H    1.354550
    26  H    1.362164
    27  H    1.160468
    28  H    1.369502
 Sum of Mulliken charges =  -0.00000

 Dipole moment (field-independent basis, Debye):
    X=             -0.0000    Y=              0.0000    Z=              0.1206  Tot=              0.1206

 Test job not archived.
 1\1\GINC-SE167\SP\RHF\Aug-CC-pVDZ\C8H18O2\OHZDE\06-Apr-2025\0\\#t hf a
 ug-cc-pvdz iop(5/13=1,5/36=2,99/5=2) pseudo=read geom=check guess=(rea
 d,tcheck) scf=(maxcycle=1)\\title\\0,1\O,0,0.57355,-0.456962,-0.218509
 \O,0,-0.57355,0.456962,-0.218509\C,0,-0.08017,1.796241,-0.00302\C,0,0.
 884776,2.195036,-1.121036\C,0,-1.367264,2.619106,-0.073034\C,0,0.57355
 ,1.917363,1.374169\C,0,0.08017,-1.796241,-0.00302\C,0,-0.884776,-2.195
 036,-1.121036\C,0,1.367264,-2.619106,-0.073034\C,0,-0.57355,-1.917363,
 1.374169\H,0,0.409795,2.068957,-2.094034\H,0,1.176355,3.240428,-1.0110

 Normal termination of Gaussian 16 at Sun Apr  6 08:16:48 2025.
