 Gaussian 16, Revision C.01,

 ----------------------------------------------------------------------
 #t hf aug-cc-pvdz symm=none int=(grid=ultrafine) guess=(read,tcheck) s
 table=(opt,rrhf)
 ----------------------------------------------------------------------
 -----
 title
 -----
 Symbolic Z-matrix:
 Charge =  0 Multiplicity = 1

 SCF Done:  E(RHF) =  -152.512714741     A.U. after   11 cycles
 Normal termination of Gaussian 16 at Sun Apr  6 08:12:25 2025.
 Gaussian 16:  ES64L-G16RevC.01  3-Jul-2019

 ----------------------------------------------------------------------
 #t hf aug-cc-pvdz iop(5/13=1,5/36=2,99/5=2) pseudo=read geom=check gue
 ss=(read,tcheck) scf=(maxcycle=1)
 ----------------------------------------------------------------------
 -----
 title
 -----
 Structure from the checkpoint file:  "diacetylene.chk"
 Charge =  0 Multiplicity = 1

                         Standard orientation:
 ---------------------------------------------------------------------
 Center     Atomic      Atomic             Coordinates (Angstroms)
 Number     Number       Type             X           Y           Z
 ---------------------------------------------------------------------
      1          6           0        0.000000    0.000000    0.681680
      2          6           0        0.000000    0.000000   -0.681680
      3          6           0        0.000000    0.000000    1.885975
      4          6           0        0.000000    0.000000   -1.885975
      5          1           0        0.000000    0.000000    2.946942
      6          1           0        0.000000    0.000000   -2.946942
 ---------------------------------------------------------------------

 SCF Done:  E(RHF) =  -153.222514034     A.U. after    2 cycles

 The electronic state is 1-SGG.
 Alpha  occ. eigenvalues --  -11.47647 -11.44053 -11.43981 -11.42320  -1.19927
 Alpha  occ. eigenvalues --   -1.06291  -0.86572  -0.73642  -0.66906  -0.48101
 Alpha  occ. eigenvalues --   -0.48101  -0.34289  -0.34289
 Alpha virt. eigenvalues --    0.02781   0.04557   0.08556   0.09930   0.09930
 Alpha virt. eigenvalues --    0.10857   0.11232   0.11232   0.13866   0.14276
 Alpha virt. eigenvalues --    0.15660   0.15660   0.19968   0.20955   0.20955

 Mulliken charges:
               1
     1  C    4.322874
     2  C    4.322874
     3  C   -4.778090
     4  C   -4.778090
     5  H    0.455216
     6  H    0.455216
 Sum of Mulliken charges =   0.00000

 Dipole moment (field-independent basis, Debye):
    X=             -0.0000    Y=             -0.0000    Z=             -0.0000  Tot=              0.0000

 Test job not archived.
 1\1\GINC-SE170\SP\RHF\Aug-CC-pVDZ\C4H2\OHZDE\06-Apr-2025\0\\#t hf aug-
 cc-pvdz iop(5/13=1,5/36=2,99/5=2) pseudo=read geom=check guess=(read,t
 check) scf=(maxcycle=1)\\title\\0,1\C,0,0.,0.,0.68168\C,0,0.,0.,-0.681
 68\C,0,0.,0.,1.885975\C,0,0.,0.,-1.885975\H,0,0.,0.,2.946942\H,0,0.,0.
 ,-2.946942\\Version=ES64L-G16RevC.01\State=1-SGG\HF=-153.222514\RMSD=2
 .137e+00\Dipole=0.,0.,0.\Quadrupole=-3.3629839,-3.3629839,6.7259677,0.
 ,0.,0.\PG=D*H [C*(H1C1C1.C1C1H1)]\\@

 Normal termination of Gaussian 16 at Sun Apr  6 08:12:27 2025.
