 Gaussian 16, Revision C.01,

 ----------------------------------------------------------------------
 #t hf aug-cc-pvdz symm=none int=(grid=ultrafine) guess=(read,tcheck) s
 table=(opt,rrhf)
 ----------------------------------------------------------------------
 -----
 title
 -----
 Symbolic Z-matrix:
 Charge =  0 Multiplicity = 1

 SCF Done:  E(RHF) =  -150.273203361     A.U. after   11 cycles
 Normal termination of Gaussian 16 at Sun Apr  6 08:12:27 2025.
 Gaussian 16:  ES64L-G16RevC.01  3-Jul-2019

 ----------------------------------------------------------------------
 #t hf aug-cc-pvdz iop(5/13=1,5/36=2,99/5=2) pseudo=read geom=check gue
 ss=(read,tcheck) scf=(maxcycle=1)
 ----------------------------------------------------------------------
 -----
 title
 -----
 Structure from the checkpoint file:  "diaminomethane.chk"
 Charge =  0 Multiplicity = 1

                         Standard orientation:
 ---------------------------------------------------------------------
 Center     Atomic      Atomic             Coordinates (Angstroms)
 Number     Number       Type             X           Y           Z
 ---------------------------------------------------------------------
      1          6           0        0.000000   -0.000000    0.550170
      2          7           0        0.000000    1.261601   -0.185123
      3          7           0       -0.000000   -1.261601   -0.185123
      4          1           0        0.876907   -0.000000    1.198167
      5          1           0       -0.876907    0.000000    1.198167
      6          1           0        0.817663    1.348464   -0.776410
      7          1           0       -0.817663    1.348464   -0.776410
      8          1           0       -0.817663   -1.348464   -0.776410
      9          1           0        0.817663   -1.348464   -0.776410
 ---------------------------------------------------------------------

 SCF Done:  E(RHF) =  -151.004043557     A.U. after    2 cycles

 The electronic state is 1-A1.
 Alpha  occ. eigenvalues --  -15.72738 -15.72734 -11.39734  -1.38067  -1.22407
 Alpha  occ. eigenvalues --   -0.91178  -0.69968  -0.61127  -0.58967  -0.55946
 Alpha  occ. eigenvalues --   -0.49381  -0.39748  -0.32035
 Alpha virt. eigenvalues --    0.03880   0.05430   0.05628   0.05808   0.07609
 Alpha virt. eigenvalues --    0.07659   0.11702   0.12621   0.16515   0.17088
 Alpha virt. eigenvalues --    0.18501   0.18771   0.19374   0.21970   0.22396

 Mulliken charges:
               1
     1  C   -0.819852
     2  N   -2.129286
     3  N   -2.129286
     4  H    1.403570
     5  H    1.403570
     6  H    0.567821
     7  H    0.567821
     8  H    0.567821
     9  H    0.567821
 Sum of Mulliken charges =   0.00000

 Dipole moment (field-independent basis, Debye):
    X=              0.0000    Y=             -0.0000    Z=             -1.4501  Tot=              1.4501

 Test job not archived.
 1\1\GINC-SE169\SP\RHF\Aug-CC-pVDZ\C1H6N2\OHZDE\06-Apr-2025\0\\#t hf au
 g-cc-pvdz iop(5/13=1,5/36=2,99/5=2) pseudo=read geom=check guess=(read
 ,tcheck) scf=(maxcycle=1)\\title\\0,1\C,0,0.,0.,0.55017\N,0,0.,1.26160
 1,-0.185123\N,0,0.,-1.261601,-0.185123\H,0,0.876907,0.,1.198167\H,0,-0
 .876907,0.,1.198167\H,0,0.817663,1.348464,-0.77641\H,0,-0.817663,1.348
 464,-0.77641\H,0,-0.817663,-1.348464,-0.77641\H,0,0.817663,-1.348464,-
 0.77641\\Version=ES64L-G16RevC.01\State=1-A1\HF=-151.0040436\RMSD=5.36
 6e-02\Dipole=0.,0.,-0.5705285\Quadrupole=2.8062438,-3.988668,1.1824242

 Normal termination of Gaussian 16 at Sun Apr  6 08:12:30 2025.
