 Gaussian 16, Revision C.01,

 ----------------------------------------------------------------------
 #t hf aug-cc-pvdz symm=none int=(grid=ultrafine) guess=(read,tcheck) s
 table=(opt,rrhf)
 ----------------------------------------------------------------------
 -----
 title
 -----
 Symbolic Z-matrix:
 Charge =  0 Multiplicity = 1

 SCF Done:  E(RHF) =  -186.908830924     A.U. after   12 cycles
 Normal termination of Gaussian 16 at Sun Apr  6 08:12:27 2025.
 Gaussian 16:  ES64L-G16RevC.01  3-Jul-2019

 ----------------------------------------------------------------------
 #t hf aug-cc-pvdz iop(5/13=1,5/36=2,99/5=2) pseudo=read geom=check gue
 ss=(read,tcheck) scf=(maxcycle=1)
 ----------------------------------------------------------------------
 -----
 title
 -----
 Structure from the checkpoint file:  "diaminoethyne.chk"
 Charge =  0 Multiplicity = 1

                         Standard orientation:
 ---------------------------------------------------------------------
 Center     Atomic      Atomic             Coordinates (Angstroms)
 Number     Number       Type             X           Y           Z
 ---------------------------------------------------------------------
      1          7           0       -1.948870   -0.047511    0.054375
      2          7           0        1.948870   -0.047536   -0.054353
      3          6           0       -0.602828    0.001551    0.003804
      4          6           0        0.602828    0.001550   -0.003806
      5          1           0       -2.420980   -0.433572   -0.748716
      6          1           0       -2.421589    0.756865    0.436515
      7          1           0        2.420977   -0.433234    0.748914
      8          1           0        2.421590    0.756668   -0.436853
 ---------------------------------------------------------------------

 SCF Done:  E(RHF) =  -187.781915043     A.U. after    2 cycles

 The electronic state is 1-A.
 Alpha  occ. eigenvalues --  -15.77550 -15.77269 -11.39497 -11.39127  -1.37023
 Alpha  occ. eigenvalues --   -1.32307  -1.00205  -0.73794  -0.67630  -0.67607
 Alpha  occ. eigenvalues --   -0.63943  -0.48151  -0.47931  -0.29391  -0.29370
 Alpha virt. eigenvalues --    0.03130   0.04841   0.06536   0.06568   0.11421
 Alpha virt. eigenvalues --    0.12896   0.13667   0.13965   0.15473   0.17653
 Alpha virt. eigenvalues --    0.18041   0.18075   0.21236   0.21536   0.21806

 Mulliken charges:
               1
     1  N   -3.214074
     2  N   -3.214075
     3  C    1.960312
     4  C    1.960320
     5  H    0.628515
     6  H    0.625245
     7  H    0.628513
     8  H    0.625245
 Sum of Mulliken charges =  -0.00000

 Dipole moment (field-independent basis, Debye):
    X=             -0.0000    Y=              1.0288    Z=             -0.0002  Tot=              1.0288

 Test job not archived.
 1\1\GINC-SE169\SP\RHF\Aug-CC-pVDZ\C2H4N2\OHZDE\06-Apr-2025\0\\#t hf au
 g-cc-pvdz iop(5/13=1,5/36=2,99/5=2) pseudo=read geom=check guess=(read
 ,tcheck) scf=(maxcycle=1)\\title\\0,1\N,0,-1.94887,-0.047511,0.054375\
 N,0,1.94887,-0.047536,-0.054353\C,0,-0.602828,0.001551,0.003804\C,0,0.
 602828,0.00155,-0.003806\H,0,-2.42098,-0.433572,-0.748716\H,0,-2.42158
 9,0.756865,0.436515\H,0,2.420977,-0.433234,0.748914\H,0,2.42159,0.7566
 68,-0.436853\\Version=ES64L-G16RevC.01\State=1-A\HF=-187.781915\RMSD=8
 .147e-01\Dipole=-0.0000012,0.4047729,-0.0000885\Quadrupole=4.6935874,-

 Normal termination of Gaussian 16 at Sun Apr  6 08:12:29 2025.
