 Gaussian 16, Revision C.01,

 ----------------------------------------------------------------------
 #t hf aug-cc-pvdz symm=none int=(grid=ultrafine) guess=(read,tcheck) s
 table=(opt,rrhf)
 ----------------------------------------------------------------------
 -----
 title
 -----
 Symbolic Z-matrix:
 Charge =  0 Multiplicity = 1

 SCF Done:  E(RHF) =  -147.866712481     A.U. after   13 cycles
 Normal termination of Gaussian 16 at Sun Apr  6 08:12:25 2025.
 Gaussian 16:  ES64L-G16RevC.01  3-Jul-2019

 ----------------------------------------------------------------------
 #t hf aug-cc-pvdz iop(5/13=1,5/36=2,99/5=2) pseudo=read geom=check gue
 ss=(read,tcheck) scf=(maxcycle=1)
 ----------------------------------------------------------------------
 -----
 title
 -----
 Structure from the checkpoint file:  "diazomethane.chk"
 Charge =  0 Multiplicity = 1

                         Standard orientation:
 ---------------------------------------------------------------------
 Center     Atomic      Atomic             Coordinates (Angstroms)
 Number     Number       Type             X           Y           Z
 ---------------------------------------------------------------------
      1          6           0        0.000100   -1.136474    0.000000
      2          7           0        0.000000    0.155349   -0.000000
      3          7           0       -0.000113    1.287404   -0.000000
      4          1           0        0.000096   -1.640214    0.950280
      5          1           0        0.000096   -1.640214   -0.950280
 ---------------------------------------------------------------------

 SCF Done:  E(RHF) =  -148.538194997     A.U. after    2 cycles

 The electronic state is 1-A'.
 Alpha  occ. eigenvalues --  -15.92241 -15.83831 -11.41325  -1.60049  -1.16410
 Alpha  occ. eigenvalues --   -0.76543  -0.68504  -0.62886  -0.61869  -0.51727
 Alpha  occ. eigenvalues --   -0.30815
 Alpha virt. eigenvalues --    0.03383   0.05522   0.09279   0.10210   0.12290
 Alpha virt. eigenvalues --    0.12590   0.14977   0.18027   0.18446   0.20787
 Alpha virt. eigenvalues --    0.22946   0.23678   0.24859   0.27537   0.27807

 Mulliken charges:
               1
     1  C   -1.590673
     2  N    0.398732
     3  N   -1.265121
     4  H    1.228531
     5  H    1.228531
 Sum of Mulliken charges =  -0.00000

 Dipole moment (field-independent basis, Debye):
    X=             -0.0000    Y=             -1.1399    Z=              0.0000  Tot=              1.1399

 Test job not archived.
 1\1\GINC-SE085\SP\RHF\Aug-CC-pVDZ\C1H2N2\OHZDE\06-Apr-2025\0\\#t hf au
 g-cc-pvdz iop(5/13=1,5/36=2,99/5=2) pseudo=read geom=check guess=(read
 ,tcheck) scf=(maxcycle=1)\\title\\0,1\C,0,0.0001,-1.136474,0.\N,0,0.,0
 .155349,0.\N,0,-0.000113,1.287404,0.\H,0,0.000095,-1.640214,0.95028\H,
 0,0.000095,-1.640214,-0.95028\\Version=ES64L-G16RevC.01\State=1-A'\HF=
 -148.538195\RMSD=1.891e-01\Dipole=-0.0000097,-0.4484655,0.\Quadrupole=
 -1.2626675,-0.5042841,1.7669516,0.0001139,0.,0.\PG=CS [SG(C1N2),X(H2)]
 \\@

 Normal termination of Gaussian 16 at Sun Apr  6 08:12:26 2025.
