 Gaussian 16, Revision C.01,

 ----------------------------------------------------------------------
 #t hf aug-cc-pvdz symm=none int=(grid=ultrafine) guess=(read,tcheck) s
 table=(opt,rrhf)
 ----------------------------------------------------------------------
 -----
 title
 -----
 Symbolic Z-matrix:
 Charge =  0 Multiplicity = 1

 SCF Done:  E(RHF) =  -149.031149781     A.U. after   11 cycles
 Normal termination of Gaussian 16 at Sun Apr  6 08:12:26 2025.
 Gaussian 16:  ES64L-G16RevC.01  3-Jul-2019

 ----------------------------------------------------------------------
 #t hf aug-cc-pvdz iop(5/13=1,5/36=2,99/5=2) pseudo=read geom=check gue
 ss=(read,tcheck) scf=(maxcycle=1)
 ----------------------------------------------------------------------
 -----
 title
 -----
 Structure from the checkpoint file:  "diaziridine.chk"
 Charge =  0 Multiplicity = 1

                         Standard orientation:
 ---------------------------------------------------------------------
 Center     Atomic      Atomic             Coordinates (Angstroms)
 Number     Number       Type             X           Y           Z
 ---------------------------------------------------------------------
      1          6           0        0.000000    0.000000    0.794985
      2          7           0       -0.000000    0.748957   -0.440025
      3          7           0       -0.000000   -0.748957   -0.440025
      4          1           0        0.911241    0.078114    1.376716
      5          1           0       -0.911241   -0.078114    1.376716
      6          1           0       -0.955168    0.999325   -0.681494
      7          1           0        0.955168   -0.999325   -0.681494
 ---------------------------------------------------------------------

 SCF Done:  E(RHF) =  -149.709316827     A.U. after    2 cycles

 The electronic state is 1-A.
 Alpha  occ. eigenvalues --  -15.75898 -15.75883 -11.42560  -1.54947  -1.04448
 Alpha  occ. eigenvalues --   -0.92960  -0.70512  -0.65450  -0.50742  -0.46975
 Alpha  occ. eigenvalues --   -0.39959  -0.37032
 Alpha virt. eigenvalues --    0.03949   0.05354   0.05977   0.06483   0.10585
 Alpha virt. eigenvalues --    0.11879   0.15739   0.16415   0.17120   0.18093
 Alpha virt. eigenvalues --    0.18370   0.20176   0.20701   0.22563   0.28957

 Mulliken charges:
               1
     1  C   -1.220975
     2  N   -1.424052
     3  N   -1.424052
     4  H    1.411563
     5  H    1.411563
     6  H    0.622976
     7  H    0.622976
 Sum of Mulliken charges =  -0.00000

 Dipole moment (field-independent basis, Debye):
    X=             -0.0000    Y=             -0.0000    Z=              1.0216  Tot=              1.0216

 Test job not archived.
 1\1\GINC-SE085\SP\RHF\Aug-CC-pVDZ\C1H4N2\OHZDE\06-Apr-2025\0\\#t hf au
 g-cc-pvdz iop(5/13=1,5/36=2,99/5=2) pseudo=read geom=check guess=(read
 ,tcheck) scf=(maxcycle=1)\\title\\0,1\C,0,0.,0.,0.794985\N,0,0.,0.7489
 57,-0.440025\N,0,0.,-0.748957,-0.440025\H,0,0.911241,0.078114,1.376716
 \H,0,-0.911241,-0.078114,1.376716\H,0,-0.955168,0.999325,-0.681494\H,0
 ,0.955168,-0.999325,-0.681494\\Version=ES64L-G16RevC.01\State=1-A\HF=-
 149.7093168\RMSD=6.770e-02\Dipole=0.,0.,0.4019212\Quadrupole=1.3295647
 ,-1.5254581,0.1958934,-2.4800541,0.,0.\PG=C02 [C2(C1),X(H4N2)]\\@

 Normal termination of Gaussian 16 at Sun Apr  6 08:12:28 2025.
