 Gaussian 16, Revision C.01,

 ----------------------------------------------------------------------
 #t hf aug-cc-pvdz symm=none int=(grid=ultrafine) guess=(read,tcheck) s
 table=(opt,rrhf)
 ----------------------------------------------------------------------
 -----
 title
 -----
 Symbolic Z-matrix:
 Charge =  0 Multiplicity = 1

 SCF Done:  E(RHF) =  -336.690702679     A.U. after   15 cycles
 Normal termination of Gaussian 16 at Sun Apr  6 08:12:34 2025.
 Gaussian 16:  ES64L-G16RevC.01  3-Jul-2019

 ----------------------------------------------------------------------
 #t hf aug-cc-pvdz iop(5/13=1,5/36=2,99/5=2) pseudo=read geom=check gue
 ss=(read,tcheck) scf=(maxcycle=1)
 ----------------------------------------------------------------------
 -----
 title
 -----
 Structure from the checkpoint file:  "diazenylacetic_acid.chk"
 Charge =  0 Multiplicity = 1

                         Standard orientation:
 ---------------------------------------------------------------------
 Center     Atomic      Atomic             Coordinates (Angstroms)
 Number     Number       Type             X           Y           Z
 ---------------------------------------------------------------------
      1          8           0       -2.011808   -0.775896   -0.227722
      2          8           0       -1.126265    1.260042   -0.024183
      3          7           0        1.364084    0.336361    0.181249
      4          7           0        2.444806    0.013050   -0.303623
      5          6           0       -1.063326   -0.080407   -0.006367
      6          6           0        0.305241   -0.661369    0.352535
      7          1           0       -0.236965    1.621218    0.140319
      8          1           0        2.475277   -1.001924   -0.544358
      9          1           0        0.269739   -0.910304    1.417114
     10          1           0        0.482809   -1.577382   -0.218226
 ---------------------------------------------------------------------

 SCF Done:  E(RHF) =  -338.131103641     A.U. after    2 cycles

 The electronic state is 1-A.
 Alpha  occ. eigenvalues --  -21.12999 -21.06247 -15.83969 -15.83301 -11.54535
 Alpha  occ. eigenvalues --  -11.44921  -1.83709  -1.66934  -1.56910  -1.17762
 Alpha  occ. eigenvalues --   -0.93675  -0.81740  -0.72838  -0.70718  -0.68939
 Alpha  occ. eigenvalues --   -0.55881  -0.54409  -0.52396  -0.49528  -0.47172
 Alpha  occ. eigenvalues --   -0.39089  -0.34531  -0.30711
 Alpha virt. eigenvalues --    0.03212   0.04768   0.05864   0.06521   0.08671
 Alpha virt. eigenvalues --    0.10581   0.11120   0.12186   0.12397   0.12629
 Alpha virt. eigenvalues --    0.14488   0.16195   0.16526   0.17419   0.18078

 Mulliken charges:
               1
     1  O   -3.070574
     2  O   -3.038712
     3  N   -0.101507
     4  N   -1.264963
     5  C    5.594070
     6  C   -2.760492
     7  H    1.135295
     8  H    0.630160
     9  H    1.396683
    10  H    1.480039
 Sum of Mulliken charges =   0.00000

 Dipole moment (field-independent basis, Debye):
    X=              1.4996    Y=             -1.0283    Z=              0.5019  Tot=              1.8863

 Test job not archived.
 1\1\GINC-SE084\SP\RHF\Aug-CC-pVDZ\C2H4N2O2\OHZDE\06-Apr-2025\0\\#t hf
 aug-cc-pvdz iop(5/13=1,5/36=2,99/5=2) pseudo=read geom=check guess=(re
 ad,tcheck) scf=(maxcycle=1)\\title\\0,1\O,0,-2.011808,-0.775896,-0.227
 722\O,0,-1.126265,1.260042,-0.024183\N,0,1.364084,0.336361,0.181249\N,
 0,2.444806,0.01305,-0.303623\C,0,-1.063326,-0.080407,-0.006367\C,0,0.3
 05241,-0.661369,0.352535\H,0,-0.236965,1.621218,0.140319\H,0,2.475277,
 -1.001924,-0.544358\H,0,0.269739,-0.910304,1.417114\H,0,0.482809,-1.57
 7382,-0.218226\\Version=ES64L-G16RevC.01\State=1-A\HF=-338.1311036\RMS

 Normal termination of Gaussian 16 at Sun Apr  6 08:12:37 2025.
