 Gaussian 16, Revision C.01,

 ----------------------------------------------------------------------
 #t hf aug-cc-pvdz symm=none int=(grid=ultrafine) guess=(read,tcheck) s
 table=(opt,rrhf)
 ----------------------------------------------------------------------
 -----
 title
 -----
 Symbolic Z-matrix:
 Charge =  0 Multiplicity = 1

 SCF Done:  E(RHF) =  -1155.76453131     A.U. after   12 cycles

 1\1\GINC-SE249\Stability\RHF\Aug-CC-pVDZ\C1Cl2F2\OHZDE\06-Apr-2025\0\\
 #t hf aug-cc-pvdz symm=none int=(grid=ultrafine) guess=(read,tcheck) s
 table=(opt,rrhf)\\title\\0,1\C,0,0.,0.,0.34234\F,0,0.,1.079325,1.12641
 4\F,0,0.,-1.079325,1.126414\Cl,0,1.472567,0.,-0.65675\Cl,0,-1.472567,0
 .,-0.65675\\Version=ES64L-G16RevC.01\HF=-1155.7645313\RMSD=1.547e-09\D
 ipole=0.,0.,-0.2214838\Quadrupole=1.293451,-1.0448934,-0.2485576,0.,0.
 ,0.\PG=Unknown\\@
 The archive entry for this job was punched.

 Normal termination of Gaussian 16 at Sun Apr  6 08:12:26 2025.
 Gaussian 16:  ES64L-G16RevC.01  3-Jul-2019

 ----------------------------------------------------------------------
 #t hf aug-cc-pvdz iop(5/13=1,5/36=2,99/5=2) pseudo=read geom=check gue
 ss=(read,tcheck) scf=(maxcycle=1)
 ----------------------------------------------------------------------
 -----
 title
 -----
 Structure from the checkpoint file:  "dichlorodifluoromethane.chk"
 Charge =  0 Multiplicity = 1

                         Standard orientation:
 ---------------------------------------------------------------------
 Center     Atomic      Atomic             Coordinates (Angstroms)
 Number     Number       Type             X           Y           Z
 ---------------------------------------------------------------------
      1          6           0       -0.000000    0.000000    0.342340
      2          9           0       -0.000000    1.079325    1.126414
      3          9           0       -0.000000   -1.079325    1.126414
      4         17           0        1.472567   -0.000000   -0.656750
      5         17           0       -1.472567    0.000000   -0.656750
 ---------------------------------------------------------------------

 SCF Done:  E(RHF) =  -1157.09055575     A.U. after    2 cycles

 The electronic state is 1-A1.
 Alpha  occ. eigenvalues --  -99.93411 -99.93389 -29.34219 -29.34172 -11.62754
 Alpha  occ. eigenvalues --  -10.50903 -10.50888  -9.70736  -9.70538  -9.69839
 Alpha  occ. eigenvalues --   -9.69788  -9.69781  -9.69728  -1.50189  -1.33991
 Alpha  occ. eigenvalues --   -1.20023  -0.91690  -0.80860  -0.77078  -0.58166
 Alpha  occ. eigenvalues --   -0.57643  -0.54683  -0.53091  -0.48955  -0.43019
 Alpha  occ. eigenvalues --   -0.39091  -0.35710  -0.33087  -0.26153
 Alpha virt. eigenvalues --    0.02290   0.07147   0.07462   0.08551   0.12572
 Alpha virt. eigenvalues --    0.12942   0.13772   0.14635   0.15569   0.18270
 Alpha virt. eigenvalues --    0.18508   0.19306   0.19482   0.22314   0.25445

 Mulliken charges:
               1
     1  C   -2.077156
     2  F    1.054414
     3  F    1.054414
     4  Cl  -0.015836
     5  Cl  -0.015836
 Sum of Mulliken charges =  -0.00000

 Dipole moment (field-independent basis, Debye):
    X=              0.0000    Y=             -0.0000    Z=              4.9391  Tot=              4.9391

 Test job not archived.
 1\1\GINC-SE249\SP\RHF\Aug-CC-pVDZ\C1Cl2F2\OHZDE\06-Apr-2025\0\\#t hf a
 ug-cc-pvdz iop(5/13=1,5/36=2,99/5=2) pseudo=read geom=check guess=(rea
 d,tcheck) scf=(maxcycle=1)\\title\\0,1\C,0,0.,0.,0.34234\F,0,0.,1.0793
 25,1.126414\F,0,0.,-1.079325,1.126414\Cl,0,1.472567,0.,-0.65675\Cl,0,-
 1.472567,0.,-0.65675\\Version=ES64L-G16RevC.01\State=1-A1\HF=-1157.090
 5558\RMSD=3.784e-02\Dipole=0.,0.,1.943177\Quadrupole=-2.8775505,1.1188
 754,1.7586751,0.,0.,0.\PG=C02V [C2(C1),SGV(F2),SGV'(Cl2)]\\@

 Normal termination of Gaussian 16 at Sun Apr  6 08:12:29 2025.
