 Gaussian 16, Revision C.01,

 ----------------------------------------------------------------------
 #t hf aug-cc-pvdz symm=none int=(grid=ultrafine) guess=(read,tcheck) s
 table=(opt,rrhf)
 ----------------------------------------------------------------------
 -----
 title
 -----
 Symbolic Z-matrix:
 Charge =  0 Multiplicity = 1

 SCF Done:  E(RHF) =  -1056.89901147     A.U. after   12 cycles
 Normal termination of Gaussian 16 at Sun Apr  6 08:12:27 2025.
 Gaussian 16:  ES64L-G16RevC.01  3-Jul-2019

 ----------------------------------------------------------------------
 #t hf aug-cc-pvdz iop(5/13=1,5/36=2,99/5=2) pseudo=read geom=check gue
 ss=(read,tcheck) scf=(maxcycle=1)
 ----------------------------------------------------------------------
 -----
 title
 -----
 Structure from the checkpoint file:  "dichlorofluoromethane.chk"
 Charge =  0 Multiplicity = 1

                         Standard orientation:
 ---------------------------------------------------------------------
 Center     Atomic      Atomic             Coordinates (Angstroms)
 Number     Number       Type             X           Y           Z
 ---------------------------------------------------------------------
      1          6           0       -0.178150    0.524281   -0.000000
      2          1           0       -1.074887    1.131933   -0.000000
      3          9           0        0.911211    1.319595   -0.000000
      4         17           0       -0.178150   -0.475117    1.474553
      5         17           0       -0.178150   -0.475117   -1.474553
 ---------------------------------------------------------------------

 SCF Done:  E(RHF) =  -1057.90177610     A.U. after    2 cycles

 The electronic state is 1-A'.
 Alpha  occ. eigenvalues --  -99.91907 -99.91894 -29.31977 -11.56232 -10.49362
 Alpha  occ. eigenvalues --  -10.49280  -9.69147  -9.69001  -9.68330  -9.68287
 Alpha  occ. eigenvalues --   -9.68263  -9.68225  -1.44336  -1.31327  -1.11106
 Alpha  occ. eigenvalues --   -0.80009  -0.74097  -0.70624  -0.55383  -0.54997
 Alpha  occ. eigenvalues --   -0.51701  -0.51498  -0.42884  -0.32353  -0.31681
 Alpha virt. eigenvalues --    0.02861   0.04439   0.07453   0.08356   0.10558
 Alpha virt. eigenvalues --    0.12632   0.13922   0.15045   0.15094   0.15758
 Alpha virt. eigenvalues --    0.16429   0.19167   0.19424   0.22106   0.23700

 Mulliken charges:
               1
     1  C   -3.112706
     2  H    1.895902
     3  F    0.898128
     4  Cl   0.159338
     5  Cl   0.159338
 Sum of Mulliken charges =  -0.00000

 Dipole moment (field-independent basis, Debye):
    X=              1.8193    Y=              3.5034    Z=              0.0000  Tot=              3.9476

 Test job not archived.
 1\1\GINC-SE398\SP\RHF\Aug-CC-pVDZ\C1H1Cl2F1\OHZDE\06-Apr-2025\0\\#t hf
  aug-cc-pvdz iop(5/13=1,5/36=2,99/5=2) pseudo=read geom=check guess=(r
 ead,tcheck) scf=(maxcycle=1)\\title\\0,1\C,0,-0.17815,0.524281,0.\H,0,
 -1.074887,1.131933,0.\F,0,0.911211,1.319595,0.\Cl,0,-0.17815,-0.475117
 ,1.474553\Cl,0,-0.17815,-0.475117,-1.474553\\Version=ES64L-G16RevC.01\
 State=1-A'\HF=-1057.9017761\RMSD=5.837e-02\Dipole=0.7157658,1.3783481,
 0.\Quadrupole=0.0347,1.9921526,-2.0268527,1.1836774,0.,0.\PG=CS [SG(C1
 H1F1),X(Cl2)]\\@

 Normal termination of Gaussian 16 at Sun Apr  6 08:12:29 2025.
