 Gaussian 16, Revision C.01,

 ----------------------------------------------------------------------
 #t hf aug-cc-pvdz symm=none int=(grid=ultrafine) guess=(read,tcheck) s
 table=(opt,rrhf)
 ----------------------------------------------------------------------
 -----
 title
 -----
 Symbolic Z-matrix:
 Charge =  0 Multiplicity = 1

 SCF Done:  E(RHF) =  -958.039510263     A.U. after   11 cycles

 1\1\GINC-SE365\Stability\RHF\Aug-CC-pVDZ\C1H2Cl2\OHZDE\06-Apr-2025\0\\
 #t hf aug-cc-pvdz symm=none int=(grid=ultrafine) guess=(read,tcheck) s
 table=(opt,rrhf)\\title\\0,1\Cl,0,0.,1.489376,-0.216532\Cl,0,0.,-1.489
 376,-0.216532\C,0,0.,0.,0.769333\H,0,-0.896869,0.,1.373046\H,0,0.89686
 9,0.,1.373046\\Version=ES64L-G16RevC.01\HF=-958.0395103\RMSD=6.974e-09
 \Dipole=0.,0.,0.746973\Quadrupole=0.2644597,-1.8865593,1.6220996,0.,0.
 ,0.\PG=Unknown\\@
 The archive entry for this job was punched.

 Normal termination of Gaussian 16 at Sun Apr  6 08:12:27 2025.
 Gaussian 16:  ES64L-G16RevC.01  3-Jul-2019

 ----------------------------------------------------------------------
 #t hf aug-cc-pvdz iop(5/13=1,5/36=2,99/5=2) pseudo=read geom=check gue
 ss=(read,tcheck) scf=(maxcycle=1)
 ----------------------------------------------------------------------
 -----
 title
 -----
 Structure from the checkpoint file:  "dichloromethane.chk"
 Charge =  0 Multiplicity = 1

                         Standard orientation:
 ---------------------------------------------------------------------
 Center     Atomic      Atomic             Coordinates (Angstroms)
 Number     Number       Type             X           Y           Z
 ---------------------------------------------------------------------
      1         17           0        0.000000    1.489376   -0.216532
      2         17           0       -0.000000   -1.489376   -0.216532
      3          6           0       -0.000000   -0.000000    0.769333
      4          1           0       -0.896869    0.000000    1.373046
      5          1           0        0.896869   -0.000000    1.373046
 ---------------------------------------------------------------------

 SCF Done:  E(RHF) =  -958.721910874     A.U. after    2 cycles

 The electronic state is 1-A1.
 Alpha  occ. eigenvalues --  -99.90357 -99.90351 -11.49276 -10.47751 -10.47580
 Alpha  occ. eigenvalues --   -9.67497  -9.67382  -9.66732  -9.66726  -9.66675
 Alpha  occ. eigenvalues --   -9.66652  -1.39708  -1.28665  -1.00285  -0.70632
 Alpha  occ. eigenvalues --   -0.67151  -0.64276  -0.52860  -0.51400  -0.49959
 Alpha  occ. eigenvalues --   -0.48657
 Alpha virt. eigenvalues --    0.01472   0.05074   0.05833   0.07094   0.09109
 Alpha virt. eigenvalues --    0.12705   0.13819   0.15193   0.15221   0.15527
 Alpha virt. eigenvalues --    0.16535   0.18048   0.20003   0.20176   0.22090

 Mulliken charges:
               1
     1  Cl   0.273286
     2  Cl   0.273286
     3  C   -4.047284
     4  H    1.750355
     5  H    1.750355
 Sum of Mulliken charges =   0.00000

 Dipole moment (field-independent basis, Debye):
    X=             -0.0000    Y=             -0.0000    Z=              1.7525  Tot=              1.7525

 Test job not archived.
 1\1\GINC-SE365\SP\RHF\Aug-CC-pVDZ\C1H2Cl2\OHZDE\06-Apr-2025\0\\#t hf a
 ug-cc-pvdz iop(5/13=1,5/36=2,99/5=2) pseudo=read geom=check guess=(rea
 d,tcheck) scf=(maxcycle=1)\\title\\0,1\Cl,0,0.,1.489376,-0.216532\Cl,0
 ,0.,-1.489376,-0.216532\C,0,0.,0.,0.769333\H,0,-0.896869,0.,1.373046\H
 ,0,0.896869,0.,1.373046\\Version=ES64L-G16RevC.01\State=1-A1\HF=-958.7
 219109\RMSD=6.026e-02\Dipole=0.,0.,0.6894824\Quadrupole=-0.3873588,-0.
 9642642,1.351623,0.,0.,0.\PG=C02V [C2(C1),SGV(Cl2),SGV'(H2)]\\@

 Normal termination of Gaussian 16 at Sun Apr  6 08:12:28 2025.
