 Gaussian 16, Revision C.01,

 ----------------------------------------------------------------------
 #t hf aug-cc-pvdz symm=none int=(grid=ultrafine) guess=(read,tcheck) s
 table=(opt,rrhf)
 ----------------------------------------------------------------------
 -----
 title
 -----
 Symbolic Z-matrix:
 Charge =  0 Multiplicity = 1

 SCF Done:  E(RHF) =  -994.647884286     A.U. after   11 cycles
 Normal termination of Gaussian 16 at Sun Apr  6 08:12:25 2025.
 Gaussian 16:  ES64L-G16RevC.01  3-Jul-2019

 ----------------------------------------------------------------------
 #t hf aug-cc-pvdz iop(5/13=1,5/36=2,99/5=2) pseudo=read geom=check gue
 ss=(read,tcheck) scf=(maxcycle=1)
 ----------------------------------------------------------------------
 -----
 title
 -----
 Structure from the checkpoint file:  "dichloroacetylene.chk"
 Charge =  0 Multiplicity = 1

                         Standard orientation:
 ---------------------------------------------------------------------
 Center     Atomic      Atomic             Coordinates (Angstroms)
 Number     Number       Type             X           Y           Z
 ---------------------------------------------------------------------
      1          6           0        0.000000    0.000000    0.599276
      2          6           0        0.000000    0.000000   -0.599276
      3         17           0        0.000000    0.000000    2.241149
      4         17           0        0.000000    0.000000   -2.241149
 ---------------------------------------------------------------------

 SCF Done:  E(RHF) =  -995.480339385     A.U. after    2 cycles

 The electronic state is 1-SGG.
 Alpha  occ. eigenvalues --  -99.95272 -99.95236 -11.45930 -11.44674 -10.52671
 Alpha  occ. eigenvalues --  -10.52628  -9.72757  -9.72598  -9.71498  -9.71498
 Alpha  occ. eigenvalues --   -9.71460  -9.71460  -1.41731  -1.37896  -1.07909
 Alpha  occ. eigenvalues --   -0.80830  -0.70408  -0.62402  -0.62402  -0.58311
 Alpha  occ. eigenvalues --   -0.58311  -0.39039  -0.39039
 Alpha virt. eigenvalues --    0.03999   0.05205   0.07715   0.09070   0.10624
 Alpha virt. eigenvalues --    0.10624   0.12664   0.12664   0.13669   0.13669
 Alpha virt. eigenvalues --    0.13872   0.17191   0.19963   0.19963   0.22737

 Mulliken charges:
               1
     1  C    0.010227
     2  C    0.010227
     3  Cl  -0.010227
     4  Cl  -0.010227
 Sum of Mulliken charges =   0.00000

 Dipole moment (field-independent basis, Debye):
    X=             -0.0000    Y=             -0.0000    Z=             -0.0000  Tot=              0.0000

 Test job not archived.
 1\1\GINC-SE086\SP\RHF\Aug-CC-pVDZ\C2Cl2\OHZDE\06-Apr-2025\0\\#t hf aug
 -cc-pvdz iop(5/13=1,5/36=2,99/5=2) pseudo=read geom=check guess=(read,
 tcheck) scf=(maxcycle=1)\\title\\0,1\C,0,0.,0.,0.599276\C,0,0.,0.,-0.5
 99276\Cl,0,0.,0.,2.241149\Cl,0,0.,0.,-2.241149\\Version=ES64L-G16RevC.
 01\State=1-SGG\HF=-995.4803394\RMSD=5.776e-01\Dipole=0.,0.,0.\Quadrupo
 le=-1.9291418,-1.9291418,3.8582835,0.,0.,0.\PG=D*H [C*(Cl1C1.C1Cl1)]\\
 @

 Normal termination of Gaussian 16 at Sun Apr  6 08:12:26 2025.
