 Gaussian 16, Revision C.01,

 ----------------------------------------------------------------------
 #t hf aug-cc-pvdz symm=none int=(grid=ultrafine) guess=(read,tcheck) s
 table=(opt,rrhf)
 ----------------------------------------------------------------------
 -----
 title
 -----
 Symbolic Z-matrix:
 Charge =  0 Multiplicity = 1

 SCF Done:  E(RHF) =  -1070.77392947     A.U. after   13 cycles
 Normal termination of Gaussian 16 at Sun Apr  6 08:12:27 2025.
 Gaussian 16:  ES64L-G16RevC.01  3-Jul-2019

 ----------------------------------------------------------------------
 #t hf aug-cc-pvdz iop(5/13=1,5/36=2,99/5=2) pseudo=read geom=check gue
 ss=(read,tcheck) scf=(maxcycle=1)
 ----------------------------------------------------------------------
 -----
 title
 -----
 Structure from the checkpoint file:  "dichloroacetaldehyde.chk"
 Charge =  0 Multiplicity = 1

                         Standard orientation:
 ---------------------------------------------------------------------
 Center     Atomic      Atomic             Coordinates (Angstroms)
 Number     Number       Type             X           Y           Z
 ---------------------------------------------------------------------
      1          6           0        0.392398   -0.014823    0.000000
      2          6           0       -0.171128    1.398319   -0.000000
      3          1           0        1.474917   -0.012492    0.000000
      4         17           0       -0.171128   -0.843017    1.485142
      5         17           0       -0.171128   -0.843017   -1.485142
      6          8           0        0.536130    2.365239   -0.000000
      7          1           0       -1.273222    1.452187   -0.000000
 ---------------------------------------------------------------------

 SCF Done:  E(RHF) =  -1071.91823022     A.U. after    2 cycles

 The electronic state is 1-A'.
 Alpha  occ. eigenvalues --  -99.92405 -99.92401 -21.10397 -11.53755 -11.49945
 Alpha  occ. eigenvalues --  -10.49775 -10.49627  -9.69619  -9.69542  -9.68814
 Alpha  occ. eigenvalues --   -9.68795  -9.68718  -9.68686  -1.74998  -1.42184
 Alpha  occ. eigenvalues --   -1.30866  -1.07319  -0.88146  -0.71610  -0.68349
 Alpha  occ. eigenvalues --   -0.68107  -0.58318  -0.55380  -0.52686  -0.51757
 Alpha  occ. eigenvalues --   -0.50623  -0.46966  -0.33626
 Alpha virt. eigenvalues --    0.02509   0.04231   0.05489   0.05959   0.08562
 Alpha virt. eigenvalues --    0.10733   0.10924   0.11309   0.13049   0.13736
 Alpha virt. eigenvalues --    0.14783   0.14843   0.16502   0.16970   0.17084

 Mulliken charges:
               1
     1  C   -4.089350
     2  C    2.710040
     3  H    1.795909
     4  Cl   0.336989
     5  Cl   0.336989
     6  O   -2.626054
     7  H    1.535477
 Sum of Mulliken charges =  -0.00000

 Dipole moment (field-independent basis, Debye):
    X=              0.4434    Y=              0.8529    Z=              0.0000  Tot=              0.9613

 Test job not archived.
 1\1\GINC-SE086\SP\RHF\Aug-CC-pVDZ\C2H2Cl2O1\OHZDE\06-Apr-2025\0\\#t hf
  aug-cc-pvdz iop(5/13=1,5/36=2,99/5=2) pseudo=read geom=check guess=(r
 ead,tcheck) scf=(maxcycle=1)\\title\\0,1\C,0,0.392398,-0.014823,0.\C,0
 ,-0.171128,1.398319,0.\H,0,1.474917,-0.012492,0.\Cl,0,-0.171128,-0.843
 017,1.485142\Cl,0,-0.171128,-0.843017,-1.485142\O,0,0.53613,2.365239,0
 .\H,0,-1.273222,1.452187,0.\\Version=ES64L-G16RevC.01\State=1-A'\HF=-1
 071.9182302\RMSD=1.447e-01\Dipole=0.1744629,0.335573,0.\Quadrupole=0.8
 10909,-1.1249598,0.3140508,-0.7315784,0.,0.\PG=CS [SG(C2H2O1),X(Cl2)]\

 Normal termination of Gaussian 16 at Sun Apr  6 08:12:30 2025.
