 Gaussian 16, Revision C.01,

 ----------------------------------------------------------------------
 #t hf aug-cc-pvdz symm=none int=(grid=ultrafine) guess=(read,tcheck) s
 table=(opt,rrhf)
 ----------------------------------------------------------------------
 -----
 title
 -----
 Symbolic Z-matrix:
 Charge =  0 Multiplicity = 1

 SCF Done:  E(RHF) =  -298.525435495     A.U. after   14 cycles
 Normal termination of Gaussian 16 at Sun Apr  6 08:12:29 2025.
 Gaussian 16:  ES64L-G16RevC.01  3-Jul-2019

 ----------------------------------------------------------------------
 #t hf aug-cc-pvdz iop(5/13=1,5/36=2,99/5=2) pseudo=read geom=check gue
 ss=(read,tcheck) scf=(maxcycle=1)
 ----------------------------------------------------------------------
 -----
 title
 -----
 Structure from the checkpoint file:  "dicyanomethanol.chk"
 Charge =  0 Multiplicity = 1

                         Standard orientation:
 ---------------------------------------------------------------------
 Center     Atomic      Atomic             Coordinates (Angstroms)
 Number     Number       Type             X           Y           Z
 ---------------------------------------------------------------------
      1          8           0       -0.023151    1.622923   -0.280281
      2          7           0       -2.199831   -0.919309   -0.166719
      3          7           0        2.157942   -0.992833   -0.172002
      4          6           0       -0.002614    0.387114    0.400860
      5          6           0       -1.233688   -0.342601    0.060384
      6          6           0        1.190268   -0.419958    0.063748
      7          1           0        0.756685    2.130316   -0.026335
      8          1           0       -0.002056    0.523963    1.489685
 ---------------------------------------------------------------------

 SCF Done:  E(RHF) =  -299.806729548     A.U. after    2 cycles

 The electronic state is 1-A.
 Alpha  occ. eigenvalues --  -21.14705 -15.80559 -15.80019 -11.57865 -11.47594
 Alpha  occ. eigenvalues --  -11.46275  -1.79902  -1.36259  -1.32716  -1.14320
 Alpha  occ. eigenvalues --   -0.83257  -0.76368  -0.69741  -0.57597  -0.56575
 Alpha  occ. eigenvalues --   -0.52174  -0.49019  -0.48573  -0.46715  -0.45425
 Alpha  occ. eigenvalues --   -0.39685
 Alpha virt. eigenvalues --    0.01930   0.04751   0.08022   0.08494   0.09143
 Alpha virt. eigenvalues --    0.10707   0.11077   0.11782   0.12090   0.13015
 Alpha virt. eigenvalues --    0.13393   0.14573   0.15220   0.17265   0.17853

 Mulliken charges:
               1
     1  O   -2.736512
     2  N   -2.407975
     3  N   -2.446521
     4  C    0.285608
     5  C    2.365634
     6  C    2.437956
     7  H    0.851266
     8  H    1.650544
 Sum of Mulliken charges =   0.00000

 Dipole moment (field-independent basis, Debye):
    X=              0.5917    Y=              3.1793    Z=              1.5539  Tot=              3.5878

 Test job not archived.
 1\1\GINC-SE412\SP\RHF\Aug-CC-pVDZ\C3H2N2O1\OHZDE\06-Apr-2025\0\\#t hf
 aug-cc-pvdz iop(5/13=1,5/36=2,99/5=2) pseudo=read geom=check guess=(re
 ad,tcheck) scf=(maxcycle=1)\\title\\0,1\O,0,-0.023151,1.622923,-0.2802
 81\N,0,-2.199831,-0.919309,-0.166719\N,0,2.157942,-0.992833,-0.172002\
 C,0,-0.002614,0.387114,0.40086\C,0,-1.233688,-0.342601,0.060384\C,0,1.
 190268,-0.419958,0.063748\H,0,0.756685,2.130316,-0.026335\H,0,-0.00205
 6,0.523963,1.489685\\Version=ES64L-G16RevC.01\State=1-A\HF=-299.806729
 5\RMSD=2.880e-01\Dipole=0.2327935,1.2508232,0.6113667\Quadrupole=-5.47

 Normal termination of Gaussian 16 at Sun Apr  6 08:12:31 2025.
