 Gaussian 16, Revision C.01,

 ----------------------------------------------------------------------
 #t hf aug-cc-pvdz symm=none int=(grid=ultrafine) guess=(read,tcheck) s
 table=(opt,rrhf)
 ----------------------------------------------------------------------
 -----
 title
 -----
 Symbolic Z-matrix:
 Charge =  0 Multiplicity = 1

 SCF Done:  E(RHF) =  -223.670486693     A.U. after   12 cycles
 Normal termination of Gaussian 16 at Sun Apr  6 08:12:29 2025.
 Gaussian 16:  ES64L-G16RevC.01  3-Jul-2019

 ----------------------------------------------------------------------
 #t hf aug-cc-pvdz iop(5/13=1,5/36=2,99/5=2) pseudo=read geom=check gue
 ss=(read,tcheck) scf=(maxcycle=1)
 ----------------------------------------------------------------------
 -----
 title
 -----
 Structure from the checkpoint file:  "dicyanomethane.chk"
 Charge =  0 Multiplicity = 1

                         Standard orientation:
 ---------------------------------------------------------------------
 Center     Atomic      Atomic             Coordinates (Angstroms)
 Number     Number       Type             X           Y           Z
 ---------------------------------------------------------------------
      1          6           0        0.000000   -0.000000    0.828233
      2          6           0        0.000000    1.221205    0.021726
      3          6           0       -0.000000   -1.221205    0.021726
      4          1           0        0.879349   -0.000000    1.476388
      5          1           0       -0.879349    0.000000    1.476388
      6          7           0        0.000000    2.195867   -0.584492
      7          7           0       -0.000000   -2.195867   -0.584492
 ---------------------------------------------------------------------

 SCF Done:  E(RHF) =  -224.662287023     A.U. after    2 cycles

 The electronic state is 1-A1.
 Alpha  occ. eigenvalues --  -15.79394 -15.79380 -11.53670 -11.47068 -11.45961
 Alpha  occ. eigenvalues --   -1.38096  -1.32040  -1.18577  -0.79288  -0.73482
 Alpha  occ. eigenvalues --   -0.69823  -0.56318  -0.54850  -0.48569  -0.47609
 Alpha  occ. eigenvalues --   -0.46484  -0.45428
 Alpha virt. eigenvalues --    0.01388   0.05188   0.07989   0.08113   0.09797
 Alpha virt. eigenvalues --    0.10720   0.11260   0.11402   0.11841   0.13151
 Alpha virt. eigenvalues --    0.14479   0.15683   0.16333   0.17596   0.18248

 Mulliken charges:
               1
     1  C   -3.073159
     2  C    2.462562
     3  C    2.462562
     4  H    1.488200
     5  H    1.488200
     6  N   -2.414183
     7  N   -2.414183
 Sum of Mulliken charges =  -0.00000

 Dipole moment (field-independent basis, Debye):
    X=              0.0000    Y=              0.0000    Z=              3.3417  Tot=              3.3417

 Test job not archived.
 1\1\GINC-SE366\SP\RHF\Aug-CC-pVDZ\C3H2N2\OHZDE\06-Apr-2025\0\\#t hf au
 g-cc-pvdz iop(5/13=1,5/36=2,99/5=2) pseudo=read geom=check guess=(read
 ,tcheck) scf=(maxcycle=1)\\title\\0,1\C,0,0.,0.,0.828233\C,0,0.,1.2212
 05,0.021726\C,0,0.,-1.221205,0.021726\H,0,0.879349,0.,1.476388\H,0,-0.
 879349,0.,1.476388\N,0,0.,2.195867,-0.584492\N,0,0.,-2.195867,-0.58449
 2\\Version=ES64L-G16RevC.01\State=1-A1\HF=-224.662287\RMSD=2.754e-01\D
 ipole=0.,0.,1.3147419\Quadrupole=3.2964314,-6.7047845,3.408353,0.,0.,0
 .\PG=C02V [C2(C1),SGV(C2N2),SGV'(H2)]\\@

 Normal termination of Gaussian 16 at Sun Apr  6 08:12:31 2025.
