 Gaussian 16, Revision C.01,

 ----------------------------------------------------------------------
 #t hf aug-cc-pvdz symm=none int=(grid=ultrafine) guess=(read,tcheck) s
 table=(opt,rrhf)
 ----------------------------------------------------------------------
 -----
 title
 -----
 Symbolic Z-matrix:
 Charge =  0 Multiplicity = 1

 SCF Done:  E(RHF) =  -704.513697478     A.U. after   13 cycles
 Normal termination of Gaussian 16 at Sun Apr  6 08:13:08 2025.
 Gaussian 16:  ES64L-G16RevC.01  3-Jul-2019

 ----------------------------------------------------------------------
 #t hf aug-cc-pvdz iop(5/13=1,5/36=2,99/5=2) pseudo=read geom=check gue
 ss=(read,tcheck) scf=(maxcycle=1)
 ----------------------------------------------------------------------
 -----
 title
 -----
 Structure from the checkpoint file:  "diethyl_sulfone.chk"
 Charge =  0 Multiplicity = 1

                         Standard orientation:
 ---------------------------------------------------------------------
 Center     Atomic      Atomic             Coordinates (Angstroms)
 Number     Number       Type             X           Y           Z
 ---------------------------------------------------------------------
      1          8           0        0.424779    2.021733    0.000000
      2         16           0        0.358890    0.561255    0.000000
      3          6           0       -0.613205    0.101793    1.471297
      4          6           0       -0.613205   -1.376626    1.826915
      5          6           0       -0.613205    0.101793   -1.471297
      6          6           0       -0.613205   -1.376626   -1.826915
      7          8           0        1.592893   -0.223650   -0.000000
      8          1           0       -1.610423    0.511825    1.314449
      9          1           0       -0.127133    0.701508    2.241547
     10          1           0        0.402605   -1.766402    1.849066
     11          1           0       -1.195297   -1.970903    1.125329
     12          1           0       -1.053100   -1.509402    2.815892
     13          1           0       -0.127133    0.701508   -2.241547
     14          1           0       -1.610423    0.511825   -1.314449
     15          1           0        0.402605   -1.766402   -1.849066
     16          1           0       -1.053100   -1.509402   -2.815892
     17          1           0       -1.195297   -1.970903   -1.125329
 ---------------------------------------------------------------------

 SCF Done:  E(RHF) =  -706.228062162     A.U. after    2 cycles

 The electronic state is 1-A'.
 Alpha  occ. eigenvalues --  -75.86851 -21.03153 -21.02963 -13.48392 -13.38025
 Alpha  occ. eigenvalues --  -13.33894 -11.45408 -11.43821 -11.39948 -11.38926
 Alpha  occ. eigenvalues --   -8.21830  -1.80945  -1.63269  -1.23655  -1.18460
 Alpha  occ. eigenvalues --   -1.01781  -0.93883  -0.83667  -0.67370  -0.67224
 Alpha  occ. eigenvalues --   -0.61873  -0.61706  -0.56502  -0.56145  -0.55074
 Alpha  occ. eigenvalues --   -0.52378  -0.49844  -0.49227  -0.42065  -0.37743
 Alpha  occ. eigenvalues --   -0.36763  -0.33727  -0.33632
 Alpha virt. eigenvalues --    0.02550   0.03921   0.04594   0.05550   0.05913
 Alpha virt. eigenvalues --    0.06549   0.06554   0.06977   0.08405   0.09242
 Alpha virt. eigenvalues --    0.10665   0.11560   0.12958   0.13670   0.13833

 Mulliken charges:
               1
     1  O   -2.700467
     2  S    7.121118
     3  C   -4.323141
     4  C   -3.603252
     5  C   -4.323141
     6  C   -3.603252
     7  O   -2.574894
     8  H    1.438689
     9  H    1.576809
    10  H    1.360507
    11  H    1.569037
    12  H    1.058472
    13  H    1.576809
    14  H    1.438689
    15  H    1.360507
    16  H    1.058472
    17  H    1.569037
 Sum of Mulliken charges =  -0.00000

 Dipole moment (field-independent basis, Debye):
    X=             -2.0733    Y=             -1.5406    Z=              0.0000  Tot=              2.5830

 Test job not archived.
 1\1\GINC-SE275\SP\RHF\Aug-CC-pVDZ\C4H10O2S1\OHZDE\06-Apr-2025\0\\#t hf
  aug-cc-pvdz iop(5/13=1,5/36=2,99/5=2) pseudo=read geom=check guess=(r
 ead,tcheck) scf=(maxcycle=1)\\title\\0,1\O,0,0.424779,2.021733,0.\S,0,
 0.35889,0.561255,0.\C,0,-0.613205,0.101793,1.471297\C,0,-0.613205,-1.3
 76626,1.826915\C,0,-0.613205,0.101793,-1.471297\C,0,-0.613205,-1.37662
 6,-1.826915\O,0,1.592893,-0.22365,0.\H,0,-1.610423,0.511825,1.314449\H
 ,0,-0.127133,0.701508,2.241547\H,0,0.402605,-1.766402,1.849066\H,0,-1.
 195297,-1.970903,1.125329\H,0,-1.0531,-1.509402,2.815892\H,0,-0.127133

 Normal termination of Gaussian 16 at Sun Apr  6 08:13:16 2025.
