 Gaussian 16, Revision C.01,

 ----------------------------------------------------------------------
 #t hf aug-cc-pvdz symm=none int=(grid=ultrafine) guess=(read,tcheck) s
 table=(opt,rrhf)
 ----------------------------------------------------------------------
 -----
 title
 -----
 Symbolic Z-matrix:
 Charge =  0 Multiplicity = 1

 SCF Done:  E(RHF) =  -212.343253808     A.U. after   12 cycles

 1\1\GINC-SE276\Stability\RHF\Aug-CC-pVDZ\C4H11N1\OHZDE\06-Apr-2025\0\\
 #t hf aug-cc-pvdz symm=none int=(grid=ultrafine) guess=(read,tcheck) s
 table=(opt,rrhf)\\title\\0,1\C,0,-0.00862,-0.371616,2.45895\C,0,-0.008
 62,-0.371616,-2.45895\C,0,-0.00862,0.517598,1.223905\C,0,-0.00862,0.51
 7598,-1.223905\N,0,-0.059012,-0.273364,0.\H,0,-0.89665,-1.003443,2.479
 604\H,0,0.868669,-1.022627,2.474208\H,0,0.011382,0.229192,3.368838\H,0
 ,0.868669,-1.022627,-2.474208\H,0,-0.89665,-1.003443,-2.479604\H,0,0.0
 11382,0.229192,-3.368838\H,0,0.867606,1.187009,1.250354\H,0,-0.889411,

 Normal termination of Gaussian 16 at Sun Apr  6 08:12:43 2025.
 Gaussian 16:  ES64L-G16RevC.01  3-Jul-2019

 ----------------------------------------------------------------------
 #t hf aug-cc-pvdz iop(5/13=1,5/36=2,99/5=2) pseudo=read geom=check gue
 ss=(read,tcheck) scf=(maxcycle=1)
 ----------------------------------------------------------------------
 -----
 title
 -----
 Structure from the checkpoint file:  "diethylamine.chk"
 Charge =  0 Multiplicity = 1

                         Standard orientation:
 ---------------------------------------------------------------------
 Center     Atomic      Atomic             Coordinates (Angstroms)
 Number     Number       Type             X           Y           Z
 ---------------------------------------------------------------------
      1          6           0       -0.008620   -0.371616    2.458950
      2          6           0       -0.008620   -0.371616   -2.458950
      3          6           0       -0.008620    0.517598    1.223905
      4          6           0       -0.008620    0.517598   -1.223905
      5          7           0       -0.059012   -0.273364    0.000000
      6          1           0       -0.896650   -1.003443    2.479604
      7          1           0        0.868669   -1.022627    2.474208
      8          1           0        0.011382    0.229192    3.368838
      9          1           0        0.868669   -1.022627   -2.474208
     10          1           0       -0.896650   -1.003443   -2.479604
     11          1           0        0.011382    0.229192   -3.368838
     12          1           0        0.867606    1.187009    1.250354
     13          1           0       -0.889411    1.165441    1.236824
     14          1           0       -0.889411    1.165441   -1.236824
     15          1           0        0.867606    1.187009   -1.250354
     16          1           0        0.696784   -0.949384   -0.000000
 ---------------------------------------------------------------------

 SCF Done:  E(RHF) =  -213.437718356     A.U. after    2 cycles

 The electronic state is 1-A'.
 Alpha  occ. eigenvalues --  -15.70422 -11.41589 -11.40074 -11.35446 -11.34893
 Alpha  occ. eigenvalues --   -1.38566  -1.14294  -1.03924  -0.87797  -0.85233
 Alpha  occ. eigenvalues --   -0.66349  -0.61773  -0.59681  -0.57135  -0.54929
 Alpha  occ. eigenvalues --   -0.51092  -0.48747  -0.47250  -0.46979  -0.42997
 Alpha  occ. eigenvalues --   -0.32231
 Alpha virt. eigenvalues --    0.04235   0.04875   0.05733   0.06066   0.06199
 Alpha virt. eigenvalues --    0.06289   0.06560   0.06839   0.08109   0.09090
 Alpha virt. eigenvalues --    0.09191   0.10939   0.13594   0.14170   0.15322

 Mulliken charges:
               1
     1  C   -3.874863
     2  C   -3.874863
     3  C   -2.102264
     4  C   -2.102264
     5  N   -2.167891
     6  H    1.275910
     7  H    1.300123
     8  H    1.116713
     9  H    1.300123
    10  H    1.275910
    11  H    1.116713
    12  H    1.472382
    13  H    1.562298
    14  H    1.562298
    15  H    1.472382
    16  H    0.667290
 Sum of Mulliken charges =   0.00000

 Dipole moment (field-independent basis, Debye):
    X=              0.6107    Y=              0.2526    Z=              0.0000  Tot=              0.6609

 Test job not archived.
 1\1\GINC-SE276\SP\RHF\Aug-CC-pVDZ\C4H11N1\OHZDE\06-Apr-2025\0\\#t hf a
 ug-cc-pvdz iop(5/13=1,5/36=2,99/5=2) pseudo=read geom=check guess=(rea
 d,tcheck) scf=(maxcycle=1)\\title\\0,1\C,0,-0.00862,-0.371616,2.45895\
 C,0,-0.00862,-0.371616,-2.45895\C,0,-0.00862,0.517598,1.223905\C,0,-0.
 00862,0.517598,-1.223905\N,0,-0.059012,-0.273364,0.\H,0,-0.89665,-1.00
 3443,2.479604\H,0,0.868669,-1.022627,2.474208\H,0,0.011382,0.229192,3.
 368838\H,0,0.868669,-1.022627,-2.474208\H,0,-0.89665,-1.003443,-2.4796
 04\H,0,0.011382,0.229192,-3.368838\H,0,0.867606,1.187009,1.250354\H,0,

 Normal termination of Gaussian 16 at Sun Apr  6 08:12:47 2025.
