 Gaussian 16, Revision C.01,

 ----------------------------------------------------------------------
 #t hf aug-cc-pvdz symm=none int=(grid=ultrafine) guess=(read,tcheck) s
 table=(opt,rrhf)
 ----------------------------------------------------------------------
 -----
 title
 -----
 Symbolic Z-matrix:
 Charge =  0 Multiplicity = 1

 SCF Done:  E(RHF) =  -952.382169397     A.U. after   13 cycles

 1\1\GINC-SE422\Stability\RHF\Aug-CC-pVDZ\C4H10S2\OHZDE\06-Apr-2025\0\\
 #t hf aug-cc-pvdz symm=none int=(grid=ultrafine) guess=(read,tcheck) s
 table=(opt,rrhf)\\title\\0,1\C,0,0.340762,3.287075,0.629973\C,0,-0.340
 762,-3.287075,0.629973\C,0,0.695762,1.806304,0.586711\C,0,-0.695762,-1
 .806304,0.586711\S,0,-0.340762,0.974925,-0.694192\S,0,0.340762,-0.9749
 25,-0.694192\H,0,0.525276,3.767942,-0.330968\H,0,-0.707346,3.438737,0.
 88965\H,0,0.949124,3.792561,1.381474\H,0,-0.525276,-3.767942,-0.330968
 \H,0,0.707346,-3.438737,0.88965\H,0,-0.949124,-3.792561,1.381474\H,0,0

 Normal termination of Gaussian 16 at Sun Apr  6 08:12:55 2025.
 Gaussian 16:  ES64L-G16RevC.01  3-Jul-2019

 ----------------------------------------------------------------------
 #t hf aug-cc-pvdz iop(5/13=1,5/36=2,99/5=2) pseudo=read geom=check gue
 ss=(read,tcheck) scf=(maxcycle=1)
 ----------------------------------------------------------------------
 -----
 title
 -----
 Structure from the checkpoint file:  "diethyl_disulfide.chk"
 Charge =  0 Multiplicity = 1

                         Standard orientation:
 ---------------------------------------------------------------------
 Center     Atomic      Atomic             Coordinates (Angstroms)
 Number     Number       Type             X           Y           Z
 ---------------------------------------------------------------------
      1          6           0        0.340762    3.287075    0.629973
      2          6           0       -0.340762   -3.287075    0.629973
      3          6           0        0.695762    1.806304    0.586711
      4          6           0       -0.695762   -1.806304    0.586711
      5         16           0       -0.340762    0.974925   -0.694192
      6         16           0        0.340762   -0.974925   -0.694192
      7          1           0        0.525276    3.767942   -0.330968
      8          1           0       -0.707346    3.438737    0.889650
      9          1           0        0.949124    3.792561    1.381474
     10          1           0       -0.525276   -3.767942   -0.330968
     11          1           0        0.707346   -3.438737    0.889650
     12          1           0       -0.949124   -3.792561    1.381474
     13          1           0        0.508220    1.330131    1.547298
     14          1           0        1.739469    1.654869    0.319514
     15          1           0       -0.508220   -1.330131    1.547298
     16          1           0       -1.739469   -1.654869    0.319514
 ---------------------------------------------------------------------

 SCF Done:  E(RHF) =  -953.665041383     A.U. after    2 cycles

 The electronic state is 1-A.
 Alpha  occ. eigenvalues --  -75.69312 -75.69113 -13.14706 -13.11278 -13.08565
 Alpha  occ. eigenvalues --  -13.07180 -13.03671 -13.02389 -11.41824 -11.41687
 Alpha  occ. eigenvalues --  -11.37271 -11.37176  -8.03209  -8.03107  -1.27769
 Alpha  occ. eigenvalues --   -1.19472  -1.08891  -0.97562  -0.87633  -0.83648
 Alpha  occ. eigenvalues --   -0.63459  -0.63445  -0.60674  -0.57622  -0.52972
 Alpha  occ. eigenvalues --   -0.52156  -0.50867  -0.50290  -0.42799  -0.40412
 Alpha  occ. eigenvalues --   -0.33219  -0.23769  -0.23097
 Alpha virt. eigenvalues --    0.02819   0.03343   0.04477   0.05712   0.06392
 Alpha virt. eigenvalues --    0.06491   0.06900   0.07421   0.07551   0.08989
 Alpha virt. eigenvalues --    0.09236   0.10513   0.11891   0.13404   0.13497

 Mulliken charges:
               1
     1  C   -3.585943
     2  C   -3.585943
     3  C   -3.677093
     4  C   -3.677093
     5  S    0.248900
     6  S    0.248900
     7  H    1.322470
     8  H    1.303235
     9  H    1.184697
    10  H    1.322470
    11  H    1.303235
    12  H    1.184697
    13  H    1.584710
    14  H    1.619025
    15  H    1.584710
    16  H    1.619025
 Sum of Mulliken charges =   0.00000

 Dipole moment (field-independent basis, Debye):
    X=              0.0000    Y=             -0.0000    Z=             -0.0731  Tot=              0.0731

 Test job not archived.
 1\1\GINC-SE422\SP\RHF\Aug-CC-pVDZ\C4H10S2\OHZDE\06-Apr-2025\0\\#t hf a
 ug-cc-pvdz iop(5/13=1,5/36=2,99/5=2) pseudo=read geom=check guess=(rea
 d,tcheck) scf=(maxcycle=1)\\title\\0,1\C,0,0.340762,3.287075,0.629973\
 C,0,-0.340762,-3.287075,0.629973\C,0,0.695762,1.806304,0.586711\C,0,-0
 .695762,-1.806304,0.586711\S,0,-0.340762,0.974925,-0.694192\S,0,0.3407
 62,-0.974925,-0.694192\H,0,0.525276,3.767942,-0.330968\H,0,-0.707346,3
 .438737,0.88965\H,0,0.949124,3.792561,1.381474\H,0,-0.525276,-3.767942
 ,-0.330968\H,0,0.707346,-3.438737,0.88965\H,0,-0.949124,-3.792561,1.38

 Normal termination of Gaussian 16 at Sun Apr  6 08:13:00 2025.
