 Gaussian 16, Revision C.01,

 ----------------------------------------------------------------------
 #t hf aug-cc-pvdz symm=none int=(grid=ultrafine) guess=(read,tcheck) s
 table=(opt,rrhf)
 ----------------------------------------------------------------------
 -----
 title
 -----
 Symbolic Z-matrix:
 Charge =  0 Multiplicity = 1

 SCF Done:  E(RHF) =  -554.843847888     A.U. after   12 cycles

 1\1\GINC-SE344\Stability\RHF\Aug-CC-pVDZ\C4H10S1\OHZDE\06-Apr-2025\0\\
 #t hf aug-cc-pvdz symm=none int=(grid=ultrafine) guess=(read,tcheck) s
 table=(opt,rrhf)\\title\\0,1\C,0,0.,2.726159,0.135205\C,0,0.,-2.726159
 ,0.135205\C,0,0.,1.403492,-0.620064\C,0,0.,-1.403492,-0.620064\S,0,0.,
 0.,0.556153\H,0,-0.88233,2.818735,0.768807\H,0,0.88233,2.818735,0.7688
 07\H,0,0.,3.560604,-0.567621\H,0,0.88233,-2.818735,0.768807\H,0,-0.882
 33,-2.818735,0.768807\H,0,0.,-3.560604,-0.567621\H,0,0.883227,1.323432
 ,-1.255033\H,0,-0.883227,1.323432,-1.255033\H,0,-0.883227,-1.323432,-1

 Normal termination of Gaussian 16 at Sun Apr  6 08:12:41 2025.
 Gaussian 16:  ES64L-G16RevC.01  3-Jul-2019

 ----------------------------------------------------------------------
 #t hf aug-cc-pvdz iop(5/13=1,5/36=2,99/5=2) pseudo=read geom=check gue
 ss=(read,tcheck) scf=(maxcycle=1)
 ----------------------------------------------------------------------
 -----
 title
 -----
 Structure from the checkpoint file:  "diethyl_sulfide.chk"
 Charge =  0 Multiplicity = 1

                         Standard orientation:
 ---------------------------------------------------------------------
 Center     Atomic      Atomic             Coordinates (Angstroms)
 Number     Number       Type             X           Y           Z
 ---------------------------------------------------------------------
      1          6           0        0.000000    2.726159    0.135205
      2          6           0       -0.000000   -2.726159    0.135205
      3          6           0        0.000000    1.403492   -0.620064
      4          6           0       -0.000000   -1.403492   -0.620064
      5         16           0       -0.000000   -0.000000    0.556153
      6          1           0       -0.882330    2.818735    0.768807
      7          1           0        0.882330    2.818735    0.768807
      8          1           0        0.000000    3.560604   -0.567621
      9          1           0        0.882330   -2.818735    0.768807
     10          1           0       -0.882330   -2.818735    0.768807
     11          1           0       -0.000000   -3.560604   -0.567621
     12          1           0        0.883227    1.323432   -1.255033
     13          1           0       -0.883227    1.323432   -1.255033
     14          1           0       -0.883227   -1.323432   -1.255033
     15          1           0        0.883227   -1.323432   -1.255033
 ---------------------------------------------------------------------

 SCF Done:  E(RHF) =  -555.906009334     A.U. after    2 cycles

 The electronic state is 1-A1.
 Alpha  occ. eigenvalues --  -75.66119 -13.10701 -13.05987 -12.99509 -11.41400
 Alpha  occ. eigenvalues --  -11.40632 -11.36681 -11.36463  -8.00213  -1.25906
 Alpha  occ. eigenvalues --   -1.14853  -1.01191  -0.88873  -0.82983  -0.63775
 Alpha  occ. eigenvalues --   -0.61550  -0.60662  -0.56211  -0.53344  -0.50640
 Alpha  occ. eigenvalues --   -0.49564  -0.48945  -0.39510  -0.35031  -0.21559
 Alpha virt. eigenvalues --    0.03567   0.03861   0.05211   0.05396   0.06508
 Alpha virt. eigenvalues --    0.06645   0.07026   0.07404   0.07674   0.09222
 Alpha virt. eigenvalues --    0.10939   0.12063   0.12560   0.14582   0.15028

 Mulliken charges:
               1
     1  C   -3.869977
     2  C   -3.869977
     3  C   -3.668023
     4  C   -3.668023
     5  S    1.534476
     6  H    1.337473
     7  H    1.337473
     8  H    1.070113
     9  H    1.337473
    10  H    1.337473
    11  H    1.070113
    12  H    1.512852
    13  H    1.512852
    14  H    1.512852
    15  H    1.512852
 Sum of Mulliken charges =   0.00000

 Dipole moment (field-independent basis, Debye):
    X=              0.0000    Y=             -0.0000    Z=             -0.1061  Tot=              0.1061

 Test job not archived.
 1\1\GINC-SE344\SP\RHF\Aug-CC-pVDZ\C4H10S1\OHZDE\06-Apr-2025\0\\#t hf a
 ug-cc-pvdz iop(5/13=1,5/36=2,99/5=2) pseudo=read geom=check guess=(rea
 d,tcheck) scf=(maxcycle=1)\\title\\0,1\C,0,0.,2.726159,0.135205\C,0,0.
 ,-2.726159,0.135205\C,0,0.,1.403492,-0.620064\C,0,0.,-1.403492,-0.6200
 64\S,0,0.,0.,0.556153\H,0,-0.88233,2.818735,0.768807\H,0,0.88233,2.818
 735,0.768807\H,0,0.,3.560604,-0.567621\H,0,0.88233,-2.818735,0.768807\
 H,0,-0.88233,-2.818735,0.768807\H,0,0.,-3.560604,-0.567621\H,0,0.88322
 7,1.323432,-1.255033\H,0,-0.883227,1.323432,-1.255033\H,0,-0.883227,-1

 Normal termination of Gaussian 16 at Sun Apr  6 08:12:48 2025.
