 Gaussian 16, Revision C.01,

 ----------------------------------------------------------------------
 #t hf aug-cc-pvdz symm=none int=(grid=ultrafine) guess=(read,tcheck) s
 table=(opt,rrhf)
 ----------------------------------------------------------------------
 -----
 title
 -----
 Symbolic Z-matrix:
 Charge =  0 Multiplicity = 1

 SCF Done:  E(RHF) =  -287.158991753     A.U. after   12 cycles
 Normal termination of Gaussian 16 at Sun Apr  6 08:12:50 2025.
 Gaussian 16:  ES64L-G16RevC.01  3-Jul-2019

 ----------------------------------------------------------------------
 #t hf aug-cc-pvdz iop(5/13=1,5/36=2,99/5=2) pseudo=read geom=check gue
 ss=(read,tcheck) scf=(maxcycle=1)
 ----------------------------------------------------------------------
 -----
 title
 -----
 Structure from the checkpoint file:  "diethylhydroxylamine.chk"
 Charge =  0 Multiplicity = 1

                         Standard orientation:
 ---------------------------------------------------------------------
 Center     Atomic      Atomic             Coordinates (Angstroms)
 Number     Number       Type             X           Y           Z
 ---------------------------------------------------------------------
      1          7           0       -0.135879   -0.159469   -0.000000
      2          8           0        1.161592   -0.759998    0.000000
      3          1           0        1.809832   -0.031424    0.000000
      4          6           0       -0.288759   -0.230429    2.472841
      5          6           0       -0.288759   -0.230429   -2.472841
      6          6           0       -0.288759    0.629302    1.218177
      7          6           0       -0.288759    0.629302   -1.218177
      8          1           0        0.647697   -0.775732    2.573295
      9          1           0        0.647697   -0.775732   -2.573295
     10          1           0        0.502431    1.398690   -1.280754
     11          1           0        0.502431    1.398690    1.280754
     12          1           0       -1.239354    1.157946   -1.127847
     13          1           0       -1.239354    1.157946    1.127847
     14          1           0       -1.101796   -0.955280    2.437155
     15          1           0       -1.101796   -0.955280   -2.437155
     16          1           0       -0.419577    0.394984    3.356866
     17          1           0       -0.419577    0.394984   -3.356866
 ---------------------------------------------------------------------

 SCF Done:  E(RHF) =  -288.549430108     A.U. after    2 cycles

 The electronic state is 1-A'.
 Alpha  occ. eigenvalues --  -21.07620 -15.74368 -11.42681 -11.41302 -11.35878
 Alpha  occ. eigenvalues --  -11.35283  -1.76721  -1.30705  -1.15430  -1.03368
 Alpha  occ. eigenvalues --   -0.89233  -0.83593  -0.66766  -0.64852  -0.61348
 Alpha  occ. eigenvalues --   -0.60874  -0.55346  -0.52285  -0.51051  -0.49773
 Alpha  occ. eigenvalues --   -0.48320  -0.44996  -0.40971  -0.33621  -0.32708
 Alpha virt. eigenvalues --    0.04295   0.05033   0.05333   0.05692   0.06181
 Alpha virt. eigenvalues --    0.06225   0.06511   0.06623   0.08196   0.08287
 Alpha virt. eigenvalues --    0.09131   0.12003   0.13352   0.13422   0.15382

 Mulliken charges:
               1
     1  N   -0.155352
     2  O   -2.147752
     3  H    0.694462
     4  C   -3.741932
     5  C   -3.741932
     6  C   -2.303473
     7  C   -2.303473
     8  H    1.392265
     9  H    1.392265
    10  H    1.604931
    11  H    1.604931
    12  H    1.525383
    13  H    1.525383
    14  H    1.271405
    15  H    1.271405
    16  H    1.055741
    17  H    1.055741
 Sum of Mulliken charges =  -0.00000

 Dipole moment (field-independent basis, Debye):
    X=              0.0494    Y=              1.0095    Z=              0.0000  Tot=              1.0107

 Test job not archived.
 1\1\GINC-SE276\SP\RHF\Aug-CC-pVDZ\C4H11N1O1\OHZDE\06-Apr-2025\0\\#t hf
  aug-cc-pvdz iop(5/13=1,5/36=2,99/5=2) pseudo=read geom=check guess=(r
 ead,tcheck) scf=(maxcycle=1)\\title\\0,1\N,0,-0.135879,-0.159469,0.\O,
 0,1.161592,-0.759998,0.\H,0,1.809832,-0.031424,0.\C,0,-0.288759,-0.230
 429,2.472841\C,0,-0.288759,-0.230429,-2.472841\C,0,-0.288759,0.629302,
 1.218177\C,0,-0.288759,0.629302,-1.218177\H,0,0.647697,-0.775732,2.573
 295\H,0,0.647697,-0.775732,-2.573295\H,0,0.502431,1.39869,-1.280754\H,
 0,0.502431,1.39869,1.280754\H,0,-1.239354,1.157946,-1.127847\H,0,-1.23

 Normal termination of Gaussian 16 at Sun Apr  6 08:12:55 2025.
