 Gaussian 16, Revision C.01,

 ----------------------------------------------------------------------
 #t hf aug-cc-pvdz symm=none int=(grid=ultrafine) guess=(read,tcheck) s
 table=(opt,rrhf)
 ----------------------------------------------------------------------
 -----
 title
 -----
 Symbolic Z-matrix:
 Charge =  0 Multiplicity = 1

 SCF Done:  E(RHF) =  -571.629205049     A.U. after   14 cycles

 1\1\GINC-SE343\Stability\RHF\Aug-CC-pVDZ\C7H12O4\OHZDE\06-Apr-2025\0\\
 #t hf aug-cc-pvdz symm=none int=(grid=ultrafine) guess=(read,tcheck) s
 table=(opt,rrhf)\\title\\0,1\C,0,1.306354,0.956233,-0.134176\C,0,-1.04
 4968,0.127302,0.167328\C,0,3.886887,-1.608049,-0.254851\C,0,-4.599276,
 -0.443312,-0.394492\C,0,-0.088316,0.90624,-0.718617\C,0,3.316527,-0.26
 954,0.15353\C,0,-3.305169,-0.571942,0.375011\O,0,1.744359,1.881556,0.4
 99819\O,0,-0.757253,-0.411532,1.203966\O,0,1.990697,-0.161001,-0.42097
 1\O,0,-2.276334,0.126892,-0.371097\H,0,4.887123,-1.722217,0.164487\H,0

 Normal termination of Gaussian 16 at Sun Apr  6 08:15:08 2025.
 Gaussian 16:  ES64L-G16RevC.01  3-Jul-2019

 ----------------------------------------------------------------------
 #t hf aug-cc-pvdz iop(5/13=1,5/36=2,99/5=2) pseudo=read geom=check gue
 ss=(read,tcheck) scf=(maxcycle=1)
 ----------------------------------------------------------------------
 -----
 title
 -----
 Structure from the checkpoint file:  "diethyl_malonate.chk"
 Charge =  0 Multiplicity = 1

                         Standard orientation:
 ---------------------------------------------------------------------
 Center     Atomic      Atomic             Coordinates (Angstroms)
 Number     Number       Type             X           Y           Z
 ---------------------------------------------------------------------
      1          6           0        1.306354    0.956233   -0.134176
      2          6           0       -1.044968    0.127302    0.167328
      3          6           0        3.886887   -1.608049   -0.254851
      4          6           0       -4.599276   -0.443312   -0.394492
      5          6           0       -0.088316    0.906240   -0.718617
      6          6           0        3.316527   -0.269540    0.153530
      7          6           0       -3.305169   -0.571942    0.375011
      8          8           0        1.744359    1.881556    0.499819
      9          8           0       -0.757253   -0.411532    1.203966
     10          8           0        1.990697   -0.161001   -0.420971
     11          8           0       -2.276334    0.126892   -0.371097
     12          1           0        4.887123   -1.722217    0.164487
     13          1           0        3.266466   -2.424893    0.112600
     14          1           0        3.960144   -1.689656   -1.339244
     15          1           0       -5.395469   -0.960067    0.142386
     16          1           0       -4.886137    0.601847   -0.507648
     17          1           0       -4.512178   -0.886897   -1.386071
     18          1           0       -0.462283    1.922798   -0.825864
     19          1           0       -0.078310    0.440983   -1.704161
     20          1           0        3.919903    0.562400   -0.209284
     21          1           0        3.228446   -0.173746    1.235219
     22          1           0       -2.999534   -1.611161    0.493470
     23          1           0       -3.372156   -0.128302    1.367982
 ---------------------------------------------------------------------

 SCF Done:  E(RHF) =  -574.163961440     A.U. after    2 cycles

 The electronic state is 1-A.
 Alpha  occ. eigenvalues --  -21.09478 -21.08721 -21.05673 -21.04915 -11.54990
 Alpha  occ. eigenvalues --  -11.52854 -11.44928 -11.44216 -11.42600 -11.38024
 Alpha  occ. eigenvalues --  -11.37254  -1.86076  -1.83103  -1.67080  -1.66223
 Alpha  occ. eigenvalues --   -1.18643  -1.14314  -1.10972  -0.92617  -0.89670
 Alpha  occ. eigenvalues --   -0.79734  -0.74644  -0.68852  -0.67947  -0.66001
 Alpha  occ. eigenvalues --   -0.65199  -0.62837  -0.58427  -0.57492  -0.54279
 Alpha  occ. eigenvalues --   -0.53782  -0.53095  -0.51714  -0.50998  -0.49041
 Alpha  occ. eigenvalues --   -0.47327  -0.47071  -0.42348  -0.40911  -0.33576
 Alpha  occ. eigenvalues --   -0.31737  -0.30495  -0.29435
 Alpha virt. eigenvalues --    0.03411   0.04454   0.04738   0.05212   0.05424
 Alpha virt. eigenvalues --    0.05960   0.06342   0.06639   0.06958   0.07459
 Alpha virt. eigenvalues --    0.08133   0.08188   0.09319   0.10716   0.12467

 Mulliken charges:
               1
     1  C    7.496397
     2  C    6.704655
     3  C   -3.671044
     4  C   -3.690893
     5  C   -5.640939
     6  C   -2.132449
     7  C   -2.664913
     8  O   -3.485195
     9  O   -3.110292
    10  O   -3.412022
    11  O   -3.424125
    12  H    1.105211
    13  H    1.306155
    14  H    1.286610
    15  H    1.089808
    16  H    1.317610
    17  H    1.317922
    18  H    1.594274
    19  H    1.641406
    20  H    1.545587
    21  H    1.574777
    22  H    1.621729
    23  H    1.629727
 Sum of Mulliken charges =   0.00000

 Dipole moment (field-independent basis, Debye):
    X=             -0.9920    Y=             -1.3681    Z=             -1.1701  Tot=              2.0554

 Test job not archived.
 1\1\GINC-SE343\SP\RHF\Aug-CC-pVDZ\C7H12O4\OHZDE\06-Apr-2025\0\\#t hf a
 ug-cc-pvdz iop(5/13=1,5/36=2,99/5=2) pseudo=read geom=check guess=(rea
 d,tcheck) scf=(maxcycle=1)\\title\\0,1\C,0,1.306354,0.956233,-0.134176
 \C,0,-1.044968,0.127302,0.167328\C,0,3.886887,-1.608049,-0.254851\C,0,
 -4.599276,-0.443312,-0.394492\C,0,-0.088316,0.90624,-0.718617\C,0,3.31
 6527,-0.26954,0.15353\C,0,-3.305169,-0.571942,0.375011\O,0,1.744359,1.
 881556,0.499819\O,0,-0.757253,-0.411532,1.203966\O,0,1.990697,-0.16100
 1,-0.420971\O,0,-2.276334,0.126892,-0.371097\H,0,4.887123,-1.722217,0.

 Normal termination of Gaussian 16 at Sun Apr  6 08:16:06 2025.
