 Gaussian 16, Revision C.01,

 ----------------------------------------------------------------------
 #t hf aug-cc-pvdz symm=none int=(grid=ultrafine) guess=(read,tcheck) s
 table=(opt,rrhf)
 ----------------------------------------------------------------------
 -----
 title
 -----
 Symbolic Z-matrix:
 Charge =  0 Multiplicity = 1

 SCF Done:  E(RHF) =  -306.947682425     A.U. after   11 cycles

 1\1\GINC-SE344\Stability\RHF\Aug-CC-pVDZ\C4H10O2\OHZDE\06-Apr-2025\0\\
 #t hf aug-cc-pvdz symm=none int=(grid=ultrafine) guess=(read,tcheck) s
 table=(opt,rrhf)\\title\\0,1\O,0,-0.015813,0.731327,0.\O,0,0.015813,-0
 .731327,0.\C,0,-1.344283,-1.140143,0.\H,0,-1.844417,-0.742104,0.887786
 \C,0,1.344283,1.140143,0.\H,0,1.844417,0.742104,-0.887786\H,0,1.844417
 ,0.742104,0.887786\C,0,1.344283,2.657005,0.\C,0,-1.344283,-2.657005,0.
 \H,0,-1.844417,-0.742104,-0.887786\H,0,0.842512,3.047916,-0.884749\H,0
 ,0.842512,3.047916,0.884749\H,0,2.372433,3.01989,0.\H,0,-0.842512,-3.0

 Normal termination of Gaussian 16 at Sun Apr  6 08:12:46 2025.
 Gaussian 16:  ES64L-G16RevC.01  3-Jul-2019

 ----------------------------------------------------------------------
 #t hf aug-cc-pvdz iop(5/13=1,5/36=2,99/5=2) pseudo=read geom=check gue
 ss=(read,tcheck) scf=(maxcycle=1)
 ----------------------------------------------------------------------
 -----
 title
 -----
 Structure from the checkpoint file:  "diethyl_peroxide.chk"
 Charge =  0 Multiplicity = 1

                         Standard orientation:
 ---------------------------------------------------------------------
 Center     Atomic      Atomic             Coordinates (Angstroms)
 Number     Number       Type             X           Y           Z
 ---------------------------------------------------------------------
      1          8           0       -0.015813    0.731327    0.000000
      2          8           0        0.015813   -0.731327    0.000000
      3          6           0       -1.344283   -1.140143    0.000000
      4          1           0       -1.844417   -0.742104    0.887786
      5          6           0        1.344283    1.140143    0.000000
      6          1           0        1.844417    0.742104   -0.887786
      7          1           0        1.844417    0.742104    0.887786
      8          6           0        1.344283    2.657005    0.000000
      9          6           0       -1.344283   -2.657005    0.000000
     10          1           0       -1.844417   -0.742104   -0.887786
     11          1           0        0.842512    3.047916   -0.884749
     12          1           0        0.842512    3.047916    0.884749
     13          1           0        2.372433    3.019890    0.000000
     14          1           0       -0.842512   -3.047916   -0.884749
     15          1           0       -0.842512   -3.047916    0.884749
     16          1           0       -2.372433   -3.019890    0.000000
 ---------------------------------------------------------------------

 SCF Done:  E(RHF) =  -308.364576136     A.U. after    2 cycles

 The electronic state is 1-AG.
 Alpha  occ. eigenvalues --  -21.07853 -21.07609 -11.42944 -11.42530 -11.36576
 Alpha  occ. eigenvalues --  -11.36332  -1.93715  -1.47825  -1.11686  -1.08698
 Alpha  occ. eigenvalues --   -0.87432  -0.86704  -0.66237  -0.63484  -0.63277
 Alpha  occ. eigenvalues --   -0.57859  -0.55527  -0.52831  -0.52079  -0.50706
 Alpha  occ. eigenvalues --   -0.46556  -0.42301  -0.40096  -0.35916  -0.24649
 Alpha virt. eigenvalues --    0.03961   0.05006   0.05546   0.05555   0.05992
 Alpha virt. eigenvalues --    0.06013   0.06349   0.06780   0.07843   0.09292
 Alpha virt. eigenvalues --    0.10501   0.12169   0.14112   0.14954   0.15046

 Mulliken charges:
               1
     1  O   -1.775199
     2  O   -1.775199
     3  C   -1.503689
     4  H    1.529565
     5  C   -1.503689
     6  H    1.529565
     7  H    1.529565
     8  C   -3.432432
     9  C   -3.432432
    10  H    1.529565
    11  H    1.240054
    12  H    1.240054
    13  H    1.172083
    14  H    1.240054
    15  H    1.240054
    16  H    1.172083
 Sum of Mulliken charges =  -0.00000

 Dipole moment (field-independent basis, Debye):
    X=              0.0000    Y=              0.0000    Z=             -0.0000  Tot=              0.0000

 Test job not archived.
 1\1\GINC-SE344\SP\RHF\Aug-CC-pVDZ\C4H10O2\OHZDE\06-Apr-2025\0\\#t hf a
 ug-cc-pvdz iop(5/13=1,5/36=2,99/5=2) pseudo=read geom=check guess=(rea
 d,tcheck) scf=(maxcycle=1)\\title\\0,1\O,0,-0.015813,0.731327,0.\O,0,0
 .015813,-0.731327,0.\C,0,-1.344283,-1.140143,0.\H,0,-1.844417,-0.74210
 4,0.887786\C,0,1.344283,1.140143,0.\H,0,1.844417,0.742104,-0.887786\H,
 0,1.844417,0.742104,0.887786\C,0,1.344283,2.657005,0.\C,0,-1.344283,-2
 .657005,0.\H,0,-1.844417,-0.742104,-0.887786\H,0,0.842512,3.047916,-0.
 884749\H,0,0.842512,3.047916,0.884749\H,0,2.372433,3.01989,0.\H,0,-0.8

 Normal termination of Gaussian 16 at Sun Apr  6 08:12:49 2025.
