 Gaussian 16, Revision C.01,

 ----------------------------------------------------------------------
 #t hf aug-cc-pvdz symm=none int=(grid=ultrafine) guess=(read,tcheck) s
 table=(opt,rrhf)
 ----------------------------------------------------------------------
 -----
 title
 -----
 Symbolic Z-matrix:
 Charge =  0 Multiplicity = 1

 SCF Done:  E(RHF) =  -779.384290647     A.U. after   13 cycles
 Normal termination of Gaussian 16 at Sun Apr  6 08:13:15 2025.
 Gaussian 16:  ES64L-G16RevC.01  3-Jul-2019

 ----------------------------------------------------------------------
 #t hf aug-cc-pvdz iop(5/13=1,5/36=2,99/5=2) pseudo=read geom=check gue
 ss=(read,tcheck) scf=(maxcycle=1)
 ----------------------------------------------------------------------
 -----
 title
 -----
 Structure from the checkpoint file:  "diethoxysulfoxide.chk"
 Charge =  0 Multiplicity = 1

                         Standard orientation:
 ---------------------------------------------------------------------
 Center     Atomic      Atomic             Coordinates (Angstroms)
 Number     Number       Type             X           Y           Z
 ---------------------------------------------------------------------
      1          6           0        0.150438   -1.090521    3.446524
      2          6           0        0.085296    0.101402    2.517436
      3          8           0        0.150438   -0.404858    1.160874
      4         16           0        0.167579    0.766272    0.000000
      5          8           0       -1.132613    1.441502    0.000000
      6          8           0        0.150438   -0.404858   -1.160874
      7          6           0        0.085296    0.101402   -2.517436
      8          6           0        0.150438   -1.090521   -3.446524
      9          1           0       -0.680200   -1.769479    3.258074
     10          1           0        1.082937   -1.637650    3.313150
     11          1           0        0.092076   -0.751674    4.481673
     12          1           0        0.923392    0.782173    2.691692
     13          1           0       -0.846294    0.654026    2.644175
     14          1           0       -0.846294    0.654026   -2.644175
     15          1           0        0.923392    0.782173   -2.691692
     16          1           0        1.082937   -1.637650   -3.313150
     17          1           0       -0.680200   -1.769479   -3.258074
     18          1           0        0.092076   -0.751674   -4.481673
 ---------------------------------------------------------------------

 SCF Done:  E(RHF) =  -781.370465727     A.U. after    2 cycles

 The electronic state is 1-A'.
 Alpha  occ. eigenvalues --  -75.86058 -21.07604 -21.07598 -21.03865 -13.42865
 Alpha  occ. eigenvalues --  -13.35343 -13.27987 -11.44829 -11.44581 -11.37565
 Alpha  occ. eigenvalues --  -11.37403  -8.19999  -1.87312  -1.73655  -1.67629
 Alpha  occ. eigenvalues --   -1.16212  -1.12424  -0.97388  -0.88538  -0.87462
 Alpha  occ. eigenvalues --   -0.67077  -0.65815  -0.65619  -0.62233  -0.56387
 Alpha  occ. eigenvalues --   -0.55690  -0.54160  -0.52359  -0.52260  -0.49052
 Alpha  occ. eigenvalues --   -0.46710  -0.45571  -0.42267  -0.37628  -0.34035
 Alpha  occ. eigenvalues --   -0.33518  -0.26762
 Alpha virt. eigenvalues --    0.03740   0.04083   0.05214   0.05593   0.05827
 Alpha virt. eigenvalues --    0.06321   0.06424   0.06744   0.07140   0.08722
 Alpha virt. eigenvalues --    0.10004   0.10714   0.12881   0.12964   0.13860

 Mulliken charges:
               1
     1  C   -3.878055
     2  C   -1.594472
     3  O   -2.963272
     4  S    5.259119
     5  O   -2.400413
     6  O   -2.963272
     7  C   -1.594472
     8  C   -3.878055
     9  H    1.342085
    10  H    1.315338
    11  H    1.144152
    12  H    1.611333
    13  H    1.593539
    14  H    1.593539
    15  H    1.611333
    16  H    1.315338
    17  H    1.342085
    18  H    1.144152
 Sum of Mulliken charges =  -0.00000

 Dipole moment (field-independent basis, Debye):
    X=              1.3440    Y=             -1.2478    Z=              0.0000  Tot=              1.8339

 Test job not archived.
 1\1\GINC-SE412\SP\RHF\Aug-CC-pVDZ\C4H10O3S1\OHZDE\06-Apr-2025\0\\#t hf
  aug-cc-pvdz iop(5/13=1,5/36=2,99/5=2) pseudo=read geom=check guess=(r
 ead,tcheck) scf=(maxcycle=1)\\title\\0,1\C,0,0.150438,-1.090521,3.4465
 24\C,0,0.085296,0.101402,2.517436\O,0,0.150438,-0.404858,1.160874\S,0,
 0.167579,0.766272,0.\O,0,-1.132613,1.441502,0.\O,0,0.150438,-0.404858,
 -1.160874\C,0,0.085296,0.101402,-2.517436\C,0,0.150438,-1.090521,-3.44
 6524\H,0,-0.6802,-1.769479,3.258074\H,0,1.082937,-1.63765,3.31315\H,0,
 0.092076,-0.751674,4.481673\H,0,0.923392,0.782173,2.691692\H,0,-0.8462

 Normal termination of Gaussian 16 at Sun Apr  6 08:13:19 2025.
