 Gaussian 16, Revision C.01,

 ----------------------------------------------------------------------
 #t hf aug-cc-pvdz symm=none int=(grid=ultrafine) guess=(read,tcheck) s
 table=(opt,rrhf)
 ----------------------------------------------------------------------
 -----
 title
 -----
 Symbolic Z-matrix:
 Charge =  0 Multiplicity = 1

 SCF Done:  E(RHF) =  -610.674415827     A.U. after   13 cycles

 1\1\GINC-SE422\Stability\RHF\Aug-CC-pVDZ\C8H14O4\OHZDE\06-Apr-2025\0\\
 #t hf aug-cc-pvdz symm=none int=(grid=ultrafine) guess=(read,tcheck) s
 table=(opt,rrhf)\\title\\0,1\C,0,0.188348,1.924575,-0.056731\C,0,-0.18
 8348,-1.924575,-0.056731\C,0,-1.353289,5.221305,0.159863\C,0,1.353289,
 -5.221305,0.159863\C,0,-0.494217,0.577874,-0.004149\C,0,0.494217,-0.57
 7874,-0.004149\C,0,-0.188348,4.271183,0.002037\C,0,0.188348,-4.271183,
 0.002037\O,0,1.374196,2.105516,-0.191402\O,0,-1.374196,-2.105516,-0.19
 1402\O,0,-0.708999,2.92163,0.057961\O,0,0.708999,-2.92163,0.057961\H,0

 Normal termination of Gaussian 16 at Sun Apr  6 08:16:47 2025.
 Gaussian 16:  ES64L-G16RevC.01  3-Jul-2019

 ----------------------------------------------------------------------
 #t hf aug-cc-pvdz iop(5/13=1,5/36=2,99/5=2) pseudo=read geom=check gue
 ss=(read,tcheck) scf=(maxcycle=1)
 ----------------------------------------------------------------------
 -----
 title
 -----
 Structure from the checkpoint file:  "diethyl_butanedioate.chk"
 Charge =  0 Multiplicity = 1

                         Standard orientation:
 ---------------------------------------------------------------------
 Center     Atomic      Atomic             Coordinates (Angstroms)
 Number     Number       Type             X           Y           Z
 ---------------------------------------------------------------------
      1          6           0        0.188348    1.924575   -0.056731
      2          6           0       -0.188348   -1.924575   -0.056731
      3          6           0       -1.353289    5.221305    0.159863
      4          6           0        1.353289   -5.221305    0.159863
      5          6           0       -0.494217    0.577874   -0.004149
      6          6           0        0.494217   -0.577874   -0.004149
      7          6           0       -0.188348    4.271183    0.002037
      8          6           0        0.188348   -4.271183    0.002037
      9          8           0        1.374196    2.105516   -0.191402
     10          8           0       -1.374196   -2.105516   -0.191402
     11          8           0       -0.708999    2.921630    0.057961
     12          8           0        0.708999   -2.921630    0.057961
     13          1           0       -0.993955    6.250306    0.122700
     14          1           0       -2.082017    5.084576   -0.638821
     15          1           0       -1.856365    5.069159    1.114540
     16          1           0        0.993955   -6.250306    0.122700
     17          1           0        2.082017   -5.084576   -0.638821
     18          1           0        1.856365   -5.069159    1.114540
     19          1           0       -1.172064    0.507988   -0.856621
     20          1           0       -1.139461    0.549023    0.874561
     21          1           0        1.139461   -0.549023    0.874561
     22          1           0        1.172064   -0.507988   -0.856621
     23          1           0        0.548903    4.392492    0.795533
     24          1           0        0.323949    4.406624   -0.950483
     25          1           0       -0.548903   -4.392492    0.795533
     26          1           0       -0.323949   -4.406624   -0.950483
 ---------------------------------------------------------------------

 SCF Done:  E(RHF) =  -613.412566670     A.U. after    2 cycles

 The electronic state is 1-A.
 Alpha  occ. eigenvalues --  -21.08609 -21.08608 -21.04799 -21.04787 -11.53531
 Alpha  occ. eigenvalues --  -11.53278 -11.45438 -11.44381 -11.44055 -11.39813
 Alpha  occ. eigenvalues --  -11.37636 -11.37523  -1.85038  -1.83291  -1.66268
 Alpha  occ. eigenvalues --   -1.65976  -1.21765  -1.14766  -1.13163  -1.00322
 Alpha  occ. eigenvalues --   -0.90818  -0.88455  -0.76426  -0.75150  -0.69177
 Alpha  occ. eigenvalues --   -0.68165  -0.66328  -0.64385  -0.62477  -0.59393
 Alpha  occ. eigenvalues --   -0.58022  -0.56862  -0.55178  -0.52927  -0.52364
 Alpha  occ. eigenvalues --   -0.51572  -0.51148  -0.49413  -0.47254  -0.46743
 Alpha  occ. eigenvalues --   -0.45567  -0.41395  -0.40591  -0.32393  -0.32226
 Alpha  occ. eigenvalues --   -0.30698  -0.28621
 Alpha virt. eigenvalues --    0.03327   0.04671   0.04838   0.05114   0.05529
 Alpha virt. eigenvalues --    0.05647   0.06068   0.06323   0.06603   0.06963
 Alpha virt. eigenvalues --    0.07532   0.07691   0.08095   0.09361   0.09678

 Mulliken charges:
               1
     1  C    8.179164
     2  C    8.179164
     3  C   -3.705388
     4  C   -3.705388
     5  C   -5.046001
     6  C   -5.046001
     7  C   -2.866486
     8  C   -2.866486
     9  O   -3.241845
    10  O   -3.241845
    11  O   -3.672825
    12  O   -3.672825
    13  H    1.096007
    14  H    1.332641
    15  H    1.328878
    16  H    1.096007
    17  H    1.332641
    18  H    1.328878
    19  H    1.672647
    20  H    1.589378
    21  H    1.589378
    22  H    1.672647
    23  H    1.661934
    24  H    1.671896
    25  H    1.661934
    26  H    1.671896
 Sum of Mulliken charges =  -0.00000

 Dipole moment (field-independent basis, Debye):
    X=             -0.0000    Y=              0.0000    Z=              0.2777  Tot=              0.2777

 Test job not archived.
 1\1\GINC-SE422\SP\RHF\Aug-CC-pVDZ\C8H14O4\OHZDE\06-Apr-2025\0\\#t hf a
 ug-cc-pvdz iop(5/13=1,5/36=2,99/5=2) pseudo=read geom=check guess=(rea
 d,tcheck) scf=(maxcycle=1)\\title\\0,1\C,0,0.188348,1.924575,-0.056731
 \C,0,-0.188348,-1.924575,-0.056731\C,0,-1.353289,5.221305,0.159863\C,0
 ,1.353289,-5.221305,0.159863\C,0,-0.494217,0.577874,-0.004149\C,0,0.49
 4217,-0.577874,-0.004149\C,0,-0.188348,4.271183,0.002037\C,0,0.188348,
 -4.271183,0.002037\O,0,1.374196,2.105516,-0.191402\O,0,-1.374196,-2.10
 5516,-0.191402\O,0,-0.708999,2.92163,0.057961\O,0,0.708999,-2.92163,0.

 Normal termination of Gaussian 16 at Sun Apr  6 08:16:57 2025.
