 Gaussian 16, Revision C.01,

 ----------------------------------------------------------------------
 #t hf aug-cc-pvdz symm=none int=(grid=ultrafine) guess=(read,tcheck) s
 table=(opt,rrhf)
 ----------------------------------------------------------------------
 -----
 title
 -----
 Symbolic Z-matrix:
 Charge =  0 Multiplicity = 1

 SCF Done:  E(RHF) =  -629.658937929     A.U. after   14 cycles
 Normal termination of Gaussian 16 at Sun Apr  6 08:12:55 2025.
 Gaussian 16:  ES64L-G16RevC.01  3-Jul-2019

 ----------------------------------------------------------------------
 #t hf aug-cc-pvdz iop(5/13=1,5/36=2,99/5=2) pseudo=read geom=check gue
 ss=(read,tcheck) scf=(maxcycle=1)
 ----------------------------------------------------------------------
 -----
 title
 -----
 Structure from the checkpoint file:  "diethyl_sulfoxide.chk"
 Charge =  0 Multiplicity = 1

                         Standard orientation:
 ---------------------------------------------------------------------
 Center     Atomic      Atomic             Coordinates (Angstroms)
 Number     Number       Type             X           Y           Z
 ---------------------------------------------------------------------
      1          6           0        1.610605    1.384300    0.549759
      2          1           0        2.332239    2.160342    0.292049
      3          1           0        0.860212    1.834406    1.198917
      4          1           0        2.129278    0.606001    1.108397
      5          6           0       -2.280666    0.756806   -0.091466
      6          1           0       -2.643528    0.312964   -1.019464
      7          1           0       -3.146309    0.940646    0.545887
      8          1           0       -1.838910    1.724439   -0.328261
      9          6           0       -1.298769   -0.163282    0.619431
     10          1           0       -1.776187   -1.092001    0.931530
     11          1           0       -0.846975    0.288433    1.501243
     12          6           0        0.999535    0.803974   -0.714910
     13          1           0        0.322444    1.489329   -1.225847
     14         16           0        0.072252   -0.774645   -0.452665
     15          8           0        0.937001   -1.633899    0.435963
     16          1           0        1.771453    0.510148   -1.426400
 ---------------------------------------------------------------------

 SCF Done:  E(RHF) =  -631.042932209     A.U. after    2 cycles

 The electronic state is 1-A.
 Alpha  occ. eigenvalues --  -75.77137 -20.98893 -13.31781 -13.21918 -13.17463
 Alpha  occ. eigenvalues --  -11.43077 -11.42694 -11.38610 -11.37531  -8.11364
 Alpha  occ. eigenvalues --   -1.67010  -1.24172  -1.16038  -1.01948  -0.92282
 Alpha  occ. eigenvalues --   -0.83417  -0.66247  -0.64583  -0.60254  -0.59360
 Alpha  occ. eigenvalues --   -0.55024  -0.53091  -0.52686  -0.50818  -0.45594
 Alpha  occ. eigenvalues --   -0.43769  -0.36528  -0.31020  -0.24639
 Alpha virt. eigenvalues --    0.02991   0.04145   0.04692   0.05534   0.05941
 Alpha virt. eigenvalues --    0.06337   0.06624   0.07413   0.07882   0.09102
 Alpha virt. eigenvalues --    0.10378   0.11927   0.12706   0.13756   0.14285

 Mulliken charges:
               1
     1  C   -3.572227
     2  H    1.125803
     3  H    1.421483
     4  H    1.442686
     5  C   -3.570900
     6  H    1.366176
     7  H    1.107583
     8  H    1.400599
     9  C   -4.159640
    10  H    1.523399
    11  H    1.785892
    12  C   -4.166326
    13  H    1.713394
    14  S    3.547146
    15  O   -2.464438
    16  H    1.499371
 Sum of Mulliken charges =   0.00000

 Dipole moment (field-independent basis, Debye):
    X=             -1.0662    Y=              1.3917    Z=             -0.7968  Tot=              1.9258

 Test job not archived.
 1\1\GINC-SE275\SP\RHF\Aug-CC-pVDZ\C4H10O1S1\OHZDE\06-Apr-2025\0\\#t hf
  aug-cc-pvdz iop(5/13=1,5/36=2,99/5=2) pseudo=read geom=check guess=(r
 ead,tcheck) scf=(maxcycle=1)\\title\\0,1\C,0,1.610605,1.3843,0.549759\
 H,0,2.332239,2.160342,0.292049\H,0,0.860212,1.834406,1.198917\H,0,2.12
 9278,0.606001,1.108397\C,0,-2.280666,0.756806,-0.091466\H,0,-2.643528,
 0.312964,-1.019464\H,0,-3.146309,0.940646,0.545887\H,0,-1.83891,1.7244
 39,-0.328261\C,0,-1.298769,-0.163282,0.619431\H,0,-1.776187,-1.092001,
 0.93153\H,0,-0.846975,0.288433,1.501243\C,0,0.999535,0.803974,-0.71491

 Normal termination of Gaussian 16 at Sun Apr  6 08:13:01 2025.
