 Gaussian 16, Revision C.01,

 ----------------------------------------------------------------------
 #t hf aug-cc-pvdz symm=none int=(grid=ultrafine) guess=(read,tcheck) s
 table=(opt,rrhf)
 ----------------------------------------------------------------------
 -----
 title
 -----
 Symbolic Z-matrix:
 Charge =  0 Multiplicity = 1

 SCF Done:  E(RHF) =  -1040.44191883     A.U. after   16 cycles
 Normal termination of Gaussian 16 at Sun Apr  6 08:13:13 2025.
 Gaussian 16:  ES64L-G16RevC.01  3-Jul-2019

 ----------------------------------------------------------------------
 #t hf aug-cc-pvdz iop(5/13=1,5/36=2,99/5=2) pseudo=read geom=check gue
 ss=(read,tcheck) scf=(maxcycle=1)
 ----------------------------------------------------------------------
 -----
 title
 -----
 Structure from the checkpoint file:  "diethynylcarbamodithioic_acid.chk"
 Charge =  0 Multiplicity = 1

                         Standard orientation:
 ---------------------------------------------------------------------
 Center     Atomic      Atomic             Coordinates (Angstroms)
 Number     Number       Type             X           Y           Z
 ---------------------------------------------------------------------
      1         16           0        1.785670    1.142217    0.000055
      2         16           0        1.219672   -1.735365   -0.000051
      3          7           0       -0.725832    0.098898   -0.000008
      4          6           0        0.657309   -0.199788   -0.000005
      5          6           0       -1.229802    1.357919   -0.000005
      6          6           0       -1.636456   -0.913123   -0.000051
      7          6           0       -1.716877    2.453131   -0.000088
      8          6           0       -2.495075   -1.745682    0.000145
      9          1           0        0.900324    2.162084    0.000064
     10          1           0       -2.142643    3.424999   -0.000013
     11          1           0       -3.236935   -2.503744   -0.000019
 ---------------------------------------------------------------------

 SCF Done:  E(RHF) =  -1042.01452037     A.U. after    2 cycles

 The electronic state is 1-A.
 Alpha  occ. eigenvalues --  -75.73788 -75.66917 -15.86536 -13.19497 -13.16211
 Alpha  occ. eigenvalues --  -13.15413 -13.05389 -13.02900 -12.97889 -11.52865
 Alpha  occ. eigenvalues --  -11.48636 -11.46511 -11.44400 -11.42853  -8.07860
 Alpha  occ. eigenvalues --   -8.01138  -1.55446  -1.25017  -1.14612  -1.09575
 Alpha  occ. eigenvalues --   -1.07313  -0.88305  -0.85277  -0.72327  -0.70265
 Alpha  occ. eigenvalues --   -0.67097  -0.64039  -0.47869  -0.47008  -0.43804
 Alpha  occ. eigenvalues --   -0.43439  -0.42044  -0.38580  -0.30211  -0.24212
 Alpha  occ. eigenvalues --   -0.23399
 Alpha virt. eigenvalues --    0.01813   0.04113   0.04796   0.06889   0.06947
 Alpha virt. eigenvalues --    0.07703   0.08595   0.10494   0.10700   0.11077
 Alpha virt. eigenvalues --    0.11433   0.12357   0.12597   0.12892   0.13344

 Mulliken charges:
               1
     1  S   -0.337050
     2  S    1.139421
     3  N   -3.256238
     4  C   -1.001316
     5  C    2.932678
     6  C    3.424708
     7  C   -2.501689
     8  C   -3.003139
     9  H    1.114212
    10  H    0.736824
    11  H    0.751591
 Sum of Mulliken charges =   0.00000

 Dipole moment (field-independent basis, Debye):
    X=              1.2638    Y=             -0.4711    Z=             -0.0001  Tot=              1.3487

 Test job not archived.
 1\1\GINC-SE038\SP\RHF\Aug-CC-pVDZ\C5H3N1S2\OHZDE\06-Apr-2025\0\\#t hf
 aug-cc-pvdz iop(5/13=1,5/36=2,99/5=2) pseudo=read geom=check guess=(re
 ad,tcheck) scf=(maxcycle=1)\\title\\0,1\S,0,1.785669,1.142219,0.000055
 \S,0,1.219674,-1.735364,-0.000051\N,0,-0.725832,0.098897,-0.000008\C,0
 ,0.657309,-0.199787,-0.000005\C,0,-1.229803,1.357918,-0.000005\C,0,-1.
 636455,-0.913125,-0.000051\C,0,-1.716879,2.453129,-0.000088\C,0,-2.495
 073,-1.745684,0.000145\H,0,0.900322,2.162085,0.000064\H,0,-2.142646,3.
 424997,-0.000013\H,0,-3.236933,-2.503747,-0.000019\\Version=ES64L-G16R

 Normal termination of Gaussian 16 at Sun Apr  6 08:13:21 2025.
