 Gaussian 16, Revision C.01,

 ----------------------------------------------------------------------
 #t hf aug-cc-pvdz symm=none int=(grid=ultrafine) guess=(read,tcheck) s
 table=(opt,rrhf)
 ----------------------------------------------------------------------
 -----
 title
 -----
 Symbolic Z-matrix:
 Charge =  0 Multiplicity = 1

 SCF Done:  E(RHF) =  -237.931435308     A.U. after   10 cycles
 Normal termination of Gaussian 16 at Sun Apr  6 08:12:54 2025.
 Gaussian 16:  ES64L-G16RevC.01  3-Jul-2019

 ----------------------------------------------------------------------
 #t hf aug-cc-pvdz iop(5/13=1,5/36=2,99/5=2) pseudo=read geom=check gue
 ss=(read,tcheck) scf=(maxcycle=1)
 ----------------------------------------------------------------------
 -----
 title
 -----
 Structure from the checkpoint file:  "difluoromethane.chk"
 Charge =  0 Multiplicity = 1

                         Standard orientation:
 ---------------------------------------------------------------------
 Center     Atomic      Atomic             Coordinates (Angstroms)
 Number     Number       Type             X           Y           Z
 ---------------------------------------------------------------------
      1          9           0        0.000000    1.105295   -0.290293
      2          9           0       -0.000000   -1.105295   -0.290293
      3          6           0        0.000000   -0.000000    0.502981
      4          1           0        0.909963   -0.000000    1.103692
      5          1           0       -0.909963    0.000000    1.103692
 ---------------------------------------------------------------------

 SCF Done:  E(RHF) =  -238.798508398     A.U. after    2 cycles

 The electronic state is 1-A1.
 Alpha  occ. eigenvalues --  -29.28502 -29.28464 -11.50480  -1.27091  -0.78133
 Alpha  occ. eigenvalues --   -0.72643  -0.72153  -0.44333  -0.38460  -0.31248
 Alpha  occ. eigenvalues --   -0.29581  -0.26671  -0.22499
 Alpha virt. eigenvalues --    0.04129   0.05308   0.11026   0.11914   0.14623
 Alpha virt. eigenvalues --    0.18259   0.22983   0.23941   0.25206   0.26744
 Alpha virt. eigenvalues --    0.29294   0.31722   0.35297   0.35542   0.38125

 Mulliken charges:
               1
     1  F    0.382505
     2  F    0.382505
     3  C   -3.238730
     4  H    1.236859
     5  H    1.236859
 Sum of Mulliken charges =  -0.00000

 Dipole moment (field-independent basis, Debye):
    X=              0.0000    Y=             -0.0000    Z=             -1.1059  Tot=              1.1059

 Test job not archived.
 1\1\GINC-SE107\SP\RHF\Aug-CC-pVDZ\C1H2F2\OHZDE\06-Apr-2025\0\\#t hf au
 g-cc-pvdz iop(5/13=1,5/36=2,99/5=2) pseudo=read geom=check guess=(read
 ,tcheck) scf=(maxcycle=1)\\title\\0,1\F,0,0.,1.105295,-0.290293\F,0,0.
 ,-1.105295,-0.290293\C,0,0.,0.,0.502981\H,0,0.909963,0.,1.103692\H,0,-
 0.909963,0.,1.103692\\Version=ES64L-G16RevC.01\State=1-A1\HF=-238.7985
 084\RMSD=6.106e-02\Dipole=0.,0.,-0.4350762\Quadrupole=0.0146235,0.4019
 108,-0.4165343,0.,0.,0.\PG=C02V [C2(C1),SGV(F2),SGV'(H2)]\\@

 Normal termination of Gaussian 16 at Sun Apr  6 08:12:57 2025.
