 Gaussian 16, Revision C.01,

 ----------------------------------------------------------------------
 #t hf aug-cc-pvdz symm=none int=(grid=ultrafine) guess=(read,tcheck) s
 table=(opt,rrhf)
 ----------------------------------------------------------------------
 -----
 title
 -----
 Symbolic Z-matrix:
 Charge =  0 Multiplicity = 1

 SCF Done:  E(RHF) =  -274.493597187     A.U. after   11 cycles
 Normal termination of Gaussian 16 at Sun Apr  6 08:12:56 2025.
 Gaussian 16:  ES64L-G16RevC.01  3-Jul-2019

 ----------------------------------------------------------------------
 #t hf aug-cc-pvdz iop(5/13=1,5/36=2,99/5=2) pseudo=read geom=check gue
 ss=(read,tcheck) scf=(maxcycle=1)
 ----------------------------------------------------------------------
 -----
 title
 -----
 Structure from the checkpoint file:  "difluoroacetylene.chk"
 Charge =  0 Multiplicity = 1

                         Standard orientation:
 ---------------------------------------------------------------------
 Center     Atomic      Atomic             Coordinates (Angstroms)
 Number     Number       Type             X           Y           Z
 ---------------------------------------------------------------------
      1          6           0        0.000000    0.000000    0.591567
      2          6           0        0.000000    0.000000   -0.591567
      3          9           0        0.000000    0.000000    1.877004
      4          9           0        0.000000    0.000000   -1.877004
 ---------------------------------------------------------------------

 SCF Done:  E(RHF) =  -275.491950563     A.U. after    2 cycles

 The electronic state is 1-SGG.
 Alpha  occ. eigenvalues --  -29.36780 -29.36632 -11.49328 -11.47481  -1.23809
 Alpha  occ. eigenvalues --   -1.03113  -0.84425  -0.58700  -0.58700  -0.46277
 Alpha  occ. eigenvalues --   -0.45302  -0.42094  -0.42094  -0.22487  -0.22487
 Alpha virt. eigenvalues --    0.09432   0.09695   0.11879   0.11879   0.11921
 Alpha virt. eigenvalues --    0.11921   0.12852   0.21260   0.25939   0.25939
 Alpha virt. eigenvalues --    0.29783   0.30293   0.30293   0.30689   0.36046

 Mulliken charges:
               1
     1  C   -0.552596
     2  C   -0.552596
     3  F    0.552596
     4  F    0.552596
 Sum of Mulliken charges =  -0.00000

 Dipole moment (field-independent basis, Debye):
    X=             -0.0000    Y=             -0.0000    Z=             -0.0000  Tot=              0.0000

 Test job not archived.
 1\1\GINC-SE041\SP\RHF\Aug-CC-pVDZ\C2F2\OHZDE\06-Apr-2025\0\\#t hf aug-
 cc-pvdz iop(5/13=1,5/36=2,99/5=2) pseudo=read geom=check guess=(read,t
 check) scf=(maxcycle=1)\\title\\0,1\C,0,0.,0.,0.591567\C,0,0.,0.,-0.59
 1567\F,0,0.,0.,1.877004\F,0,0.,0.,-1.877004\\Version=ES64L-G16RevC.01\
 State=1-SGG\HF=-275.4919506\RMSD=2.835e-01\Dipole=0.,0.,0.\Quadrupole=
 -2.7296117,-2.7296117,5.4592234,0.,0.,0.\PG=D*H [C*(F1C1.C1F1)]\\@

 Normal termination of Gaussian 16 at Sun Apr  6 08:12:58 2025.
