 Gaussian 16, Revision C.01,

 ----------------------------------------------------------------------
 #t hf aug-cc-pvdz symm=none int=(grid=ultrafine) guess=(read,tcheck) s
 table=(opt,rrhf)
 ----------------------------------------------------------------------
 -----
 title
 -----
 Symbolic Z-matrix:
 Charge =  0 Multiplicity = 1

 SCF Done:  E(RHF) =  -519.485324621     A.U. after   14 cycles
 Normal termination of Gaussian 16 at Sun Apr  6 08:13:25 2025.
 Gaussian 16:  ES64L-G16RevC.01  3-Jul-2019

 ----------------------------------------------------------------------
 #t hf aug-cc-pvdz iop(5/13=1,5/36=2,99/5=2) pseudo=read geom=check gue
 ss=(read,tcheck) scf=(maxcycle=1)
 ----------------------------------------------------------------------
 -----
 title
 -----
 Structure from the checkpoint file:  "difluoroaminomethyl_acetate.chk"
 Charge =  0 Multiplicity = 1

                         Standard orientation:
 ---------------------------------------------------------------------
 Center     Atomic      Atomic             Coordinates (Angstroms)
 Number     Number       Type             X           Y           Z
 ---------------------------------------------------------------------
      1          9           0        2.734032   -0.044650    0.294765
      2          9           0        1.181883    0.979329   -0.865319
      3          8           0       -0.624931   -0.986352    0.049400
      4          8           0       -2.650125   -0.501223   -0.660014
      5          7           0        1.562213   -0.308934   -0.435957
      6          6           0        0.589833   -0.642433    0.639320
      7          6           0       -1.709038   -0.127949   -0.029755
      8          6           0       -1.645992    1.182508    0.711998
      9          1           0        0.536070    0.185170    1.344177
     10          1           0        1.001583   -1.530166    1.114473
     11          1           0       -0.840166    1.812068    0.338768
     12          1           0       -2.596239    1.685000    0.564689
     13          1           0       -1.488346    1.026194    1.780109
 ---------------------------------------------------------------------

 SCF Done:  E(RHF) =  -521.556577085     A.U. after    2 cycles

 The electronic state is 1-A.
 Alpha  occ. eigenvalues --  -29.31518 -29.31175 -21.11921 -21.06812 -15.91144
 Alpha  occ. eigenvalues --  -11.54418 -11.49233 -11.41920  -1.87405  -1.69426
 Alpha  occ. eigenvalues --   -1.53213  -1.13757  -1.04625  -0.86271  -0.80840
 Alpha  occ. eigenvalues --   -0.76045  -0.69864  -0.66105  -0.63671  -0.62734
 Alpha  occ. eigenvalues --   -0.57116  -0.52261  -0.51033  -0.46012  -0.44360
 Alpha  occ. eigenvalues --   -0.41710  -0.36494  -0.32516  -0.31609  -0.30720
 Alpha  occ. eigenvalues --   -0.24512  -0.22817
 Alpha virt. eigenvalues --    0.03241   0.04894   0.05251   0.06323   0.07477
 Alpha virt. eigenvalues --    0.09519   0.10324   0.11850   0.12654   0.13275
 Alpha virt. eigenvalues --    0.13467   0.14583   0.15793   0.16166   0.16470

 Mulliken charges:
               1
     1  F   -0.136994
     2  F   -0.086330
     3  O   -3.520095
     4  O   -3.062826
     5  N   -0.456625
     6  C   -0.982728
     7  C    5.224996
     8  C   -4.007408
     9  H    1.853643
    10  H    1.649271
    11  H    1.123717
    12  H    1.070305
    13  H    1.331074
 Sum of Mulliken charges =  -0.00000

 Dipole moment (field-independent basis, Debye):
    X=              1.8044    Y=              2.4905    Z=              1.6821  Tot=              3.5055

 Test job not archived.
 1\1\GINC-SE101\SP\RHF\Aug-CC-pVDZ\C3H5F2N1O2\OHZDE\06-Apr-2025\0\\#t h
 f aug-cc-pvdz iop(5/13=1,5/36=2,99/5=2) pseudo=read geom=check guess=(
 read,tcheck) scf=(maxcycle=1)\\title\\0,1\F,0,2.734032,-0.04465,0.2947
 65\F,0,1.181883,0.979329,-0.865319\O,0,-0.624931,-0.986352,0.0494\O,0,
 -2.650125,-0.501223,-0.660014\N,0,1.562213,-0.308934,-0.435957\C,0,0.5
 89833,-0.642433,0.63932\C,0,-1.709038,-0.127949,-0.029755\C,0,-1.64599
 2,1.182508,0.711998\H,0,0.53607,0.18517,1.344177\H,0,1.001583,-1.53016
 6,1.114473\H,0,-0.840166,1.812068,0.338768\H,0,-2.596239,1.685,0.56468

 Normal termination of Gaussian 16 at Sun Apr  6 08:13:31 2025.
