 Gaussian 16, Revision C.01,

 ----------------------------------------------------------------------
 #t hf aug-cc-pvdz symm=none int=(grid=ultrafine) guess=(read,tcheck) s
 table=(opt,rrhf)
 ----------------------------------------------------------------------
 -----
 title
 -----
 Symbolic Z-matrix:
 Charge =  0 Multiplicity = 1

 SCF Done:  E(RHF) =  -529.804777613     A.U. after   15 cycles
 Normal termination of Gaussian 16 at Sun Apr  6 08:14:25 2025.
 Gaussian 16:  ES64L-G16RevC.01  3-Jul-2019

 ----------------------------------------------------------------------
 #t hf aug-cc-pvdz iop(5/13=1,5/36=2,99/5=2) pseudo=read geom=check gue
 ss=(read,tcheck) scf=(maxcycle=1)
 ----------------------------------------------------------------------
 -----
 title
 -----
 Structure from the checkpoint file:  "difuro3-2-b-2--3--dfuran.chk"
 Charge =  0 Multiplicity = 1

                         Standard orientation:
 ---------------------------------------------------------------------
 Center     Atomic      Atomic             Coordinates (Angstroms)
 Number     Number       Type             X           Y           Z
 ---------------------------------------------------------------------
      1          6           0        0.000000    2.489253    0.832738
      2          6           0       -0.000000   -2.489253    0.832738
      3          6           0        0.000000    2.874720   -0.476647
      4          6           0       -0.000000   -2.874720   -0.476647
      5          6           0        0.000000    1.073622    0.774661
      6          6           0       -0.000000   -1.073622    0.774661
      7          6           0        0.000000    0.706341   -0.549010
      8          6           0       -0.000000   -0.706341   -0.549010
      9          8           0        0.000000    1.799140   -1.343744
     10          8           0       -0.000000   -1.799140   -1.343744
     11          8           0        0.000000   -0.000000    1.629823
     12          1           0        0.000000    3.143332    1.686236
     13          1           0       -0.000000   -3.143332    1.686236
     14          1           0        0.000000    3.840540   -0.946024
     15          1           0       -0.000000   -3.840540   -0.946024
 ---------------------------------------------------------------------

 SCF Done:  E(RHF) =  -532.121732442     A.U. after    2 cycles

 The electronic state is 1-A1.
 Alpha  occ. eigenvalues --  -21.13097 -21.12920 -21.12671 -11.52227 -11.49698
 Alpha  occ. eigenvalues --  -11.49023 -11.45426 -11.45304 -11.42937 -11.41270
 Alpha  occ. eigenvalues --  -11.38990  -1.89986  -1.83877  -1.80446  -1.20839
 Alpha  occ. eigenvalues --   -1.20360  -1.14898  -1.01988  -0.87322  -0.80917
 Alpha  occ. eigenvalues --   -0.80404  -0.77947  -0.67335  -0.66952  -0.65446
 Alpha  occ. eigenvalues --   -0.59425  -0.57083  -0.54358  -0.53617  -0.50907
 Alpha  occ. eigenvalues --   -0.49693  -0.49155  -0.42716  -0.40105  -0.38598
 Alpha  occ. eigenvalues --   -0.36002  -0.27569  -0.26790
 Alpha virt. eigenvalues --    0.03080   0.04387   0.05499   0.05998   0.08768
 Alpha virt. eigenvalues --    0.09560   0.10243   0.10558   0.10772   0.10920
 Alpha virt. eigenvalues --    0.12041   0.12592   0.13249   0.13589   0.14539

 Mulliken charges:
               1
     1  C   -1.499022
     2  C   -1.499022
     3  C   -0.048706
     4  C   -0.048706
     5  C    3.172708
     6  C    3.172708
     7  C    2.688851
     8  C    2.688851
     9  O   -4.746401
    10  O   -4.746401
    11  O   -5.042539
    12  H    1.421593
    13  H    1.421593
    14  H    1.532247
    15  H    1.532247
 Sum of Mulliken charges =  -0.00000

 Dipole moment (field-independent basis, Debye):
    X=             -0.0000    Y=             -0.0000    Z=              0.0477  Tot=              0.0477

 Test job not archived.
 1\1\GINC-SE150\SP\RHF\Aug-CC-pVDZ\C8H4O3\OHZDE\06-Apr-2025\0\\#t hf au
 g-cc-pvdz iop(5/13=1,5/36=2,99/5=2) pseudo=read geom=check guess=(read
 ,tcheck) scf=(maxcycle=1)\\title\\0,1\C,0,0.,2.489253,0.832738\C,0,0.,
 -2.489253,0.832738\C,0,0.,2.87472,-0.476647\C,0,0.,-2.87472,-0.476647\
 C,0,0.,1.073622,0.774661\C,0,0.,-1.073622,0.774661\C,0,0.,0.706341,-0.
 54901\C,0,0.,-0.706341,-0.54901\O,0,0.,1.79914,-1.343744\O,0,0.,-1.799
 14,-1.343744\O,0,0.,0.,1.629823\H,0,0.,3.143332,1.686236\H,0,0.,-3.143
 332,1.686236\H,0,0.,3.84054,-0.946024\H,0,0.,-3.84054,-0.946024\\Versi

 Normal termination of Gaussian 16 at Sun Apr  6 08:14:44 2025.
