 Gaussian 16, Revision C.01,

 ----------------------------------------------------------------------
 #t hf aug-cc-pvdz symm=none int=(grid=ultrafine) guess=(read,tcheck) s
 table=(opt,rrhf)
 ----------------------------------------------------------------------
 -----
 title
 -----
 Symbolic Z-matrix:
 Charge =  0 Multiplicity = 1

 SCF Done:  E(RHF) =  -627.400791801     A.U. after   14 cycles
 Normal termination of Gaussian 16 at Sun Apr  6 08:13:07 2025.
 Gaussian 16:  ES64L-G16RevC.01  3-Jul-2019

 ----------------------------------------------------------------------
 #t hf aug-cc-pvdz iop(5/13=1,5/36=2,99/5=2) pseudo=read geom=check gue
 ss=(read,tcheck) scf=(maxcycle=1)
 ----------------------------------------------------------------------
 -----
 title
 -----
 Structure from the checkpoint file:  "dihydro-23H-thiophenone.chk"
 Charge =  0 Multiplicity = 1

                         Standard orientation:
 ---------------------------------------------------------------------
 Center     Atomic      Atomic             Coordinates (Angstroms)
 Number     Number       Type             X           Y           Z
 ---------------------------------------------------------------------
      1          6           0       -0.123642    1.418300    0.182281
      2          1           0       -0.576061    2.246214   -0.360785
      3          1           0       -0.140157    1.675948    1.245871
      4          6           0        1.285993    1.069039   -0.279367
      5          1           0        2.029750    1.761665    0.115463
      6          1           0        1.337092    1.113708   -1.368217
      7          6           0        1.580762   -0.362867    0.182655
      8          1           0        1.863237   -0.398574    1.234120
      9          1           0        2.363223   -0.838008   -0.403468
     10          6           0       -1.005756    0.186332    0.018862
     11          8           0       -2.202205    0.172101   -0.051174
     12         16           0        0.019776   -1.300161   -0.042511
 ---------------------------------------------------------------------

 SCF Done:  E(RHF) =  -628.691288961     A.U. after    2 cycles

 The electronic state is 1-A.
 Alpha  occ. eigenvalues --  -75.69390 -21.06305 -13.12695 -13.12119 -13.02638
 Alpha  occ. eigenvalues --  -11.50733 -11.45061 -11.42426 -11.38819  -8.03641
 Alpha  occ. eigenvalues --   -1.72079  -1.32222  -1.10797  -1.04111  -0.86822
 Alpha  occ. eigenvalues --   -0.75118  -0.68320  -0.64256  -0.60370  -0.54988
 Alpha  occ. eigenvalues --   -0.52075  -0.50163  -0.48187  -0.44724  -0.38826
 Alpha  occ. eigenvalues --   -0.26164  -0.24629
 Alpha virt. eigenvalues --    0.02823   0.04743   0.05107   0.05437   0.06016
 Alpha virt. eigenvalues --    0.06320   0.08281   0.10062   0.12155   0.12465
 Alpha virt. eigenvalues --    0.12996   0.13641   0.14357   0.14843   0.15171

 Mulliken charges:
               1
     1  C   -3.324222
     2  H    1.344972
     3  H    1.451738
     4  C   -2.382697
     5  H    1.259218
     6  H    1.377352
     7  C   -3.496189
     8  H    1.456358
     9  H    1.383106
    10  C    2.638857
    11  O   -2.979915
    12  S    1.271423
 Sum of Mulliken charges =   0.00000

 Dipole moment (field-independent basis, Debye):
    X=              2.2406    Y=             -0.4350    Z=              0.0520  Tot=              2.2830

 Test job not archived.
 1\1\GINC-SE155\SP\RHF\Aug-CC-pVDZ\C4H6O1S1\OHZDE\06-Apr-2025\0\\#t hf
 aug-cc-pvdz iop(5/13=1,5/36=2,99/5=2) pseudo=read geom=check guess=(re
 ad,tcheck) scf=(maxcycle=1)\\title\\0,1\C,0,-0.123642,1.4183,0.182281\
 H,0,-0.576061,2.246214,-0.360785\H,0,-0.140157,1.675948,1.245871\C,0,1
 .285993,1.069039,-0.279367\H,0,2.02975,1.761665,0.115463\H,0,1.337092,
 1.113708,-1.368217\C,0,1.580762,-0.362867,0.182655\H,0,1.863237,-0.398
 574,1.23412\H,0,2.363223,-0.838008,-0.403468\C,0,-1.005756,0.186332,0.
 018862\O,0,-2.202205,0.172101,-0.051174\S,0,0.019776,-1.300161,-0.0425

 Normal termination of Gaussian 16 at Sun Apr  6 08:13:16 2025.
