 Gaussian 16, Revision C.01,

 ----------------------------------------------------------------------
 #t hf aug-cc-pvdz symm=none int=(grid=ultrafine) guess=(read,tcheck) s
 table=(opt,rrhf)
 ----------------------------------------------------------------------
 -----
 title
 -----
 Symbolic Z-matrix:
 Charge =  0 Multiplicity = 1

 SCF Done:  E(RHF) =  -627.390807408     A.U. after   15 cycles
 Normal termination of Gaussian 16 at Sun Apr  6 08:13:07 2025.
 Gaussian 16:  ES64L-G16RevC.01  3-Jul-2019

 ----------------------------------------------------------------------
 #t hf aug-cc-pvdz iop(5/13=1,5/36=2,99/5=2) pseudo=read geom=check gue
 ss=(read,tcheck) scf=(maxcycle=1)
 ----------------------------------------------------------------------
 -----
 title
 -----
 Structure from the checkpoint file:  "dihydro-32H-thiophenone.chk"
 Charge =  0 Multiplicity = 1

                         Standard orientation:
 ---------------------------------------------------------------------
 Center     Atomic      Atomic             Coordinates (Angstroms)
 Number     Number       Type             X           Y           Z
 ---------------------------------------------------------------------
      1          6           0       -1.173933   -0.086028   -0.010331
      2          6           0       -0.518527    1.277829   -0.187572
      3          1           0       -1.108936    2.034769    0.327755
      4          1           0       -0.554216    1.502662   -1.257211
      5          6           0        0.925632    1.196028    0.287908
      6          1           0        1.002801    1.342170    1.364887
      7          1           0        1.581138    1.908061   -0.205713
      8          6           0       -0.148546   -1.207971    0.168542
      9         16           0        1.503686   -0.500212   -0.148246
     10          1           0       -0.361636   -2.019932   -0.522700
     11          8           0       -2.361719   -0.281087   -0.009054
     12          1           0       -0.232120   -1.594793    1.186057
 ---------------------------------------------------------------------

 SCF Done:  E(RHF) =  -628.676575054     A.U. after    2 cycles

 The electronic state is 1-A.
 Alpha  occ. eigenvalues --  -75.68722 -21.06356 -13.12849 -13.11264 -13.02362
 Alpha  occ. eigenvalues --  -11.51119 -11.44210 -11.41565 -11.39751  -8.02772
 Alpha  occ. eigenvalues --   -1.71993  -1.31277  -1.10541  -1.03490  -0.88189
 Alpha  occ. eigenvalues --   -0.77184  -0.67398  -0.62469  -0.61494  -0.56655
 Alpha  occ. eigenvalues --   -0.54088  -0.50258  -0.45438  -0.41612  -0.38462
 Alpha  occ. eigenvalues --   -0.28622  -0.23378
 Alpha virt. eigenvalues --    0.03006   0.04207   0.05239   0.05793   0.06316
 Alpha virt. eigenvalues --    0.06819   0.07562   0.09720   0.12159   0.12688
 Alpha virt. eigenvalues --    0.13074   0.13809   0.14251   0.15129   0.15406

 Mulliken charges:
               1
     1  C    4.472663
     2  C   -3.156344
     3  H    1.329769
     4  H    1.385433
     5  C   -3.544561
     6  H    1.436955
     7  H    1.370416
     8  C   -4.160404
     9  S    1.313753
    10  H    1.481682
    11  O   -3.331282
    12  H    1.401921
 Sum of Mulliken charges =  -0.00000

 Dipole moment (field-independent basis, Debye):
    X=              1.7418    Y=              0.3820    Z=             -0.0150  Tot=              1.7832

 Test job not archived.
 1\1\GINC-SE165\SP\RHF\Aug-CC-pVDZ\C4H6O1S1\OHZDE\06-Apr-2025\0\\#t hf
 aug-cc-pvdz iop(5/13=1,5/36=2,99/5=2) pseudo=read geom=check guess=(re
 ad,tcheck) scf=(maxcycle=1)\\title\\0,1\C,0,-1.173933,-0.086028,-0.010
 331\C,0,-0.518527,1.277829,-0.187572\H,0,-1.108936,2.034769,0.327755\H
 ,0,-0.554216,1.502662,-1.257211\C,0,0.925632,1.196028,0.287908\H,0,1.0
 02801,1.34217,1.364887\H,0,1.581138,1.908061,-0.205713\C,0,-0.148546,-
 1.207971,0.168542\S,0,1.503686,-0.500212,-0.148246\H,0,-0.361635,-2.01
 9932,-0.5227\O,0,-2.361719,-0.281087,-0.009054\H,0,-0.232119,-1.594793

 Normal termination of Gaussian 16 at Sun Apr  6 08:13:16 2025.
