 Gaussian 16, Revision C.01,

 ----------------------------------------------------------------------
 #t hf aug-cc-pvdz symm=none int=(grid=ultrafine) guess=(read,tcheck) s
 table=(opt,rrhf)
 ----------------------------------------------------------------------
 -----
 title
 -----
 Symbolic Z-matrix:
 Charge =  0 Multiplicity = 1

 SCF Done:  E(RHF) =  -860.669715286     A.U. after   13 cycles
 Normal termination of Gaussian 16 at Sun Apr  6 08:18:36 2025.
 Gaussian 16:  ES64L-G16RevC.01  3-Jul-2019

 ----------------------------------------------------------------------
 #t hf aug-cc-pvdz iop(5/13=1,5/36=2,99/5=2) pseudo=read geom=check gue
 ss=(read,tcheck) scf=(maxcycle=1)
 ----------------------------------------------------------------------
 -----
 title
 -----
 Structure from the checkpoint file:  "diisobutyl_sulfone.chk"
 Charge =  0 Multiplicity = 1

                         Standard orientation:
 ---------------------------------------------------------------------
 Center     Atomic      Atomic             Coordinates (Angstroms)
 Number     Number       Type             X           Y           Z
 ---------------------------------------------------------------------
      1          6           0       -1.420834    0.793414   -0.007311
      2         16           0       -0.000000   -0.346947   -0.000010
      3          6           0       -2.762715    0.095086    0.252798
      4          6           0        1.420834    0.793414    0.007287
      5          8           0       -0.034424   -1.089441    1.260830
      6          8           0        0.034424   -1.089442   -1.260849
      7          6           0       -3.806859    1.145917    0.648578
      8          6           0       -3.239642   -0.730464   -0.945570
      9          6           0        2.762718    0.095073   -0.252778
     10          6           0        3.806866    1.145882   -0.648603
     11          6           0        3.239634   -0.730417    0.945635
     12          1           0       -1.201428    1.513412    0.781999
     13          1           0       -1.403435    1.302515   -0.971723
     14          1           0       -2.618202   -0.575090    1.103169
     15          1           0        1.201441    1.513390   -0.782045
     16          1           0        1.403420    1.302541    0.971685
     17          1           0       -4.763693    0.667778    0.861289
     18          1           0       -3.504390    1.699334    1.539005
     19          1           0       -3.969663    1.865389   -0.157619
     20          1           0       -3.398705   -0.091329   -1.817765
     21          1           0       -2.520753   -1.498674   -1.222382
     22          1           0       -4.188123   -1.215944   -0.712598
     23          1           0        2.618210   -0.575147   -1.103115
     24          1           0        4.763704    0.667732   -0.861274
     25          1           0        3.504408    1.699247   -1.539066
     26          1           0        3.969659    1.865400    0.157555
     27          1           0        3.398692   -0.091241    1.817801
     28          1           0        2.520742   -1.498613    1.222481
     29          1           0        4.188116   -1.215910    0.712694
 ---------------------------------------------------------------------

 SCF Done:  E(RHF) =  -863.205784962     A.U. after    2 cycles

 The electronic state is 1-A.
 Alpha  occ. eigenvalues --  -75.86822 -21.02827 -21.02765 -13.48316 -13.40733
 Alpha  occ. eigenvalues --  -13.36067 -11.46564 -11.44854 -11.42019 -11.41785
 Alpha  occ. eigenvalues --  -11.38975 -11.38902 -11.36321 -11.36040  -8.21737
 Alpha  occ. eigenvalues --   -1.80702  -1.63243  -1.29270  -1.26976  -1.11475
 Alpha  occ. eigenvalues --   -1.03796  -1.00714  -1.00620  -0.89040  -0.82566
 Alpha  occ. eigenvalues --   -0.81283  -0.67497  -0.66409  -0.65843  -0.61779
 Alpha  occ. eigenvalues --   -0.61320  -0.59899  -0.58178  -0.55411  -0.54093
 Alpha  occ. eigenvalues --   -0.53723  -0.53020  -0.52526  -0.49324  -0.46728
 Alpha  occ. eigenvalues --   -0.46548  -0.45637  -0.45093  -0.44123  -0.41887
 Alpha  occ. eigenvalues --   -0.37329  -0.35841  -0.33375  -0.32951
 Alpha virt. eigenvalues --    0.03464   0.04037   0.04534   0.05007   0.05626
 Alpha virt. eigenvalues --    0.05647   0.05940   0.06251   0.06293   0.06772
 Alpha virt. eigenvalues --    0.07200   0.07274   0.07554   0.07628   0.09252

 Mulliken charges:
               1
     1  C   -4.099076
     2  S    6.773362
     3  C   -1.045793
     4  C   -4.099071
     5  O   -2.627938
     6  O   -2.627946
     7  C   -4.457170
     8  C   -4.046703
     9  C   -1.045826
    10  C   -4.457158
    11  C   -4.046683
    12  H    1.693543
    13  H    1.555732
    14  H    1.917724
    15  H    1.693550
    16  H    1.555740
    17  H    1.247057
    18  H    1.270395
    19  H    1.272678
    20  H    1.317726
    21  H    1.336840
    22  H    1.278302
    23  H    1.917715
    24  H    1.247061
    25  H    1.270391
    26  H    1.272677
    27  H    1.317724
    28  H    1.336847
    29  H    1.278299
 Sum of Mulliken charges =  -0.00000

 Dipole moment (field-independent basis, Debye):
    X=             -0.0000    Y=              1.6914    Z=              0.0000  Tot=              1.6914

 Test job not archived.
 1\1\GINC-SE177\SP\RHF\Aug-CC-pVDZ\C8H18O2S1\OHZDE\06-Apr-2025\0\\#t hf
  aug-cc-pvdz iop(5/13=1,5/36=2,99/5=2) pseudo=read geom=check guess=(r
 ead,tcheck) scf=(maxcycle=1)\\title\\0,1\C,0,-1.420834,0.793414,-0.007
 311\S,0,0.,-0.346947,-0.00001\C,0,-2.762715,0.095086,0.252798\C,0,1.42
 0834,0.793414,0.007287\O,0,-0.034424,-1.089441,1.26083\O,0,0.034424,-1
 .089442,-1.260849\C,0,-3.806859,1.145917,0.648578\C,0,-3.239642,-0.730
 464,-0.94557\C,0,2.762718,0.095073,-0.252778\C,0,3.806866,1.145882,-0.
 648603\C,0,3.239634,-0.730417,0.945635\H,0,-1.201428,1.513412,0.781999

 Normal termination of Gaussian 16 at Sun Apr  6 08:19:26 2025.
