 Gaussian 16, Revision C.01,

 ----------------------------------------------------------------------
 #t hf aug-cc-pvdz symm=none int=(grid=ultrafine) guess=(read,tcheck) s
 table=(opt,rrhf)
 ----------------------------------------------------------------------
 -----
 title
 -----
 Symbolic Z-matrix:
 Charge =  0 Multiplicity = 1

 SCF Done:  E(RHF) =  -290.420770279     A.U. after   12 cycles

 1\1\GINC-SE200\Stability\RHF\Aug-CC-pVDZ\C6H15N1\OHZDE\06-Apr-2025\0\\
 #t hf aug-cc-pvdz symm=none int=(grid=ultrafine) guess=(read,tcheck) s
 table=(opt,rrhf)\\title\\0,1\C,0,-1.682099,0.843342,1.108925\C,0,-2.32
 9448,-0.758201,-0.729885\C,0,1.677526,1.04013,-0.932617\C,0,2.330696,-
 0.886661,0.546317\C,0,-1.240487,0.173905,-0.201334\C,0,1.245402,0.1379
 72,0.223722\N,0,0.012917,-0.583301,-0.108885\H,0,-2.599081,1.417126,0.
 962026\H,0,-1.878405,0.091069,1.877487\H,0,-0.925163,1.527203,1.49307\
 H,0,-2.033698,-1.190788,-1.684763\H,0,-3.27226,-0.225869,-0.861804\H,0

 Normal termination of Gaussian 16 at Sun Apr  6 08:14:12 2025.
 Gaussian 16:  ES64L-G16RevC.01  3-Jul-2019

 ----------------------------------------------------------------------
 #t hf aug-cc-pvdz iop(5/13=1,5/36=2,99/5=2) pseudo=read geom=check gue
 ss=(read,tcheck) scf=(maxcycle=1)
 ----------------------------------------------------------------------
 -----
 title
 -----
 Structure from the checkpoint file:  "diisopropylamine.chk"
 Charge =  0 Multiplicity = 1

                         Standard orientation:
 ---------------------------------------------------------------------
 Center     Atomic      Atomic             Coordinates (Angstroms)
 Number     Number       Type             X           Y           Z
 ---------------------------------------------------------------------
      1          6           0       -1.682099    0.843342    1.108925
      2          6           0       -2.329448   -0.758201   -0.729885
      3          6           0        1.677526    1.040130   -0.932617
      4          6           0        2.330696   -0.886661    0.546317
      5          6           0       -1.240487    0.173905   -0.201334
      6          6           0        1.245402    0.137972    0.223722
      7          7           0        0.012917   -0.583301   -0.108885
      8          1           0       -2.599081    1.417126    0.962026
      9          1           0       -1.878405    0.091069    1.877487
     10          1           0       -0.925163    1.527203    1.493070
     11          1           0       -2.033698   -1.190788   -1.684763
     12          1           0       -3.272260   -0.225870   -0.861804
     13          1           0       -2.508153   -1.577776   -0.028379
     14          1           0        2.612240    1.547255   -0.688563
     15          1           0        1.827598    0.448053   -1.836881
     16          1           0        0.936364    1.809119   -1.150478
     17          1           0        2.039406   -1.518516    1.388533
     18          1           0        3.264720   -0.390727    0.811648
     19          1           0        2.513905   -1.532110   -0.314411
     20          1           0       -1.083299    0.957612   -0.946157
     21          1           0        1.117881    0.773535    1.113812
     22          1           0       -0.112018   -1.354992    0.536287
 ---------------------------------------------------------------------

 SCF Done:  E(RHF) =  -291.932279206     A.U. after    2 cycles

 The electronic state is 1-A.
 Alpha  occ. eigenvalues --  -15.69849 -11.42591 -11.41548 -11.38457 -11.37996
 Alpha  occ. eigenvalues --  -11.34722 -11.34269  -1.40135  -1.19515  -1.07440
 Alpha  occ. eigenvalues --   -1.00104  -0.99758  -0.84621  -0.80109  -0.66790
 Alpha  occ. eigenvalues --   -0.62517  -0.61227  -0.59140  -0.55855  -0.54831
 Alpha  occ. eigenvalues --   -0.53163  -0.52947  -0.50172  -0.47526  -0.46928
 Alpha  occ. eigenvalues --   -0.45277  -0.43123  -0.41629  -0.31026
 Alpha virt. eigenvalues --    0.04186   0.05214   0.05488   0.05605   0.05698
 Alpha virt. eigenvalues --    0.05850   0.06222   0.06379   0.06669   0.07613
 Alpha virt. eigenvalues --    0.08057   0.08465   0.08796   0.09404   0.11389

 Mulliken charges:
               1
     1  C   -3.780916
     2  C   -4.056025
     3  C   -3.478216
     4  C   -3.921928
     5  C   -0.859381
     6  C   -1.088574
     7  N   -3.095060
     8  H    1.217925
     9  H    1.307052
    10  H    1.364816
    11  H    1.320501
    12  H    1.171933
    13  H    1.357766
    14  H    1.229605
    15  H    1.351137
    16  H    1.340464
    17  H    1.340815
    18  H    1.208973
    19  H    1.278011
    20  H    2.118486
    21  H    2.059891
    22  H    0.612726
 Sum of Mulliken charges =   0.00000

 Dipole moment (field-independent basis, Debye):
    X=             -0.1148    Y=              0.2281    Z=              0.5590  Tot=              0.6145

 Test job not archived.
 1\1\GINC-SE200\SP\RHF\Aug-CC-pVDZ\C6H15N1\OHZDE\06-Apr-2025\0\\#t hf a
 ug-cc-pvdz iop(5/13=1,5/36=2,99/5=2) pseudo=read geom=check guess=(rea
 d,tcheck) scf=(maxcycle=1)\\title\\0,1\C,0,-1.682099,0.843342,1.108925
 \C,0,-2.329448,-0.758201,-0.729885\C,0,1.677526,1.04013,-0.932617\C,0,
 2.330696,-0.886661,0.546317\C,0,-1.240487,0.173905,-0.201334\C,0,1.245
 402,0.137972,0.223722\N,0,0.012917,-0.583301,-0.108885\H,0,-2.599081,1
 .417126,0.962026\H,0,-1.878405,0.091069,1.877487\H,0,-0.925163,1.52720
 3,1.49307\H,0,-2.033698,-1.190788,-1.684763\H,0,-3.27226,-0.225869,-0.

 Normal termination of Gaussian 16 at Sun Apr  6 08:14:48 2025.
