 Gaussian 16, Revision C.01,

 ----------------------------------------------------------------------
 #t hf aug-cc-pvdz symm=none int=(grid=ultrafine) guess=(read,tcheck) s
 table=(opt,rrhf)
 ----------------------------------------------------------------------
 -----
 title
 -----
 Symbolic Z-matrix:
 Charge =  0 Multiplicity = 1

 SCF Done:  E(RHF) =  -134.259959328     A.U. after   11 cycles
 Normal termination of Gaussian 16 at Sun Apr  6 08:12:56 2025.
 Gaussian 16:  ES64L-G16RevC.01  3-Jul-2019

 ----------------------------------------------------------------------
 #t hf aug-cc-pvdz iop(5/13=1,5/36=2,99/5=2) pseudo=read geom=check gue
 ss=(read,tcheck) scf=(maxcycle=1)
 ----------------------------------------------------------------------
 -----
 title
 -----
 Structure from the checkpoint file:  "dimethylamine.chk"
 Charge =  0 Multiplicity = 1

                         Standard orientation:
 ---------------------------------------------------------------------
 Center     Atomic      Atomic             Coordinates (Angstroms)
 Number     Number       Type             X           Y           Z
 ---------------------------------------------------------------------
      1          6           0        0.026505   -0.221412    1.216049
      2          6           0        0.026505   -0.221412   -1.216049
      3          7           0        0.026505    0.577608   -0.000000
      4          1           0       -0.798102   -0.949693    1.270491
      5          1           0       -0.034174    0.431778    2.086295
      6          1           0        0.962937   -0.778731    1.284180
      7          1           0       -0.034174    0.431778   -2.086295
      8          1           0       -0.798102   -0.949693   -1.270491
      9          1           0        0.962937   -0.778731   -1.284180
     10          1           0       -0.764915    1.206982    0.000000
 ---------------------------------------------------------------------

 SCF Done:  E(RHF) =  -134.945420463     A.U. after    2 cycles

 The electronic state is 1-A'.
 Alpha  occ. eigenvalues --  -15.71076 -11.37559 -11.37051  -1.36621  -1.02003
 Alpha  occ. eigenvalues --   -0.89135  -0.65393  -0.60947  -0.57129  -0.53392
 Alpha  occ. eigenvalues --   -0.49101  -0.48437  -0.32240
 Alpha virt. eigenvalues --    0.03815   0.05302   0.05893   0.06212   0.07098
 Alpha virt. eigenvalues --    0.07440   0.07762   0.12201   0.13680   0.14823
 Alpha virt. eigenvalues --    0.15471   0.17307   0.17674   0.17965   0.20106

 Mulliken charges:
               1
     1  C   -3.121314
     2  C   -3.121314
     3  N   -2.179736
     4  H    1.267661
     5  H    1.267680
     6  H    1.353239
     7  H    1.267680
     8  H    1.267661
     9  H    1.353239
    10  H    0.645204
 Sum of Mulliken charges =  -0.00000

 Dipole moment (field-independent basis, Debye):
    X=             -0.7407    Y=             -0.1490    Z=             -0.0000  Tot=              0.7555

 Test job not archived.
 1\1\GINC-SE046\SP\RHF\Aug-CC-pVDZ\C2H7N1\OHZDE\06-Apr-2025\0\\#t hf au
 g-cc-pvdz iop(5/13=1,5/36=2,99/5=2) pseudo=read geom=check guess=(read
 ,tcheck) scf=(maxcycle=1)\\title\\0,1\C,0,0.026505,-0.221412,1.216049\
 C,0,0.026505,-0.221412,-1.216049\N,0,0.026505,0.577608,0.\H,0,-0.79810
 2,-0.949693,1.270491\H,0,-0.034174,0.431778,2.086295\H,0,0.962937,-0.7
 78731,1.28418\H,0,-0.034174,0.431778,-2.086295\H,0,-0.798102,-0.949693
 ,-1.270491\H,0,0.962937,-0.778731,-1.28418\H,0,-0.764915,1.206982,0.\\
 Version=ES64L-G16RevC.01\State=1-A'\HF=-134.9454205\RMSD=5.540e-02\Dip

 Normal termination of Gaussian 16 at Sun Apr  6 08:12:58 2025.
