 Gaussian 16, Revision C.01,

 ----------------------------------------------------------------------
 #t hf aug-cc-pvdz symm=none int=(grid=ultrafine) guess=(read,tcheck) s
 table=(opt,rrhf)
 ----------------------------------------------------------------------
 -----
 title
 -----
 Symbolic Z-matrix:
 Charge =  0 Multiplicity = 1

 SCF Done:  E(RHF) =  -701.299579148     A.U. after   13 cycles
 Normal termination of Gaussian 16 at Sun Apr  6 08:13:06 2025.
 Gaussian 16:  ES64L-G16RevC.01  3-Jul-2019

 ----------------------------------------------------------------------
 #t hf aug-cc-pvdz iop(5/13=1,5/36=2,99/5=2) pseudo=read geom=check gue
 ss=(read,tcheck) scf=(maxcycle=1)
 ----------------------------------------------------------------------
 -----
 title
 -----
 Structure from the checkpoint file:  "dimethoxysulfoxide.chk"
 Charge =  0 Multiplicity = 1

                         Standard orientation:
 ---------------------------------------------------------------------
 Center     Atomic      Atomic             Coordinates (Angstroms)
 Number     Number       Type             X           Y           Z
 ---------------------------------------------------------------------
      1         16           0        0.000000   -0.857107   -0.318004
      2          8           0        0.000000   -1.053613    1.137761
      3          8           0        1.279962    0.121780   -0.679264
      4          8           0       -1.279962    0.121780   -0.679265
      5          6           0        1.785232    1.045978    0.304035
      6          6           0       -1.785232    1.045978    0.304035
      7          1           0        2.837899    1.182815    0.071216
      8          1           0       -2.837900    1.182815    0.071215
      9          1           0        1.263493    1.999548    0.224505
     10          1           0        1.675420    0.638837    1.307173
     11          1           0       -1.675421    0.638836    1.307172
     12          1           0       -1.263493    1.999547    0.224506
 ---------------------------------------------------------------------

 SCF Done:  E(RHF) =  -702.881109849     A.U. after    2 cycles

 The electronic state is 1-A.
 Alpha  occ. eigenvalues --  -75.86881 -21.08582 -21.08541 -21.04518 -13.42714
 Alpha  occ. eigenvalues --  -13.35216 -13.26760 -11.42510 -11.42097  -8.20727
 Alpha  occ. eigenvalues --   -1.86899  -1.74833  -1.67846  -1.08963  -1.00078
 Alpha  occ. eigenvalues --   -0.88688  -0.66382  -0.65932  -0.63875  -0.61530
 Alpha  occ. eigenvalues --   -0.57222  -0.55554  -0.51279  -0.46393  -0.41614
 Alpha  occ. eigenvalues --   -0.36232  -0.35008  -0.33446  -0.31045
 Alpha virt. eigenvalues --    0.02863   0.04383   0.05931   0.06427   0.07486
 Alpha virt. eigenvalues --    0.07877   0.07921   0.10141   0.10846   0.11253
 Alpha virt. eigenvalues --    0.13614   0.14203   0.15688   0.16076   0.17420

 Mulliken charges:
               1
     1  S    4.670535
     2  O   -2.227219
     3  O   -2.482951
     4  O   -2.482949
     5  C   -2.853372
     6  C   -2.853374
     7  H    1.165483
     8  H    1.165483
     9  H    1.439348
    10  H    1.509834
    11  H    1.509834
    12  H    1.439349
 Sum of Mulliken charges =  -0.00000

 Dipole moment (field-independent basis, Debye):
    X=              0.0000    Y=              1.2835    Z=             -0.4083  Tot=              1.3469

 Test job not archived.
 1\1\GINC-SE222\SP\RHF\Aug-CC-pVDZ\C2H6O3S1\OHZDE\06-Apr-2025\0\\#t hf
 aug-cc-pvdz iop(5/13=1,5/36=2,99/5=2) pseudo=read geom=check guess=(re
 ad,tcheck) scf=(maxcycle=1)\\title\\0,1\S,0,0.,-0.857107,-0.318004\O,0
 ,0.,-1.053613,1.137761\O,0,1.279962,0.12178,-0.679264\O,0,-1.279962,0.
 12178,-0.679265\C,0,1.785232,1.045978,0.304035\C,0,-1.785232,1.045978,
 0.304035\H,0,2.837899,1.182815,0.071216\H,0,-2.8379,1.182815,0.071215\
 H,0,1.263493,1.999548,0.224505\H,0,1.67542,0.638837,1.307173\H,0,-1.67
 5421,0.638836,1.307172\H,0,-1.263493,1.999547,0.224506\\Version=ES64L-

 Normal termination of Gaussian 16 at Sun Apr  6 08:13:16 2025.
