 Gaussian 16, Revision C.01,

 ----------------------------------------------------------------------
 #t hf aug-cc-pvdz symm=none int=(grid=ultrafine) guess=(read,tcheck) s
 table=(opt,rrhf)
 ----------------------------------------------------------------------
 -----
 title
 -----
 Symbolic Z-matrix:
 Charge =  0 Multiplicity = 1

 SCF Done:  E(RHF) =  -1271.84020806     A.U. after   13 cycles
 Normal termination of Gaussian 16 at Sun Apr  6 08:13:04 2025.
 Gaussian 16:  ES64L-G16RevC.01  3-Jul-2019

 ----------------------------------------------------------------------
 #t hf aug-cc-pvdz iop(5/13=1,5/36=2,99/5=2) pseudo=read geom=check gue
 ss=(read,tcheck) scf=(maxcycle=1)
 ----------------------------------------------------------------------
 -----
 title
 -----
 Structure from the checkpoint file:  "dimethyl_trisulfide.chk"
 Charge =  0 Multiplicity = 1

                         Standard orientation:
 ---------------------------------------------------------------------
 Center     Atomic      Atomic             Coordinates (Angstroms)
 Number     Number       Type             X           Y           Z
 ---------------------------------------------------------------------
      1         16           0        0.000000    0.000000    1.056821
      2         16           0        0.000000    1.684277   -0.162632
      3         16           0       -0.000000   -1.684277   -0.162632
      4          6           0        1.760232    1.865036   -0.616415
      5          6           0       -1.760232   -1.865036   -0.616415
      6          1           0        1.824265    2.768057   -1.223005
      7          1           0       -1.824265   -2.768057   -1.223005
      8          1           0        2.373978    1.976752    0.273229
      9          1           0        2.086891    1.011010   -1.204189
     10          1           0       -2.373978   -1.976752    0.273229
     11          1           0       -2.086891   -1.011010   -1.204189
 ---------------------------------------------------------------------

 SCF Done:  E(RHF) =  -1272.93957511     A.U. after    2 cycles

 The electronic state is 1-A.
 Alpha  occ. eigenvalues --  -75.72509 -75.70585 -75.70555 -13.15843 -13.11704
 Alpha  occ. eigenvalues --  -13.10530 -13.08997 -13.08373 -13.06648 -13.05968
 Alpha  occ. eigenvalues --  -13.03674 -13.02568 -11.40185 -11.39988  -8.06312
 Alpha  occ. eigenvalues --   -8.04625  -8.04374  -1.27895  -1.18221  -1.06128
 Alpha  occ. eigenvalues --   -0.94651  -0.86273  -0.60115  -0.59528  -0.59320
 Alpha  occ. eigenvalues --   -0.59270  -0.48594  -0.43519  -0.39076  -0.38419
 Alpha  occ. eigenvalues --   -0.26007  -0.23439  -0.22861
 Alpha virt. eigenvalues --    0.02571   0.02751   0.04526   0.04569   0.07233
 Alpha virt. eigenvalues --    0.07377   0.08383   0.08853   0.09631   0.12595
 Alpha virt. eigenvalues --    0.13568   0.14173   0.14473   0.14534   0.15264

 Mulliken charges:
               1
     1  S   -0.305345
     2  S    0.386121
     3  S    0.386121
     4  C   -4.557043
     5  C   -4.557043
     6  H    1.369679
     7  H    1.369679
     8  H    1.470544
     9  H    1.483372
    10  H    1.470544
    11  H    1.483372
 Sum of Mulliken charges =  -0.00000

 Dipole moment (field-independent basis, Debye):
    X=              0.0000    Y=             -0.0000    Z=             -0.0176  Tot=              0.0176

 Test job not archived.
 1\1\GINC-SE010\SP\RHF\Aug-CC-pVDZ\C2H6S3\OHZDE\06-Apr-2025\0\\#t hf au
 g-cc-pvdz iop(5/13=1,5/36=2,99/5=2) pseudo=read geom=check guess=(read
 ,tcheck) scf=(maxcycle=1)\\title\\0,1\S,0,0.,0.,1.056821\S,0,0.,1.6842
 77,-0.162632\S,0,0.,-1.684277,-0.162632\C,0,1.760232,1.865036,-0.61641
 5\C,0,-1.760232,-1.865036,-0.616415\H,0,1.824265,2.768057,-1.223005\H,
 0,-1.824265,-2.768057,-1.223005\H,0,2.373978,1.976752,0.273229\H,0,2.0
 86891,1.01101,-1.204189\H,0,-2.373978,-1.976752,0.273229\H,0,-2.086891
 ,-1.01101,-1.204189\\Version=ES64L-G16RevC.01\State=1-A\HF=-1272.93957

 Normal termination of Gaussian 16 at Sun Apr  6 08:13:15 2025.
