 Gaussian 16, Revision C.01,

 ----------------------------------------------------------------------
 #t hf aug-cc-pvdz symm=none int=(grid=ultrafine) guess=(read,tcheck) s
 table=(opt,rrhf)
 ----------------------------------------------------------------------
 -----
 title
 -----
 Symbolic Z-matrix:
 Charge =  0 Multiplicity = 1

 SCF Done:  E(RHF) =  -626.436541549     A.U. after   12 cycles
 Normal termination of Gaussian 16 at Sun Apr  6 08:13:02 2025.
 Gaussian 16:  ES64L-G16RevC.01  3-Jul-2019

 ----------------------------------------------------------------------
 #t hf aug-cc-pvdz iop(5/13=1,5/36=2,99/5=2) pseudo=read geom=check gue
 ss=(read,tcheck) scf=(maxcycle=1)
 ----------------------------------------------------------------------
 -----
 title
 -----
 Structure from the checkpoint file:  "dimethylsulfone.chk"
 Charge =  0 Multiplicity = 1

                         Standard orientation:
 ---------------------------------------------------------------------
 Center     Atomic      Atomic             Coordinates (Angstroms)
 Number     Number       Type             X           Y           Z
 ---------------------------------------------------------------------
      1          6           0        0.000000    1.419305   -0.919648
      2          6           0       -0.000000   -1.419305   -0.919648
      3          8           0       -1.263521    0.000000    0.917477
      4          8           0        1.263521   -0.000000    0.917477
      5         16           0       -0.000000   -0.000000    0.188195
      6          1           0        0.000000    2.292780   -0.271559
      7          1           0        0.900388    1.399538   -1.527965
      8          1           0       -0.900388    1.399538   -1.527965
      9          1           0        0.900388   -1.399538   -1.527965
     10          1           0       -0.000000   -2.292780   -0.271559
     11          1           0       -0.900388   -1.399538   -1.527965
 ---------------------------------------------------------------------

 SCF Done:  E(RHF) =  -627.748993266     A.U. after    2 cycles

 The electronic state is 1-A1.
 Alpha  occ. eigenvalues --  -75.88137 -21.03748 -21.03720 -13.49583 -13.39533
 Alpha  occ. eigenvalues --  -13.33073 -11.43638 -11.42188  -8.23119  -1.81767
 Alpha  occ. eigenvalues --   -1.63814  -1.19042  -1.08962  -0.87701  -0.65151
 Alpha  occ. eigenvalues --   -0.64636  -0.64627  -0.61927  -0.55454  -0.53754
 Alpha  occ. eigenvalues --   -0.42755  -0.38449  -0.38288  -0.35947  -0.34260
 Alpha virt. eigenvalues --    0.02022   0.04227   0.04792   0.05673   0.06919
 Alpha virt. eigenvalues --    0.06955   0.09777   0.12654   0.12776   0.13283
 Alpha virt. eigenvalues --    0.14260   0.15229   0.15568   0.16394   0.16793

 Mulliken charges:
               1
     1  C   -4.487705
     2  C   -4.487705
     3  O   -2.432753
     4  O   -2.432753
     5  S    5.756836
     6  H    1.362520
     7  H    1.339760
     8  H    1.339760
     9  H    1.339760
    10  H    1.362520
    11  H    1.339760
 Sum of Mulliken charges =   0.00000

 Dipole moment (field-independent basis, Debye):
    X=              0.0000    Y=             -0.0000    Z=             -2.4379  Tot=              2.4379

 Test job not archived.
 1\1\GINC-SE169\SP\RHF\Aug-CC-pVDZ\C2H6O2S1\OHZDE\06-Apr-2025\0\\#t hf
 aug-cc-pvdz iop(5/13=1,5/36=2,99/5=2) pseudo=read geom=check guess=(re
 ad,tcheck) scf=(maxcycle=1)\\title\\0,1\C,0,0.,1.419305,-0.919648\C,0,
 0.,-1.419305,-0.919648\O,0,-1.263521,0.,0.917477\O,0,1.263521,0.,0.917
 477\S,0,0.,0.,0.188195\H,0,0.,2.29278,-0.271559\H,0,0.900388,1.399538,
 -1.527965\H,0,-0.900388,1.399538,-1.527965\H,0,0.900388,-1.399538,-1.5
 27965\H,0,0.,-2.29278,-0.271559\H,0,-0.900388,-1.399538,-1.527965\\Ver
 sion=ES64L-G16RevC.01\State=1-A1\HF=-627.7489933\RMSD=1.686e-01\Dipole

 Normal termination of Gaussian 16 at Sun Apr  6 08:13:15 2025.
