 Gaussian 16, Revision C.01,

 ----------------------------------------------------------------------
 #t hf aug-cc-pvdz symm=none int=(grid=ultrafine) guess=(read,tcheck) s
 table=(opt,rrhf)
 ----------------------------------------------------------------------
 -----
 title
 -----
 Symbolic Z-matrix:
 Charge =  0 Multiplicity = 1

 SCF Done:  E(RHF) =  -551.581585076     A.U. after   13 cycles
 Normal termination of Gaussian 16 at Sun Apr  6 08:13:01 2025.
 Gaussian 16:  ES64L-G16RevC.01  3-Jul-2019

 ----------------------------------------------------------------------
 #t hf aug-cc-pvdz iop(5/13=1,5/36=2,99/5=2) pseudo=read geom=check gue
 ss=(read,tcheck) scf=(maxcycle=1)
 ----------------------------------------------------------------------
 -----
 title
 -----
 Structure from the checkpoint file:  "dimethylsulfoxide.chk"
 Charge =  0 Multiplicity = 1

                         Standard orientation:
 ---------------------------------------------------------------------
 Center     Atomic      Atomic             Coordinates (Angstroms)
 Number     Number       Type             X           Y           Z
 ---------------------------------------------------------------------
      1          6           0       -0.259600   -0.785887    1.366100
      2          6           0       -0.259600   -0.785887   -1.366100
      3          8           0        1.100868    1.072126   -0.000000
      4         16           0       -0.259600    0.429008   -0.000000
      5          1           0       -0.208786   -0.213648    2.289139
      6          1           0        0.618458   -1.422179    1.270379
      7          1           0       -1.178748   -1.369415    1.337781
      8          1           0       -1.178748   -1.369415   -1.337781
      9          1           0        0.618458   -1.422179   -1.270379
     10          1           0       -0.208786   -0.213648   -2.289139
 ---------------------------------------------------------------------

 SCF Done:  E(RHF) =  -552.560745566     A.U. after    2 cycles

 The electronic state is 1-A'.
 Alpha  occ. eigenvalues --  -75.78244 -20.99487 -13.32472 -13.20889 -13.16348
 Alpha  occ. eigenvalues --  -11.40983 -11.40410  -8.12462  -1.67643  -1.19711
 Alpha  occ. eigenvalues --   -1.05280  -0.88791  -0.63274  -0.62220  -0.60641
 Alpha  occ. eigenvalues --   -0.59042  -0.49740  -0.46667  -0.37377  -0.32455
 Alpha  occ. eigenvalues --   -0.25632
 Alpha virt. eigenvalues --    0.02841   0.04021   0.05261   0.05970   0.07186
 Alpha virt. eigenvalues --    0.07452   0.08288   0.11799   0.12839   0.12947
 Alpha virt. eigenvalues --    0.14218   0.15132   0.16550   0.17228   0.17881

 Mulliken charges:
               1
     1  C   -4.572721
     2  C   -4.572721
     3  O   -2.287990
     4  S    3.136008
     5  H    1.391641
     6  H    1.361845
     7  H    1.395226
     8  H    1.395226
     9  H    1.361845
    10  H    1.391641
 Sum of Mulliken charges =   0.00000

 Dipole moment (field-independent basis, Debye):
    X=             -1.6524    Y=             -0.8290    Z=             -0.0000  Tot=              1.8487

 Test job not archived.
 1\1\GINC-SE084\SP\RHF\Aug-CC-pVDZ\C2H6O1S1\OHZDE\06-Apr-2025\0\\#t hf
 aug-cc-pvdz iop(5/13=1,5/36=2,99/5=2) pseudo=read geom=check guess=(re
 ad,tcheck) scf=(maxcycle=1)\\title\\0,1\C,0,-0.2596,-0.785887,1.3661\C
 ,0,-0.2596,-0.785887,-1.3661\O,0,1.100868,1.072126,0.\S,0,-0.2596,0.42
 9008,0.\H,0,-0.208786,-0.213648,2.289139\H,0,0.618458,-1.422179,1.2703
 79\H,0,-1.178748,-1.369415,1.337781\H,0,-1.178748,-1.369415,-1.337781\
 H,0,0.618458,-1.422179,-1.270379\H,0,-0.208786,-0.213648,-2.289139\\Ve
 rsion=ES64L-G16RevC.01\State=1-A'\HF=-552.5607456\RMSD=9.672e-02\Dipol

 Normal termination of Gaussian 16 at Sun Apr  6 08:13:03 2025.
