 Gaussian 16, Revision C.01,

 ----------------------------------------------------------------------
 #t hf aug-cc-pvdz symm=none int=(grid=ultrafine) guess=(read,tcheck) s
 table=(opt,rrhf)
 ----------------------------------------------------------------------
 -----
 title
 -----
 Symbolic Z-matrix:
 Charge =  0 Multiplicity = 1

 SCF Done:  E(RHF) =  -341.746610525     A.U. after   13 cycles
 Normal termination of Gaussian 16 at Sun Apr  6 08:13:04 2025.
 Gaussian 16:  ES64L-G16RevC.01  3-Jul-2019

 ----------------------------------------------------------------------
 #t hf aug-cc-pvdz iop(5/13=1,5/36=2,99/5=2) pseudo=read geom=check gue
 ss=(read,tcheck) scf=(maxcycle=1)
 ----------------------------------------------------------------------
 -----
 title
 -----
 Structure from the checkpoint file:  "dimethylcarbonate.chk"
 Charge =  0 Multiplicity = 1

                         Standard orientation:
 ---------------------------------------------------------------------
 Center     Atomic      Atomic             Coordinates (Angstroms)
 Number     Number       Type             X           Y           Z
 ---------------------------------------------------------------------
      1          6           0       -0.000000   -0.000000    0.075891
      2          6           0        0.000000    2.340391   -0.016158
      3          6           0       -0.000000   -2.340391   -0.016158
      4          8           0       -0.000000   -0.000000    1.281653
      5          8           0        0.000000    1.081938   -0.709482
      6          8           0       -0.000000   -1.081938   -0.709482
      7          1           0       -0.887790    2.432734    0.606454
      8          1           0        0.000000    3.096867   -0.794390
      9          1           0        0.887790    2.432734    0.606454
     10          1           0       -0.000000   -3.096867   -0.794390
     11          1           0       -0.887790   -2.432734    0.606454
     12          1           0        0.887790   -2.432734    0.606454
 ---------------------------------------------------------------------

 SCF Done:  E(RHF) =  -343.210347936     A.U. after    2 cycles

 The electronic state is 1-A1.
 Alpha  occ. eigenvalues --  -21.09784 -21.09781 -21.04804 -11.53542 -11.42122
 Alpha  occ. eigenvalues --  -11.41952  -1.91340  -1.73866  -1.66543  -1.06088
 Alpha  occ. eigenvalues --   -0.98403  -0.76440  -0.70088  -0.66247  -0.63100
 Alpha  occ. eigenvalues --   -0.61779  -0.57924  -0.54324  -0.52508  -0.47166
 Alpha  occ. eigenvalues --   -0.40834  -0.33988  -0.32874  -0.30325
 Alpha virt. eigenvalues --    0.03234   0.05268   0.05980   0.06229   0.06397
 Alpha virt. eigenvalues --    0.06808   0.09496   0.11424   0.13586   0.13963
 Alpha virt. eigenvalues --    0.14322   0.14957   0.15331   0.15670   0.17715

 Mulliken charges:
               1
     1  C    6.496427
     2  C   -3.114194
     3  C   -3.114194
     4  O   -2.382373
     5  O   -2.793194
     6  O   -2.793194
     7  H    1.257952
     8  H    1.334457
     9  H    1.257952
    10  H    1.334457
    11  H    1.257952
    12  H    1.257952
 Sum of Mulliken charges =  -0.00000

 Dipole moment (field-independent basis, Debye):
    X=             -0.0000    Y=              0.0000    Z=             -0.7762  Tot=              0.7762

 Test job not archived.
 1\1\GINC-SE012\SP\RHF\Aug-CC-pVDZ\C3H6O3\OHZDE\06-Apr-2025\0\\#t hf au
 g-cc-pvdz iop(5/13=1,5/36=2,99/5=2) pseudo=read geom=check guess=(read
 ,tcheck) scf=(maxcycle=1)\\title\\0,1\C,0,0.,0.,0.075891\C,0,0.,2.3403
 91,-0.016158\C,0,0.,-2.340391,-0.016158\O,0,0.,0.,1.281653\O,0,0.,1.08
 1938,-0.709482\O,0,0.,-1.081938,-0.709482\H,0,-0.88779,2.432734,0.6064
 54\H,0,0.,3.096867,-0.79439\H,0,0.88779,2.432734,0.606454\H,0,0.,-3.09
 6867,-0.79439\H,0,-0.88779,-2.432734,0.606454\H,0,0.88779,-2.432734,0.
 606454\\Version=ES64L-G16RevC.01\State=1-A1\HF=-343.2103479\RMSD=5.897

 Normal termination of Gaussian 16 at Sun Apr  6 08:13:15 2025.
