 Gaussian 16, Revision C.01,

 ----------------------------------------------------------------------
 #t hf aug-cc-pvdz symm=none int=(grid=ultrafine) guess=(read,tcheck) s
 table=(opt,rrhf)
 ----------------------------------------------------------------------
 -----
 title
 -----
 Symbolic Z-matrix:
 Charge =  0 Multiplicity = 1

 SCF Done:  E(RHF) =  -1309.69099014     A.U. after   14 cycles
 Normal termination of Gaussian 16 at Sun Apr  6 08:13:09 2025.
 Gaussian 16:  ES64L-G16RevC.01  3-Jul-2019

 ----------------------------------------------------------------------
 #t hf aug-cc-pvdz iop(5/13=1,5/36=2,99/5=2) pseudo=read geom=check gue
 ss=(read,tcheck) scf=(maxcycle=1)
 ----------------------------------------------------------------------
 -----
 title
 -----
 Structure from the checkpoint file:  "dimethyl_carbonotrithioate.chk"
 Charge =  0 Multiplicity = 1

                         Standard orientation:
 ---------------------------------------------------------------------
 Center     Atomic      Atomic             Coordinates (Angstroms)
 Number     Number       Type             X           Y           Z
 ---------------------------------------------------------------------
      1          6           0        0.000000   -0.000000    0.036614
      2         16           0        0.000000   -0.000000    1.679557
      3         16           0        0.000000    1.427910   -0.995436
      4         16           0       -0.000000   -1.427910   -0.995436
      5          6           0        0.000000    2.795841    0.193673
      6          6           0       -0.000000   -2.795841    0.193673
      7          1           0        0.889349    2.757958    0.816057
      8          1           0        0.889349   -2.757958    0.816057
      9          1           0        0.000000    3.699161   -0.413472
     10          1           0       -0.889349    2.757958    0.816057
     11          1           0       -0.889349   -2.757958    0.816057
     12          1           0       -0.000000   -3.699161   -0.413472
 ---------------------------------------------------------------------

 SCF Done:  E(RHF) =  -1310.96362544     A.U. after    2 cycles

 The electronic state is 1-A1.
 Alpha  occ. eigenvalues --  -75.71562 -75.71188 -75.66320 -13.15674 -13.14480
 Alpha  occ. eigenvalues --  -13.13601 -13.12469 -13.10308 -13.04685 -13.04302
 Alpha  occ. eigenvalues --  -13.04227 -12.98322 -11.49375 -11.40806 -11.40671
 Alpha  occ. eigenvalues --   -8.05694  -8.05580  -8.00492  -1.33476  -1.19303
 Alpha  occ. eigenvalues --   -1.11144  -1.00862  -0.95019  -0.72936  -0.62364
 Alpha  occ. eigenvalues --   -0.60271  -0.60090  -0.59591  -0.52937  -0.47172
 Alpha  occ. eigenvalues --   -0.44736  -0.40894  -0.35958  -0.23280  -0.23144
 Alpha  occ. eigenvalues --   -0.21338
 Alpha virt. eigenvalues --    0.02463   0.02973   0.04484   0.05422   0.06394
 Alpha virt. eigenvalues --    0.06773   0.08373   0.08381   0.08971   0.10263
 Alpha virt. eigenvalues --    0.11650   0.11938   0.13876   0.14827   0.14962

 Mulliken charges:
               1
     1  C   -2.405838
     2  S    0.939546
     3  S    1.525276
     4  S    1.525276
     5  C   -5.036225
     6  C   -5.036225
     7  H    1.504554
     8  H    1.504554
     9  H    1.234986
    10  H    1.504554
    11  H    1.504554
    12  H    1.234986
 Sum of Mulliken charges =  -0.00000

 Dipole moment (field-independent basis, Debye):
    X=              0.0000    Y=              0.0000    Z=             -1.0895  Tot=              1.0895

 Test job not archived.
 1\1\GINC-SE009\SP\RHF\Aug-CC-pVDZ\C3H6S3\OHZDE\06-Apr-2025\0\\#t hf au
 g-cc-pvdz iop(5/13=1,5/36=2,99/5=2) pseudo=read geom=check guess=(read
 ,tcheck) scf=(maxcycle=1)\\title\\0,1\C,0,0.,0.,0.036614\S,0,0.,0.,1.6
 79557\S,0,0.,1.42791,-0.995436\S,0,0.,-1.42791,-0.995436\C,0,0.,2.7958
 41,0.193673\C,0,0.,-2.795841,0.193673\H,0,0.889349,2.757958,0.816057\H
 ,0,0.889349,-2.757958,0.816057\H,0,0.,3.699161,-0.413472\H,0,-0.889349
 ,2.757958,0.816057\H,0,-0.889349,-2.757958,0.816057\H,0,0.,-3.699161,-
 0.413472\\Version=ES64L-G16RevC.01\State=1-A1\HF=-1310.9636254\RMSD=1.

 Normal termination of Gaussian 16 at Sun Apr  6 08:13:15 2025.
