 Gaussian 16, Revision C.01,

 ----------------------------------------------------------------------
 #t hf aug-cc-pvdz symm=none int=(grid=ultrafine) guess=(read,tcheck) s
 table=(opt,rrhf)
 ----------------------------------------------------------------------
 -----
 title
 -----
 Symbolic Z-matrix:
 Charge =  0 Multiplicity = 1

 SCF Done:  E(RHF) =  -874.302228089     A.U. after   13 cycles
 Normal termination of Gaussian 16 at Sun Apr  6 08:12:59 2025.
 Gaussian 16:  ES64L-G16RevC.01  3-Jul-2019

 ----------------------------------------------------------------------
 #t hf aug-cc-pvdz iop(5/13=1,5/36=2,99/5=2) pseudo=read geom=check gue
 ss=(read,tcheck) scf=(maxcycle=1)
 ----------------------------------------------------------------------
 -----
 title
 -----
 Structure from the checkpoint file:  "dimethyldisulfide.chk"
 Charge =  0 Multiplicity = 1

                         Standard orientation:
 ---------------------------------------------------------------------
 Center     Atomic      Atomic             Coordinates (Angstroms)
 Number     Number       Type             X           Y           Z
 ---------------------------------------------------------------------
      1          6           0       -0.975094    1.648785    0.791622
      2          6           0        0.975094   -1.648785    0.791622
      3         16           0       -0.975094    0.343346   -0.490829
      4         16           0        0.975094   -0.343346   -0.490829
      5          1           0       -0.781660    1.231798    1.776638
      6          1           0       -1.975350    2.081790    0.775132
      7          1           0       -0.243016    2.415025    0.551763
      8          1           0        0.781660   -1.231798    1.776638
      9          1           0        1.975350   -2.081790    0.775132
     10          1           0        0.243016   -2.415025    0.551763
 ---------------------------------------------------------------------

 SCF Done:  E(RHF) =  -875.178384729     A.U. after    2 cycles

 The electronic state is 1-A.
 Alpha  occ. eigenvalues --  -75.69924 -75.69745 -13.12957 -13.09993 -13.08218
 Alpha  occ. eigenvalues --  -13.06883 -13.03754 -13.02603 -11.39850 -11.39723
 Alpha  occ. eigenvalues --   -8.03811  -8.03722  -1.25690  -1.12336  -0.97941
 Alpha  occ. eigenvalues --   -0.86750  -0.60043  -0.59247  -0.59174  -0.58515
 Alpha  occ. eigenvalues --   -0.46763  -0.42872  -0.33535  -0.24593  -0.23587
 Alpha virt. eigenvalues --    0.02706   0.03240   0.04745   0.05660   0.07155
 Alpha virt. eigenvalues --    0.08104   0.08743   0.09018   0.12808   0.12872
 Alpha virt. eigenvalues --    0.14530   0.14600   0.15438   0.16356   0.16989

 Mulliken charges:
               1
     1  C   -4.547314
     2  C   -4.547314
     3  S    0.198219
     4  S    0.198219
     5  H    1.484967
     6  H    1.364322
     7  H    1.499806
     8  H    1.484967
     9  H    1.364322
    10  H    1.499806
 Sum of Mulliken charges =  -0.00000

 Dipole moment (field-independent basis, Debye):
    X=              0.0000    Y=             -0.0000    Z=             -0.4716  Tot=              0.4716

 Test job not archived.
 1\1\GINC-SE013\SP\RHF\Aug-CC-pVDZ\C2H6S2\OHZDE\06-Apr-2025\0\\#t hf au
 g-cc-pvdz iop(5/13=1,5/36=2,99/5=2) pseudo=read geom=check guess=(read
 ,tcheck) scf=(maxcycle=1)\\title\\0,1\C,0,-0.975094,1.648785,0.791622\
 C,0,0.975094,-1.648785,0.791622\S,0,-0.975094,0.343346,-0.490829\S,0,0
 .975094,-0.343346,-0.490829\H,0,-0.78166,1.231798,1.776638\H,0,-1.9753
 5,2.08179,0.775132\H,0,-0.243016,2.415025,0.551763\H,0,0.78166,-1.2317
 98,1.776638\H,0,1.97535,-2.08179,0.775132\H,0,0.243016,-2.415025,0.551
 763\\Version=ES64L-G16RevC.01\State=1-A\HF=-875.1783847\RMSD=7.540e-02

 Normal termination of Gaussian 16 at Sun Apr  6 08:13:02 2025.
