 Gaussian 16, Revision C.01,

 ----------------------------------------------------------------------
 #t hf aug-cc-pvdz symm=none int=(grid=ultrafine) guess=(read,tcheck) s
 table=(opt,rrhf)
 ----------------------------------------------------------------------
 -----
 title
 -----
 Symbolic Z-matrix:
 Charge =  0 Multiplicity = 1

 SCF Done:  E(RHF) =  -228.859640378     A.U. after   11 cycles
 Normal termination of Gaussian 16 at Sun Apr  6 08:12:57 2025.
 Gaussian 16:  ES64L-G16RevC.01  3-Jul-2019

 ----------------------------------------------------------------------
 #t hf aug-cc-pvdz iop(5/13=1,5/36=2,99/5=2) pseudo=read geom=check gue
 ss=(read,tcheck) scf=(maxcycle=1)
 ----------------------------------------------------------------------
 -----
 title
 -----
 Structure from the checkpoint file:  "dimethylperoxide.chk"
 Charge =  0 Multiplicity = 1

                         Standard orientation:
 ---------------------------------------------------------------------
 Center     Atomic      Atomic             Coordinates (Angstroms)
 Number     Number       Type             X           Y           Z
 ---------------------------------------------------------------------
      1          8           0       -0.437201    0.587681    0.000000
      2          8           0        0.437201   -0.587681    0.000000
      3          6           0       -0.437201   -1.696109    0.000000
      4          1           0       -1.064231   -1.705853    0.894667
      5          6           0        0.437201    1.696109    0.000000
      6          1           0        1.064231    1.705853   -0.894667
      7          1           0        1.064231    1.705853    0.894667
      8          1           0       -0.218746    2.566214    0.000000
      9          1           0        0.218746   -2.566214    0.000000
     10          1           0       -1.064231   -1.705853   -0.894667
 ---------------------------------------------------------------------

 SCF Done:  E(RHF) =  -229.871156838     A.U. after    2 cycles

 The electronic state is 1-AG.
 Alpha  occ. eigenvalues --  -21.08690 -21.08426 -11.40435 -11.39933  -1.93955
 Alpha  occ. eigenvalues --   -1.47328  -0.97566  -0.95047  -0.63336  -0.63177
 Alpha  occ. eigenvalues --   -0.62937  -0.59422  -0.50394  -0.47416  -0.41157
 Alpha  occ. eigenvalues --   -0.36168  -0.24997
 Alpha virt. eigenvalues --    0.03987   0.05209   0.05767   0.06073   0.06731
 Alpha virt. eigenvalues --    0.07014   0.10722   0.13020   0.14029   0.15219
 Alpha virt. eigenvalues --    0.16564   0.17399   0.17424   0.17467   0.20165

 Mulliken charges:
               1
     1  O   -1.498819
     2  O   -1.498819
     3  C   -2.436371
     4  H    1.335026
     5  C   -2.436371
     6  H    1.335026
     7  H    1.335026
     8  H    1.265138
     9  H    1.265138
    10  H    1.335026
 Sum of Mulliken charges =   0.00000

 Dipole moment (field-independent basis, Debye):
    X=              0.0000    Y=              0.0000    Z=             -0.0000  Tot=              0.0000

 Test job not archived.
 1\1\GINC-SE170\SP\RHF\Aug-CC-pVDZ\C2H6O2\OHZDE\06-Apr-2025\0\\#t hf au
 g-cc-pvdz iop(5/13=1,5/36=2,99/5=2) pseudo=read geom=check guess=(read
 ,tcheck) scf=(maxcycle=1)\\title\\0,1\O,0,-0.437201,0.587681,0.\O,0,0.
 437201,-0.587681,0.\C,0,-0.437201,-1.696109,0.\H,0,-1.064231,-1.705853
 ,0.894667\C,0,0.437201,1.696109,0.\H,0,1.064231,1.705853,-0.894667\H,0
 ,1.064231,1.705853,0.894667\H,0,-0.218746,2.566214,0.\H,0,0.218746,-2.
 566214,0.\H,0,-1.064231,-1.705853,-0.894667\\Version=ES64L-G16RevC.01\
 State=1-AG\HF=-229.8711568\RMSD=5.217e-02\Dipole=0.,0.,0.\Quadrupole=-

 Normal termination of Gaussian 16 at Sun Apr  6 08:12:59 2025.
