 Gaussian 16, Revision C.01,

 ----------------------------------------------------------------------
 #t hf aug-cc-pvdz symm=none int=(grid=ultrafine) guess=(read,tcheck) s
 table=(opt,rrhf)
 ----------------------------------------------------------------------
 -----
 title
 -----
 Symbolic Z-matrix:
 Charge =  0 Multiplicity = 1

 SCF Done:  E(RHF) =  -267.991564280     A.U. after   11 cycles
 Normal termination of Gaussian 16 at Sun Apr  6 08:13:08 2025.
 Gaussian 16:  ES64L-G16RevC.01  3-Jul-2019

 ----------------------------------------------------------------------
 #t hf aug-cc-pvdz iop(5/13=1,5/36=2,99/5=2) pseudo=read geom=check gue
 ss=(read,tcheck) scf=(maxcycle=1)
 ----------------------------------------------------------------------
 -----
 title
 -----
 Structure from the checkpoint file:  "dimethoxymethane.chk"
 Charge =  0 Multiplicity = 1

                         Standard orientation:
 ---------------------------------------------------------------------
 Center     Atomic      Atomic             Coordinates (Angstroms)
 Number     Number       Type             X           Y           Z
 ---------------------------------------------------------------------
      1          6           0        0.000000    1.856169   -0.553318
      2          6           0       -0.000000   -1.856169   -0.553318
      3          6           0        0.000000    0.000000    0.918263
      4          8           0       -0.768127    0.891716    0.154870
      5          8           0        0.768127   -0.891716    0.154870
      6          1           0        0.611878    2.448681    0.135651
      7          1           0       -0.705463    2.511536   -1.058607
      8          1           0        0.653146    1.386863   -1.291849
      9          1           0       -0.653146   -1.386863   -1.291849
     10          1           0       -0.611878   -2.448681    0.135651
     11          1           0        0.705463   -2.511536   -1.058607
     12          1           0        0.718837    0.541142    1.540958
     13          1           0       -0.718837   -0.541142    1.540958
 ---------------------------------------------------------------------

 SCF Done:  E(RHF) =  -269.207031016     A.U. after    2 cycles

 The electronic state is 1-A.
 Alpha  occ. eigenvalues --  -21.04620 -21.04603 -11.43917 -11.40002 -11.39588
 Alpha  occ. eigenvalues --   -1.80899  -1.68590  -1.04065  -0.97937  -0.86574
 Alpha  occ. eigenvalues --   -0.68633  -0.65134  -0.60081  -0.59593  -0.58786
 Alpha  occ. eigenvalues --   -0.52577  -0.50529  -0.43825  -0.36808  -0.31163
 Alpha  occ. eigenvalues --   -0.29094
 Alpha virt. eigenvalues --    0.03804   0.05481   0.05592   0.05973   0.06089
 Alpha virt. eigenvalues --    0.06454   0.07019   0.08406   0.11723   0.12289
 Alpha virt. eigenvalues --    0.12827   0.15109   0.15451   0.15986   0.17442

 Mulliken charges:
               1
     1  C   -2.770248
     2  C   -2.770248
     3  C    0.239470
     4  O   -2.812922
     5  O   -2.812922
     6  H    1.312343
     7  H    1.248998
     8  H    1.360600
     9  H    1.360600
    10  H    1.312343
    11  H    1.248998
    12  H    1.541494
    13  H    1.541494
 Sum of Mulliken charges =  -0.00000

 Dipole moment (field-independent basis, Debye):
    X=              0.0000    Y=             -0.0000    Z=             -0.1517  Tot=              0.1517

 Test job not archived.
 1\1\GINC-SE209\SP\RHF\Aug-CC-pVDZ\C3H8O2\OHZDE\06-Apr-2025\0\\#t hf au
 g-cc-pvdz iop(5/13=1,5/36=2,99/5=2) pseudo=read geom=check guess=(read
 ,tcheck) scf=(maxcycle=1)\\title\\0,1\C,0,0.,1.856169,-0.553318\C,0,0.
 ,-1.856169,-0.553318\C,0,0.,0.,0.918263\O,0,-0.768127,0.891716,0.15487
 \O,0,0.768127,-0.891716,0.15487\H,0,0.611878,2.448681,0.135651\H,0,-0.
 705463,2.511536,-1.058607\H,0,0.653146,1.386863,-1.291849\H,0,-0.65314
 6,-1.386863,-1.291849\H,0,-0.611878,-2.448681,0.135651\H,0,0.705463,-2
 .511536,-1.058607\H,0,0.718837,0.541142,1.540958\H,0,-0.718837,-0.5411

 Normal termination of Gaussian 16 at Sun Apr  6 08:13:14 2025.
