 Gaussian 16, Revision C.01,

 ----------------------------------------------------------------------
 #t hf aug-cc-pvdz symm=none int=(grid=ultrafine) guess=(read,tcheck) s
 table=(opt,rrhf)
 ----------------------------------------------------------------------
 -----
 title
 -----
 Symbolic Z-matrix:
 Charge =  0 Multiplicity = 1

 SCF Done:  E(RHF) =  -154.086740856     A.U. after   11 cycles
 Normal termination of Gaussian 16 at Sun Apr  6 08:12:57 2025.
 Gaussian 16:  ES64L-G16RevC.01  3-Jul-2019

 ----------------------------------------------------------------------
 #t hf aug-cc-pvdz iop(5/13=1,5/36=2,99/5=2) pseudo=read geom=check gue
 ss=(read,tcheck) scf=(maxcycle=1)
 ----------------------------------------------------------------------
 -----
 title
 -----
 Structure from the checkpoint file:  "dimethylether.chk"
 Charge =  0 Multiplicity = 1

                         Standard orientation:
 ---------------------------------------------------------------------
 Center     Atomic      Atomic             Coordinates (Angstroms)
 Number     Number       Type             X           Y           Z
 ---------------------------------------------------------------------
      1          6           0        0.000000    1.175422   -0.194884
      2          6           0       -0.000000   -1.175422   -0.194884
      3          8           0        0.000000   -0.000000    0.586687
      4          1           0        0.890246    1.231929   -0.833515
      5          1           0        0.000000    2.021254    0.489588
      6          1           0       -0.890246    1.231929   -0.833515
      7          1           0        0.890246   -1.231929   -0.833515
      8          1           0       -0.890246   -1.231929   -0.833515
      9          1           0       -0.000000   -2.021254    0.489588
 ---------------------------------------------------------------------

 SCF Done:  E(RHF) =  -154.809625356     A.U. after    2 cycles

 The electronic state is 1-A1.
 Alpha  occ. eigenvalues --  -21.04104 -11.40042 -11.39077  -1.74219  -1.02897
 Alpha  occ. eigenvalues --   -0.91592  -0.63598  -0.63142  -0.58012  -0.55400
 Alpha  occ. eigenvalues --   -0.49832  -0.38350  -0.29433
 Alpha virt. eigenvalues --    0.03660   0.05591   0.06088   0.06363   0.06593
 Alpha virt. eigenvalues --    0.07284   0.11188   0.14314   0.15249   0.15302
 Alpha virt. eigenvalues --    0.15647   0.17673   0.17745   0.19699   0.22014

 Mulliken charges:
               1
     1  C   -2.533776
     2  C   -2.533776
     3  O   -2.595998
     4  H    1.282618
     5  H    1.266539
     6  H    1.282618
     7  H    1.282618
     8  H    1.282618
     9  H    1.266539
 Sum of Mulliken charges =  -0.00000

 Dipole moment (field-independent basis, Debye):
    X=             -0.0000    Y=             -0.0000    Z=             -0.4444  Tot=              0.4444

 Test job not archived.
 1\1\GINC-SE013\SP\RHF\Aug-CC-pVDZ\C2H6O1\OHZDE\06-Apr-2025\0\\#t hf au
 g-cc-pvdz iop(5/13=1,5/36=2,99/5=2) pseudo=read geom=check guess=(read
 ,tcheck) scf=(maxcycle=1)\\title\\0,1\C,0,0.,1.175422,-0.194884\C,0,0.
 ,-1.175422,-0.194884\O,0,0.,0.,0.586687\H,0,0.890246,1.231929,-0.83351
 5\H,0,0.,2.021254,0.489588\H,0,-0.890246,1.231929,-0.833515\H,0,0.8902
 46,-1.231929,-0.833515\H,0,-0.890246,-1.231929,-0.833515\H,0,0.,-2.021
 254,0.489588\\Version=ES64L-G16RevC.01\State=1-A1\HF=-154.8096254\RMSD
 =5.846e-02\Dipole=0.,0.,-0.1748419\Quadrupole=-0.295148,1.2789881,-0.9

 Normal termination of Gaussian 16 at Sun Apr  6 08:12:59 2025.
