 Gaussian 16, Revision C.01,

 ----------------------------------------------------------------------
 #t hf aug-cc-pvdz symm=none int=(grid=ultrafine) guess=(read,tcheck) s
 table=(opt,rrhf)
 ----------------------------------------------------------------------
 -----
 title
 -----
 Symbolic Z-matrix:
 Charge =  0 Multiplicity = 1

 SCF Done:  E(RHF) =  -337.752170121     A.U. after   14 cycles
 Normal termination of Gaussian 16 at Sun Apr  6 08:13:05 2025.
 Gaussian 16:  ES64L-G16RevC.01  3-Jul-2019

 ----------------------------------------------------------------------
 #t hf aug-cc-pvdz iop(5/13=1,5/36=2,99/5=2) pseudo=read geom=check gue
 ss=(read,tcheck) scf=(maxcycle=1)
 ----------------------------------------------------------------------
 -----
 title
 -----
 Structure from the checkpoint file:  "dimethylnitroamine.chk"
 Charge =  0 Multiplicity = 1

                         Standard orientation:
 ---------------------------------------------------------------------
 Center     Atomic      Atomic             Coordinates (Angstroms)
 Number     Number       Type             X           Y           Z
 ---------------------------------------------------------------------
      1          8           0       -0.037714   -1.357944    1.090603
      2          8           0       -0.037714   -1.357944   -1.090603
      3          1           0       -1.093723    1.213482    1.547438
      4          1           0        0.276620    2.273597    1.142183
      5          1           0        0.546613    0.777805    2.052059
      6          6           0       -0.037714    1.240481    1.264007
      7          1           0       -1.093723    1.213482   -1.547438
      8          1           0        0.546613    0.777805   -2.052059
      9          1           0        0.276620    2.273597   -1.142183
     10          6           0       -0.037714    1.240481   -1.264007
     11          7           0        0.022482   -0.802092    0.000000
     12          7           0        0.205657    0.560886   -0.000000
 ---------------------------------------------------------------------

 SCF Done:  E(RHF) =  -339.260288000     A.U. after    2 cycles

 The electronic state is 1-A'.
 Alpha  occ. eigenvalues --  -21.08155 -21.07998 -16.01451 -15.79572 -11.42355
 Alpha  occ. eigenvalues --  -11.42300  -2.00904  -1.69290  -1.47806  -1.08374
 Alpha  occ. eigenvalues --   -1.06770  -0.80848  -0.73088  -0.72850  -0.67477
 Alpha  occ. eigenvalues --   -0.60980  -0.59169  -0.58761  -0.57011  -0.53441
 Alpha  occ. eigenvalues --   -0.37809  -0.34750  -0.31594  -0.30313
 Alpha virt. eigenvalues --    0.02864   0.04894   0.05196   0.06313   0.06404
 Alpha virt. eigenvalues --    0.07462   0.09752   0.12897   0.12968   0.13852
 Alpha virt. eigenvalues --    0.15214   0.16732   0.16964   0.16993   0.17090

 Mulliken charges:
               1
     1  O   -2.877279
     2  O   -2.877279
     3  H    1.355061
     4  H    1.412859
     5  H    1.466777
     6  C   -3.203314
     7  H    1.355061
     8  H    1.466777
     9  H    1.412859
    10  C   -3.203314
    11  N    5.314177
    12  N   -1.622383
 Sum of Mulliken charges =  -0.00000

 Dipole moment (field-independent basis, Debye):
    X=             -0.1214    Y=              3.1907    Z=             -0.0000  Tot=              3.1930

 Test job not archived.
 1\1\GINC-SE168\SP\RHF\Aug-CC-pVDZ\C2H6N2O2\OHZDE\06-Apr-2025\0\\#t hf
 aug-cc-pvdz iop(5/13=1,5/36=2,99/5=2) pseudo=read geom=check guess=(re
 ad,tcheck) scf=(maxcycle=1)\\title\\0,1\O,0,-0.037714,-1.357944,1.0906
 03\O,0,-0.037714,-1.357944,-1.090603\H,0,-1.093723,1.213482,1.547438\H
 ,0,0.27662,2.273597,1.142183\H,0,0.546613,0.777805,2.052059\C,0,-0.037
 714,1.240481,1.264007\H,0,-1.093723,1.213482,-1.547438\H,0,0.546613,0.
 777805,-2.052059\H,0,0.27662,2.273597,-1.142183\C,0,-0.037714,1.240481
 ,-1.264007\N,0,0.022482,-0.802092,0.\N,0,0.205657,0.560886,0.\\Version

 Normal termination of Gaussian 16 at Sun Apr  6 08:13:15 2025.
