 Gaussian 16, Revision C.01,

 ----------------------------------------------------------------------
 #t hf aug-cc-pvdz symm=none int=(grid=ultrafine) guess=(read,tcheck) s
 table=(opt,rrhf)
 ----------------------------------------------------------------------
 -----
 title
 -----
 Symbolic Z-matrix:
 Charge =  0 Multiplicity = 1

 SCF Done:  E(RHF) =  -476.764694378     A.U. after   11 cycles
 Normal termination of Gaussian 16 at Sun Apr  6 08:12:57 2025.
 Gaussian 16:  ES64L-G16RevC.01  3-Jul-2019

 ----------------------------------------------------------------------
 #t hf aug-cc-pvdz iop(5/13=1,5/36=2,99/5=2) pseudo=read geom=check gue
 ss=(read,tcheck) scf=(maxcycle=1)
 ----------------------------------------------------------------------
 -----
 title
 -----
 Structure from the checkpoint file:  "dimethylsulfide.chk"
 Charge =  0 Multiplicity = 1

                         Standard orientation:
 ---------------------------------------------------------------------
 Center     Atomic      Atomic             Coordinates (Angstroms)
 Number     Number       Type             X           Y           Z
 ---------------------------------------------------------------------
      1          6           0        0.000000    1.391186   -0.512622
      2          6           0       -0.000000   -1.391186   -0.512622
      3         16           0        0.000000   -0.000000    0.659277
      4          1           0        0.891412    1.376095   -1.138641
      5          1           0        0.000000    2.304501    0.078799
      6          1           0       -0.891412    1.376095   -1.138641
      7          1           0        0.891412   -1.376095   -1.138641
      8          1           0       -0.891412   -1.376095   -1.138641
      9          1           0       -0.000000   -2.304501    0.078799
 ---------------------------------------------------------------------

 SCF Done:  E(RHF) =  -477.419536567     A.U. after    2 cycles

 The electronic state is 1-A1.
 Alpha  occ. eigenvalues --  -75.66938 -13.08608 -13.05858 -12.99884 -11.39028
 Alpha  occ. eigenvalues --  -11.38870  -8.00979  -1.21863  -1.02733  -0.87791
 Alpha  occ. eigenvalues --   -0.59692  -0.59644  -0.57720  -0.56574  -0.44115
 Alpha  occ. eigenvalues --   -0.36452  -0.21557
 Alpha virt. eigenvalues --    0.03042   0.03771   0.05589   0.06007   0.07515
 Alpha virt. eigenvalues --    0.07976   0.08638   0.13034   0.13052   0.14874
 Alpha virt. eigenvalues --    0.15879   0.16189   0.17309   0.18081   0.18096

 Mulliken charges:
               1
     1  C   -4.665278
     2  C   -4.665278
     3  S    1.042849
     4  H    1.387360
     5  H    1.369133
     6  H    1.387360
     7  H    1.387360
     8  H    1.387360
     9  H    1.369133
 Sum of Mulliken charges =  -0.00000

 Dipole moment (field-independent basis, Debye):
    X=             -0.0000    Y=             -0.0000    Z=              0.1827  Tot=              0.1827

 Test job not archived.
 1\1\GINC-SE169\SP\RHF\Aug-CC-pVDZ\C2H6S1\OHZDE\06-Apr-2025\0\\#t hf au
 g-cc-pvdz iop(5/13=1,5/36=2,99/5=2) pseudo=read geom=check guess=(read
 ,tcheck) scf=(maxcycle=1)\\title\\0,1\C,0,0.,1.391186,-0.512622\C,0,0.
 ,-1.391186,-0.512622\S,0,0.,0.,0.659277\H,0,0.891412,1.376095,-1.13864
 1\H,0,0.,2.304501,0.078799\H,0,-0.891412,1.376095,-1.138641\H,0,0.8914
 12,-1.376095,-1.138641\H,0,-0.891412,-1.376095,-1.138641\H,0,0.,-2.304
 501,0.078799\\Version=ES64L-G16RevC.01\State=1-A1\HF=-477.4195366\RMSD
 =7.622e-02\Dipole=0.,0.,0.071867\Quadrupole=-1.7269041,1.6853639,0.041

 Normal termination of Gaussian 16 at Sun Apr  6 08:13:00 2025.
