 Gaussian 16, Revision C.01,

 ----------------------------------------------------------------------
 #t hf aug-cc-pvdz symm=none int=(grid=ultrafine) guess=(read,tcheck) s
 table=(opt,rrhf)
 ----------------------------------------------------------------------
 -----
 title
 -----
 Symbolic Z-matrix:
 Charge =  0 Multiplicity = 1

 SCF Done:  E(RHF) =  -967.199223039     A.U. after   14 cycles
 Normal termination of Gaussian 16 at Sun Apr  6 08:13:19 2025.
 Gaussian 16:  ES64L-G16RevC.01  3-Jul-2019

 ----------------------------------------------------------------------
 #t hf aug-cc-pvdz iop(5/13=1,5/36=2,99/5=2) pseudo=read geom=check gue
 ss=(read,tcheck) scf=(maxcycle=1)
 ----------------------------------------------------------------------
 -----
 title
 -----
 Structure from the checkpoint file:  "dimethylcarbamodithioic_acid.chk"
 Charge =  0 Multiplicity = 1

                         Standard orientation:
 ---------------------------------------------------------------------
 Center     Atomic      Atomic             Coordinates (Angstroms)
 Number     Number       Type             X           Y           Z
 ---------------------------------------------------------------------
      1          6           0       -1.974833    0.997968    0.019134
      2          7           0       -1.035538   -0.121579   -0.049562
      3          6           0       -1.596834   -1.468210    0.005922
      4          6           0        0.285310    0.130885   -0.019832
      5         16           0        1.322882   -1.336523    0.009919
      6         16           0        0.951587    1.656130    0.001950
      7          1           0       -1.857982    1.544153    0.955692
      8          1           0       -1.791240    1.695551   -0.795852
      9          1           0       -2.985427    0.605274   -0.050728
     10          1           0       -0.950304   -2.175190   -0.507850
     11          1           0       -1.737185   -1.803323    1.037130
     12          1           0       -2.560576   -1.471415   -0.497443
     13          1           0        2.458114   -0.621579   -0.015256
 ---------------------------------------------------------------------

 SCF Done:  E(RHF) =  -968.497148831     A.U. after    2 cycles

 The electronic state is 1-A.
 Alpha  occ. eigenvalues --  -75.71693 -75.63371 -15.78525 -13.17714 -13.14439
 Alpha  occ. eigenvalues --  -13.10780 -13.03680 -13.00566 -12.95141 -11.49700
 Alpha  occ. eigenvalues --  -11.42364 -11.40796  -8.05770  -7.97542  -1.50335
 Alpha  occ. eigenvalues --   -1.21005  -1.10484  -1.04620  -0.98607  -0.75620
 Alpha  occ. eigenvalues --   -0.66785  -0.65360  -0.63947  -0.58138  -0.54568
 Alpha  occ. eigenvalues --   -0.53312  -0.50859  -0.46981  -0.40007  -0.28874
 Alpha  occ. eigenvalues --   -0.22698  -0.20359
 Alpha virt. eigenvalues --    0.02178   0.04378   0.04958   0.05454   0.05944
 Alpha virt. eigenvalues --    0.06864   0.07333   0.08574   0.09355   0.10418
 Alpha virt. eigenvalues --    0.10711   0.13007   0.13521   0.14283   0.15351

 Mulliken charges:
               1
     1  C   -3.426699
     2  N   -2.473939
     3  C   -3.532507
     4  C   -0.213545
     5  S   -0.612622
     6  S    0.716053
     7  H    1.411326
     8  H    1.381307
     9  H    1.428070
    10  H    1.442622
    11  H    1.372679
    12  H    1.324839
    13  H    1.182418
 Sum of Mulliken charges =  -0.00000

 Dipole moment (field-independent basis, Debye):
    X=             -2.2612    Y=             -2.0585    Z=              0.0877  Tot=              3.0591

 Test job not archived.
 1\1\GINC-SE047\SP\RHF\Aug-CC-pVDZ\C3H7N1S2\OHZDE\06-Apr-2025\0\\#t hf
 aug-cc-pvdz iop(5/13=1,5/36=2,99/5=2) pseudo=read geom=check guess=(re
 ad,tcheck) scf=(maxcycle=1)\\title\\0,1\C,0,-1.974833,0.997968,0.01913
 4\N,0,-1.035538,-0.121579,-0.049562\C,0,-1.596834,-1.46821,0.005922\C,
 0,0.28531,0.130885,-0.019832\S,0,1.322882,-1.336523,0.009919\S,0,0.951
 587,1.65613,0.00195\H,0,-1.857982,1.544153,0.955692\H,0,-1.79124,1.695
 551,-0.795852\H,0,-2.985427,0.605274,-0.050728\H,0,-0.950304,-2.17519,
 -0.50785\H,0,-1.737185,-1.803323,1.03713\H,0,-2.560576,-1.471415,-0.49

 Normal termination of Gaussian 16 at Sun Apr  6 08:13:24 2025.
