 Gaussian 16, Revision C.01,

 ----------------------------------------------------------------------
 #t hf aug-cc-pvdz symm=none int=(grid=ultrafine) guess=(read,tcheck) s
 table=(opt,rrhf)
 ----------------------------------------------------------------------
 -----
 title
 -----
 Symbolic Z-matrix:
 Charge =  0 Multiplicity = 1

 SCF Done:  E(RHF) =  -188.633012641     A.U. after   12 cycles
 Normal termination of Gaussian 16 at Sun Apr  6 08:12:55 2025.
 Gaussian 16:  ES64L-G16RevC.01  3-Jul-2019

 ----------------------------------------------------------------------
 #t hf aug-cc-pvdz iop(5/13=1,5/36=2,99/5=2) pseudo=read geom=check gue
 ss=(read,tcheck) scf=(maxcycle=1)
 ----------------------------------------------------------------------
 -----
 title
 -----
 Structure from the checkpoint file:  "dioxirane.chk"
 Charge =  0 Multiplicity = 1

                         Standard orientation:
 ---------------------------------------------------------------------
 Center     Atomic      Atomic             Coordinates (Angstroms)
 Number     Number       Type             X           Y           Z
 ---------------------------------------------------------------------
      1          6           0        0.000000    0.000000    0.731328
      2          1           0        0.926417   -0.000000    1.301629
      3          1           0       -0.926417    0.000000    1.301629
      4          8           0        0.000000    0.749219   -0.436952
      5          8           0       -0.000000   -0.749219   -0.436952
 ---------------------------------------------------------------------

 SCF Done:  E(RHF) =  -189.386418527     A.U. after    2 cycles

 The electronic state is 1-A1.
 Alpha  occ. eigenvalues --  -21.12884 -21.12875 -11.48222  -2.02252  -1.39091
 Alpha  occ. eigenvalues --   -0.97204  -0.72434  -0.61604  -0.44192  -0.43883
 Alpha  occ. eigenvalues --   -0.42016  -0.29579
 Alpha virt. eigenvalues --    0.03398   0.05349   0.08769   0.10408   0.15603
 Alpha virt. eigenvalues --    0.15958   0.16545   0.19089   0.22941   0.23498
 Alpha virt. eigenvalues --    0.24255   0.26273   0.28209   0.30105   0.33229

 Mulliken charges:
               1
     1  C   -0.134934
     2  H    1.427681
     3  H    1.427681
     4  O   -1.360214
     5  O   -1.360214
 Sum of Mulliken charges =   0.00000

 Dipole moment (field-independent basis, Debye):
    X=              0.0000    Y=              0.0000    Z=              1.1586  Tot=              1.1586

 Test job not archived.
 1\1\GINC-SE085\SP\RHF\Aug-CC-pVDZ\C1H2O2\OHZDE\06-Apr-2025\0\\#t hf au
 g-cc-pvdz iop(5/13=1,5/36=2,99/5=2) pseudo=read geom=check guess=(read
 ,tcheck) scf=(maxcycle=1)\\title\\0,1\C,0,0.,0.,0.731328\H,0,0.926417,
 0.,1.301629\H,0,-0.926417,0.,1.301629\O,0,0.,0.749219,-0.436952\O,0,0.
 ,-0.749219,-0.436952\\Version=ES64L-G16RevC.01\State=1-A1\HF=-189.3864
 185\RMSD=6.413e-02\Dipole=0.,0.,0.4558219\Quadrupole=-0.3874117,-0.299
 643,0.6870547,0.,0.,0.\PG=C02V [C2(C1),SGV(O2),SGV'(H2)]\\@

 Normal termination of Gaussian 16 at Sun Apr  6 08:12:56 2025.
