 Gaussian 16, Revision C.01,

 ----------------------------------------------------------------------
 #t hf aug-cc-pvdz symm=none int=(grid=ultrafine) guess=(read,tcheck) s
 table=(opt,rrhf)
 ----------------------------------------------------------------------
 -----
 title
 -----
 Symbolic Z-matrix:
 Charge =  0 Multiplicity = 1

 SCF Done:  E(RHF) =  -625.204127828     A.U. after   15 cycles
 Normal termination of Gaussian 16 at Sun Apr  6 08:13:01 2025.
 Gaussian 16:  ES64L-G16RevC.01  3-Jul-2019

 ----------------------------------------------------------------------
 #t hf aug-cc-pvdz iop(5/13=1,5/36=2,99/5=2) pseudo=read geom=check gue
 ss=(read,tcheck) scf=(maxcycle=1)
 ----------------------------------------------------------------------
 -----
 title
 -----
 Structure from the checkpoint file:  "dioxathiolane.chk"
 Charge =  0 Multiplicity = 1

                         Standard orientation:
 ---------------------------------------------------------------------
 Center     Atomic      Atomic             Coordinates (Angstroms)
 Number     Number       Type             X           Y           Z
 ---------------------------------------------------------------------
      1         16           0        1.236970    0.049907   -0.108638
      2          8           0        0.170344   -1.178406    0.365430
      3          8           0       -1.065349   -0.869992   -0.353876
      4          6           0       -0.081416    1.306104    0.072269
      5          6           0       -1.371008    0.445059    0.086653
      6          1           0       -0.029247    1.976188   -0.782424
      7          1           0        0.016390    1.873792    0.994257
      8          1           0       -2.117419    0.815604   -0.614952
      9          1           0       -1.786663    0.416113    1.095372
 ---------------------------------------------------------------------

 SCF Done:  E(RHF) =  -626.418996463     A.U. after    2 cycles

 The electronic state is 1-A.
 Alpha  occ. eigenvalues --  -75.73076 -21.11440 -21.11010 -13.17861 -13.14943
 Alpha  occ. eigenvalues --  -13.05858 -11.46225 -11.41143  -8.06873  -1.97292
 Alpha  occ. eigenvalues --   -1.48491  -1.20944  -0.96789  -0.88286  -0.69675
 Alpha  occ. eigenvalues --   -0.67226  -0.58125  -0.54963  -0.49237  -0.44527
 Alpha  occ. eigenvalues --   -0.39714  -0.39077  -0.30141  -0.21954
 Alpha virt. eigenvalues --    0.03285   0.04796   0.05118   0.06206   0.06851
 Alpha virt. eigenvalues --    0.09738   0.11006   0.12167   0.13881   0.14355
 Alpha virt. eigenvalues --    0.15075   0.15502   0.17902   0.18303   0.19168

 Mulliken charges:
               1
     1  S    1.815176
     2  O   -1.086987
     3  O   -1.433916
     4  C   -3.645158
     5  C   -1.121817
     6  H    1.423854
     7  H    1.328205
     8  H    1.312592
     9  H    1.408052
 Sum of Mulliken charges =  -0.00000

 Dipole moment (field-independent basis, Debye):
    X=              0.0064    Y=              1.2195    Z=             -0.2556  Tot=              1.2461

 Test job not archived.
 1\1\GINC-SE084\SP\RHF\Aug-CC-pVDZ\C2H4O2S1\OHZDE\06-Apr-2025\0\\#t hf
 aug-cc-pvdz iop(5/13=1,5/36=2,99/5=2) pseudo=read geom=check guess=(re
 ad,tcheck) scf=(maxcycle=1)\\title\\0,1\S,0,1.23697,0.049907,-0.108638
 \O,0,0.170344,-1.178406,0.36543\O,0,-1.065349,-0.869992,-0.353876\C,0,
 -0.081416,1.306104,0.072269\C,0,-1.371008,0.445059,0.086653\H,0,-0.029
 247,1.976188,-0.782424\H,0,0.01639,1.873792,0.994257\H,0,-2.117419,0.8
 15604,-0.614952\H,0,-1.786663,0.416113,1.095372\\Version=ES64L-G16RevC
 .01\State=1-A\HF=-626.4189965\RMSD=1.799e-01\Dipole=0.0024995,0.479806

 Normal termination of Gaussian 16 at Sun Apr  6 08:13:04 2025.
