 Gaussian 16, Revision C.01,

 ----------------------------------------------------------------------
 #t hf aug-cc-pvdz symm=none int=(grid=ultrafine) guess=(read,tcheck) s
 table=(opt,rrhf)
 ----------------------------------------------------------------------
 -----
 title
 -----
 Symbolic Z-matrix:
 Charge =  0 Multiplicity = 1

 SCF Done:  E(RHF) =  -932.633679520     A.U. after   16 cycles
 Normal termination of Gaussian 16 at Sun Apr  6 08:19:00 2025.
 Gaussian 16:  ES64L-G16RevC.01  3-Jul-2019

 ----------------------------------------------------------------------
 #t hf aug-cc-pvdz iop(5/13=1,5/36=2,99/5=2) pseudo=read geom=check gue
 ss=(read,tcheck) scf=(maxcycle=1)
 ----------------------------------------------------------------------
 -----
 title
 -----
 Structure from the checkpoint file:  "diphenylsulfoxide.chk"
 Charge =  0 Multiplicity = 1

                         Standard orientation:
 ---------------------------------------------------------------------
 Center     Atomic      Atomic             Coordinates (Angstroms)
 Number     Number       Type             X           Y           Z
 ---------------------------------------------------------------------
      1         16           0       -0.000000    1.198969   -1.022088
      2          8           0       -0.000019    2.525292   -0.313898
      3          6           0       -1.379883    0.233902   -0.310543
      4          6           0       -1.827639   -0.916094   -0.948304
      5          6           0       -2.903944   -1.613131   -0.411977
      6          6           0       -3.530081   -1.148516    0.740491
      7          6           0       -3.084519    0.016906    1.355299
      8          6           0       -2.005880    0.718377    0.827890
      9          6           0        1.379888    0.233926   -0.310531
     10          6           0        2.005793    0.718340    0.827976
     11          6           0        3.084431    0.016873    1.355398
     12          6           0        3.530079   -1.148482    0.740528
     13          6           0        2.904037   -1.613032   -0.412019
     14          6           0        1.827738   -0.915998   -0.948359
     15          1           0       -1.351533   -1.264663   -1.855542
     16          1           0       -3.259487   -2.510929   -0.899140
     17          1           0       -4.371765   -1.688895    1.151883
     18          1           0       -3.580077    0.384290    2.243835
     19          1           0       -1.652216    1.637972    1.273661
     20          1           0        1.652066    1.637890    1.273792
     21          1           0        3.579920    0.384210    2.243992
     22          1           0        4.371760   -1.688857    1.151931
     23          1           0        3.259655   -2.510772   -0.899234
     24          1           0        1.351714   -1.264502   -1.855665
 ---------------------------------------------------------------------

 SCF Done:  E(RHF) =  -935.394793842     A.U. after    2 cycles

 The electronic state is 1-A.
 Alpha  occ. eigenvalues --  -75.79446 -21.00374 -13.35455 -13.30141 -13.23537
 Alpha  occ. eigenvalues --  -11.54184 -11.52683 -11.45444 -11.45224 -11.44703
 Alpha  occ. eigenvalues --  -11.44390 -11.42567 -11.42265 -11.42138 -11.41719
 Alpha  occ. eigenvalues --  -11.37979 -11.37634  -8.13614  -1.69081  -1.37137
 Alpha  occ. eigenvalues --   -1.34740  -1.16406  -1.10659  -1.10616  -1.10546
 Alpha  occ. eigenvalues --   -1.00633  -0.88112  -0.87964  -0.86815  -0.83018
 Alpha  occ. eigenvalues --   -0.73016  -0.72091  -0.65872  -0.64475  -0.60020
 Alpha  occ. eigenvalues --   -0.59673  -0.59296  -0.59121  -0.57732  -0.56753
 Alpha  occ. eigenvalues --   -0.52291  -0.51629  -0.47018  -0.46105  -0.44675
 Alpha  occ. eigenvalues --   -0.44658  -0.38057  -0.36641  -0.34658  -0.33977
 Alpha  occ. eigenvalues --   -0.33054  -0.32539  -0.25583
 Alpha virt. eigenvalues --    0.02992   0.04423   0.04947   0.04967   0.05150
 Alpha virt. eigenvalues --    0.05461   0.06144   0.07331   0.07531   0.08506
 Alpha virt. eigenvalues --    0.08538   0.09509   0.10118   0.10624   0.10817

 Mulliken charges:
               1
     1  S    3.578848
     2  O   -2.955316
     3  C    4.852565
     4  C   -3.913083
     5  C   -0.959649
     6  C   -3.327937
     7  C   -0.286593
     8  C   -5.250060
     9  C    4.852519
    10  C   -5.250092
    11  C   -0.286605
    12  C   -3.327853
    13  C   -0.959598
    14  C   -3.913225
    15  H    2.001088
    16  H    1.545257
    17  H    1.569917
    18  H    1.544679
    19  H    1.912100
    20  H    1.912076
    21  H    1.544681
    22  H    1.569918
    23  H    1.545255
    24  H    2.001108
 Sum of Mulliken charges =   0.00000

 Dipole moment (field-independent basis, Debye):
    X=              0.0001    Y=             -2.0671    Z=              0.1686  Tot=              2.0739

 Test job not archived.
 1\1\GINC-SE085\SP\RHF\Aug-CC-pVDZ\C12H10O1S1\OHZDE\06-Apr-2025\0\\#t h
 f aug-cc-pvdz iop(5/13=1,5/36=2,99/5=2) pseudo=read geom=check guess=(
 read,tcheck) scf=(maxcycle=1)\\title\\0,1\S,0,0.,1.198969,-1.022088\O,
 0,-0.000019,2.525292,-0.313898\C,0,-1.379883,0.233902,-0.310543\C,0,-1
 .827639,-0.916094,-0.948304\C,0,-2.903944,-1.613131,-0.411977\C,0,-3.5
 30081,-1.148516,0.740491\C,0,-3.084519,0.016906,1.355299\C,0,-2.00588,
 0.718377,0.82789\C,0,1.379888,0.233926,-0.310531\C,0,2.005793,0.71834,
 0.827976\C,0,3.084431,0.016873,1.355398\C,0,3.530079,-1.148482,0.74052

 Normal termination of Gaussian 16 at Sun Apr  6 08:19:24 2025.
