 Gaussian 16, Revision C.01,

 ----------------------------------------------------------------------
 #t hf aug-cc-pvdz symm=none int=(grid=ultrafine) guess=(read,tcheck) s
 table=(opt,rrhf)
 ----------------------------------------------------------------------
 -----
 title
 -----
 Symbolic Z-matrix:
 Charge =  0 Multiplicity = 1

 SCF Done:  E(RHF) =  -290.420573642     A.U. after   11 cycles

 1\1\GINC-SE249\Stability\RHF\Aug-CC-pVDZ\C6H15N1\OHZDE\06-Apr-2025\0\\
 #t hf aug-cc-pvdz symm=none int=(grid=ultrafine) guess=(read,tcheck) s
 table=(opt,rrhf)\\title\\0,1\C,0,0.002905,-0.287931,3.765494\C,0,0.002
 905,-0.287931,-3.765494\C,0,0.002905,0.516132,2.466843\C,0,0.002905,0.
 516132,-2.466843\C,0,0.019045,-0.366124,1.223486\C,0,0.019045,-0.36612
 4,-1.223486\N,0,0.04109,0.425929,0.\H,0,-0.869191,-0.941707,3.829272\H
 ,0,0.892625,-0.916399,3.840202\H,0,-0.011524,0.368209,4.636319\H,0,0.8
 92625,-0.916399,-3.840202\H,0,-0.869191,-0.941707,-3.829272\H,0,-0.011

 Normal termination of Gaussian 16 at Sun Apr  6 08:13:48 2025.
 Gaussian 16:  ES64L-G16RevC.01  3-Jul-2019

 ----------------------------------------------------------------------
 #t hf aug-cc-pvdz iop(5/13=1,5/36=2,99/5=2) pseudo=read geom=check gue
 ss=(read,tcheck) scf=(maxcycle=1)
 ----------------------------------------------------------------------
 -----
 title
 -----
 Structure from the checkpoint file:  "dipropylamine.chk"
 Charge =  0 Multiplicity = 1

                         Standard orientation:
 ---------------------------------------------------------------------
 Center     Atomic      Atomic             Coordinates (Angstroms)
 Number     Number       Type             X           Y           Z
 ---------------------------------------------------------------------
      1          6           0        0.002905   -0.287931    3.765494
      2          6           0        0.002905   -0.287931   -3.765494
      3          6           0        0.002905    0.516132    2.466843
      4          6           0        0.002905    0.516132   -2.466843
      5          6           0        0.019045   -0.366124    1.223486
      6          6           0        0.019045   -0.366124   -1.223486
      7          7           0        0.041090    0.425929   -0.000000
      8          1           0       -0.869191   -0.941707    3.829272
      9          1           0        0.892625   -0.916399    3.840202
     10          1           0       -0.011524    0.368209    4.636319
     11          1           0        0.892625   -0.916399   -3.840202
     12          1           0       -0.869191   -0.941707   -3.829272
     13          1           0       -0.011524    0.368209   -4.636319
     14          1           0        0.868617    1.180978    2.434926
     15          1           0       -0.882182    1.160098    2.437277
     16          1           0       -0.882182    1.160098   -2.437277
     17          1           0        0.868617    1.180978   -2.434926
     18          1           0       -0.839000   -1.059882    1.257260
     19          1           0        0.917482   -0.990937    1.233278
     20          1           0        0.917482   -0.990937   -1.233278
     21          1           0       -0.839000   -1.059882   -1.257260
     22          1           0       -0.739557    1.072851   -0.000000
 ---------------------------------------------------------------------

 SCF Done:  E(RHF) =  -291.924365310     A.U. after    2 cycles

 The electronic state is 1-A'.
 Alpha  occ. eigenvalues --  -15.70419 -11.42953 -11.40819 -11.38494 -11.38285
 Alpha  occ. eigenvalues --  -11.34883 -11.34226  -1.39115  -1.19890  -1.13479
 Alpha  occ. eigenvalues --   -0.99616  -0.91236  -0.84401  -0.82993  -0.67422
 Alpha  occ. eigenvalues --   -0.62690  -0.60716  -0.59999  -0.56781  -0.55874
 Alpha  occ. eigenvalues --   -0.52582  -0.50820  -0.49381  -0.47045  -0.46001
 Alpha  occ. eigenvalues --   -0.45789  -0.45423  -0.39875  -0.32152
 Alpha virt. eigenvalues --    0.04239   0.04603   0.05416   0.05811   0.05869
 Alpha virt. eigenvalues --    0.05950   0.06277   0.06554   0.07044   0.07413
 Alpha virt. eigenvalues --    0.07859   0.08101   0.09917   0.10677   0.10824

 Mulliken charges:
               1
     1  C   -4.061642
     2  C   -4.061642
     3  C   -3.565561
     4  C   -3.565561
     5  C   -1.531238
     6  C   -1.531238
     7  N   -2.537334
     8  H    1.288403
     9  H    1.310331
    10  H    1.115920
    11  H    1.310331
    12  H    1.288403
    13  H    1.115920
    14  H    1.483329
    15  H    1.480474
    16  H    1.480474
    17  H    1.483329
    18  H    1.690930
    19  H    1.740557
    20  H    1.740557
    21  H    1.690930
    22  H    0.634325
 Sum of Mulliken charges =  -0.00000

 Dipole moment (field-independent basis, Debye):
    X=             -0.5795    Y=             -0.0195    Z=             -0.0000  Tot=              0.5798

 Test job not archived.
 1\1\GINC-SE249\SP\RHF\Aug-CC-pVDZ\C6H15N1\OHZDE\06-Apr-2025\0\\#t hf a
 ug-cc-pvdz iop(5/13=1,5/36=2,99/5=2) pseudo=read geom=check guess=(rea
 d,tcheck) scf=(maxcycle=1)\\title\\0,1\C,0,0.002905,-0.287931,3.765494
 \C,0,0.002905,-0.287931,-3.765494\C,0,0.002905,0.516132,2.466843\C,0,0
 .002905,0.516132,-2.466843\C,0,0.019045,-0.366124,1.223486\C,0,0.01904
 5,-0.366124,-1.223486\N,0,0.04109,0.425929,0.\H,0,-0.869191,-0.941707,
 3.829272\H,0,0.892625,-0.916399,3.840202\H,0,-0.011524,0.368209,4.6363
 19\H,0,0.892625,-0.916399,-3.840202\H,0,-0.869191,-0.941707,-3.829272\

 Normal termination of Gaussian 16 at Sun Apr  6 08:13:53 2025.
