 Gaussian 16, Revision C.01,

 ----------------------------------------------------------------------
 #t hf aug-cc-pvdz symm=none int=(grid=ultrafine) guess=(read,tcheck) s
 table=(opt,rrhf)
 ----------------------------------------------------------------------
 -----
 title
 -----
 Symbolic Z-matrix:
 Charge =  0 Multiplicity = 1

 SCF Done:  E(RHF) =  -414.279139636     A.U. after   17 cycles
 Normal termination of Gaussian 16 at Sun Apr  6 08:13:46 2025.
 Gaussian 16:  ES64L-G16RevC.01  3-Jul-2019

 ----------------------------------------------------------------------
 #t hf aug-cc-pvdz iop(5/13=1,5/36=2,99/5=2) pseudo=read geom=check gue
 ss=(read,tcheck) scf=(maxcycle=1)
 ----------------------------------------------------------------------
 -----
 title
 -----
 Structure from the checkpoint file:  "dipropargylnitrosamine.chk"
 Charge =  0 Multiplicity = 1

                         Standard orientation:
 ---------------------------------------------------------------------
 Center     Atomic      Atomic             Coordinates (Angstroms)
 Number     Number       Type             X           Y           Z
 ---------------------------------------------------------------------
      1          8           0        1.240989    2.316707   -0.287642
      2          7           0        0.074392    0.539266    0.153552
      3          7           0        0.338574    1.835872    0.364116
      4          6           0       -1.018081   -0.017513    0.938595
      5          6           0        0.805026   -0.270810   -0.823168
      6          6           0       -2.168330   -0.409668    0.125287
      7          6           0        1.525451   -1.378278   -0.205251
      8          6           0       -3.106676   -0.740595   -0.542391
      9          6           0        2.105048   -2.294984    0.304845
     10          1           0       -0.653615   -0.880360    1.501749
     11          1           0       -1.300451    0.756689    1.652149
     12          1           0        1.494721    0.413664   -1.317408
     13          1           0        0.099799   -0.648227   -1.567386
     14          1           0       -3.943385   -1.027237   -1.129310
     15          1           0        2.629621   -3.103060    0.750177
 ---------------------------------------------------------------------

 SCF Done:  E(RHF) =  -416.171316995     A.U. after    2 cycles

 The electronic state is 1-A.
 Alpha  occ. eigenvalues --  -21.08307 -15.88952 -15.79134 -11.50037 -11.49076
 Alpha  occ. eigenvalues --  -11.42840 -11.42396 -11.41869 -11.41616  -1.86860
 Alpha  occ. eigenvalues --   -1.49449  -1.19772  -1.16531  -1.04900  -1.03818
 Alpha  occ. eigenvalues --   -0.85071  -0.77888  -0.74403  -0.71467  -0.69270
 Alpha  occ. eigenvalues --   -0.67042  -0.61786  -0.58863  -0.57886  -0.55643
 Alpha  occ. eigenvalues --   -0.50613  -0.40191  -0.39248  -0.38489  -0.38240
 Alpha  occ. eigenvalues --   -0.32615  -0.28602
 Alpha virt. eigenvalues --    0.02750   0.04116   0.05164   0.06407   0.06648
 Alpha virt. eigenvalues --    0.07444   0.08746   0.09224   0.11091   0.11233
 Alpha virt. eigenvalues --    0.11618   0.11791   0.11966   0.12689   0.13384

 Mulliken charges:
               1
     1  O   -2.203049
     2  N   -0.555394
     3  N    1.223963
     4  C   -3.238459
     5  C   -2.909279
     6  C    4.536487
     7  C    4.456142
     8  C   -4.182791
     9  C   -4.205820
    10  H    1.394581
    11  H    1.336593
    12  H    1.415964
    13  H    1.384247
    14  H    0.771988
    15  H    0.774826
 Sum of Mulliken charges =  -0.00000

 Dipole moment (field-independent basis, Debye):
    X=             -0.5783    Y=             -2.0682    Z=             -0.2935  Tot=              2.1675

 Test job not archived.
 1\1\GINC-SE086\SP\RHF\Aug-CC-pVDZ\C6H6N2O1\OHZDE\06-Apr-2025\0\\#t hf
 aug-cc-pvdz iop(5/13=1,5/36=2,99/5=2) pseudo=read geom=check guess=(re
 ad,tcheck) scf=(maxcycle=1)\\title\\0,1\O,0,1.240989,2.316707,-0.28764
 2\N,0,0.074392,0.539266,0.153552\N,0,0.338574,1.835872,0.364116\C,0,-1
 .018081,-0.017513,0.938595\C,0,0.805026,-0.27081,-0.823168\C,0,-2.1683
 3,-0.409668,0.125287\C,0,1.525451,-1.378278,-0.205251\C,0,-3.106676,-0
 .740595,-0.542391\C,0,2.105048,-2.294984,0.304845\H,0,-0.653615,-0.880
 36,1.501749\H,0,-1.300451,0.756689,1.652149\H,0,1.494721,0.413664,-1.3

 Normal termination of Gaussian 16 at Sun Apr  6 08:13:52 2025.
