 Gaussian 16, Revision C.01,

 ----------------------------------------------------------------------
 #t hf aug-cc-pvdz symm=none int=(grid=ultrafine) guess=(read,tcheck) s
 table=(opt,rrhf)
 ----------------------------------------------------------------------
 -----
 title
 -----
 Symbolic Z-matrix:
 Charge =  0 Multiplicity = 1

 SCF Done:  E(RHF) =  -707.729693106     A.U. after   14 cycles
 Normal termination of Gaussian 16 at Sun Apr  6 08:14:34 2025.
 Gaussian 16:  ES64L-G16RevC.01  3-Jul-2019

 ----------------------------------------------------------------------
 #t hf aug-cc-pvdz iop(5/13=1,5/36=2,99/5=2) pseudo=read geom=check gue
 ss=(read,tcheck) scf=(maxcycle=1)
 ----------------------------------------------------------------------
 -----
 title
 -----
 Structure from the checkpoint file:  "dipropyl_sulfoxide.chk"
 Charge =  0 Multiplicity = 1

                         Standard orientation:
 ---------------------------------------------------------------------
 Center     Atomic      Atomic             Coordinates (Angstroms)
 Number     Number       Type             X           Y           Z
 ---------------------------------------------------------------------
      1          6           0       -2.486191   -0.072064    0.552450
      2          6           0       -1.024223    0.142152    0.935317
      3         16           0       -0.047098    0.993348   -0.402402
      4          8           0        0.947086    1.893124    0.293391
      5          6           0       -2.714523   -1.122271   -0.534399
      6          6           0        0.925143   -0.441946   -1.093699
      7          6           0        2.275145   -0.662317   -0.419059
      8          6           0        2.229720   -1.279940    0.977069
      9          1           0       -2.917557    0.881786    0.239294
     10          1           0       -3.024646   -0.367002    1.456918
     11          1           0       -0.533523   -0.786746    1.217820
     12          1           0       -0.928225    0.849831    1.758194
     13          1           0       -2.255162   -0.831273   -1.480484
     14          1           0       -2.300045   -2.089896   -0.243556
     15          1           0       -3.779511   -1.261717   -0.720802
     16          1           0        1.067876   -0.172666   -2.140309
     17          1           0        0.277509   -1.317972   -1.055491
     18          1           0        2.793803    0.296174   -0.372767
     19          1           0        2.859562   -1.304564   -1.083624
     20          1           0        1.774757   -0.601276    1.697093
     21          1           0        1.672070   -2.219643    0.985066
     22          1           0        3.239545   -1.495279    1.327871
 ---------------------------------------------------------------------

 SCF Done:  E(RHF) =  -709.522552645     A.U. after    2 cycles

 The electronic state is 1-A.
 Alpha  occ. eigenvalues --  -75.76817 -20.98717 -13.31667 -13.23496 -13.16921
 Alpha  occ. eigenvalues --  -11.44891 -11.44129 -11.40735 -11.40199 -11.37255
 Alpha  occ. eigenvalues --  -11.35952  -8.10985  -1.66754  -1.26306  -1.21023
 Alpha  occ. eigenvalues --   -1.09126  -1.01900  -0.93235  -0.85648  -0.81845
 Alpha  occ. eigenvalues --   -0.65918  -0.64361  -0.63388  -0.62633  -0.57880
 Alpha  occ. eigenvalues --   -0.57472  -0.53067  -0.51485  -0.49544  -0.49002
 Alpha  occ. eigenvalues --   -0.47461  -0.47210  -0.43987  -0.43089  -0.36136
 Alpha  occ. eigenvalues --   -0.30661  -0.24124
 Alpha virt. eigenvalues --    0.03550   0.04130   0.04610   0.05159   0.05490
 Alpha virt. eigenvalues --    0.05813   0.06103   0.06423   0.07076   0.07399
 Alpha virt. eigenvalues --    0.07702   0.08704   0.08836   0.10418   0.11677

 Mulliken charges:
               1
     1  C   -3.060460
     2  C   -3.792443
     3  S    3.659551
     4  O   -2.517486
     5  C   -3.992101
     6  C   -4.090410
     7  C   -2.662202
     8  C   -4.065832
     9  H    1.432538
    10  H    1.253986
    11  H    2.128978
    12  H    1.540417
    13  H    1.544775
    14  H    1.377614
    15  H    1.066838
    16  H    1.466083
    17  H    1.933004
    18  H    1.535298
    19  H    1.252169
    20  H    1.537202
    21  H    1.401160
    22  H    1.051322
 Sum of Mulliken charges =  -0.00000

 Dipole moment (field-independent basis, Debye):
    X=             -1.0620    Y=             -1.2455    Z=             -0.5961  Tot=              1.7420

 Test job not archived.
 1\1\GINC-SE086\SP\RHF\Aug-CC-pVDZ\C6H14O1S1\OHZDE\06-Apr-2025\0\\#t hf
  aug-cc-pvdz iop(5/13=1,5/36=2,99/5=2) pseudo=read geom=check guess=(r
 ead,tcheck) scf=(maxcycle=1)\\title\\0,1\C,0,-2.486191,-0.072064,0.552
 45\C,0,-1.024223,0.142152,0.935317\S,0,-0.047098,0.993348,-0.402402\O,
 0,0.947086,1.893124,0.293391\C,0,-2.714523,-1.122271,-0.534399\C,0,0.9
 25143,-0.441946,-1.093699\C,0,2.275145,-0.662317,-0.419059\C,0,2.22972
 ,-1.27994,0.977069\H,0,-2.917557,0.881786,0.239294\H,0,-3.024646,-0.36
 7002,1.456918\H,0,-0.533523,-0.786746,1.21782\H,0,-0.928225,0.849831,1

 Normal termination of Gaussian 16 at Sun Apr  6 08:14:49 2025.
