 Gaussian 16, Revision C.01,

 ----------------------------------------------------------------------
 #t hf aug-cc-pvdz symm=none int=(grid=ultrafine) guess=(read,tcheck) s
 table=(opt,rrhf)
 ----------------------------------------------------------------------
 -----
 title
 -----
 Symbolic Z-matrix:
 Charge =  0 Multiplicity = 1

 SCF Done:  E(RHF) =  -270.802021299     A.U. after   12 cycles
 Normal termination of Gaussian 16 at Sun Apr  6 08:13:36 2025.
 Gaussian 16:  ES64L-G16RevC.01  3-Jul-2019

 ----------------------------------------------------------------------
 #t hf aug-cc-pvdz iop(5/13=1,5/36=2,99/5=2) pseudo=read geom=check gue
 ss=(read,tcheck) scf=(maxcycle=1)
 ----------------------------------------------------------------------
 -----
 title
 -----
 Structure from the checkpoint file:  "dispiro2-0-2-1heptane.chk"
 Charge =  0 Multiplicity = 1

                         Standard orientation:
 ---------------------------------------------------------------------
 Center     Atomic      Atomic             Coordinates (Angstroms)
 Number     Number       Type             X           Y           Z
 ---------------------------------------------------------------------
      1          6           0        0.000000    0.728728    0.184208
      2          6           0       -0.763274    1.830763   -0.441725
      3          6           0        0.763274    1.830763   -0.441725
      4          6           0       -0.000000   -0.728728    0.184208
      5          6           0       -0.000000   -0.000000    1.493939
      6          6           0       -0.763274   -1.830763   -0.441725
      7          6           0        0.763274   -1.830763   -0.441725
      8          1           0       -1.265756    2.542902    0.199945
      9          1           0       -1.265398    1.641386   -1.381956
     10          1           0        1.265756    2.542902    0.199945
     11          1           0        1.265398    1.641386   -1.381956
     12          1           0       -0.913191    0.000000    2.077660
     13          1           0        0.913191   -0.000000    2.077660
     14          1           0       -1.265398   -1.641386   -1.381956
     15          1           0       -1.265756   -2.542902    0.199945
     16          1           0        1.265398   -1.641386   -1.381956
     17          1           0        1.265756   -2.542902    0.199945
 ---------------------------------------------------------------------

 SCF Done:  E(RHF) =  -272.152739904     A.U. after    2 cycles

 The electronic state is 1-A1.
 Alpha  occ. eigenvalues --  -11.46959 -11.43644 -11.43181 -11.41929 -11.38752
 Alpha  occ. eigenvalues --  -11.37589 -11.36038  -1.38673  -1.23830  -1.10004
 Alpha  occ. eigenvalues --   -0.86631  -0.85653  -0.81931  -0.74036  -0.65321
 Alpha  occ. eigenvalues --   -0.63825  -0.63794  -0.60565  -0.50778  -0.50167
 Alpha  occ. eigenvalues --   -0.49115  -0.43656  -0.42190  -0.35547  -0.34862
 Alpha  occ. eigenvalues --   -0.34799
 Alpha virt. eigenvalues --    0.03966   0.05011   0.05148   0.05797   0.05994
 Alpha virt. eigenvalues --    0.06185   0.06764   0.06881   0.08392   0.08802
 Alpha virt. eigenvalues --    0.10174   0.11072   0.12011   0.12902   0.14287

 Mulliken charges:
               1
     1  C    2.034178
     2  C   -2.832018
     3  C   -2.832018
     4  C    2.034178
     5  C   -3.987493
     6  C   -2.832018
     7  C   -2.832018
     8  H    1.068256
     9  H    1.162982
    10  H    1.068256
    11  H    1.162982
    12  H    1.161128
    13  H    1.161128
    14  H    1.162982
    15  H    1.068256
    16  H    1.162982
    17  H    1.068256
 Sum of Mulliken charges =   0.00000

 Dipole moment (field-independent basis, Debye):
    X=             -0.0000    Y=              0.0000    Z=              0.0029  Tot=              0.0029

 Test job not archived.
 1\1\GINC-SE273\SP\RHF\Aug-CC-pVDZ\C7H10\OHZDE\06-Apr-2025\0\\#t hf aug
 -cc-pvdz iop(5/13=1,5/36=2,99/5=2) pseudo=read geom=check guess=(read,
 tcheck) scf=(maxcycle=1)\\title\\0,1\C,0,0.,0.728728,0.184208\C,0,-0.7
 63274,1.830763,-0.441725\C,0,0.763274,1.830763,-0.441725\C,0,0.,-0.728
 728,0.184208\C,0,0.,0.,1.493939\C,0,-0.763274,-1.830763,-0.441725\C,0,
 0.763274,-1.830763,-0.441725\H,0,-1.265756,2.542902,0.199945\H,0,-1.26
 5398,1.641386,-1.381956\H,0,1.265756,2.542902,0.199945\H,0,1.265398,1.
 641386,-1.381956\H,0,-0.913191,0.,2.07766\H,0,0.913191,0.,2.07766\H,0,

 Normal termination of Gaussian 16 at Sun Apr  6 08:13:42 2025.
