 Gaussian 16, Revision C.01,

 ----------------------------------------------------------------------
 #t hf aug-cc-pvdz symm=none int=(grid=ultrafine) guess=(read,tcheck) s
 table=(opt,rrhf)
 ----------------------------------------------------------------------
 -----
 title
 -----
 Symbolic Z-matrix:
 Charge =  0 Multiplicity = 1

 SCF Done:  E(RHF) =  -1022.90099271     A.U. after   14 cycles
 Normal termination of Gaussian 16 at Sun Apr  6 08:13:11 2025.
 Gaussian 16:  ES64L-G16RevC.01  3-Jul-2019

 ----------------------------------------------------------------------
 #t hf aug-cc-pvdz iop(5/13=1,5/36=2,99/5=2) pseudo=read geom=check gue
 ss=(read,tcheck) scf=(maxcycle=1)
 ----------------------------------------------------------------------
 -----
 title
 -----
 Structure from the checkpoint file:  "disulfanylacetic_acid.chk"
 Charge =  0 Multiplicity = 1

                         Standard orientation:
 ---------------------------------------------------------------------
 Center     Atomic      Atomic             Coordinates (Angstroms)
 Number     Number       Type             X           Y           Z
 ---------------------------------------------------------------------
      1         16           0       -0.802200    0.738403    0.006465
      2         16           0       -2.555014   -0.375391   -0.096171
      3          8           0        2.866754   -0.880415   -0.028233
      4          8           0        2.068290    1.188928    0.002883
      5          6           0        0.458292   -0.598704    0.045623
      6          6           0        1.844967    0.013992    0.003269
      7          1           0        0.311493   -1.260107   -0.808448
      8          1           0        0.346394   -1.185656    0.958254
      9          1           0        2.539718   -1.788027   -0.031196
     10          1           0       -2.782096   -0.534219    1.226126
 ---------------------------------------------------------------------

 SCF Done:  E(RHF) =  -1024.31533962     A.U. after    2 cycles

 The electronic state is 1-A.
 Alpha  occ. eigenvalues --  -75.72786 -75.72608 -21.14114 -21.06842 -13.16524
 Alpha  occ. eigenvalues --  -13.14936 -13.11463 -13.09138 -13.05379 -13.04908
 Alpha  occ. eigenvalues --  -11.54885 -11.44304  -8.06507  -8.06436  -1.84035
 Alpha  occ. eigenvalues --   -1.67261  -1.26722  -1.12057  -0.96340  -0.80615
 Alpha  occ. eigenvalues --   -0.71012  -0.66903  -0.57835  -0.53608  -0.52554
 Alpha  occ. eigenvalues --   -0.50216  -0.44506  -0.36486  -0.35531  -0.33027
 Alpha  occ. eigenvalues --   -0.26768  -0.25809
 Alpha virt. eigenvalues --    0.01995   0.02751   0.04742   0.05687   0.06044
 Alpha virt. eigenvalues --    0.09367   0.10654   0.11226   0.12280   0.12720
 Alpha virt. eigenvalues --    0.13292   0.13765   0.15530   0.15836   0.16874

 Mulliken charges:
               1
     1  S    0.241810
     2  S   -1.355661
     3  O   -3.003210
     4  O   -2.774783
     5  C   -3.437491
     6  C    4.916599
     7  H    1.578224
     8  H    1.536193
     9  H    1.056625
    10  H    1.241695
 Sum of Mulliken charges =   0.00000

 Dipole moment (field-independent basis, Debye):
    X=             -0.7417    Y=             -1.0291    Z=             -0.8371  Tot=              1.5198

 Test job not archived.
 1\1\GINC-SE276\SP\RHF\Aug-CC-pVDZ\C2H4O2S2\OHZDE\06-Apr-2025\0\\#t hf
 aug-cc-pvdz iop(5/13=1,5/36=2,99/5=2) pseudo=read geom=check guess=(re
 ad,tcheck) scf=(maxcycle=1)\\title\\0,1\S,0,-0.8022,0.738403,0.006465\
 S,0,-2.555014,-0.375391,-0.096171\O,0,2.866754,-0.880415,-0.028233\O,0
 ,2.06829,1.188928,0.002883\C,0,0.458292,-0.598704,0.045623\C,0,1.84496
 7,0.013992,0.003269\H,0,0.311493,-1.260107,-0.808448\H,0,0.346394,-1.1
 85656,0.958254\H,0,2.539718,-1.788027,-0.031196\H,0,-2.782096,-0.53421
 9,1.226126\\Version=ES64L-G16RevC.01\State=1-A\HF=-1024.3153396\RMSD=1

 Normal termination of Gaussian 16 at Sun Apr  6 08:13:15 2025.
