 Gaussian 16, Revision C.01,

 ----------------------------------------------------------------------
 #t hf aug-cc-pvdz symm=none int=(grid=ultrafine) guess=(read,tcheck) s
 table=(opt,rrhf)
 ----------------------------------------------------------------------
 -----
 title
 -----
 Symbolic Z-matrix:
 Charge =  0 Multiplicity = 1

 SCF Done:  E(RHF) =  -1056.58304343     A.U. after   16 cycles
 Normal termination of Gaussian 16 at Sun Apr  6 08:13:10 2025.
 Gaussian 16:  ES64L-G16RevC.01  3-Jul-2019

 ----------------------------------------------------------------------
 #t hf aug-cc-pvdz iop(5/13=1,5/36=2,99/5=2) pseudo=read geom=check gue
 ss=(read,tcheck) scf=(maxcycle=1)
 ----------------------------------------------------------------------
 -----
 title
 -----
 Structure from the checkpoint file:  "disulfanylmethylenemalononitrile.chk"
 Charge =  0 Multiplicity = 1

                         Standard orientation:
 ---------------------------------------------------------------------
 Center     Atomic      Atomic             Coordinates (Angstroms)
 Number     Number       Type             X           Y           Z
 ---------------------------------------------------------------------
      1         16           0       -1.532661   -1.443389   -0.000144
      2         16           0       -1.532665    1.443385    0.000144
      3          7           0        2.115082    2.230322    0.000234
      4          7           0        2.115088   -2.230318   -0.000233
      5          6           0        0.830778    0.000001   -0.000000
      6          6           0       -0.544914    0.000000   -0.000000
      7          6           0        1.562091    1.217178    0.000129
      8          6           0        1.562093   -1.217174   -0.000128
      9          1           0       -0.513129   -2.326270   -0.000166
     10          1           0       -0.513134    2.326268    0.000166
 ---------------------------------------------------------------------

 SCF Done:  E(RHF) =  -1058.18060093     A.U. after    2 cycles

 The electronic state is 1-A.
 Alpha  occ. eigenvalues --  -75.76403 -75.76360 -15.79046 -15.79027 -13.23630
 Alpha  occ. eigenvalues --  -13.21543 -13.20038 -13.19061 -13.08084 -13.07998
 Alpha  occ. eigenvalues --  -11.57154 -11.50978 -11.47626 -11.46060  -8.10644
 Alpha  occ. eigenvalues --   -8.10327  -1.42527  -1.31981  -1.30981  -1.16267
 Alpha  occ. eigenvalues --   -1.15574  -0.89550  -0.82090  -0.71952  -0.59797
 Alpha  occ. eigenvalues --   -0.56575  -0.56086  -0.54820  -0.48269  -0.48157
 Alpha  occ. eigenvalues --   -0.48089  -0.47150  -0.46406  -0.44290  -0.29100
 Alpha  occ. eigenvalues --   -0.29057
 Alpha virt. eigenvalues --    0.01440   0.03848   0.04642   0.05093   0.06209
 Alpha virt. eigenvalues --    0.09028   0.09035   0.10629   0.11384   0.11515
 Alpha virt. eigenvalues --    0.12392   0.12512   0.13168   0.13505   0.14823

 Mulliken charges:
               1
     1  S   -0.488873
     2  S   -0.488864
     3  N   -2.269549
     4  N   -2.269548
     5  C    2.242521
     6  C   -0.652144
     7  C    0.726701
     8  C    0.726703
     9  H    1.236529
    10  H    1.236525
 Sum of Mulliken charges =  -0.00000

 Dipole moment (field-independent basis, Debye):
    X=             -8.6931    Y=             -0.0000    Z=             -0.0000  Tot=              8.6931

 Test job not archived.
 1\1\GINC-SE412\SP\RHF\Aug-CC-pVDZ\C4H2N2S2\OHZDE\06-Apr-2025\0\\#t hf
 aug-cc-pvdz iop(5/13=1,5/36=2,99/5=2) pseudo=read geom=check guess=(re
 ad,tcheck) scf=(maxcycle=1)\\title\\0,1\S,0,-1.53266,-1.44339,-0.00014
 4\S,0,-1.532666,1.443384,0.000144\N,0,2.115081,2.230324,0.000234\N,0,2
 .11509,-2.230316,-0.000233\C,0,0.830778,0.000002,0.\C,0,-0.544914,0.,0
 .\C,0,1.56209,1.217179,0.000129\C,0,1.562094,-1.217173,-0.000128\H,0,-
 0.513127,-2.32627,-0.000166\H,0,-0.513135,2.326268,0.000166\\Version=E
 S64L-G16RevC.01\State=1-A\HF=-1058.1806009\RMSD=2.277e+00\Dipole=-3.42

 Normal termination of Gaussian 16 at Sun Apr  6 08:13:16 2025.
