 Gaussian 16, Revision C.01,

 ----------------------------------------------------------------------
 #t hf aug-cc-pvdz symm=none int=(grid=ultrafine) guess=(read,tcheck) s
 table=(opt,rrhf)
 ----------------------------------------------------------------------
 -----
 title
 -----
 Symbolic Z-matrix:
 Charge =  0 Multiplicity = 1

 SCF Done:  E(RHF) =  -1019.89332315     A.U. after   15 cycles
 Normal termination of Gaussian 16 at Sun Apr  6 08:13:07 2025.
 Gaussian 16:  ES64L-G16RevC.01  3-Jul-2019

 ----------------------------------------------------------------------
 #t hf aug-cc-pvdz iop(5/13=1,5/36=2,99/5=2) pseudo=read geom=check gue
 ss=(read,tcheck) scf=(maxcycle=1)
 ----------------------------------------------------------------------
 -----
 title
 -----
 Structure from the checkpoint file:  "dithiolane-3-5-diimine.chk"
 Charge =  0 Multiplicity = 1

                         Standard orientation:
 ---------------------------------------------------------------------
 Center     Atomic      Atomic             Coordinates (Angstroms)
 Number     Number       Type             X           Y           Z
 ---------------------------------------------------------------------
      1         16           0       -1.060866   -1.182537    0.010069
      2         16           0        1.060865   -1.182537    0.010062
      3          7           0       -2.426341    1.041613   -0.216817
      4          7           0        2.426343    1.041611   -0.216812
      5          6           0       -0.000000    1.355502    0.314245
      6          6           0       -1.267395    0.594687   -0.001788
      7          6           0        1.267396    0.594686   -0.001787
      8          1           0       -0.000000    1.557660    1.390467
      9          1           0       -0.000000    2.314713   -0.204060
     10          1           0       -2.461028    2.058497   -0.168561
     11          1           0        2.461031    2.058496   -0.168554
 ---------------------------------------------------------------------

 SCF Done:  E(RHF) =  -1021.36912604     A.U. after    2 cycles

 The electronic state is 1-A.
 Alpha  occ. eigenvalues --  -75.72950 -75.72597 -15.76310 -15.76286 -13.17515
 Alpha  occ. eigenvalues --  -13.16355 -13.11192 -13.11109 -13.05363 -13.04040
 Alpha  occ. eigenvalues --  -11.51090 -11.49342 -11.43417  -8.07030  -8.06752
 Alpha  occ. eigenvalues --   -1.44899  -1.36123  -1.22500  -1.12266  -1.05373
 Alpha  occ. eigenvalues --   -0.81030  -0.80187  -0.68106  -0.67089  -0.66671
 Alpha  occ. eigenvalues --   -0.53430  -0.49050  -0.47665  -0.46903  -0.40701
 Alpha  occ. eigenvalues --   -0.36708  -0.35167  -0.34269  -0.19901
 Alpha virt. eigenvalues --    0.01999   0.04761   0.04895   0.06229   0.07074
 Alpha virt. eigenvalues --    0.07107   0.08288   0.09851   0.11876   0.12134
 Alpha virt. eigenvalues --    0.12899   0.13206   0.13603   0.14166   0.14708

 Mulliken charges:
               1
     1  S    0.979913
     2  S    0.979917
     3  N   -3.426451
     4  N   -3.426450
     5  C   -4.153343
     6  C    2.423500
     7  C    2.423499
     8  H    1.389392
     9  H    1.148501
    10  H    0.830761
    11  H    0.830760
 Sum of Mulliken charges =   0.00000

 Dipole moment (field-independent basis, Debye):
    X=             -0.0000    Y=             -0.8223    Z=              0.6934  Tot=              1.0756

 Test job not archived.
 1\1\GINC-SE344\SP\RHF\Aug-CC-pVDZ\C3H4N2S2\OHZDE\06-Apr-2025\0\\#t hf
 aug-cc-pvdz iop(5/13=1,5/36=2,99/5=2) pseudo=read geom=check guess=(re
 ad,tcheck) scf=(maxcycle=1)\\title\\0,1\S,0,-1.060866,-1.182537,0.0100
 69\S,0,1.060865,-1.182537,0.010062\N,0,-2.426341,1.041613,-0.216817\N,
 0,2.426343,1.041611,-0.216812\C,0,0.,1.355502,0.314245\C,0,-1.267395,0
 .594687,-0.001788\C,0,1.267396,0.594686,-0.001787\H,0,0.,1.55766,1.390
 467\H,0,0.,2.314713,-0.20406\H,0,-2.461028,2.058497,-0.168561\H,0,2.46
 1031,2.058496,-0.168554\\Version=ES64L-G16RevC.01\State=1-A\HF=-1021.3

 Normal termination of Gaussian 16 at Sun Apr  6 08:13:16 2025.
