 Gaussian 16, Revision C.01,

 ----------------------------------------------------------------------
 #t hf aug-cc-pvdz symm=none int=(grid=ultrafine) guess=(read,tcheck) s
 table=(opt,rrhf)
 ----------------------------------------------------------------------
 -----
 title
 -----
 Symbolic Z-matrix:
 Charge =  0 Multiplicity = 1

 SCF Done:  E(RHF) =  -982.066988235     A.U. after   13 cycles
 Normal termination of Gaussian 16 at Sun Apr  6 08:13:02 2025.
 Gaussian 16:  ES64L-G16RevC.01  3-Jul-2019

 ----------------------------------------------------------------------
 #t hf aug-cc-pvdz iop(5/13=1,5/36=2,99/5=2) pseudo=read geom=check gue
 ss=(read,tcheck) scf=(maxcycle=1)
 ----------------------------------------------------------------------
 -----
 title
 -----
 Structure from the checkpoint file:  "dithiooxamide.chk"
 Charge =  0 Multiplicity = 1

                         Standard orientation:
 ---------------------------------------------------------------------
 Center     Atomic      Atomic             Coordinates (Angstroms)
 Number     Number       Type             X           Y           Z
 ---------------------------------------------------------------------
      1         16           0        2.159288    0.225879   -0.000022
      2         16           0       -2.159288   -0.225879   -0.000022
      3          7           0        0.380905   -1.736090    0.000033
      4          7           0       -0.380905    1.736090    0.000033
      5          6           0        0.630428   -0.433440    0.000013
      6          6           0       -0.630428    0.433440    0.000008
      7          1           0        1.142640   -2.391307    0.000019
      8          1           0       -0.586716   -2.040345    0.000035
      9          1           0        0.586717    2.040345    0.000036
     10          1           0       -1.142640    2.391307    0.000026
 ---------------------------------------------------------------------

 SCF Done:  E(RHF) =  -983.374049532     A.U. after    2 cycles

 The electronic state is 1-A.
 Alpha  occ. eigenvalues --  -75.66076 -75.66049 -15.82020 -15.81978 -13.18095
 Alpha  occ. eigenvalues --  -13.13968 -13.03216 -13.02699 -12.97531 -12.96747
 Alpha  occ. eigenvalues --  -11.54678 -11.49423  -8.00271  -8.00223  -1.49594
 Alpha  occ. eigenvalues --   -1.39722  -1.13591  -1.12873  -0.94059  -0.80409
 Alpha  occ. eigenvalues --   -0.76707  -0.73109  -0.61520  -0.57858  -0.53980
 Alpha  occ. eigenvalues --   -0.49156  -0.42703  -0.27570  -0.27547  -0.26866
 Alpha  occ. eigenvalues --   -0.22157
 Alpha virt. eigenvalues --    0.02724   0.03814   0.04695   0.05836   0.06423
 Alpha virt. eigenvalues --    0.08405   0.10022   0.10052   0.12237   0.13919
 Alpha virt. eigenvalues --    0.14320   0.14686   0.14790   0.15324   0.17586

 Mulliken charges:
               1
     1  S    1.127218
     2  S    1.127218
     3  N   -3.513496
     4  N   -3.513496
     5  C    0.727912
     6  C    0.727911
     7  H    0.799629
     8  H    0.858738
     9  H    0.858737
    10  H    0.799629
 Sum of Mulliken charges =   0.00000

 Dipole moment (field-independent basis, Debye):
    X=              0.0000    Y=             -0.0000    Z=             -0.0000  Tot=              0.0000

 Test job not archived.
 1\1\GINC-SE344\SP\RHF\Aug-CC-pVDZ\C2H4N2S2\OHZDE\06-Apr-2025\0\\#t hf
 aug-cc-pvdz iop(5/13=1,5/36=2,99/5=2) pseudo=read geom=check guess=(re
 ad,tcheck) scf=(maxcycle=1)\\title\\0,1\S,0,2.159288,0.225879,-0.00002
 2\S,0,-2.159288,-0.225879,-0.000022\N,0,0.380905,-1.73609,0.000033\N,0
 ,-0.380905,1.73609,0.000033\C,0,0.630428,-0.43344,0.000013\C,0,-0.6304
 28,0.43344,0.000008\H,0,1.14264,-2.391307,0.000019\H,0,-0.586716,-2.04
 0345,0.000035\H,0,0.586717,2.040345,0.000036\H,0,-1.14264,2.391307,0.0
 00026\\Version=ES64L-G16RevC.01\State=1-A\HF=-983.3740495\RMSD=5.111e-

 Normal termination of Gaussian 16 at Sun Apr  6 08:13:15 2025.
