 Gaussian 16, Revision C.01,

 ----------------------------------------------------------------------
 #t hf aug-cc-pvdz symm=none int=(grid=ultrafine) guess=(read,tcheck) s
 table=(opt,rrhf)
 ----------------------------------------------------------------------
 -----
 title
 -----
 Symbolic Z-matrix:
 Charge =  0 Multiplicity = 1

 SCF Done:  E(RHF) =  -552.458091541     A.U. after   13 cycles
 Normal termination of Gaussian 16 at Sun Apr  6 08:13:03 2025.
 Gaussian 16:  ES64L-G16RevC.01  3-Jul-2019

 ----------------------------------------------------------------------
 #t hf aug-cc-pvdz iop(5/13=1,5/36=2,99/5=2) pseudo=read geom=check gue
 ss=(read,tcheck) scf=(maxcycle=1)
 ----------------------------------------------------------------------
 -----
 title
 -----
 Structure from the checkpoint file:  "divinylsulfide.chk"
 Charge =  0 Multiplicity = 1

                         Standard orientation:
 ---------------------------------------------------------------------
 Center     Atomic      Atomic             Coordinates (Angstroms)
 Number     Number       Type             X           Y           Z
 ---------------------------------------------------------------------
      1         16           0       -0.000000    0.000000    0.622694
      2          6           0        0.000000    1.368102   -0.488687
      3          6           0       -0.000000   -1.368102   -0.488687
      4          6           0        0.070431    2.637301   -0.102333
      5          6           0       -0.070431   -2.637301   -0.102333
      6          1           0       -0.074147    1.103676   -1.536088
      7          1           0        0.074147   -1.103676   -1.536088
      8          1           0        0.052949    3.429596   -0.836759
      9          1           0        0.143817    2.926289    0.937418
     10          1           0       -0.052949   -3.429596   -0.836759
     11          1           0       -0.143817   -2.926289    0.937418
 ---------------------------------------------------------------------

 SCF Done:  E(RHF) =  -553.442059913     A.U. after    2 cycles

 The electronic state is 1-A.
 Alpha  occ. eigenvalues --  -75.69761 -13.14737 -13.10795 -13.01601 -11.43192
 Alpha  occ. eigenvalues --  -11.42924 -11.38659 -11.38508  -8.04152  -1.27930
 Alpha  occ. eigenvalues --   -1.14367  -1.02368  -0.82626  -0.79558  -0.65833
 Alpha  occ. eigenvalues --   -0.62873  -0.57267  -0.54303  -0.45608  -0.44418
 Alpha  occ. eigenvalues --   -0.39101  -0.37546  -0.21219
 Alpha virt. eigenvalues --    0.03490   0.03725   0.05272   0.06392   0.06544
 Alpha virt. eigenvalues --    0.07868   0.09385   0.10319   0.11212   0.12022
 Alpha virt. eigenvalues --    0.12033   0.13211   0.14457   0.15049   0.15685

 Mulliken charges:
               1
     1  S    1.423536
     2  C   -1.403938
     3  C   -1.403938
     4  C   -3.258433
     5  C   -3.258433
     6  H    1.119667
     7  H    1.119667
     8  H    1.330276
     9  H    1.500660
    10  H    1.330276
    11  H    1.500660
 Sum of Mulliken charges =  -0.00000

 Dipole moment (field-independent basis, Debye):
    X=             -0.0000    Y=             -0.0000    Z=              0.7148  Tot=              0.7148

 Test job not archived.
 1\1\GINC-SE398\SP\RHF\Aug-CC-pVDZ\C4H6S1\OHZDE\06-Apr-2025\0\\#t hf au
 g-cc-pvdz iop(5/13=1,5/36=2,99/5=2) pseudo=read geom=check guess=(read
 ,tcheck) scf=(maxcycle=1)\\title\\0,1\S,0,0.,0.,0.622694\C,0,0.,1.3681
 02,-0.488687\C,0,0.,-1.368102,-0.488687\C,0,0.070431,2.637301,-0.10233
 3\C,0,-0.070431,-2.637301,-0.102333\H,0,-0.074147,1.103676,-1.536088\H
 ,0,0.074147,-1.103676,-1.536088\H,0,0.052949,3.429596,-0.836759\H,0,0.
 143817,2.926289,0.937418\H,0,-0.052949,-3.429596,-0.836759\H,0,-0.1438
 17,-2.926289,0.937418\\Version=ES64L-G16RevC.01\State=1-A\HF=-553.4420

 Normal termination of Gaussian 16 at Sun Apr  6 08:13:14 2025.
