 Gaussian 16, Revision C.01,

 ----------------------------------------------------------------------
 #t hf aug-cc-pvdz symm=none int=(grid=ultrafine) guess=(read,tcheck) s
 table=(opt,rrhf)
 ----------------------------------------------------------------------
 -----
 title
 -----
 Symbolic Z-matrix:
 Charge =  0 Multiplicity = 1

 SCF Done:  E(RHF) =  -615.049564580     A.U. after   13 cycles

 1\1\GINC-SE223\Stability\RHF\Aug-CC-pVDZ\C4H7Cl1\OHZDE\06-Apr-2025\0\\
 #t hf aug-cc-pvdz symm=none int=(grid=ultrafine) guess=(read,tcheck) s
 table=(opt,rrhf)\\title\\0,1\H,0,0.284273,-0.845671,1.087487\C,0,0.403
 159,-0.010172,0.40581\H,0,-0.632701,1.282616,-0.927159\Cl,0,-2.268012,
 -0.194803,-0.026317\C,0,-0.658,0.458163,-0.230058\H,0,1.762492,1.39408
 2,-0.449259\H,0,2.138737,0.922123,1.195638\C,0,1.787551,0.540851,0.231
 531\H,0,3.784823,-0.084931,-0.358058\H,0,2.833963,-1.363785,0.395683\H
 ,0,2.491345,-0.877346,-1.263208\C,0,2.782835,-0.508081,-0.279571\\Vers

 Normal termination of Gaussian 16 at Sun Apr  6 08:07:32 2025.
 Gaussian 16:  ES64L-G16RevC.01  3-Jul-2019

 ----------------------------------------------------------------------
 #t hf aug-cc-pvdz iop(5/13=1,5/36=2,99/5=2) pseudo=read geom=check gue
 ss=(read,tcheck) scf=(maxcycle=1)
 ----------------------------------------------------------------------
 -----
 title
 -----
 Structure from the checkpoint file:  "E-1-chloro-1-butene.chk"
 Charge =  0 Multiplicity = 1

                         Standard orientation:
 ---------------------------------------------------------------------
 Center     Atomic      Atomic             Coordinates (Angstroms)
 Number     Number       Type             X           Y           Z
 ---------------------------------------------------------------------
      1          1           0        0.284273   -0.845671    1.087487
      2          6           0        0.403159   -0.010172    0.405810
      3          1           0       -0.632701    1.282616   -0.927159
      4         17           0       -2.268012   -0.194803   -0.026317
      5          6           0       -0.658000    0.458163   -0.230058
      6          1           0        1.762492    1.394082   -0.449259
      7          1           0        2.138737    0.922123    1.195638
      8          6           0        1.787551    0.540851    0.231531
      9          1           0        3.784823   -0.084931   -0.358058
     10          1           0        2.833963   -1.363785    0.395683
     11          1           0        2.491345   -0.877346   -1.263208
     12          6           0        2.782835   -0.508081   -0.279571
 ---------------------------------------------------------------------

 SCF Done:  E(RHF) =  -616.086983943     A.U. after    2 cycles

 The electronic state is 1-A.
 Alpha  occ. eigenvalues --  -99.88754 -11.45628 -11.42566 -11.39654 -11.36720
 Alpha  occ. eigenvalues --  -10.46103  -9.65980  -9.65171  -9.65065  -1.35175
 Alpha  occ. eigenvalues --   -1.22024  -1.06337  -0.90750  -0.81269  -0.66151
 Alpha  occ. eigenvalues --   -0.63943  -0.59933  -0.56052  -0.55073  -0.50838
 Alpha  occ. eigenvalues --   -0.49487  -0.48436  -0.46596  -0.35339
 Alpha virt. eigenvalues --    0.03478   0.05116   0.05883   0.05952   0.06064
 Alpha virt. eigenvalues --    0.06541   0.07116   0.08671   0.09755   0.12111
 Alpha virt. eigenvalues --    0.12428   0.13310   0.14517   0.15168   0.15417

 Mulliken charges:
               1
     1  H    1.665527
     2  C    1.700270
     3  H    1.281656
     4  Cl  -0.443243
     5  C   -3.401496
     6  H    1.439099
     7  H    1.308498
     8  C   -3.738066
     9  H    1.164312
    10  H    1.285001
    11  H    1.309820
    12  C   -3.571377
 Sum of Mulliken charges =  -0.00000

 Dipole moment (field-independent basis, Debye):
    X=              2.5577    Y=              0.5527    Z=              0.0778  Tot=              2.6179

 Test job not archived.
 1\1\GINC-SE223\SP\RHF\Aug-CC-pVDZ\C4H7Cl1\OHZDE\06-Apr-2025\0\\#t hf a
 ug-cc-pvdz iop(5/13=1,5/36=2,99/5=2) pseudo=read geom=check guess=(rea
 d,tcheck) scf=(maxcycle=1)\\title\\0,1\H,0,0.284273,-0.845671,1.087487
 \C,0,0.403159,-0.010172,0.40581\H,0,-0.632701,1.282616,-0.927159\Cl,0,
 -2.268012,-0.194803,-0.026317\C,0,-0.658,0.458163,-0.230058\H,0,1.7624
 92,1.394082,-0.449259\H,0,2.138737,0.922123,1.195638\C,0,1.787551,0.54
 0851,0.231531\H,0,3.784823,-0.084931,-0.358058\H,0,2.833963,-1.363785,
 0.395683\H,0,2.491345,-0.877346,-1.263208\C,0,2.782835,-0.508081,-0.27

 Normal termination of Gaussian 16 at Sun Apr  6 08:07:36 2025.
