 Gaussian 16, Revision C.01,

 ----------------------------------------------------------------------
 #t hf aug-cc-pvdz symm=none int=(grid=ultrafine) guess=(read,tcheck) s
 table=(opt,rrhf)
 ----------------------------------------------------------------------
 -----
 title
 -----
 Symbolic Z-matrix:
 Charge =  0 Multiplicity = 1

 SCF Done:  E(RHF) =  -995.886984275     A.U. after   11 cycles

 1\1\GINC-SE150\Stability\RHF\Aug-CC-pVDZ\C2H2Cl2\OHZDE\06-Apr-2025\0\\
 #t hf aug-cc-pvdz symm=none int=(grid=ultrafine) guess=(read,tcheck) s
 table=(opt,rrhf)\\title\\0,1\C,0,-0.364902,0.550673,0.\C,0,0.364902,-0
 .550673,0.\Cl,0,0.364902,2.127712,0.\Cl,0,-0.364902,-2.127712,0.\H,0,-
 1.443008,0.559873,0.\H,0,1.443008,-0.559873,0.\\Version=ES64L-G16RevC.
 01\HF=-995.8869843\RMSD=4.163e-09\Dipole=0.,0.,0.\Quadrupole=2.691679,
 -1.9138708,-0.7778082,-0.9625174,0.,0.\PG=Unknown\\@
 The archive entry for this job was punched.

 Normal termination of Gaussian 16 at Sun Apr  6 08:07:22 2025.
 Gaussian 16:  ES64L-G16RevC.01  3-Jul-2019

 ----------------------------------------------------------------------
 #t hf aug-cc-pvdz iop(5/13=1,5/36=2,99/5=2) pseudo=read geom=check gue
 ss=(read,tcheck) scf=(maxcycle=1)
 ----------------------------------------------------------------------
 -----
 title
 -----
 Structure from the checkpoint file:  "E-1-2-dichloroethene.chk"
 Charge =  0 Multiplicity = 1

                         Standard orientation:
 ---------------------------------------------------------------------
 Center     Atomic      Atomic             Coordinates (Angstroms)
 Number     Number       Type             X           Y           Z
 ---------------------------------------------------------------------
      1          6           0       -0.364902    0.550673    0.000000
      2          6           0        0.364902   -0.550673    0.000000
      3         17           0        0.364902    2.127712    0.000000
      4         17           0       -0.364902   -2.127712    0.000000
      5          1           0       -1.443008    0.559873    0.000000
      6          1           0        1.443008   -0.559873    0.000000
 ---------------------------------------------------------------------

 SCF Done:  E(RHF) =  -996.743176140     A.U. after    2 cycles

 The electronic state is 1-AG.
 Alpha  occ. eigenvalues --  -99.91154 -99.91146 -11.47911 -11.44435 -10.48526
 Alpha  occ. eigenvalues --  -10.48508  -9.68436  -9.68275  -9.67569  -9.67511
 Alpha  occ. eigenvalues --   -9.67455  -9.67419  -1.40012  -1.33082  -1.10044
 Alpha  occ. eigenvalues --   -0.86638  -0.70624  -0.66787  -0.59121  -0.57796
 Alpha  occ. eigenvalues --   -0.55152  -0.52365  -0.50436  -0.38163
 Alpha virt. eigenvalues --    0.03160   0.05403   0.05946   0.07464   0.08026
 Alpha virt. eigenvalues --    0.10438   0.12036   0.12999   0.13400   0.13675
 Alpha virt. eigenvalues --    0.14881   0.15810   0.16988   0.17440   0.19194

 Mulliken charges:
               1
     1  C   -1.226234
     2  C   -1.226234
     3  Cl  -0.314668
     4  Cl  -0.314668
     5  H    1.540902
     6  H    1.540902
 Sum of Mulliken charges =   0.00000

 Dipole moment (field-independent basis, Debye):
    X=              0.0000    Y=              0.0000    Z=              0.0000  Tot=              0.0000

 Test job not archived.
 1\1\GINC-SE150\SP\RHF\Aug-CC-pVDZ\C2H2Cl2\OHZDE\06-Apr-2025\0\\#t hf a
 ug-cc-pvdz iop(5/13=1,5/36=2,99/5=2) pseudo=read geom=check guess=(rea
 d,tcheck) scf=(maxcycle=1)\\title\\0,1\C,0,-0.364902,0.550673,0.\C,0,0
 .364902,-0.550673,0.\Cl,0,0.364902,2.127712,0.\Cl,0,-0.364902,-2.12771
 2,0.\H,0,-1.443008,0.559873,0.\H,0,1.443008,-0.559873,0.\\Version=ES64
 L-G16RevC.01\State=1-AG\HF=-996.7431761\RMSD=4.034e-01\Dipole=0.,0.,0.
 \Quadrupole=2.2998854,-0.8882646,-1.4116208,-0.4310221,0.,0.\PG=C02H [
 SGH(C2H2Cl2)]\\@

 Normal termination of Gaussian 16 at Sun Apr  6 08:07:25 2025.
