 Gaussian 16, Revision C.01,

 ----------------------------------------------------------------------
 #t hf aug-cc-pvdz symm=none int=(grid=ultrafine) guess=(read,tcheck) s
 table=(opt,rrhf)
 ----------------------------------------------------------------------
 -----
 title
 -----
 Symbolic Z-matrix:
 Charge =  0 Multiplicity = 1

 SCF Done:  E(RHF) =  -275.761049958     A.U. after   11 cycles
 Normal termination of Gaussian 16 at Sun Apr  6 08:07:21 2025.
 Gaussian 16:  ES64L-G16RevC.01  3-Jul-2019

 ----------------------------------------------------------------------
 #t hf aug-cc-pvdz iop(5/13=1,5/36=2,99/5=2) pseudo=read geom=check gue
 ss=(read,tcheck) scf=(maxcycle=1)
 ----------------------------------------------------------------------
 -----
 title
 -----
 Structure from the checkpoint file:  "E-1-2-difluoroethene.chk"
 Charge =  0 Multiplicity = 1

                         Standard orientation:
 ---------------------------------------------------------------------
 Center     Atomic      Atomic             Coordinates (Angstroms)
 Number     Number       Type             X           Y           Z
 ---------------------------------------------------------------------
      1          6           0       -0.332378    0.570025    0.000000
      2          6           0        0.332378   -0.570025    0.000000
      3          9           0        0.332378    1.740937    0.000000
      4          9           0       -0.332378   -1.740937    0.000000
      5          1           0       -1.407427    0.668528    0.000000
      6          1           0        1.407427   -0.668528    0.000000
 ---------------------------------------------------------------------

 SCF Done:  E(RHF) =  -276.799747333     A.U. after    2 cycles

 The electronic state is 1-AG.
 Alpha  occ. eigenvalues --  -29.29887 -29.29880 -11.49506 -11.44803  -1.28243
 Alpha  occ. eigenvalues --   -1.01639  -0.76853  -0.71992  -0.61687  -0.54511
 Alpha  occ. eigenvalues --   -0.41849  -0.40042  -0.37325  -0.29845  -0.27690
 Alpha  occ. eigenvalues --   -0.18561
 Alpha virt. eigenvalues --    0.05069   0.05136   0.11029   0.11546   0.11962
 Alpha virt. eigenvalues --    0.11998   0.12593   0.15913   0.15952   0.18186
 Alpha virt. eigenvalues --    0.23675   0.24975   0.26085   0.29559   0.31854

 Mulliken charges:
               1
     1  C   -1.987251
     2  C   -1.987251
     3  F    0.592945
     4  F    0.592945
     5  H    1.394305
     6  H    1.394305
 Sum of Mulliken charges =  -0.00000

 Dipole moment (field-independent basis, Debye):
    X=              0.0000    Y=              0.0000    Z=              0.0000  Tot=              0.0000

 Test job not archived.
 1\1\GINC-SE165\SP\RHF\Aug-CC-pVDZ\C2H2F2\OHZDE\06-Apr-2025\0\\#t hf au
 g-cc-pvdz iop(5/13=1,5/36=2,99/5=2) pseudo=read geom=check guess=(read
 ,tcheck) scf=(maxcycle=1)\\title\\0,1\C,0,-0.332378,0.570025,0.\C,0,0.
 332378,-0.570025,0.\F,0,0.332378,1.740937,0.\F,0,-0.332378,-1.740937,0
 .\H,0,-1.407427,0.668528,0.\H,0,1.407427,-0.668528,0.\\Version=ES64L-G
 16RevC.01\State=1-AG\HF=-276.7997473\RMSD=4.331e-01\Dipole=0.,0.,0.\Qu
 adrupole=0.2217627,2.0542736,-2.2760363,0.3731622,0.,0.\PG=C02H [SGH(C
 2H2F2)]\\@

 Normal termination of Gaussian 16 at Sun Apr  6 08:07:23 2025.
