 Gaussian 16, Revision C.01,

 ----------------------------------------------------------------------
 #t hf aug-cc-pvdz symm=none int=(grid=ultrafine) guess=(read,tcheck) s
 table=(opt,rrhf)
 ----------------------------------------------------------------------
 -----
 title
 -----
 Symbolic Z-matrix:
 Charge =  0 Multiplicity = 1

 SCF Done:  E(RHF) =  -231.837791882     A.U. after   12 cycles
 Normal termination of Gaussian 16 at Sun Apr  6 08:07:41 2025.
 Gaussian 16:  ES64L-G16RevC.01  3-Jul-2019

 ----------------------------------------------------------------------
 #t hf aug-cc-pvdz iop(5/13=1,5/36=2,99/5=2) pseudo=read geom=check gue
 ss=(read,tcheck) scf=(maxcycle=1)
 ----------------------------------------------------------------------
 -----
 title
 -----
 Structure from the checkpoint file:  "E-1-3-5-hexatriene.chk"
 Charge =  0 Multiplicity = 1

                         Standard orientation:
 ---------------------------------------------------------------------
 Center     Atomic      Atomic             Coordinates (Angstroms)
 Number     Number       Type             X           Y           Z
 ---------------------------------------------------------------------
      1          6           0        1.188032    2.829092    0.000000
      2          6           0       -1.188032   -2.829092    0.000000
      3          6           0        1.188032    1.492100    0.000000
      4          6           0       -1.188032   -1.492100    0.000000
      5          6           0       -0.002470    0.672860    0.000000
      6          6           0        0.002470   -0.672860    0.000000
      7          1           0        2.108575    3.395117    0.000000
      8          1           0        0.264255    3.394397    0.000000
      9          1           0       -2.108575   -3.395117    0.000000
     10          1           0       -0.264255   -3.394397    0.000000
     11          1           0        2.137085    0.964589    0.000000
     12          1           0       -2.137085   -0.964589    0.000000
     13          1           0       -0.955353    1.194813    0.000000
     14          1           0        0.955353   -1.194813    0.000000
 ---------------------------------------------------------------------

 SCF Done:  E(RHF) =  -232.975393134     A.U. after    2 cycles

 The electronic state is 1-AG.
 Alpha  occ. eigenvalues --  -11.44655 -11.43457 -11.41768 -11.39742 -11.39243
 Alpha  occ. eigenvalues --  -11.37225  -1.27225  -1.16069  -1.04109  -0.88735
 Alpha  occ. eigenvalues --   -0.78876  -0.78725  -0.65794  -0.62459  -0.58452
 Alpha  occ. eigenvalues --   -0.55099  -0.50496  -0.49499  -0.46120  -0.45991
 Alpha  occ. eigenvalues --   -0.38402  -0.27465
 Alpha virt. eigenvalues --    0.03729   0.04869   0.05466   0.05838   0.06012
 Alpha virt. eigenvalues --    0.07157   0.07995   0.08366   0.09375   0.09814
 Alpha virt. eigenvalues --    0.11632   0.12261   0.12334   0.14631   0.15016

 Mulliken charges:
               1
     1  C   -4.543413
     2  C   -4.543413
     3  C   -1.155951
     4  C   -1.155951
     5  C    0.035446
     6  C    0.035446
     7  H    1.309813
     8  H    1.383698
     9  H    1.309813
    10  H    1.383698
    11  H    1.477334
    12  H    1.477334
    13  H    1.493073
    14  H    1.493073
 Sum of Mulliken charges =  -0.00000

 Dipole moment (field-independent basis, Debye):
    X=              0.0000    Y=             -0.0000    Z=              0.0000  Tot=              0.0000

 Test job not archived.
 1\1\GINC-SE212\SP\RHF\Aug-CC-pVDZ\C6H8\OHZDE\06-Apr-2025\0\\#t hf aug-
 cc-pvdz iop(5/13=1,5/36=2,99/5=2) pseudo=read geom=check guess=(read,t
 check) scf=(maxcycle=1)\\title\\0,1\C,0,1.188032,2.829092,0.\C,0,-1.18
 8032,-2.829092,0.\C,0,1.188032,1.4921,0.\C,0,-1.188032,-1.4921,0.\C,0,
 -0.00247,0.67286,0.\C,0,0.00247,-0.67286,0.\H,0,2.108575,3.395117,0.\H
 ,0,0.264255,3.394397,0.\H,0,-2.108575,-3.395117,0.\H,0,-0.264255,-3.39
 4397,0.\H,0,2.137085,0.964589,0.\H,0,-2.137085,-0.964589,0.\H,0,-0.955
 353,1.194813,0.\H,0,0.955353,-1.194813,0.\\Version=ES64L-G16RevC.01\St

 Normal termination of Gaussian 16 at Sun Apr  6 08:07:44 2025.
