 Gaussian 16, Revision C.01,

 ----------------------------------------------------------------------
 #t hf aug-cc-pvdz symm=none int=(grid=ultrafine) guess=(read,tcheck) s
 table=(opt,rrhf)
 ----------------------------------------------------------------------
 -----
 title
 -----
 Symbolic Z-matrix:
 Charge =  0 Multiplicity = 1

 SCF Done:  E(RHF) =  -233.015111348     A.U. after   13 cycles
 Normal termination of Gaussian 16 at Sun Apr  6 08:07:49 2025.
 Gaussian 16:  ES64L-G16RevC.01  3-Jul-2019

 ----------------------------------------------------------------------
 #t hf aug-cc-pvdz iop(5/13=1,5/36=2,99/5=2) pseudo=read geom=check gue
 ss=(read,tcheck) scf=(maxcycle=1)
 ----------------------------------------------------------------------
 -----
 title
 -----
 Structure from the checkpoint file:  "E-1-4-hexadiene.chk"
 Charge =  0 Multiplicity = 1

                         Standard orientation:
 ---------------------------------------------------------------------
 Center     Atomic      Atomic             Coordinates (Angstroms)
 Number     Number       Type             X           Y           Z
 ---------------------------------------------------------------------
      1          6           0        2.774263    0.471453    0.018406
      2          1           0        3.025428    1.225242   -0.732402
      3          1           0        2.694425    0.968642    0.985285
      4          1           0        3.620197   -0.219765    0.061021
      5          6           0        1.508736   -0.244855   -0.337967
      6          1           0        1.506561   -0.764857   -1.293079
      7          6           0        0.414083   -0.292101    0.413417
      8          1           0        0.408451    0.231044    1.366497
      9          6           0       -0.843677   -1.027566    0.061292
     10          1           0       -0.699053   -1.585556   -0.870041
     11          1           0       -1.042235   -1.789762    0.825223
     12          6           0       -2.083249   -0.179059   -0.069246
     13          1           0       -3.009282   -0.738490   -0.164929
     14          6           0       -2.134346    1.146986   -0.084084
     15          1           0       -3.075965    1.668839   -0.188328
     16          1           0       -1.243382    1.755515   -0.000158
 ---------------------------------------------------------------------

 SCF Done:  E(RHF) =  -234.194850103     A.U. after    2 cycles

 The electronic state is 1-A.
 Alpha  occ. eigenvalues --  -11.44135 -11.42606 -11.39525 -11.38719 -11.37113
 Alpha  occ. eigenvalues --  -11.35473  -1.26345  -1.15133  -1.03424  -0.93291
 Alpha  occ. eigenvalues --   -0.79954  -0.75700  -0.64181  -0.60723  -0.60016
 Alpha  occ. eigenvalues --   -0.56135  -0.53905  -0.51752  -0.49416  -0.47723
 Alpha  occ. eigenvalues --   -0.43298  -0.34459  -0.32790
 Alpha virt. eigenvalues --    0.03796   0.05115   0.05618   0.05703   0.05896
 Alpha virt. eigenvalues --    0.06317   0.06726   0.07135   0.08095   0.08638
 Alpha virt. eigenvalues --    0.10411   0.12163   0.12733   0.13296   0.14043

 Mulliken charges:
               1
     1  C   -4.544514
     2  H    1.168751
     3  H    1.268063
     4  H    1.151143
     5  C   -0.674854
     6  H    1.379522
     7  C    0.022018
     8  H    1.574251
     9  C   -4.543725
    10  H    1.404121
    11  H    1.162738
    12  C   -0.188074
    13  H    1.253382
    14  C   -3.392380
    15  H    1.359884
    16  H    1.599672
 Sum of Mulliken charges =   0.00000

 Dipole moment (field-independent basis, Debye):
    X=              0.2942    Y=             -0.2935    Z=             -0.0727  Tot=              0.4219

 Test job not archived.
 1\1\GINC-SE222\SP\RHF\Aug-CC-pVDZ\C6H10\OHZDE\06-Apr-2025\0\\#t hf aug
 -cc-pvdz iop(5/13=1,5/36=2,99/5=2) pseudo=read geom=check guess=(read,
 tcheck) scf=(maxcycle=1)\\title\\0,1\C,0,2.774263,0.471453,0.018406\H,
 0,3.025428,1.225242,-0.732402\H,0,2.694425,0.968642,0.985285\H,0,3.620
 197,-0.219765,0.061021\C,0,1.508736,-0.244855,-0.337967\H,0,1.506561,-
 0.764857,-1.293079\C,0,0.414083,-0.292101,0.413417\H,0,0.408451,0.2310
 44,1.366497\C,0,-0.843677,-1.027566,0.061292\H,0,-0.699053,-1.585556,-
 0.870041\H,0,-1.042235,-1.789762,0.825223\C,0,-2.083249,-0.179059,-0.0

 Normal termination of Gaussian 16 at Sun Apr  6 08:07:53 2025.
