 Gaussian 16, Revision C.01,

 ----------------------------------------------------------------------
 #t hf aug-cc-pvdz symm=none int=(grid=ultrafine) guess=(read,tcheck) s
 table=(opt,rrhf)
 ----------------------------------------------------------------------
 -----
 title
 -----
 Symbolic Z-matrix:
 Charge =  0 Multiplicity = 1

 SCF Done:  E(RHF) =  -193.983257197     A.U. after   13 cycles
 Normal termination of Gaussian 16 at Sun Apr  6 08:07:35 2025.
 Gaussian 16:  ES64L-G16RevC.01  3-Jul-2019

 ----------------------------------------------------------------------
 #t hf aug-cc-pvdz iop(5/13=1,5/36=2,99/5=2) pseudo=read geom=check gue
 ss=(read,tcheck) scf=(maxcycle=1)
 ----------------------------------------------------------------------
 -----
 title
 -----
 Structure from the checkpoint file:  "E-1-3-pentadiene.chk"
 Charge =  0 Multiplicity = 1

                         Standard orientation:
 ---------------------------------------------------------------------
 Center     Atomic      Atomic             Coordinates (Angstroms)
 Number     Number       Type             X           Y           Z
 ---------------------------------------------------------------------
      1          6           0       -2.410690    0.780867    0.000000
      2          6           0       -1.408259   -0.101026    0.000000
      3          6           0        0.000000    0.249530    0.000000
      4          6           0        0.998002   -0.639690    0.000000
      5          6           0        2.453681   -0.304011    0.000000
      6          1           0       -2.224938    1.847996    0.000000
      7          1           0       -3.443962    0.464038    0.000000
      8          1           0       -1.639093   -1.162270    0.000000
      9          1           0        0.236275    1.310487    0.000000
     10          1           0        0.747223   -1.697270    0.000000
     11          1           0        2.617556    0.773489    0.000000
     12          1           0        2.955266   -0.725244    0.875717
     13          1           0        2.955266   -0.725244   -0.875717
 ---------------------------------------------------------------------

 SCF Done:  E(RHF) =  -194.955376444     A.U. after    2 cycles

 The electronic state is 1-A'.
 Alpha  occ. eigenvalues --  -11.43413 -11.41804 -11.39236 -11.38454 -11.36300
 Alpha  occ. eigenvalues --   -1.25208  -1.12107  -0.98403  -0.82368  -0.77679
 Alpha  occ. eigenvalues --   -0.64027  -0.59712  -0.56555  -0.56545  -0.50529
 Alpha  occ. eigenvalues --   -0.49004  -0.45483  -0.42381  -0.29226
 Alpha virt. eigenvalues --    0.03722   0.05032   0.05895   0.06165   0.06271
 Alpha virt. eigenvalues --    0.06503   0.07855   0.08164   0.10061   0.10960
 Alpha virt. eigenvalues --    0.11688   0.13570   0.14578   0.15021   0.15174

 Mulliken charges:
               1
     1  C   -4.177715
     2  C   -0.324217
     3  C   -0.250002
     4  C   -1.007661
     5  C   -4.714232
     6  H    1.449112
     7  H    1.352865
     8  H    1.380316
     9  H    1.458293
    10  H    1.450370
    11  H    1.255539
    12  H    1.063666
    13  H    1.063666
 Sum of Mulliken charges =  -0.00000

 Dipole moment (field-independent basis, Debye):
    X=              0.5726    Y=             -0.2331    Z=             -0.0000  Tot=              0.6182

 Test job not archived.
 1\1\GINC-SE209\SP\RHF\Aug-CC-pVDZ\C5H8\OHZDE\06-Apr-2025\0\\#t hf aug-
 cc-pvdz iop(5/13=1,5/36=2,99/5=2) pseudo=read geom=check guess=(read,t
 check) scf=(maxcycle=1)\\title\\0,1\C,0,-2.41069,0.780868,0.\C,0,-1.40
 8259,-0.101026,0.\C,0,0.,0.24953,0.\C,0,0.998002,-0.63969,0.\C,0,2.453
 681,-0.304012,0.\H,0,-2.224937,1.847997,0.\H,0,-3.443962,0.464039,0.\H
 ,0,-1.639093,-1.162269,0.\H,0,0.236275,1.310487,0.\H,0,0.747222,-1.697
 27,0.\H,0,2.617556,0.773488,0.\H,0,2.955266,-0.725245,0.875717\H,0,2.9
 55266,-0.725245,-0.875717\\Version=ES64L-G16RevC.01\State=1-A'\HF=-194

 Normal termination of Gaussian 16 at Sun Apr  6 08:07:38 2025.
