 Gaussian 16, Revision C.01,

 ----------------------------------------------------------------------
 #t hf aug-cc-pvdz symm=none int=(grid=ultrafine) guess=(read,tcheck) s
 table=(opt,rrhf)
 ----------------------------------------------------------------------
 -----
 title
 -----
 Symbolic Z-matrix:
 Charge =  0 Multiplicity = 1

 SCF Done:  E(RHF) =  -413.662774481     A.U. after   13 cycles
 Normal termination of Gaussian 16 at Sun Apr  6 08:07:27 2025.
 Gaussian 16:  ES64L-G16RevC.01  3-Jul-2019

 ----------------------------------------------------------------------
 #t hf aug-cc-pvdz iop(5/13=1,5/36=2,99/5=2) pseudo=read geom=check gue
 ss=(read,tcheck) scf=(maxcycle=1)
 ----------------------------------------------------------------------
 -----
 title
 -----
 Structure from the checkpoint file:  "E-1-2-3-trifluoropropene.chk"
 Charge =  0 Multiplicity = 1

                         Standard orientation:
 ---------------------------------------------------------------------
 Center     Atomic      Atomic             Coordinates (Angstroms)
 Number     Number       Type             X           Y           Z
 ---------------------------------------------------------------------
      1          6           0        0.146733   -1.257992   -0.001003
      2          9           0        1.486653   -1.231504    0.002109
      3          1           0       -0.279002   -2.250688   -0.004801
      4          6           0       -0.595977   -0.163277    0.000497
      5          9           0       -1.944445   -0.328241   -0.001783
      6          6           0       -0.254497    1.291824    0.004837
      7          9           0        1.109405    1.503366   -0.004948
      8          1           0       -0.674432    1.763788    0.897350
      9          1           0       -0.688636    1.770980   -0.876947
 ---------------------------------------------------------------------

 SCF Done:  E(RHF) =  -415.221625418     A.U. after    2 cycles

 The electronic state is 1-A.
 Alpha  occ. eigenvalues --  -29.30432 -29.29649 -29.27313 -11.51470 -11.48572
 Alpha  occ. eigenvalues --  -11.45309  -1.34296  -1.15959  -1.00157  -0.77269
 Alpha  occ. eigenvalues --   -0.74624  -0.68724  -0.65700  -0.61376  -0.53152
 Alpha  occ. eigenvalues --   -0.42174  -0.40845  -0.39581  -0.37737  -0.31130
 Alpha  occ. eigenvalues --   -0.28994  -0.26536  -0.22160  -0.19121
 Alpha virt. eigenvalues --    0.04235   0.05361   0.05858   0.10028   0.11477
 Alpha virt. eigenvalues --    0.11563   0.12074   0.12819   0.13174   0.14874
 Alpha virt. eigenvalues --    0.16556   0.16562   0.17667   0.18408   0.21004

 Mulliken charges:
               1
     1  C   -2.136387
     2  F    0.906922
     3  H    1.563638
     4  C   -1.182603
     5  F    0.566562
     6  C   -2.756709
     7  F    0.422216
     8  H    1.306032
     9  H    1.310330
 Sum of Mulliken charges =  -0.00000

 Dipole moment (field-independent basis, Debye):
    X=              1.4712    Y=             -0.0079    Z=             -0.0040  Tot=              1.4712

 Test job not archived.
 1\1\GINC-SE136\SP\RHF\Aug-CC-pVDZ\C3H3F3\OHZDE\06-Apr-2025\0\\#t hf au
 g-cc-pvdz iop(5/13=1,5/36=2,99/5=2) pseudo=read geom=check guess=(read
 ,tcheck) scf=(maxcycle=1)\\title\\0,1\C,0,0.146734,-1.257992,-0.001003
 \F,0,1.486654,-1.231502,0.002109\H,0,-0.279,-2.250688,-0.004801\C,0,-0
 .595977,-0.163277,0.000497\F,0,-1.944444,-0.328243,-0.001783\C,0,-0.25
 4498,1.291824,0.004837\F,0,1.109404,1.503367,-0.004948\H,0,-0.674434,1
 .763787,0.89735\H,0,-0.688638,1.770979,-0.876947\\Version=ES64L-G16Rev
 C.01\State=1-A\HF=-415.2216254\RMSD=5.097e-01\Dipole=0.5788147,-0.0030

 Normal termination of Gaussian 16 at Sun Apr  6 08:07:31 2025.
