 Gaussian 16, Revision C.01,

 ----------------------------------------------------------------------
 #t hf aug-cc-pvdz symm=none int=(grid=ultrafine) guess=(read,tcheck) s
 table=(opt,rrhf)
 ----------------------------------------------------------------------
 -----
 title
 -----
 Symbolic Z-matrix:
 Charge =  0 Multiplicity = 1

 SCF Done:  E(RHF) =  -1164.73542815     A.U. after   14 cycles
 Normal termination of Gaussian 16 at Sun Apr  6 08:07:39 2025.
 Gaussian 16:  ES64L-G16RevC.01  3-Jul-2019

 ----------------------------------------------------------------------
 #t hf aug-cc-pvdz iop(5/13=1,5/36=2,99/5=2) pseudo=read geom=check gue
 ss=(read,tcheck) scf=(maxcycle=1)
 ----------------------------------------------------------------------
 -----
 title
 -----
 Structure from the checkpoint file:  "E-1-chloro-3-chloroaminooxyprop-1-ene.chk"
 Charge =  0 Multiplicity = 1

                         Standard orientation:
 ---------------------------------------------------------------------
 Center     Atomic      Atomic             Coordinates (Angstroms)
 Number     Number       Type             X           Y           Z
 ---------------------------------------------------------------------
      1         17           0       -3.711306   -0.250025   -0.222443
      2         17           0        3.245768   -0.766998   -0.070147
      3          8           0        1.080001    0.724444   -0.457102
      4          7           0        2.390823    0.873305   -0.035920
      5          6           0        0.233303    0.411497    0.671316
      6          6           0       -1.182193    0.586458    0.237594
      7          6           0       -2.040512   -0.420694    0.228155
      8          1           0        0.492240    1.094323    1.483319
      9          1           0        0.434639   -0.612867    0.990518
     10          1           0       -1.495582    1.578817   -0.060378
     11          1           0       -1.781946   -1.432223    0.504925
     12          1           0        2.825450    1.289086   -0.858485
 ---------------------------------------------------------------------

 SCF Done:  E(RHF) =  -1166.33795321     A.U. after    2 cycles

 The electronic state is 1-A.
 Alpha  occ. eigenvalues --  -99.90428 -99.90308 -21.10681 -15.85665 -11.47642
 Alpha  occ. eigenvalues --  -11.46582 -11.40852 -10.47685 -10.47462  -9.67570
 Alpha  occ. eigenvalues --   -9.67292  -9.66727  -9.66624  -9.66614  -9.66474
 Alpha  occ. eigenvalues --   -1.85753  -1.36947  -1.34667  -1.19550  -1.10961
 Alpha  occ. eigenvalues --   -0.96080  -0.84061  -0.72449  -0.69418  -0.65149
 Alpha  occ. eigenvalues --   -0.64768  -0.60412  -0.57049  -0.56074  -0.52628
 Alpha  occ. eigenvalues --   -0.50891  -0.50619  -0.48761  -0.40535  -0.37565
 Alpha  occ. eigenvalues --   -0.33622
 Alpha virt. eigenvalues --    0.03398   0.03997   0.05548   0.05755   0.06396
 Alpha virt. eigenvalues --    0.07076   0.07926   0.08730   0.10434   0.11426
 Alpha virt. eigenvalues --    0.12381   0.13076   0.13748   0.14945   0.15491

 Mulliken charges:
               1
     1  Cl  -0.428980
     2  Cl   0.231643
     3  O   -2.453634
     4  N    0.165319
     5  C   -2.052584
     6  C    0.923073
     7  C   -3.115696
     8  H    1.452655
     9  H    1.444923
    10  H    1.644861
    11  H    1.326621
    12  H    0.861799
 Sum of Mulliken charges =  -0.00000

 Dipole moment (field-independent basis, Debye):
    X=             -0.3930    Y=              2.0306    Z=             -0.0751  Tot=              2.0696

 Test job not archived.
 1\1\GINC-SE085\SP\RHF\Aug-CC-pVDZ\C3H5Cl2N1O1\OHZDE\06-Apr-2025\0\\#t
 hf aug-cc-pvdz iop(5/13=1,5/36=2,99/5=2) pseudo=read geom=check guess=
 (read,tcheck) scf=(maxcycle=1)\\title\\0,1\Cl,0,-3.711306,-0.250025,-0
 .222443\Cl,0,3.245768,-0.766998,-0.070147\O,0,1.080001,0.724444,-0.457
 102\N,0,2.390823,0.873305,-0.03592\C,0,0.233303,0.411497,0.671316\C,0,
 -1.182193,0.586458,0.237594\C,0,-2.040512,-0.420694,0.228155\H,0,0.492
 24,1.094323,1.483319\H,0,0.434639,-0.612867,0.990518\H,0,-1.495582,1.5
 78817,-0.060378\H,0,-1.781946,-1.432223,0.504925\H,0,2.82545,1.289086,

 Normal termination of Gaussian 16 at Sun Apr  6 08:07:44 2025.
