 Gaussian 16, Revision C.01,

 ----------------------------------------------------------------------
 #t hf aug-cc-pvdz symm=none int=(grid=ultrafine) guess=(read,tcheck) s
 table=(opt,rrhf)
 ----------------------------------------------------------------------
 -----
 title
 -----
 Symbolic Z-matrix:
 Charge =  0 Multiplicity = 1

 SCF Done:  E(RHF) =  -413.687007386     A.U. after   13 cycles
 Normal termination of Gaussian 16 at Sun Apr  6 08:07:27 2025.
 Gaussian 16:  ES64L-G16RevC.01  3-Jul-2019

 ----------------------------------------------------------------------
 #t hf aug-cc-pvdz iop(5/13=1,5/36=2,99/5=2) pseudo=read geom=check gue
 ss=(read,tcheck) scf=(maxcycle=1)
 ----------------------------------------------------------------------
 -----
 title
 -----
 Structure from the checkpoint file:  "E-1-3-3-trifluoropropene.chk"
 Charge =  0 Multiplicity = 1

                         Standard orientation:
 ---------------------------------------------------------------------
 Center     Atomic      Atomic             Coordinates (Angstroms)
 Number     Number       Type             X           Y           Z
 ---------------------------------------------------------------------
      1          6           0       -0.154478    1.510212    0.000000
      2          1           0       -1.217229    1.713662   -0.000000
      3          9           0        0.576176    2.632653    0.000000
      4          6           0        0.400564    0.312634    0.000000
      5          1           0        1.474625    0.185038    0.000000
      6          6           0       -0.438047   -0.911202   -0.000000
      7          1           0       -1.510614   -0.713266   -0.000000
      8          9           0       -0.154478   -1.686065    1.097573
      9          9           0       -0.154478   -1.686065   -1.097573
 ---------------------------------------------------------------------

 SCF Done:  E(RHF) =  -415.243715793     A.U. after    2 cycles

 The electronic state is 1-A'.
 Alpha  occ. eigenvalues --  -29.31023 -29.28413 -29.28377 -11.54695 -11.51097
 Alpha  occ. eigenvalues --  -11.41912  -1.35888  -1.19797  -0.94268  -0.79786
 Alpha  occ. eigenvalues --   -0.79196  -0.72281  -0.66934  -0.58694  -0.50867
 Alpha  occ. eigenvalues --   -0.44440  -0.41625  -0.38788  -0.32036  -0.31180
 Alpha  occ. eigenvalues --   -0.30680  -0.25864  -0.25102  -0.20964
 Alpha virt. eigenvalues --    0.04097   0.05635   0.05936   0.09893   0.10831
 Alpha virt. eigenvalues --    0.11913   0.12698   0.13182   0.14326   0.14636
 Alpha virt. eigenvalues --    0.15005   0.16773   0.17798   0.19891   0.22461

 Mulliken charges:
               1
     1  C   -1.493908
     2  H    1.180564
     3  F    0.623663
     4  C   -1.930731
     5  H    1.266873
     6  C   -2.026571
     7  H    1.790546
     8  F    0.294782
     9  F    0.294782
 Sum of Mulliken charges =  -0.00000

 Dipole moment (field-independent basis, Debye):
    X=              0.9789    Y=              0.7427    Z=              0.0000  Tot=              1.2288

 Test job not archived.
 1\1\GINC-SE200\SP\RHF\Aug-CC-pVDZ\C3H3F3\OHZDE\06-Apr-2025\0\\#t hf au
 g-cc-pvdz iop(5/13=1,5/36=2,99/5=2) pseudo=read geom=check guess=(read
 ,tcheck) scf=(maxcycle=1)\\title\\0,1\C,0,-0.154478,1.510212,0.\H,0,-1
 .217229,1.713662,0.\F,0,0.576176,2.632653,0.\C,0,0.400564,0.312634,0.\
 H,0,1.474625,0.185038,0.\C,0,-0.438047,-0.911202,0.\H,0,-1.510614,-0.7
 13266,0.\F,0,-0.154478,-1.686065,1.097573\F,0,-0.154478,-1.686065,-1.0
 97573\\Version=ES64L-G16RevC.01\State=1-A'\HF=-415.2437158\RMSD=6.405e
 -01\Dipole=0.3851469,0.292219,0.\Quadrupole=-1.0110892,4.1472389,-3.13

 Normal termination of Gaussian 16 at Sun Apr  6 08:07:31 2025.
