 Gaussian 16, Revision C.01,

 ----------------------------------------------------------------------
 #t hf aug-cc-pvdz symm=none int=(grid=ultrafine) guess=(read,tcheck) s
 table=(opt,rrhf)
 ----------------------------------------------------------------------
 -----
 title
 -----
 Symbolic Z-matrix:
 Charge =  0 Multiplicity = 1

 SCF Done:  E(RHF) =  -233.020936786     A.U. after   14 cycles
 Normal termination of Gaussian 16 at Sun Apr  6 08:07:51 2025.
 Gaussian 16:  ES64L-G16RevC.01  3-Jul-2019

 ----------------------------------------------------------------------
 #t hf aug-cc-pvdz iop(5/13=1,5/36=2,99/5=2) pseudo=read geom=check gue
 ss=(read,tcheck) scf=(maxcycle=1)
 ----------------------------------------------------------------------
 -----
 title
 -----
 Structure from the checkpoint file:  "E-1-3-hexadiene.chk"
 Charge =  0 Multiplicity = 1

                         Standard orientation:
 ---------------------------------------------------------------------
 Center     Atomic      Atomic             Coordinates (Angstroms)
 Number     Number       Type             X           Y           Z
 ---------------------------------------------------------------------
      1          1           0       -0.081998    3.962781    0.000000
      2          1           0        1.401922    2.867737    0.000000
      3          6           0        0.322716    2.960628    0.000000
      4          1           0       -1.546765    2.025344    0.000000
      5          6           0       -0.469613    1.886059    0.000000
      6          1           0        1.076131    0.373269    0.000000
      7          6           0        0.000000    0.512043    0.000000
      8          1           0       -1.883157   -0.373116    0.000000
      9          6           0       -0.810602   -0.551298    0.000000
     10          1           0       -0.872163   -2.479687    0.867089
     11          1           0       -0.872163   -2.479687   -0.867089
     12          6           0       -0.407996   -1.995454    0.000000
     13          1           0        1.273015   -3.356046    0.000000
     14          1           0        1.577427   -1.862279   -0.881724
     15          1           0        1.577427   -1.862279    0.881724
     16          6           0        1.090549   -2.281317    0.000000
 ---------------------------------------------------------------------

 SCF Done:  E(RHF) =  -234.198004513     A.U. after    2 cycles

 The electronic state is 1-A'.
 Alpha  occ. eigenvalues --  -11.44152 -11.42586 -11.41251 -11.38748 -11.37660
 Alpha  occ. eigenvalues --  -11.35951  -1.26767  -1.15667  -1.03721  -0.92222
 Alpha  occ. eigenvalues --   -0.81259  -0.76662  -0.63822  -0.61534  -0.61413
 Alpha  occ. eigenvalues --   -0.55727  -0.53565  -0.49388  -0.48677  -0.46090
 Alpha  occ. eigenvalues --   -0.44179  -0.42203  -0.29191
 Alpha virt. eigenvalues --    0.03727   0.04991   0.05472   0.05858   0.06122
 Alpha virt. eigenvalues --    0.06326   0.06821   0.07068   0.07910   0.10180
 Alpha virt. eigenvalues --    0.10718   0.11086   0.12145   0.12799   0.14106

 Mulliken charges:
               1
     1  H    1.360251
     2  H    1.445339
     3  C   -4.319497
     4  H    1.444943
     5  C   -1.053200
     6  H    1.567542
     7  C    0.984110
     8  H    1.480598
     9  C   -0.933482
    10  H    1.097942
    11  H    1.097942
    12  C   -3.780224
    13  H    1.031700
    14  H    1.343628
    15  H    1.343628
    16  C   -4.111219
 Sum of Mulliken charges =  -0.00000

 Dipole moment (field-independent basis, Debye):
    X=             -0.1525    Y=             -0.7276    Z=             -0.0000  Tot=              0.7434

 Test job not archived.
 1\1\GINC-SE208\SP\RHF\Aug-CC-pVDZ\C6H10\OHZDE\06-Apr-2025\0\\#t hf aug
 -cc-pvdz iop(5/13=1,5/36=2,99/5=2) pseudo=read geom=check guess=(read,
 tcheck) scf=(maxcycle=1)\\title\\0,1\H,0,-0.081998,3.962781,0.\H,0,1.4
 01922,2.867737,0.\C,0,0.322716,2.960628,0.\H,0,-1.546765,2.025344,0.\C
 ,0,-0.469613,1.886059,0.\H,0,1.076131,0.373269,0.\C,0,0.,0.512043,0.\H
 ,0,-1.883157,-0.373116,0.\C,0,-0.810602,-0.551298,0.\H,0,-0.872163,-2.
 479687,0.867089\H,0,-0.872163,-2.479687,-0.867089\C,0,-0.407996,-1.995
 454,0.\H,0,1.273015,-3.356046,0.\H,0,1.577427,-1.862279,-0.881724\H,0,

 Normal termination of Gaussian 16 at Sun Apr  6 08:07:58 2025.
