 Gaussian 16, Revision C.01,

 ----------------------------------------------------------------------
 #t hf aug-cc-pvdz symm=none int=(grid=ultrafine) guess=(read,tcheck) s
 table=(opt,rrhf)
 ----------------------------------------------------------------------
 -----
 title
 -----
 Symbolic Z-matrix:
 Charge =  0 Multiplicity = 1

 SCF Done:  E(RHF) =  -247.872109080     A.U. after   14 cycles
 Normal termination of Gaussian 16 at Sun Apr  6 08:07:41 2025.
 Gaussian 16:  ES64L-G16RevC.01  3-Jul-2019

 ----------------------------------------------------------------------
 #t hf aug-cc-pvdz iop(5/13=1,5/36=2,99/5=2) pseudo=read geom=check gue
 ss=(read,tcheck) scf=(maxcycle=1)
 ----------------------------------------------------------------------
 -----
 title
 -----
 Structure from the checkpoint file:  "E-2-pentenenitrile.chk"
 Charge =  0 Multiplicity = 1

                         Standard orientation:
 ---------------------------------------------------------------------
 Center     Atomic      Atomic             Coordinates (Angstroms)
 Number     Number       Type             X           Y           Z
 ---------------------------------------------------------------------
      1          7           0       -1.442941    2.799964    0.000000
      2          6           0       -0.809520    1.836292    0.000000
      3          1           0        1.068858    0.833466    0.000000
      4          6           0        0.000000    0.664830    0.000000
      5          1           0       -1.596381   -0.669835    0.000000
      6          6           0       -0.516510   -0.567384    0.000000
      7          1           0       -0.069250   -2.431965    0.866379
      8          1           0       -0.069250   -2.431965   -0.866379
      9          6           0        0.258117   -1.846322    0.000000
     10          1           0        2.237470   -2.709684    0.000000
     11          1           0        2.135946   -1.190903   -0.882660
     12          1           0        2.135946   -1.190903    0.882660
     13          6           0        1.777455   -1.722075    0.000000
 ---------------------------------------------------------------------

 SCF Done:  E(RHF) =  -249.059616537     A.U. after    2 cycles

 The electronic state is 1-A'.
 Alpha  occ. eigenvalues --  -15.75348 -11.48563 -11.45819 -11.42916 -11.41767
 Alpha  occ. eigenvalues --  -11.38726  -1.32963  -1.25024  -1.11409  -0.96740
 Alpha  occ. eigenvalues --   -0.83238  -0.73274  -0.64111  -0.61475  -0.60171
 Alpha  occ. eigenvalues --   -0.52445  -0.52141  -0.49948  -0.48979  -0.48151
 Alpha  occ. eigenvalues --   -0.43010  -0.35246
 Alpha virt. eigenvalues --    0.02735   0.04788   0.05140   0.05411   0.05999
 Alpha virt. eigenvalues --    0.06443   0.07020   0.09534   0.09814   0.11452
 Alpha virt. eigenvalues --    0.11736   0.12748   0.13249   0.13869   0.14539

 Mulliken charges:
               1
     1  N   -2.084549
     2  C    0.442748
     3  H    1.754518
     4  C    0.030066
     5  H    1.526903
     6  C   -0.345998
     7  H    1.238677
     8  H    1.238677
     9  C   -3.473744
    10  H    1.043178
    11  H    1.338268
    12  H    1.338268
    13  C   -4.047011
 Sum of Mulliken charges =   0.00000

 Dipole moment (field-independent basis, Debye):
    X=              1.9344    Y=             -4.1784    Z=              0.0000  Tot=              4.6045

 Test job not archived.
 1\1\GINC-SE106\SP\RHF\Aug-CC-pVDZ\C5H7N1\OHZDE\06-Apr-2025\0\\#t hf au
 g-cc-pvdz iop(5/13=1,5/36=2,99/5=2) pseudo=read geom=check guess=(read
 ,tcheck) scf=(maxcycle=1)\\title\\0,1\N,0,-1.442941,2.799964,0.\C,0,-0
 .80952,1.836292,0.\H,0,1.068858,0.833466,0.\C,0,0.,0.66483,0.\H,0,-1.5
 96381,-0.669835,0.\C,0,-0.51651,-0.567384,0.\H,0,-0.06925,-2.431965,0.
 866379\H,0,-0.06925,-2.431965,-0.866379\C,0,0.258117,-1.846322,0.\H,0,
 2.23747,-2.709684,0.\H,0,2.135946,-1.190903,-0.88266\H,0,2.135946,-1.1
 90903,0.88266\C,0,1.777455,-1.722075,0.\\Version=ES64L-G16RevC.01\Stat

 Normal termination of Gaussian 16 at Sun Apr  6 08:07:44 2025.
