 Gaussian 16, Revision C.01,

 ----------------------------------------------------------------------
 #t hf aug-cc-pvdz symm=none int=(grid=ultrafine) guess=(read,tcheck) s
 table=(opt,rrhf)
 ----------------------------------------------------------------------
 -----
 title
 -----
 Symbolic Z-matrix:
 Charge =  0 Multiplicity = 1

 SCF Done:  E(RHF) =  -208.833989950     A.U. after   14 cycles
 Normal termination of Gaussian 16 at Sun Apr  6 08:07:28 2025.
 Gaussian 16:  ES64L-G16RevC.01  3-Jul-2019

 ----------------------------------------------------------------------
 #t hf aug-cc-pvdz iop(5/13=1,5/36=2,99/5=2) pseudo=read geom=check gue
 ss=(read,tcheck) scf=(maxcycle=1)
 ----------------------------------------------------------------------
 -----
 title
 -----
 Structure from the checkpoint file:  "E-2-butenenitrile.chk"
 Charge =  0 Multiplicity = 1

                         Standard orientation:
 ---------------------------------------------------------------------
 Center     Atomic      Atomic             Coordinates (Angstroms)
 Number     Number       Type             X           Y           Z
 ---------------------------------------------------------------------
      1          1           0        2.655683    0.401193    0.000000
      2          1           0        2.622682   -1.138527    0.875361
      3          1           0        2.622682   -1.138527   -0.875361
      4          6           0        2.242257   -0.606309    0.000000
      5          1           0        0.256482   -1.562903    0.000000
      6          6           0        0.752473   -0.598413    0.000000
      7          1           0        0.451575    1.489847    0.000000
      8          6           0        0.000000    0.504802    0.000000
      9          7           0       -2.576635    0.473241    0.000000
     10          6           0       -1.423506    0.472625    0.000000
 ---------------------------------------------------------------------

 SCF Done:  E(RHF) =  -209.816786046     A.U. after    2 cycles

 The electronic state is 1-A'.
 Alpha  occ. eigenvalues --  -15.75558 -11.48103 -11.44364 -11.42271 -11.40431
 Alpha  occ. eigenvalues --   -1.32621  -1.22741  -1.05636  -0.85831  -0.73357
 Alpha  occ. eigenvalues --   -0.62415  -0.59610  -0.56860  -0.53239  -0.49951
 Alpha  occ. eigenvalues --   -0.49511  -0.43420  -0.35389
 Alpha virt. eigenvalues --    0.02607   0.05019   0.05495   0.05602   0.06602
 Alpha virt. eigenvalues --    0.08246   0.09939   0.10519   0.12436   0.12568
 Alpha virt. eigenvalues --    0.13235   0.14458   0.14549   0.14985   0.16789

 Mulliken charges:
               1
     1  H    1.265080
     2  H    1.150588
     3  H    1.150588
     4  C   -4.335033
     5  H    1.540745
     6  C   -0.499471
     7  H    1.597371
     8  C   -0.879267
     9  N   -2.236911
    10  C    1.246309
 Sum of Mulliken charges =  -0.00000

 Dipole moment (field-independent basis, Debye):
    X=              4.3144    Y=             -0.7280    Z=             -0.0000  Tot=              4.3754

 Test job not archived.
 1\1\GINC-SE086\SP\RHF\Aug-CC-pVDZ\C4H5N1\OHZDE\06-Apr-2025\0\\#t hf au
 g-cc-pvdz iop(5/13=1,5/36=2,99/5=2) pseudo=read geom=check guess=(read
 ,tcheck) scf=(maxcycle=1)\\title\\0,1\H,0,2.655683,0.401193,0.\H,0,2.6
 22682,-1.138527,0.875361\H,0,2.622682,-1.138527,-0.875361\C,0,2.242257
 ,-0.606309,0.\H,0,0.256482,-1.562903,0.\C,0,0.752473,-0.598413,0.\H,0,
 0.451575,1.489847,0.\C,0,0.,0.504802,0.\N,0,-2.576635,0.473241,0.\C,0,
 -1.423506,0.472625,0.\\Version=ES64L-G16RevC.01\State=1-A'\HF=-209.816
 786\RMSD=9.542e-01\Dipole=1.6974144,-0.2863993,0.\Quadrupole=-4.233154

 Normal termination of Gaussian 16 at Sun Apr  6 08:07:31 2025.
