 Gaussian 16, Revision C.01,

 ----------------------------------------------------------------------
 #t hf aug-cc-pvdz symm=none int=(grid=ultrafine) guess=(read,tcheck) s
 table=(opt,rrhf)
 ----------------------------------------------------------------------
 -----
 title
 -----
 Symbolic Z-matrix:
 Charge =  0 Multiplicity = 1

 SCF Done:  E(RHF) =  -615.052620356     A.U. after   13 cycles

 1\1\GINC-SE086\Stability\RHF\Aug-CC-pVDZ\C4H7Cl1\OHZDE\06-Apr-2025\0\\
 #t hf aug-cc-pvdz symm=none int=(grid=ultrafine) guess=(read,tcheck) s
 table=(opt,rrhf)\\title\\0,1\C,0,-2.219388,-1.031508,0.\H,0,-2.709797,
 -0.060794,0.\H,0,-2.56757,-1.583635,0.87654\H,0,-2.56757,-1.583635,-0.
 87654\C,0,0.,0.174336,0.\H,0,-0.192077,-1.881945,0.\C,0,-0.724178,-0.9
 38568,0.\H,0,-0.067567,2.12055,0.878325\H,0,-0.067567,2.12055,-0.87832
 5\C,0,-0.449589,1.597487,0.\Cl,0,1.768594,0.022859,0.\H,0,-1.535021,1.
 669819,0.\\Version=ES64L-G16RevC.01\HF=-615.0526204\RMSD=4.214e-09\Dip

 Normal termination of Gaussian 16 at Sun Apr  6 08:07:30 2025.
 Gaussian 16:  ES64L-G16RevC.01  3-Jul-2019

 ----------------------------------------------------------------------
 #t hf aug-cc-pvdz iop(5/13=1,5/36=2,99/5=2) pseudo=read geom=check gue
 ss=(read,tcheck) scf=(maxcycle=1)
 ----------------------------------------------------------------------
 -----
 title
 -----
 Structure from the checkpoint file:  "E-2-chloro-2-butene.chk"
 Charge =  0 Multiplicity = 1

                         Standard orientation:
 ---------------------------------------------------------------------
 Center     Atomic      Atomic             Coordinates (Angstroms)
 Number     Number       Type             X           Y           Z
 ---------------------------------------------------------------------
      1          6           0       -2.219388   -1.031508    0.000000
      2          1           0       -2.709797   -0.060794    0.000000
      3          1           0       -2.567570   -1.583635    0.876540
      4          1           0       -2.567570   -1.583635   -0.876540
      5          6           0        0.000000    0.174336    0.000000
      6          1           0       -0.192077   -1.881945    0.000000
      7          6           0       -0.724178   -0.938568    0.000000
      8          1           0       -0.067567    2.120550    0.878325
      9          1           0       -0.067567    2.120550   -0.878325
     10          6           0       -0.449589    1.597487    0.000000
     11         17           0        1.768594    0.022859    0.000000
     12          1           0       -1.535021    1.669819    0.000000
 ---------------------------------------------------------------------

 SCF Done:  E(RHF) =  -616.093682716     A.U. after    2 cycles

 The electronic state is 1-A'.
 Alpha  occ. eigenvalues --  -99.87942 -11.46138 -11.41210 -11.40864 -11.37499
 Alpha  occ. eigenvalues --  -10.45292  -9.65217  -9.64457  -9.64287  -1.35811
 Alpha  occ. eigenvalues --   -1.18796  -1.07945  -0.95961  -0.76288  -0.67244
 Alpha  occ. eigenvalues --   -0.60391  -0.59868  -0.56854  -0.55173  -0.51893
 Alpha  occ. eigenvalues --   -0.51819  -0.48495  -0.46941  -0.34188
 Alpha virt. eigenvalues --    0.02962   0.05254   0.06035   0.06150   0.06199
 Alpha virt. eigenvalues --    0.07050   0.07800   0.09149   0.10632   0.11480
 Alpha virt. eigenvalues --    0.12990   0.13775   0.14694   0.14712   0.15161

 Mulliken charges:
               1
     1  C   -4.016091
     2  H    1.362614
     3  H    1.157143
     4  H    1.157143
     5  C   -0.093718
     6  H    1.730751
     7  C   -0.036773
     8  H    1.236767
     9  H    1.236767
    10  C   -4.617968
    11  Cl  -0.495454
    12  H    1.378818
 Sum of Mulliken charges =  -0.00000

 Dipole moment (field-independent basis, Debye):
    X=             -2.6620    Y=              0.0140    Z=              0.0000  Tot=              2.6620

 Test job not archived.
 1\1\GINC-SE086\SP\RHF\Aug-CC-pVDZ\C4H7Cl1\OHZDE\06-Apr-2025\0\\#t hf a
 ug-cc-pvdz iop(5/13=1,5/36=2,99/5=2) pseudo=read geom=check guess=(rea
 d,tcheck) scf=(maxcycle=1)\\title\\0,1\C,0,-2.219388,-1.031508,0.\H,0,
 -2.709797,-0.060794,0.\H,0,-2.56757,-1.583635,0.87654\H,0,-2.56757,-1.
 583635,-0.87654\C,0,0.,0.174336,0.\H,0,-0.192077,-1.881945,0.\C,0,-0.7
 24178,-0.938568,0.\H,0,-0.067567,2.12055,0.878325\H,0,-0.067567,2.1205
 5,-0.878325\C,0,-0.449589,1.597487,0.\Cl,0,1.768594,0.022859,0.\H,0,-1
 .535021,1.669819,0.\\Version=ES64L-G16RevC.01\State=1-A'\HF=-616.09368

 Normal termination of Gaussian 16 at Sun Apr  6 08:07:34 2025.
