 Gaussian 16, Revision C.01,

 ----------------------------------------------------------------------
 #t hf aug-cc-pvdz symm=none int=(grid=ultrafine) guess=(read,tcheck) s
 table=(opt,rrhf)
 ----------------------------------------------------------------------
 -----
 title
 -----
 Symbolic Z-matrix:
 Charge =  0 Multiplicity = 1

 SCF Done:  E(RHF) =  -195.167345772     A.U. after   12 cycles
 Normal termination of Gaussian 16 at Sun Apr  6 08:07:39 2025.
 Gaussian 16:  ES64L-G16RevC.01  3-Jul-2019

 ----------------------------------------------------------------------
 #t hf aug-cc-pvdz iop(5/13=1,5/36=2,99/5=2) pseudo=read geom=check gue
 ss=(read,tcheck) scf=(maxcycle=1)
 ----------------------------------------------------------------------
 -----
 title
 -----
 Structure from the checkpoint file:  "E-2-pentene.chk"
 Charge =  0 Multiplicity = 1

                         Standard orientation:
 ---------------------------------------------------------------------
 Center     Atomic      Atomic             Coordinates (Angstroms)
 Number     Number       Type             X           Y           Z
 ---------------------------------------------------------------------
      1          6           0        1.170211    0.338779    0.232071
      2          6           0        0.066000   -0.045993   -0.399570
      3          6           0        2.527893   -0.268148    0.055662
      4          6           0       -2.338851   -0.455053    0.271000
      5          6           0       -1.295746    0.556611   -0.220194
      6          1           0        1.103462    1.163582    0.937874
      7          1           0        0.129624   -0.873234   -1.104350
      8          1           0        3.251170    0.475143   -0.290413
      9          1           0        2.510259   -1.084591   -0.666589
     10          1           0        2.912006   -0.659771    1.001395
     11          1           0       -3.323952    0.006212    0.354652
     12          1           0       -2.066008   -0.853268    1.249121
     13          1           0       -2.423715   -1.297719   -0.417841
     14          1           0       -1.635193    0.971610   -1.175306
     15          1           0       -1.234696    1.394857    0.477641
 ---------------------------------------------------------------------

 SCF Done:  E(RHF) =  -196.179217635     A.U. after    2 cycles

 The electronic state is 1-A.
 Alpha  occ. eigenvalues --  -11.43031 -11.40289 -11.38462 -11.36586 -11.34703
 Alpha  occ. eigenvalues --   -1.24685  -1.12023  -0.98238  -0.86812  -0.77056
 Alpha  occ. eigenvalues --   -0.61961  -0.61253  -0.56096  -0.54941  -0.54879
 Alpha  occ. eigenvalues --   -0.49315  -0.48617  -0.46433  -0.43045  -0.32408
 Alpha virt. eigenvalues --    0.03939   0.05129   0.05701   0.05944   0.06196
 Alpha virt. eigenvalues --    0.06366   0.06697   0.07015   0.08257   0.08842
 Alpha virt. eigenvalues --    0.10427   0.12923   0.13480   0.14124   0.14599

 Mulliken charges:
               1
     1  C   -0.513858
     2  C   -0.161615
     3  C   -4.422714
     4  C   -3.685651
     5  C   -4.017967
     6  H    1.364779
     7  H    1.482744
     8  H    1.159196
     9  H    1.247392
    10  H    1.169921
    11  H    1.161187
    12  H    1.316160
    13  H    1.265494
    14  H    1.229340
    15  H    1.405592
 Sum of Mulliken charges =  -0.00000

 Dipole moment (field-independent basis, Debye):
    X=              0.0304    Y=              0.1052    Z=             -0.0009  Tot=              0.1095

 Test job not archived.
 1\1\GINC-SE106\SP\RHF\Aug-CC-pVDZ\C5H10\OHZDE\06-Apr-2025\0\\#t hf aug
 -cc-pvdz iop(5/13=1,5/36=2,99/5=2) pseudo=read geom=check guess=(read,
 tcheck) scf=(maxcycle=1)\\title\\0,1\C,0,1.170211,0.338779,0.232071\C,
 0,0.066,-0.045993,-0.39957\C,0,2.527893,-0.268148,0.055662\C,0,-2.3388
 51,-0.455053,0.271\C,0,-1.295746,0.556611,-0.220194\H,0,1.103462,1.163
 582,0.937874\H,0,0.129624,-0.873234,-1.10435\H,0,3.25117,0.475143,-0.2
 90413\H,0,2.510259,-1.084591,-0.666589\H,0,2.912006,-0.659771,1.001395
 \H,0,-3.323952,0.006212,0.354652\H,0,-2.066008,-0.853268,1.249121\H,0,

 Normal termination of Gaussian 16 at Sun Apr  6 08:07:43 2025.
