 Gaussian 16, Revision C.01,

 ----------------------------------------------------------------------
 #t hf aug-cc-pvdz symm=none int=(grid=ultrafine) guess=(read,tcheck) s
 table=(opt,rrhf)
 ----------------------------------------------------------------------
 -----
 title
 -----
 Symbolic Z-matrix:
 Charge =  0 Multiplicity = 1

 SCF Done:  E(RHF) =  -156.128704289     A.U. after   10 cycles
 Normal termination of Gaussian 16 at Sun Apr  6 08:07:27 2025.
 Gaussian 16:  ES64L-G16RevC.01  3-Jul-2019

 ----------------------------------------------------------------------
 #t hf aug-cc-pvdz iop(5/13=1,5/36=2,99/5=2) pseudo=read geom=check gue
 ss=(read,tcheck) scf=(maxcycle=1)
 ----------------------------------------------------------------------
 -----
 title
 -----
 Structure from the checkpoint file:  "E-2-butene.chk"
 Charge =  0 Multiplicity = 1

                         Standard orientation:
 ---------------------------------------------------------------------
 Center     Atomic      Atomic             Coordinates (Angstroms)
 Number     Number       Type             X           Y           Z
 ---------------------------------------------------------------------
      1          6           0       -0.323065    0.580595    0.000000
      2          6           0        0.323065   -0.580595    0.000000
      3          6           0        0.323065    1.931514    0.000000
      4          6           0       -0.323065   -1.931514    0.000000
      5          1           0       -1.410554    0.569817    0.000000
      6          1           0        1.410554   -0.569817    0.000000
      7          1           0        0.024557    2.513142    0.876335
      8          1           0        1.410604    1.854162    0.000000
      9          1           0        0.024557    2.513142   -0.876335
     10          1           0       -0.024557   -2.513142    0.876335
     11          1           0       -1.410604   -1.854162    0.000000
     12          1           0       -0.024557   -2.513142   -0.876335
 ---------------------------------------------------------------------

 SCF Done:  E(RHF) =  -156.935710007     A.U. after    2 cycles

 The electronic state is 1-AG.
 Alpha  occ. eigenvalues --  -11.41822 -11.39113 -11.37640 -11.35126  -1.22521
 Alpha  occ. eigenvalues --   -1.06845  -0.92010  -0.76920  -0.60071  -0.59374
 Alpha  occ. eigenvalues --   -0.56716  -0.54716  -0.51230  -0.47646  -0.45208
 Alpha  occ. eigenvalues --   -0.32541
 Alpha virt. eigenvalues --    0.03847   0.05157   0.06027   0.06369   0.06370
 Alpha virt. eigenvalues --    0.06543   0.06938   0.09060   0.10378   0.12008
 Alpha virt. eigenvalues --    0.12603   0.14101   0.15153   0.16850   0.17539

 Mulliken charges:
               1
     1  C   -0.559720
     2  C   -0.559720
     3  C   -4.383834
     4  C   -4.383834
     5  H    1.388041
     6  H    1.388041
     7  H    1.149428
     8  H    1.256657
     9  H    1.149428
    10  H    1.149428
    11  H    1.256657
    12  H    1.149428
 Sum of Mulliken charges =  -0.00000

 Dipole moment (field-independent basis, Debye):
    X=              0.0000    Y=             -0.0000    Z=              0.0000  Tot=              0.0000

 Test job not archived.
 1\1\GINC-SE085\SP\RHF\Aug-CC-pVDZ\C4H8\OHZDE\06-Apr-2025\0\\#t hf aug-
 cc-pvdz iop(5/13=1,5/36=2,99/5=2) pseudo=read geom=check guess=(read,t
 check) scf=(maxcycle=1)\\title\\0,1\C,0,-0.323065,0.580595,0.\C,0,0.32
 3065,-0.580595,0.\C,0,0.323065,1.931514,0.\C,0,-0.323065,-1.931514,0.\
 H,0,-1.410554,0.569817,0.\H,0,1.410554,-0.569817,0.\H,0,0.024557,2.513
 142,0.876335\H,0,1.410604,1.854162,0.\H,0,0.024557,2.513142,-0.876335\
 H,0,-0.024557,-2.513142,0.876335\H,0,-1.410604,-1.854162,0.\H,0,-0.024
 557,-2.513142,-0.876335\\Version=ES64L-G16RevC.01\State=1-AG\HF=-156.9

 Normal termination of Gaussian 16 at Sun Apr  6 08:07:29 2025.
