 Gaussian 16, Revision C.01,

 ----------------------------------------------------------------------
 #t hf aug-cc-pvdz symm=none int=(grid=ultrafine) guess=(read,tcheck) s
 table=(opt,rrhf)
 ----------------------------------------------------------------------
 -----
 title
 -----
 Symbolic Z-matrix:
 Charge =  0 Multiplicity = 1

 SCF Done:  E(RHF) =  -1108.64501208     A.U. after   14 cycles
 Normal termination of Gaussian 16 at Sun Apr  6 08:07:29 2025.
 Gaussian 16:  ES64L-G16RevC.01  3-Jul-2019

 ----------------------------------------------------------------------
 #t hf aug-cc-pvdz iop(5/13=1,5/36=2,99/5=2) pseudo=read geom=check gue
 ss=(read,tcheck) scf=(maxcycle=1)
 ----------------------------------------------------------------------
 -----
 title
 -----
 Structure from the checkpoint file:  "E-3-chloroacryloyl_chloride.chk"
 Charge =  0 Multiplicity = 1

                         Standard orientation:
 ---------------------------------------------------------------------
 Center     Atomic      Atomic             Coordinates (Angstroms)
 Number     Number       Type             X           Y           Z
 ---------------------------------------------------------------------
      1         17           0        2.462394   -0.834112    0.000000
      2         17           0       -2.210865    1.860330    0.000000
      3          8           0        0.141352   -2.060501    0.000000
      4          6           0        0.651704   -0.988993    0.000000
      5          6           0        0.000000    0.327350    0.000000
      6          6           0       -1.330710    0.383125    0.000000
      7          1           0        0.617498    1.210825    0.000000
      8          1           0       -1.950271   -0.501414    0.000000
 ---------------------------------------------------------------------

 SCF Done:  E(RHF) =  -1109.96006680     A.U. after    2 cycles

 The electronic state is 1-A'.
 Alpha  occ. eigenvalues --  -99.93334 -99.90699 -21.10501 -11.56734 -11.50853
 Alpha  occ. eigenvalues --  -11.43908 -10.50749 -10.48016  -9.70638  -9.69743
 Alpha  occ. eigenvalues --   -9.69641  -9.67882  -9.67168  -9.67036  -1.76862
 Alpha  occ. eigenvalues --   -1.39992  -1.32870  -1.18112  -0.95134  -0.80929
 Alpha  occ. eigenvalues --   -0.73500  -0.66155  -0.62066  -0.61083  -0.58268
 Alpha  occ. eigenvalues --   -0.56576  -0.53004  -0.50594  -0.48248  -0.38352
 Alpha  occ. eigenvalues --   -0.35940
 Alpha virt. eigenvalues --    0.03015   0.04039   0.05367   0.05700   0.07273
 Alpha virt. eigenvalues --    0.09396   0.10376   0.11983   0.12031   0.12250
 Alpha virt. eigenvalues --    0.12349   0.12982   0.14055   0.15456   0.16067

 Mulliken charges:
               1
     1  Cl  -0.163403
     2  Cl  -0.413881
     3  O   -2.871973
     4  C    1.091912
     5  C    1.965919
     6  C   -2.874999
     7  H    1.798225
     8  H    1.468200
 Sum of Mulliken charges =   0.00000

 Dipole moment (field-independent basis, Debye):
    X=             -2.1886    Y=             -0.1780    Z=              0.0000  Tot=              2.1958

 Test job not archived.
 1\1\GINC-SE107\SP\RHF\Aug-CC-pVDZ\C3H2Cl2O1\OHZDE\06-Apr-2025\0\\#t hf
  aug-cc-pvdz iop(5/13=1,5/36=2,99/5=2) pseudo=read geom=check guess=(r
 ead,tcheck) scf=(maxcycle=1)\\title\\0,1\Cl,0,2.462394,-0.834112,0.\Cl
 ,0,-2.210865,1.86033,0.\O,0,0.141352,-2.060501,0.\C,0,0.651704,-0.9889
 93,0.\C,0,0.,0.32735,0.\C,0,-1.33071,0.383125,0.\H,0,0.617498,1.210825
 ,0.\H,0,-1.950271,-0.501414,0.\\Version=ES64L-G16RevC.01\State=1-A'\HF
 =-1109.9600668\RMSD=5.644e-01\Dipole=-0.8610596,-0.0700114,0.\Quadrupo
 le=-1.357863,1.1312679,0.2265951,2.5510758,0.,0.\PG=CS [SG(C3H2Cl2O1)]

 Normal termination of Gaussian 16 at Sun Apr  6 08:07:33 2025.
