 Gaussian 16, Revision C.01,

 ----------------------------------------------------------------------
 #t hf aug-cc-pvdz symm=none int=(grid=ultrafine) guess=(read,tcheck) s
 table=(opt,rrhf)
 ----------------------------------------------------------------------
 -----
 title
 -----
 Symbolic Z-matrix:
 Charge =  0 Multiplicity = 1

 SCF Done:  E(RHF) =  -735.115343284     A.U. after   16 cycles
 Normal termination of Gaussian 16 at Sun Apr  6 08:07:44 2025.
 Gaussian 16:  ES64L-G16RevC.01  3-Jul-2019

 ----------------------------------------------------------------------
 #t hf aug-cc-pvdz iop(5/13=1,5/36=2,99/5=2) pseudo=read geom=check gue
 ss=(read,tcheck) scf=(maxcycle=1)
 ----------------------------------------------------------------------
 -----
 title
 -----
 Structure from the checkpoint file:  "E-3-amino-3-oxo-1-propen-1-yl_thiocyanate.chk"
 Charge =  0 Multiplicity = 1

                         Standard orientation:
 ---------------------------------------------------------------------
 Center     Atomic      Atomic             Coordinates (Angstroms)
 Number     Number       Type             X           Y           Z
 ---------------------------------------------------------------------
      1         16           0       -1.676534   -0.926064    0.051194
      2          8           0        3.331516   -0.631562   -0.252865
      3          7           0        2.397628    1.405048    0.103813
      4          7           0       -3.577023    1.191000   -0.109127
      5          6           0        1.020168   -0.608219    0.179875
      6          6           0        2.350109    0.042718    0.002223
      7          6           0       -0.149655   -0.019457   -0.048702
      8          6           0       -2.785853    0.351530   -0.044843
      9          1           0        1.086429   -1.657050    0.439278
     10          1           0       -0.254458    1.009404   -0.361619
     11          1           0        1.678256    1.917370    0.581658
     12          1           0        3.309355    1.828033    0.050389
 ---------------------------------------------------------------------

 SCF Done:  E(RHF) =  -736.819672115     A.U. after    2 cycles

 The electronic state is 1-A.
 Alpha  occ. eigenvalues --  -75.77613 -21.04547 -15.79632 -15.79097 -13.25247
 Alpha  occ. eigenvalues --  -13.19763 -13.09747 -11.53109 -11.49508 -11.46257
 Alpha  occ. eigenvalues --  -11.43672  -8.11892  -1.72416  -1.38160  -1.35161
 Alpha  occ. eigenvalues --   -1.26697  -1.13781  -0.92175  -0.82256  -0.75091
 Alpha  occ. eigenvalues --   -0.69950  -0.65734  -0.60820  -0.56444  -0.54459
 Alpha  occ. eigenvalues --   -0.52370  -0.51064  -0.50522  -0.44620  -0.42802
 Alpha  occ. eigenvalues --   -0.34797  -0.30805  -0.27098
 Alpha virt. eigenvalues --    0.02358   0.04621   0.05213   0.05585   0.06075
 Alpha virt. eigenvalues --    0.07468   0.09343   0.09946   0.10232   0.11922
 Alpha virt. eigenvalues --    0.12113   0.12396   0.12777   0.13148   0.13337

 Mulliken charges:
               1
     1  S    1.812458
     2  O   -3.210795
     3  N   -2.915612
     4  N   -1.953132
     5  C   -0.635166
     6  C    3.636509
     7  C   -1.346690
     8  C    0.260972
     9  H    1.539111
    10  H    1.331154
    11  H    0.738899
    12  H    0.742291
 Sum of Mulliken charges =   0.00000

 Dipole moment (field-independent basis, Debye):
    X=              1.1694    Y=             -1.4695    Z=              1.0122  Tot=              2.1334

 Test job not archived.
 1\1\GINC-SE107\SP\RHF\Aug-CC-pVDZ\C4H4N2O1S1\OHZDE\06-Apr-2025\0\\#t h
 f aug-cc-pvdz iop(5/13=1,5/36=2,99/5=2) pseudo=read geom=check guess=(
 read,tcheck) scf=(maxcycle=1)\\title\\0,1\S,0,-1.676534,-0.926064,0.05
 1194\O,0,3.331516,-0.631562,-0.252865\N,0,2.397628,1.405048,0.103813\N
 ,0,-3.577023,1.191,-0.109127\C,0,1.020168,-0.608219,0.179875\C,0,2.350
 109,0.042718,0.002223\C,0,-0.149655,-0.019457,-0.048702\C,0,-2.785853,
 0.35153,-0.044843\H,0,1.086429,-1.65705,0.439278\H,0,-0.254458,1.00940
 4,-0.361619\H,0,1.678256,1.91737,0.581658\H,0,3.309355,1.828033,0.0503

 Normal termination of Gaussian 16 at Sun Apr  6 08:07:49 2025.
