 Gaussian 16, Revision C.01,

 ----------------------------------------------------------------------
 #t hf aug-cc-pvdz symm=none int=(grid=ultrafine) guess=(read,tcheck) s
 table=(opt,rrhf)
 ----------------------------------------------------------------------
 -----
 title
 -----
 Symbolic Z-matrix:
 Charge =  0 Multiplicity = 1

 SCF Done:  E(RHF) =  -247.871823681     A.U. after   14 cycles
 Normal termination of Gaussian 16 at Sun Apr  6 08:07:43 2025.
 Gaussian 16:  ES64L-G16RevC.01  3-Jul-2019

 ----------------------------------------------------------------------
 #t hf aug-cc-pvdz iop(5/13=1,5/36=2,99/5=2) pseudo=read geom=check gue
 ss=(read,tcheck) scf=(maxcycle=1)
 ----------------------------------------------------------------------
 -----
 title
 -----
 Structure from the checkpoint file:  "E-3-pentenenitrile.chk"
 Charge =  0 Multiplicity = 1

                         Standard orientation:
 ---------------------------------------------------------------------
 Center     Atomic      Atomic             Coordinates (Angstroms)
 Number     Number       Type             X           Y           Z
 ---------------------------------------------------------------------
      1          1           0        3.609044    0.273076    0.113372
      2          1           0        3.098636   -1.103376   -0.844452
      3          1           0        2.741762   -1.060175    0.886842
      4          6           0        2.803885   -0.454173   -0.016457
      5          1           0        1.487319    0.854078   -1.202776
      6          6           0        1.507467    0.229794   -0.313018
      7          1           0        0.395283   -0.497491    1.305299
      8          6           0        0.405132    0.126989    0.418299
      9          6           0       -0.883366    0.846575    0.103693
     10          7           0       -2.901787   -0.791599   -0.168867
     11          6           0       -2.016649   -0.066647   -0.054156
     12          1           0       -0.780939    1.432476   -0.811185
     13          1           0       -1.137406    1.547375    0.904805
 ---------------------------------------------------------------------

 SCF Done:  E(RHF) =  -249.060278131     A.U. after    2 cycles

 The electronic state is 1-A.
 Alpha  occ. eigenvalues --  -15.75420 -11.47910 -11.45180 -11.42548 -11.40898
 Alpha  occ. eigenvalues --  -11.38161  -1.32962  -1.24196  -1.11873  -0.97071
 Alpha  occ. eigenvalues --   -0.80583  -0.70242  -0.64775  -0.63768  -0.57702
 Alpha  occ. eigenvalues --   -0.56224  -0.53058  -0.50692  -0.49480  -0.43153
 Alpha  occ. eigenvalues --   -0.42214  -0.35769
 Alpha virt. eigenvalues --    0.03084   0.04520   0.05444   0.05689   0.06006
 Alpha virt. eigenvalues --    0.06457   0.07889   0.09142   0.09738   0.10591
 Alpha virt. eigenvalues --    0.12292   0.13108   0.13432   0.13830   0.14631

 Mulliken charges:
               1
     1  H    1.161543
     2  H    1.163053
     3  H    1.248435
     4  C   -4.369087
     5  H    1.360383
     6  C   -0.567667
     7  H    1.445036
     8  C   -0.263996
     9  C   -3.732643
    10  N   -2.437314
    11  C    2.153771
    12  H    1.531388
    13  H    1.307098
 Sum of Mulliken charges =   0.00000

 Dipole moment (field-independent basis, Debye):
    X=              3.4260    Y=              2.0197    Z=              0.2576  Tot=              3.9853

 Test job not archived.
 1\1\GINC-SE167\SP\RHF\Aug-CC-pVDZ\C5H7N1\OHZDE\06-Apr-2025\0\\#t hf au
 g-cc-pvdz iop(5/13=1,5/36=2,99/5=2) pseudo=read geom=check guess=(read
 ,tcheck) scf=(maxcycle=1)\\title\\0,1\H,0,3.609044,0.273076,0.113372\H
 ,0,3.098636,-1.103376,-0.844452\H,0,2.741762,-1.060175,0.886842\C,0,2.
 803885,-0.454173,-0.016457\H,0,1.487319,0.854078,-1.202776\C,0,1.50746
 7,0.229794,-0.313018\H,0,0.395283,-0.497491,1.305299\C,0,0.405132,0.12
 6989,0.418299\C,0,-0.883366,0.846575,0.103693\N,0,-2.901787,-0.791599,
 -0.168867\C,0,-2.016649,-0.066647,-0.054156\H,0,-0.780939,1.432476,-0.

 Normal termination of Gaussian 16 at Sun Apr  6 08:07:47 2025.
