 Gaussian 16, Revision C.01,

 ----------------------------------------------------------------------
 #t hf aug-cc-pvdz symm=none int=(grid=ultrafine) guess=(read,tcheck) s
 table=(opt,rrhf)
 ----------------------------------------------------------------------
 -----
 title
 -----
 Symbolic Z-matrix:
 Charge =  0 Multiplicity = 1

 SCF Done:  E(RHF) =  -192.770300043     A.U. after   14 cycles
 Normal termination of Gaussian 16 at Sun Apr  6 08:07:30 2025.
 Gaussian 16:  ES64L-G16RevC.01  3-Jul-2019

 ----------------------------------------------------------------------
 #t hf aug-cc-pvdz iop(5/13=1,5/36=2,99/5=2) pseudo=read geom=check gue
 ss=(read,tcheck) scf=(maxcycle=1)
 ----------------------------------------------------------------------
 -----
 title
 -----
 Structure from the checkpoint file:  "E-3-penten-1-yne.chk"
 Charge =  0 Multiplicity = 1

                         Standard orientation:
 ---------------------------------------------------------------------
 Center     Atomic      Atomic             Coordinates (Angstroms)
 Number     Number       Type             X           Y           Z
 ---------------------------------------------------------------------
      1          6           0       -2.320917   -0.461628    0.000000
      2          1           0       -2.746079   -0.959757    0.875622
      3          1           0       -2.746079   -0.959757   -0.875622
      4          1           0       -2.655927    0.575371    0.000000
      5          6           0       -0.831837   -0.562138    0.000000
      6          1           0       -0.407944   -1.560710    0.000000
      7          6           0        0.000000    0.484435    0.000000
      8          1           0       -0.409236    1.490531    0.000000
      9          6           0        1.415974    0.385941    0.000000
     10          6           0        2.618043    0.340629    0.000000
     11          1           0        3.677687    0.290883    0.000000
 ---------------------------------------------------------------------

 SCF Done:  E(RHF) =  -193.713158027     A.U. after    2 cycles

 The electronic state is 1-A'.
 Alpha  occ. eigenvalues --  -11.45697 -11.42199 -11.40169 -11.39762 -11.38270
 Alpha  occ. eigenvalues --   -1.24723  -1.10010  -0.99338  -0.82698  -0.73456
 Alpha  occ. eigenvalues --   -0.64987  -0.59349  -0.57468  -0.52099  -0.49644
 Alpha  occ. eigenvalues --   -0.44285  -0.36767  -0.30822
 Alpha virt. eigenvalues --    0.03254   0.04985   0.05642   0.06220   0.06352
 Alpha virt. eigenvalues --    0.07210   0.09483   0.10450   0.10823   0.11970
 Alpha virt. eigenvalues --    0.12372   0.14086   0.14213   0.15476   0.15922

 Mulliken charges:
               1
     1  C   -4.203826
     2  H    1.126474
     3  H    1.126474
     4  H    1.234159
     5  C   -1.254338
     6  H    1.397874
     7  C   -1.127734
     8  H    1.466104
     9  C    2.707751
    10  C   -3.170548
    11  H    0.697612
 Sum of Mulliken charges =   0.00000

 Dipole moment (field-independent basis, Debye):
    X=             -0.9575    Y=             -0.3741    Z=              0.0000  Tot=              1.0280

 Test job not archived.
 1\1\GINC-SE167\SP\RHF\Aug-CC-pVDZ\C5H6\OHZDE\06-Apr-2025\0\\#t hf aug-
 cc-pvdz iop(5/13=1,5/36=2,99/5=2) pseudo=read geom=check guess=(read,t
 check) scf=(maxcycle=1)\\title\\0,1\C,0,-2.320917,-0.461628,0.\H,0,-2.
 746079,-0.959757,0.875622\H,0,-2.746079,-0.959757,-0.875622\H,0,-2.655
 927,0.575371,0.\C,0,-0.831837,-0.562138,0.\H,0,-0.407944,-1.56071,0.\C
 ,0,0.,0.484435,0.\H,0,-0.409236,1.490531,0.\C,0,1.415974,0.385941,0.\C
 ,0,2.618043,0.340629,0.\H,0,3.677687,0.290883,0.\\Version=ES64L-G16Rev
 C.01\State=1-A'\HF=-193.713158\RMSD=1.379e+00\Dipole=-0.3766973,-0.147

 Normal termination of Gaussian 16 at Sun Apr  6 08:07:34 2025.
