 Gaussian 16, Revision C.01,

 ----------------------------------------------------------------------
 #t hf aug-cc-pvdz symm=none int=(grid=ultrafine) guess=(read,tcheck) s
 table=(opt,rrhf)
 ----------------------------------------------------------------------
 -----
 title
 -----
 Symbolic Z-matrix:
 Charge =  0 Multiplicity = 1

 SCF Done:  E(RHF) =  -628.708254822     A.U. after   15 cycles
 Normal termination of Gaussian 16 at Sun Apr  6 08:07:27 2025.
 Gaussian 16:  ES64L-G16RevC.01  3-Jul-2019

 ----------------------------------------------------------------------
 #t hf aug-cc-pvdz iop(5/13=1,5/36=2,99/5=2) pseudo=read geom=check gue
 ss=(read,tcheck) scf=(maxcycle=1)
 ----------------------------------------------------------------------
 -----
 title
 -----
 Structure from the checkpoint file:  "E-3-chloroprop-2-enenitrile.chk"
 Charge =  0 Multiplicity = 1

                         Standard orientation:
 ---------------------------------------------------------------------
 Center     Atomic      Atomic             Coordinates (Angstroms)
 Number     Number       Type             X           Y           Z
 ---------------------------------------------------------------------
      1         17           0       -2.048706    0.016035   -0.000004
      2          7           0        3.079563   -0.194242    0.000006
      3          6           0        0.597673    0.488341    0.000004
      4          6           0       -0.380235   -0.415943   -0.000003
      5          6           0        1.964239    0.097426    0.000005
      6          1           0        0.384661    1.548887    0.000008
      7          1           0       -0.203660   -1.480729   -0.000008
 ---------------------------------------------------------------------

 SCF Done:  E(RHF) =  -629.716812370     A.U. after    2 cycles

 The electronic state is 1-A.
 Alpha  occ. eigenvalues --  -99.93177 -15.77573 -11.50945 -11.47069 -11.44143
 Alpha  occ. eigenvalues --  -10.50586  -9.70455  -9.69593  -9.69485  -1.40546
 Alpha  occ. eigenvalues --   -1.32267  -1.17305  -0.92421  -0.76978  -0.67708
 Alpha  occ. eigenvalues --   -0.62303  -0.59737  -0.53652  -0.52495  -0.51085
 Alpha  occ. eigenvalues --   -0.45456  -0.37876
 Alpha virt. eigenvalues --    0.02525   0.05278   0.05699   0.05773   0.08770
 Alpha virt. eigenvalues --    0.10803   0.11588   0.11876   0.12077   0.12747
 Alpha virt. eigenvalues --    0.13419   0.14361   0.15889   0.16598   0.17703

 Mulliken charges:
               1
     1  Cl  -0.347775
     2  N   -2.202780
     3  C    1.029318
     4  C   -3.107205
     5  C    1.471934
     6  H    1.683237
     7  H    1.473271
 Sum of Mulliken charges =   0.00000

 Dipole moment (field-independent basis, Debye):
    X=             -1.9560    Y=              0.3697    Z=             -0.0000  Tot=              1.9906

 Test job not archived.
 1\1\GINC-SE169\SP\RHF\Aug-CC-pVDZ\C3H2Cl1N1\OHZDE\06-Apr-2025\0\\#t hf
  aug-cc-pvdz iop(5/13=1,5/36=2,99/5=2) pseudo=read geom=check guess=(r
 ead,tcheck) scf=(maxcycle=1)\\title\\0,1\Cl,0,-2.048706,0.016035,-0.00
 0004\N,0,3.079563,-0.194242,0.000006\C,0,0.597673,0.488341,0.000004\C,
 0,-0.380235,-0.415943,-0.000003\C,0,1.964239,0.097426,0.000005\H,0,0.3
 84661,1.548887,0.000008\H,0,-0.20366,-1.480729,-0.000008\\Version=ES64
 L-G16RevC.01\State=1-A\HF=-629.7168124\RMSD=4.953e-01\Dipole=-0.769553
 2,0.1454525,-0.0000012\Quadrupole=-5.9203574,4.6892825,1.2310749,1.173

 Normal termination of Gaussian 16 at Sun Apr  6 08:07:30 2025.
