 Gaussian 16, Revision C.01,

 ----------------------------------------------------------------------
 #t hf aug-cc-pvdz symm=none int=(grid=ultrafine) guess=(read,tcheck) s
 table=(opt,rrhf)
 ----------------------------------------------------------------------
 -----
 title
 -----
 Symbolic Z-matrix:
 Charge =  0 Multiplicity = 1

 SCF Done:  E(RHF) =  -234.204373682     A.U. after   13 cycles
 Normal termination of Gaussian 16 at Sun Apr  6 08:08:00 2025.
 Gaussian 16:  ES64L-G16RevC.01  3-Jul-2019

 ----------------------------------------------------------------------
 #t hf aug-cc-pvdz iop(5/13=1,5/36=2,99/5=2) pseudo=read geom=check gue
 ss=(read,tcheck) scf=(maxcycle=1)
 ----------------------------------------------------------------------
 -----
 title
 -----
 Structure from the checkpoint file:  "E-3-methyl-2-pentene.chk"
 Charge =  0 Multiplicity = 1

                         Standard orientation:
 ---------------------------------------------------------------------
 Center     Atomic      Atomic             Coordinates (Angstroms)
 Number     Number       Type             X           Y           Z
 ---------------------------------------------------------------------
      1          6           0       -2.527968   -0.340410    0.248367
      2          1           0       -2.845198   -0.840786    1.167646
      3          1           0       -3.212398   -0.673991   -0.536560
      4          1           0       -2.678013    0.728124    0.387385
      5          6           0       -0.091832    1.594432   -0.057239
      6          1           0       -1.098162    1.981097    0.081533
      7          1           0        0.337517    2.085539   -0.935154
      8          1           0        0.504466    1.914750    0.800675
      9          6           0        2.353687   -0.333741    0.539518
     10          1           0        2.021622   -0.818646    1.458831
     11          1           0        2.559701    0.712205    0.768285
     12          6           0        1.300293   -0.481395   -0.567402
     13          1           0        1.676589    0.006126   -1.473854
     14          1           0        1.184446   -1.539282   -0.809716
     15          6           0       -1.113898   -0.703078   -0.090968
     16          1           0       -0.948822   -1.766018   -0.246586
     17          6           0       -0.053177    0.098298   -0.222235
     18          1           0        3.295617   -0.793751    0.237267
 ---------------------------------------------------------------------

 SCF Done:  E(RHF) =  -235.426242582     A.U. after    2 cycles

 The electronic state is 1-A.
 Alpha  occ. eigenvalues --  -11.43437 -11.40067 -11.38811 -11.38144 -11.35985
 Alpha  occ. eigenvalues --  -11.34296  -1.27502  -1.11827  -1.04831  -0.95290
 Alpha  occ. eigenvalues --   -0.86645  -0.72365  -0.63553  -0.61539  -0.57605
 Alpha  occ. eigenvalues --   -0.55257  -0.54402  -0.53897  -0.52321  -0.48556
 Alpha  occ. eigenvalues --   -0.47721  -0.44697  -0.41010  -0.31182
 Alpha virt. eigenvalues --    0.03649   0.05235   0.05308   0.05676   0.05882
 Alpha virt. eigenvalues --    0.06431   0.06562   0.06809   0.07082   0.08412
 Alpha virt. eigenvalues --    0.08729   0.10598   0.11951   0.12444   0.13910

 Mulliken charges:
               1
     1  C   -4.465595
     2  H    1.140935
     3  H    1.153762
     4  H    1.376414
     5  C   -5.116147
     6  H    1.435384
     7  H    1.136363
     8  H    1.223797
     9  C   -3.903860
    10  H    1.362945
    11  H    1.407449
    12  C   -4.095323
    13  H    1.186161
    14  H    1.425897
    15  C   -0.681185
    16  H    1.473632
    17  C    2.785334
    18  H    1.154034
 Sum of Mulliken charges =   0.00000

 Dipole moment (field-independent basis, Debye):
    X=              0.0175    Y=              0.1446    Z=             -0.0410  Tot=              0.1513

 Test job not archived.
 1\1\GINC-SE170\SP\RHF\Aug-CC-pVDZ\C6H12\OHZDE\06-Apr-2025\0\\#t hf aug
 -cc-pvdz iop(5/13=1,5/36=2,99/5=2) pseudo=read geom=check guess=(read,
 tcheck) scf=(maxcycle=1)\\title\\0,1\C,0,-2.527968,-0.34041,0.248367\H
 ,0,-2.845198,-0.840786,1.167646\H,0,-3.212398,-0.673991,-0.53656\H,0,-
 2.678013,0.728124,0.387385\C,0,-0.091832,1.594432,-0.057239\H,0,-1.098
 162,1.981097,0.081533\H,0,0.337517,2.085539,-0.935154\H,0,0.504466,1.9
 1475,0.800675\C,0,2.353687,-0.333741,0.539518\H,0,2.021622,-0.818646,1
 .458831\H,0,2.559701,0.712205,0.768285\C,0,1.300293,-0.481395,-0.56740

 Normal termination of Gaussian 16 at Sun Apr  6 08:08:06 2025.
