 Gaussian 16, Revision C.01,

 ----------------------------------------------------------------------
 #t hf aug-cc-pvdz symm=none int=(grid=ultrafine) guess=(read,tcheck) s
 table=(opt,rrhf)
 ----------------------------------------------------------------------
 -----
 title
 -----
 Symbolic Z-matrix:
 Charge =  0 Multiplicity = 1

 SCF Done:  E(RHF) =  -814.390456029     A.U. after   17 cycles
 Normal termination of Gaussian 16 at Sun Apr  6 08:08:04 2025.
 Gaussian 16:  ES64L-G16RevC.01  3-Jul-2019

 ----------------------------------------------------------------------
 #t hf aug-cc-pvdz iop(5/13=1,5/36=2,99/5=2) pseudo=read geom=check gue
 ss=(read,tcheck) scf=(maxcycle=1)
 ----------------------------------------------------------------------
 -----
 title
 -----
 Structure from the checkpoint file:  "E-5-azido-1-chloro-1-penten-3-yne.chk"
 Charge =  0 Multiplicity = 1

                         Standard orientation:
 ---------------------------------------------------------------------
 Center     Atomic      Atomic             Coordinates (Angstroms)
 Number     Number       Type             X           Y           Z
 ---------------------------------------------------------------------
      1         17           0        4.447941   -0.116167    0.000012
      2          7           0       -3.025270   -0.496796   -0.000055
      3          7           0       -4.225241   -0.238014   -0.000076
      4          7           0       -5.349023   -0.121568   -0.000107
      5          6           0       -2.135877    0.693862    0.000077
      6          6           0       -0.744389    0.279137    0.000046
      7          6           0        0.418235   -0.030637    0.000023
      8          6           0        1.770768   -0.449000   -0.000006
      9          6           0        2.794415    0.405041    0.000048
     10          1           0       -2.339149    1.308733   -0.883213
     11          1           0       -2.339163    1.308547    0.883494
     12          1           0        1.960606   -1.516013   -0.000076
     13          1           0        2.680539    1.477792    0.000117
 ---------------------------------------------------------------------

 SCF Done:  E(RHF) =  -816.272380294     A.U. after    2 cycles

 The electronic state is 1-A.
 Alpha  occ. eigenvalues --  -99.90688 -15.97336 -15.86013 -15.78233 -11.51756
 Alpha  occ. eigenvalues --  -11.48216 -11.46131 -11.42159 -11.41688 -10.48063
 Alpha  occ. eigenvalues --   -9.68000  -9.67095  -9.66997  -1.68902  -1.39607
 Alpha  occ. eigenvalues --   -1.37171  -1.21487  -1.13409  -1.01181  -0.87604
 Alpha  occ. eigenvalues --   -0.76226  -0.74245  -0.70421  -0.69411  -0.65110
 Alpha  occ. eigenvalues --   -0.64291  -0.62046  -0.60809  -0.57052  -0.56062
 Alpha  occ. eigenvalues --   -0.50706  -0.45759  -0.42675  -0.38019  -0.35911
 Alpha  occ. eigenvalues --   -0.32577
 Alpha virt. eigenvalues --    0.02863   0.04921   0.05958   0.05974   0.06978
 Alpha virt. eigenvalues --    0.07886   0.08619   0.08975   0.09665   0.11295
 Alpha virt. eigenvalues --    0.12154   0.12448   0.12916   0.13301   0.13447

 Mulliken charges:
               1
     1  Cl  -0.479193
     2  N   -1.401637
     3  N    2.262258
     4  N   -1.509008
     5  C   -3.369961
     6  C    2.441733
     7  C    1.874648
     8  C    0.136263
     9  C   -4.361257
    10  H    0.948050
    11  H    0.948047
    12  H    1.178671
    13  H    1.331385
 Sum of Mulliken charges =   0.00000

 Dipole moment (field-independent basis, Debye):
    X=             -0.7611    Y=              1.3818    Z=              0.0002  Tot=              1.5776

 Test job not archived.
 1\1\GINC-SE168\SP\RHF\Aug-CC-pVDZ\C5H4Cl1N3\OHZDE\06-Apr-2025\0\\#t hf
  aug-cc-pvdz iop(5/13=1,5/36=2,99/5=2) pseudo=read geom=check guess=(r
 ead,tcheck) scf=(maxcycle=1)\\title\\0,1\Cl,0,4.447941,-0.116167,0.000
 012\N,0,-3.02527,-0.496796,-0.000055\N,0,-4.225241,-0.238014,-0.000076
 \N,0,-5.349023,-0.121568,-0.000107\C,0,-2.135877,0.693862,0.000077\C,0
 ,-0.744389,0.279137,0.000046\C,0,0.418235,-0.030637,0.000023\C,0,1.770
 768,-0.449,-0.000006\C,0,2.794415,0.405041,0.000048\H,0,-2.339149,1.30
 8733,-0.883213\H,0,-2.339163,1.308547,0.883494\H,0,1.960606,-1.516013,

 Normal termination of Gaussian 16 at Sun Apr  6 08:08:10 2025.
