 Gaussian 16, Revision C.01,

 ----------------------------------------------------------------------
 #t hf aug-cc-pvdz symm=none int=(grid=ultrafine) guess=(read,tcheck) s
 table=(opt,rrhf)
 ----------------------------------------------------------------------
 -----
 title
 -----
 Symbolic Z-matrix:
 Charge =  0 Multiplicity = 1

 SCF Done:  E(RHF) =  -337.706451117     A.U. after   13 cycles
 Normal termination of Gaussian 16 at Sun Apr  6 08:07:33 2025.
 Gaussian 16:  ES64L-G16RevC.01  3-Jul-2019

 ----------------------------------------------------------------------
 #t hf aug-cc-pvdz iop(5/13=1,5/36=2,99/5=2) pseudo=read geom=check gue
 ss=(read,tcheck) scf=(maxcycle=1)
 ----------------------------------------------------------------------
 -----
 title
 -----
 Structure from the checkpoint file:  "E-azodioxymethane.chk"
 Charge =  0 Multiplicity = 1

                         Standard orientation:
 ---------------------------------------------------------------------
 Center     Atomic      Atomic             Coordinates (Angstroms)
 Number     Number       Type             X           Y           Z
 ---------------------------------------------------------------------
      1          7           0       -0.059500    0.647189    0.000000
      2          7           0        0.059500   -0.647189    0.000000
      3          8           0       -1.192188    1.211304    0.000000
      4          8           0        1.192188   -1.211304    0.000000
      5          6           0        1.192188    1.415406    0.000000
      6          6           0       -1.192188   -1.415406    0.000000
      7          1           0        0.895007    2.456379    0.000000
      8          1           0        1.774488    1.156491    0.882046
      9          1           0        1.774488    1.156491   -0.882046
     10          1           0       -0.895007   -2.456379    0.000000
     11          1           0       -1.774488   -1.156491    0.882046
     12          1           0       -1.774488   -1.156491   -0.882046
 ---------------------------------------------------------------------

 SCF Done:  E(RHF) =  -339.226149956     A.U. after    2 cycles

 The electronic state is 1-AG.
 Alpha  occ. eigenvalues --  -21.03973 -21.03900 -15.92297 -15.91190 -11.44140
 Alpha  occ. eigenvalues --  -11.43739  -1.90510  -1.77414  -1.35511  -1.22546
 Alpha  occ. eigenvalues --   -1.04598  -0.81312  -0.73647  -0.72936  -0.66554
 Alpha  occ. eigenvalues --   -0.62094  -0.59657  -0.57358  -0.54064  -0.50542
 Alpha  occ. eigenvalues --   -0.44346  -0.35481  -0.29158  -0.20050
 Alpha virt. eigenvalues --    0.03325   0.05008   0.06232   0.06385   0.06593
 Alpha virt. eigenvalues --    0.06705   0.09659   0.11525   0.13054   0.14234
 Alpha virt. eigenvalues --    0.15061   0.15470   0.15764   0.16138   0.16816

 Mulliken charges:
               1
     1  N    1.822506
     2  N    1.822506
     3  O   -2.877315
     4  O   -2.877315
     5  C   -3.167352
     6  C   -3.167352
     7  H    1.435878
     8  H    1.393142
     9  H    1.393142
    10  H    1.435878
    11  H    1.393142
    12  H    1.393142
 Sum of Mulliken charges =  -0.00000

 Dipole moment (field-independent basis, Debye):
    X=              0.0000    Y=              0.0000    Z=             -0.0000  Tot=              0.0000

 Test job not archived.
 1\1\GINC-SE009\SP\RHF\Aug-CC-pVDZ\C2H6N2O2\OHZDE\06-Apr-2025\0\\#t hf
 aug-cc-pvdz iop(5/13=1,5/36=2,99/5=2) pseudo=read geom=check guess=(re
 ad,tcheck) scf=(maxcycle=1)\\title\\0,1\N,0,-0.0595,0.647189,0.\N,0,0.
 0595,-0.647189,0.\O,0,-1.192188,1.211304,0.\O,0,1.192188,-1.211304,0.\
 C,0,1.192188,1.415406,0.\C,0,-1.192188,-1.415406,0.\H,0,0.895007,2.456
 379,0.\H,0,1.774488,1.156491,0.882046\H,0,1.774488,1.156491,-0.882046\
 H,0,-0.895007,-2.456379,0.\H,0,-1.774488,-1.156491,0.882046\H,0,-1.774
 488,-1.156491,-0.882046\\Version=ES64L-G16RevC.01\State=1-AG\HF=-339.2

 Normal termination of Gaussian 16 at Sun Apr  6 08:07:37 2025.
