 Gaussian 16, Revision C.01,

 ----------------------------------------------------------------------
 #t hf aug-cc-pvdz symm=none int=(grid=ultrafine) guess=(read,tcheck) s
 table=(opt,rrhf)
 ----------------------------------------------------------------------
 -----
 title
 -----
 Symbolic Z-matrix:
 Charge =  0 Multiplicity = 1

 SCF Done:  E(RHF) =  -188.097351543     A.U. after   11 cycles
 Normal termination of Gaussian 16 at Sun Apr  6 08:07:25 2025.
 Gaussian 16:  ES64L-G16RevC.01  3-Jul-2019

 ----------------------------------------------------------------------
 #t hf aug-cc-pvdz iop(5/13=1,5/36=2,99/5=2) pseudo=read geom=check gue
 ss=(read,tcheck) scf=(maxcycle=1)
 ----------------------------------------------------------------------
 -----
 title
 -----
 Structure from the checkpoint file:  "E-dimethyldiazine.chk"
 Charge =  0 Multiplicity = 1

                         Standard orientation:
 ---------------------------------------------------------------------
 Center     Atomic      Atomic             Coordinates (Angstroms)
 Number     Number       Type             X           Y           Z
 ---------------------------------------------------------------------
      1          6           0       -1.792925    0.132342   -0.066839
      2          7           0       -0.414567   -0.229123   -0.392738
      3          7           0        0.414567    0.229123    0.392738
      4          6           0        1.792925   -0.132342    0.066839
      5          1           0       -2.215579    0.652316   -0.927812
      6          1           0       -1.855580    0.753706    0.827894
      7          1           0       -2.359533   -0.790722    0.064186
      8          1           0        2.215579   -0.652316    0.927812
      9          1           0        1.855580   -0.753706   -0.827894
     10          1           0        2.359533    0.790722   -0.064186
 ---------------------------------------------------------------------

 SCF Done:  E(RHF) =  -189.004694780     A.U. after    2 cycles

 The electronic state is 1-AG.
 Alpha  occ. eigenvalues --  -15.78233 -15.77623 -11.38591 -11.38121  -1.54251
 Alpha  occ. eigenvalues --   -1.17002  -0.98463  -0.79640  -0.64768  -0.62563
 Alpha  occ. eigenvalues --   -0.62126  -0.57149  -0.51647  -0.48971  -0.42578
 Alpha  occ. eigenvalues --   -0.33042
 Alpha virt. eigenvalues --    0.04242   0.04694   0.06190   0.06599   0.06873
 Alpha virt. eigenvalues --    0.07164   0.11065   0.11879   0.13316   0.13927
 Alpha virt. eigenvalues --    0.16276   0.16319   0.16830   0.16830   0.17532

 Mulliken charges:
               1
     1  C   -3.053313
     2  N   -0.935819
     3  N   -0.935819
     4  C   -3.053313
     5  H    1.318530
     6  H    1.352111
     7  H    1.318491
     8  H    1.318530
     9  H    1.352111
    10  H    1.318491
 Sum of Mulliken charges =  -0.00000

 Dipole moment (field-independent basis, Debye):
    X=              0.0000    Y=             -0.0000    Z=              0.0000  Tot=              0.0000

 Test job not archived.
 1\1\GINC-SE010\SP\RHF\Aug-CC-pVDZ\C2H6N2\OHZDE\06-Apr-2025\0\\#t hf au
 g-cc-pvdz iop(5/13=1,5/36=2,99/5=2) pseudo=read geom=check guess=(read
 ,tcheck) scf=(maxcycle=1)\\title\\0,1\C,0,-1.792925,0.132342,-0.066839
 \N,0,-0.414567,-0.229123,-0.392738\N,0,0.414567,0.229123,0.392738\C,0,
 1.792925,-0.132342,0.066839\H,0,-2.215579,0.652316,-0.927812\H,0,-1.85
 558,0.753706,0.827894\H,0,-2.359533,-0.790722,0.064186\H,0,2.215579,-0
 .652316,0.927812\H,0,1.85558,-0.753706,-0.827894\H,0,2.359533,0.790722
 ,-0.064186\\Version=ES64L-G16RevC.01\State=1-AG\HF=-189.0046948\RMSD=7

 Normal termination of Gaussian 16 at Sun Apr  6 08:07:28 2025.
