 Gaussian 16, Revision C.01,

 ----------------------------------------------------------------------
 #t hf aug-cc-pvdz symm=none int=(grid=ultrafine) guess=(read,tcheck) s
 table=(opt,rrhf)
 ----------------------------------------------------------------------
 -----
 title
 -----
 Symbolic Z-matrix:
 Charge =  0 Multiplicity = 1

 SCF Done:  E(RHF) =  -233.025481207     A.U. after   13 cycles
 Normal termination of Gaussian 16 at Sun Apr  6 08:07:49 2025.
 Gaussian 16:  ES64L-G16RevC.01  3-Jul-2019

 ----------------------------------------------------------------------
 #t hf aug-cc-pvdz iop(5/13=1,5/36=2,99/5=2) pseudo=read geom=check gue
 ss=(read,tcheck) scf=(maxcycle=1)
 ----------------------------------------------------------------------
 -----
 title
 -----
 Structure from the checkpoint file:  "E-E-2-4-hexadiene.chk"
 Charge =  0 Multiplicity = 1

                         Standard orientation:
 ---------------------------------------------------------------------
 Center     Atomic      Atomic             Coordinates (Angstroms)
 Number     Number       Type             X           Y           Z
 ---------------------------------------------------------------------
      1          6           0       -0.321563   -3.165600    0.000000
      2          6           0        0.321563    3.165600    0.000000
      3          6           0        0.321563    0.650169    0.000000
      4          6           0       -0.321563   -0.650169    0.000000
      5          6           0       -0.327188    1.819192    0.000000
      6          6           0        0.327188   -1.819192    0.000000
      7          1           0       -1.408837   -3.086565    0.000000
      8          1           0        1.408837    3.086565    0.000000
      9          1           0       -0.023595   -3.749001    0.875844
     10          1           0       -0.023595   -3.749001   -0.875844
     11          1           0        0.023595    3.749001    0.875844
     12          1           0        0.023595    3.749001   -0.875844
     13          1           0        1.408805    0.652661    0.000000
     14          1           0       -1.408805   -0.652661    0.000000
     15          1           0       -1.414062    1.807646    0.000000
     16          1           0        1.414062   -1.807646    0.000000
 ---------------------------------------------------------------------

 SCF Done:  E(RHF) =  -234.202464471     A.U. after    2 cycles

 The electronic state is 1-AG.
 Alpha  occ. eigenvalues --  -11.43592 -11.42168 -11.40381 -11.38757 -11.38027
 Alpha  occ. eigenvalues --  -11.35782  -1.26144  -1.15691  -1.03892  -0.93684
 Alpha  occ. eigenvalues --   -0.79201  -0.77516  -0.63659  -0.59583  -0.56301
 Alpha  occ. eigenvalues --   -0.55933  -0.54648  -0.53361  -0.48144  -0.48119
 Alpha  occ. eigenvalues --   -0.44264  -0.41329  -0.28088
 Alpha virt. eigenvalues --    0.03774   0.04801   0.05927   0.06069   0.06108
 Alpha virt. eigenvalues --    0.06138   0.07213   0.07691   0.08114   0.08211
 Alpha virt. eigenvalues --    0.09879   0.12188   0.12659   0.12983   0.13773

 Mulliken charges:
               1
     1  C   -5.120690
     2  C   -5.120690
     3  C    0.285225
     4  C    0.285225
     5  C   -1.601725
     6  C   -1.601725
     7  H    1.270392
     8  H    1.270392
     9  H    1.057974
    10  H    1.057974
    11  H    1.057974
    12  H    1.057974
    13  H    1.583676
    14  H    1.583676
    15  H    1.467174
    16  H    1.467174
 Sum of Mulliken charges =   0.00000

 Dipole moment (field-independent basis, Debye):
    X=              0.0000    Y=              0.0000    Z=              0.0000  Tot=              0.0000

 Test job not archived.
 1\1\GINC-SE168\SP\RHF\Aug-CC-pVDZ\C6H10\OHZDE\06-Apr-2025\0\\#t hf aug
 -cc-pvdz iop(5/13=1,5/36=2,99/5=2) pseudo=read geom=check guess=(read,
 tcheck) scf=(maxcycle=1)\\title\\0,1\C,0,-0.321563,-3.1656,0.\C,0,0.32
 1563,3.1656,0.\C,0,0.321563,0.650169,0.\C,0,-0.321563,-0.650169,0.\C,0
 ,-0.327188,1.819192,0.\C,0,0.327188,-1.819192,0.\H,0,-1.408837,-3.0865
 65,0.\H,0,1.408837,3.086565,0.\H,0,-0.023595,-3.749001,0.875844\H,0,-0
 .023595,-3.749001,-0.875844\H,0,0.023595,3.749001,0.875844\H,0,0.02359
 5,3.749001,-0.875844\H,0,1.408805,0.652661,0.\H,0,-1.408805,-0.652661,

 Normal termination of Gaussian 16 at Sun Apr  6 08:07:53 2025.
