 Gaussian 16, Revision C.01,

 ----------------------------------------------------------------------
 #t hf aug-cc-pvdz symm=none int=(grid=ultrafine) guess=(read,tcheck) s
 table=(opt,rrhf)
 ----------------------------------------------------------------------
 -----
 title
 -----
 Symbolic Z-matrix:
 Charge =  0 Multiplicity = 1

 SCF Done:  E(RHF) =  -234.206314974     A.U. after   13 cycles
 Normal termination of Gaussian 16 at Sun Apr  6 08:08:00 2025.
 Gaussian 16:  ES64L-G16RevC.01  3-Jul-2019

 ----------------------------------------------------------------------
 #t hf aug-cc-pvdz iop(5/13=1,5/36=2,99/5=2) pseudo=read geom=check gue
 ss=(read,tcheck) scf=(maxcycle=1)
 ----------------------------------------------------------------------
 -----
 title
 -----
 Structure from the checkpoint file:  "E-hex-2-ene.chk"
 Charge =  0 Multiplicity = 1

                         Standard orientation:
 ---------------------------------------------------------------------
 Center     Atomic      Atomic             Coordinates (Angstroms)
 Number     Number       Type             X           Y           Z
 ---------------------------------------------------------------------
      1          6           0        3.184312    0.214662   -0.156388
      2          6           0        1.804466   -0.364204   -0.216238
      3          6           0        0.743151    0.105154    0.431736
      4          6           0       -0.640500   -0.468565    0.368176
      5          6           0       -1.685118    0.519417   -0.171606
      6          6           0       -3.099443   -0.056883   -0.186480
      7          1           0        3.223229    1.089985    0.492451
      8          1           0        3.904316   -0.517661    0.218689
      9          1           0        3.531684    0.512657   -1.149293
     10          1           0        1.681810   -1.243047   -0.845147
     11          1           0        0.864249    0.985574    1.060220
     12          1           0       -0.950299   -0.782190    1.372044
     13          1           0       -0.636597   -1.370501   -0.250054
     14          1           0       -1.397617    0.823029   -1.181416
     15          1           0       -1.666289    1.428500    0.436494
     16          1           0       -3.819163    0.665084   -0.574592
     17          1           0       -3.155216   -0.949735   -0.812711
     18          1           0       -3.421316   -0.339183    0.818118
 ---------------------------------------------------------------------

 SCF Done:  E(RHF) =  -235.422647618     A.U. after    2 cycles

 The electronic state is 1-A.
 Alpha  occ. eigenvalues --  -11.43393 -11.41129 -11.39192 -11.37995 -11.35954
 Alpha  occ. eigenvalues --  -11.34317  -1.26211  -1.15520  -1.03628  -0.93123
 Alpha  occ. eigenvalues --   -0.83586  -0.77149  -0.63774  -0.61335  -0.57654
 Alpha  occ. eigenvalues --   -0.56236  -0.55268  -0.51883  -0.51373  -0.47445
 Alpha  occ. eigenvalues --   -0.46148  -0.45434  -0.42002  -0.32114
 Alpha virt. eigenvalues --    0.04096   0.04921   0.05380   0.05759   0.06034
 Alpha virt. eigenvalues --    0.06308   0.06534   0.06688   0.07564   0.07744
 Alpha virt. eigenvalues --    0.08199   0.10100   0.10869   0.12809   0.13259

 Mulliken charges:
               1
     1  C   -4.508701
     2  C   -0.506249
     3  C   -0.267987
     4  C   -3.763261
     5  C   -2.924397
     6  C   -3.851294
     7  H    1.255489
     8  H    1.163103
     9  H    1.183148
    10  H    1.339326
    11  H    1.495723
    12  H    1.320490
    13  H    1.479279
    14  H    1.483329
    15  H    1.449685
    16  H    1.109456
    17  H    1.318054
    18  H    1.224806
 Sum of Mulliken charges =  -0.00000

 Dipole moment (field-independent basis, Debye):
    X=             -0.0046    Y=              0.0340    Z=             -0.0411  Tot=              0.0536

 Test job not archived.
 1\1\GINC-SE012\SP\RHF\Aug-CC-pVDZ\C6H12\OHZDE\06-Apr-2025\0\\#t hf aug
 -cc-pvdz iop(5/13=1,5/36=2,99/5=2) pseudo=read geom=check guess=(read,
 tcheck) scf=(maxcycle=1)\\title\\0,1\C,0,3.184312,0.214662,-0.156388\C
 ,0,1.804466,-0.364204,-0.216238\C,0,0.743151,0.105154,0.431736\C,0,-0.
 6405,-0.468565,0.368176\C,0,-1.685118,0.519417,-0.171606\C,0,-3.099443
 ,-0.056883,-0.18648\H,0,3.223229,1.089985,0.492451\H,0,3.904316,-0.517
 661,0.218689\H,0,3.531684,0.512657,-1.149293\H,0,1.68181,-1.243047,-0.
 845147\H,0,0.864249,0.985574,1.06022\H,0,-0.950299,-0.78219,1.372044\H

 Normal termination of Gaussian 16 at Sun Apr  6 08:08:07 2025.
