 Gaussian 16, Revision C.01,

 ----------------------------------------------------------------------
 #t hf aug-cc-pvdz symm=none int=(grid=ultrafine) guess=(read,tcheck) s
 table=(opt,rrhf)
 ----------------------------------------------------------------------
 -----
 title
 -----
 Symbolic Z-matrix:
 Charge =  0 Multiplicity = 1

 SCF Done:  E(RHF) =  -231.818057687     A.U. after   14 cycles
 Normal termination of Gaussian 16 at Sun Apr  6 08:07:44 2025.
 Gaussian 16:  ES64L-G16RevC.01  3-Jul-2019

 ----------------------------------------------------------------------
 #t hf aug-cc-pvdz iop(5/13=1,5/36=2,99/5=2) pseudo=read geom=check gue
 ss=(read,tcheck) scf=(maxcycle=1)
 ----------------------------------------------------------------------
 -----
 title
 -----
 Structure from the checkpoint file:  "E-hex-2-en-4-yne.chk"
 Charge =  0 Multiplicity = 1

                         Standard orientation:
 ---------------------------------------------------------------------
 Center     Atomic      Atomic             Coordinates (Angstroms)
 Number     Number       Type             X           Y           Z
 ---------------------------------------------------------------------
      1          6           0       -0.679556    0.246701    0.000059
      2          6           0       -1.868935    0.053330   -0.000014
      3          6           0        0.712990    0.524010    0.000070
      4          6           0        1.678405   -0.401807    0.000097
      5          6           0       -3.302324   -0.193398   -0.000060
      6          6           0        3.141388   -0.102342   -0.000083
      7          1           0        0.991810    1.574332   -0.000000
      8          1           0        1.392525   -1.448439    0.000167
      9          1           0       -3.608764   -0.738322    0.895198
     10          1           0       -3.862184    0.743039   -0.028117
     11          1           0       -3.600383   -0.786260   -0.867207
     12          1           0        3.630920   -0.536953   -0.875960
     13          1           0        3.631186   -0.536992    0.875622
     14          1           0        3.333073    0.970625   -0.000115
 ---------------------------------------------------------------------

 SCF Done:  E(RHF) =  -232.963972532     A.U. after    2 cycles

 The electronic state is 1-A.
 Alpha  occ. eigenvalues --  -11.45310 -11.43740 -11.41121 -11.39064 -11.38196
 Alpha  occ. eigenvalues --  -11.37565  -1.24431  -1.15094  -1.04766  -0.94922
 Alpha  occ. eigenvalues --   -0.80897  -0.68827  -0.59580  -0.58998  -0.58073
 Alpha  occ. eigenvalues --   -0.57310  -0.56799  -0.51089  -0.48687  -0.42558
 Alpha  occ. eigenvalues --   -0.34531  -0.29269
 Alpha virt. eigenvalues --    0.03165   0.04725   0.05883   0.06063   0.06319
 Alpha virt. eigenvalues --    0.06829   0.06893   0.07463   0.09829   0.10281
 Alpha virt. eigenvalues --    0.10669   0.12669   0.13921   0.13984   0.14435

 Mulliken charges:
               1
     1  C    1.948337
     2  C    2.291442
     3  C   -1.366376
     4  C   -2.274843
     5  C   -5.080835
     6  C   -4.187165
     7  H    1.270275
     8  H    1.398575
     9  H    0.859374
    10  H    0.828017
    11  H    0.855437
    12  H    1.120334
    13  H    1.120307
    14  H    1.217121
 Sum of Mulliken charges =  -0.00000

 Dipole moment (field-independent basis, Debye):
    X=              0.0691    Y=             -0.2815    Z=             -0.0001  Tot=              0.2899

 Test job not archived.
 1\1\GINC-SE014\SP\RHF\Aug-CC-pVDZ\C6H8\OHZDE\06-Apr-2025\0\\#t hf aug-
 cc-pvdz iop(5/13=1,5/36=2,99/5=2) pseudo=read geom=check guess=(read,t
 check) scf=(maxcycle=1)\\title\\0,1\C,0,-0.679556,0.246701,0.000059\C,
 0,-1.868935,0.05333,-0.000014\C,0,0.71299,0.52401,0.00007\C,0,1.678405
 ,-0.401807,0.000097\C,0,-3.302324,-0.193398,-0.00006\C,0,3.141388,-0.1
 02342,-0.000083\H,0,0.99181,1.574332,0.\H,0,1.392525,-1.448439,0.00016
 7\H,0,-3.608764,-0.738322,0.895198\H,0,-3.862184,0.743039,-0.028117\H,
 0,-3.600383,-0.78626,-0.867207\H,0,3.63092,-0.536953,-0.87596\H,0,3.63

 Normal termination of Gaussian 16 at Sun Apr  6 08:07:48 2025.
