 Gaussian 16, Revision C.01,

 ----------------------------------------------------------------------
 #t hf aug-cc-pvdz symm=none int=(grid=ultrafine) guess=(read,tcheck) s
 table=(opt,rrhf)
 ----------------------------------------------------------------------
 -----
 title
 -----
 Symbolic Z-matrix:
 Charge =  0 Multiplicity = 1

 SCF Done:  E(RHF) =  -307.912958862     A.U. after   14 cycles

 1\1\GINC-SE012\Stability\RHF\Aug-CC-pVDZ\C6H10O1\OHZDE\06-Apr-2025\0\\
 #t hf aug-cc-pvdz symm=none int=(grid=ultrafine) guess=(read,tcheck) s
 table=(opt,rrhf)\\title\\0,1\C,0,1.353737,-0.368467,0.037834\C,0,0.245
 113,0.262988,0.434823\C,0,2.645333,0.319343,-0.004122\C,0,-3.55661,-0.
 151254,-0.231842\C,0,-1.12368,-0.325197,0.512772\C,0,-2.146913,0.42138
 2,-0.360045\O,0,3.687325,-0.191449,-0.351651\H,0,1.345138,-1.409243,-0
 .265925\H,0,0.332449,1.309202,0.722433\H,0,2.616706,1.382207,0.314022\
 H,0,-3.585524,-1.20076,-0.530463\H,0,-3.915768,-0.089864,0.797239\H,0,

 Normal termination of Gaussian 16 at Sun Apr  6 08:08:06 2025.
 Gaussian 16:  ES64L-G16RevC.01  3-Jul-2019

 ----------------------------------------------------------------------
 #t hf aug-cc-pvdz iop(5/13=1,5/36=2,99/5=2) pseudo=read geom=check gue
 ss=(read,tcheck) scf=(maxcycle=1)
 ----------------------------------------------------------------------
 -----
 title
 -----
 Structure from the checkpoint file:  "E-hex-2-enal.chk"
 Charge =  0 Multiplicity = 1

                         Standard orientation:
 ---------------------------------------------------------------------
 Center     Atomic      Atomic             Coordinates (Angstroms)
 Number     Number       Type             X           Y           Z
 ---------------------------------------------------------------------
      1          6           0        1.353737   -0.368467    0.037834
      2          6           0        0.245113    0.262988    0.434823
      3          6           0        2.645333    0.319343   -0.004122
      4          6           0       -3.556610   -0.151254   -0.231842
      5          6           0       -1.123680   -0.325197    0.512772
      6          6           0       -2.146913    0.421382   -0.360045
      7          8           0        3.687325   -0.191449   -0.351651
      8          1           0        1.345138   -1.409243   -0.265925
      9          1           0        0.332449    1.309202    0.722433
     10          1           0        2.616706    1.382207    0.314022
     11          1           0       -3.585524   -1.200760   -0.530463
     12          1           0       -3.915768   -0.089864    0.797239
     13          1           0       -4.260573    0.392160   -0.862658
     14          1           0       -1.094232   -1.380186    0.232496
     15          1           0       -1.463655   -0.283003    1.554077
     16          1           0       -2.152324    1.478782   -0.082114
     17          1           0       -1.822698    0.379526   -1.402423
 ---------------------------------------------------------------------

 SCF Done:  E(RHF) =  -309.377868167     A.U. after    2 cycles

 The electronic state is 1-A.
 Alpha  occ. eigenvalues --  -21.05188 -11.48144 -11.47056 -11.43704 -11.40901
 Alpha  occ. eigenvalues --  -11.39185 -11.36591  -1.69755  -1.28346  -1.15917
 Alpha  occ. eigenvalues --   -1.02821  -0.89411  -0.83566  -0.80525  -0.67216
 Alpha  occ. eigenvalues --   -0.62738  -0.61488  -0.57843  -0.55665  -0.51516
 Alpha  occ. eigenvalues --   -0.51439  -0.49147  -0.47776  -0.46966  -0.45033
 Alpha  occ. eigenvalues --   -0.33599  -0.28832
 Alpha virt. eigenvalues --    0.03507   0.04620   0.04971   0.05390   0.05653
 Alpha virt. eigenvalues --    0.05969   0.06464   0.06905   0.07362   0.09476
 Alpha virt. eigenvalues --    0.09576   0.11255   0.11726   0.12124   0.13510

 Mulliken charges:
               1
     1  C   -0.938230
     2  C    0.510878
     3  C    0.776083
     4  C   -3.846647
     5  C   -4.000997
     6  C   -2.884506
     7  O   -3.033213
     8  H    1.344844
     9  H    1.543326
    10  H    1.293096
    11  H    1.311392
    12  H    1.227292
    13  H    1.114526
    14  H    1.436257
    15  H    1.268834
    16  H    1.432266
    17  H    1.444800
 Sum of Mulliken charges =  -0.00000

 Dipole moment (field-independent basis, Debye):
    X=             -2.7655    Y=              0.3767    Z=              0.4431  Tot=              2.8260

 Test job not archived.
 1\1\GINC-SE012\SP\RHF\Aug-CC-pVDZ\C6H10O1\OHZDE\06-Apr-2025\0\\#t hf a
 ug-cc-pvdz iop(5/13=1,5/36=2,99/5=2) pseudo=read geom=check guess=(rea
 d,tcheck) scf=(maxcycle=1)\\title\\0,1\C,0,1.353737,-0.368467,0.037834
 \C,0,0.245113,0.262988,0.434823\C,0,2.645333,0.319343,-0.004122\C,0,-3
 .55661,-0.151254,-0.231842\C,0,-1.12368,-0.325197,0.512772\C,0,-2.1469
 13,0.421382,-0.360045\O,0,3.687325,-0.191449,-0.351651\H,0,1.345138,-1
 .409243,-0.265925\H,0,0.332449,1.309202,0.722433\H,0,2.616706,1.382207
 ,0.314022\H,0,-3.585524,-1.20076,-0.530463\H,0,-3.915768,-0.089864,0.7

 Normal termination of Gaussian 16 at Sun Apr  6 08:08:12 2025.
