 Gaussian 16, Revision C.01,

 ----------------------------------------------------------------------
 #t hf aug-cc-pvdz symm=none int=(grid=ultrafine) guess=(read,tcheck) s
 table=(opt,rrhf)
 ----------------------------------------------------------------------
 -----
 title
 -----
 Symbolic Z-matrix:
 Charge =  0 Multiplicity = 1

 SCF Done:  E(RHF) =  -229.408487596     A.U. after   13 cycles
 Normal termination of Gaussian 16 at Sun Apr  6 08:07:30 2025.
 Gaussian 16:  ES64L-G16RevC.01  3-Jul-2019

 ----------------------------------------------------------------------
 #t hf aug-cc-pvdz iop(5/13=1,5/36=2,99/5=2) pseudo=read geom=check gue
 ss=(read,tcheck) scf=(maxcycle=1)
 ----------------------------------------------------------------------
 -----
 title
 -----
 Structure from the checkpoint file:  "E-hexa-1-5-diyne-3-ene.chk"
 Charge =  0 Multiplicity = 1

                         Standard orientation:
 ---------------------------------------------------------------------
 Center     Atomic      Atomic             Coordinates (Angstroms)
 Number     Number       Type             X           Y           Z
 ---------------------------------------------------------------------
      1          6           0       -0.324304    0.589828    0.000000
      2          6           0        0.324304   -0.589828    0.000000
      3          6           0        0.324304    1.845570    0.000000
      4          6           0       -0.324304   -1.845570    0.000000
      5          1           0       -1.408272    0.599713    0.000000
      6          1           0        1.408272   -0.599713    0.000000
      7          6           0        0.841122    2.932151    0.000000
      8          6           0       -0.841122   -2.932151    0.000000
      9          1           0        1.305614    3.886246    0.000000
     10          1           0       -1.305614   -3.886246    0.000000
 ---------------------------------------------------------------------

 SCF Done:  E(RHF) =  -230.487971628     A.U. after    2 cycles

 The electronic state is 1-AG.
 Alpha  occ. eigenvalues --  -11.48950 -11.44940 -11.42934 -11.41516 -11.41226
 Alpha  occ. eigenvalues --  -11.41073  -1.26619  -1.12439  -1.04288  -0.90943
 Alpha  occ. eigenvalues --   -0.75101  -0.74723  -0.67234  -0.61454  -0.55646
 Alpha  occ. eigenvalues --   -0.48980  -0.41368  -0.38988  -0.37690  -0.30220
 Alpha virt. eigenvalues --    0.02840   0.04588   0.05287   0.06803   0.07087
 Alpha virt. eigenvalues --    0.08916   0.09749   0.11095   0.11645   0.11788
 Alpha virt. eigenvalues --    0.12333   0.13372   0.13970   0.14003   0.15223

 Mulliken charges:
               1
     1  C   -1.736138
     2  C   -1.736138
     3  C    3.397016
     4  C    3.397016
     5  H    1.388208
     6  H    1.388208
     7  C   -3.840180
     8  C   -3.840180
     9  H    0.791094
    10  H    0.791094
 Sum of Mulliken charges =  -0.00000

 Dipole moment (field-independent basis, Debye):
    X=              0.0000    Y=             -0.0000    Z=              0.0000  Tot=              0.0000

 Test job not archived.
 1\1\GINC-SE013\SP\RHF\Aug-CC-pVDZ\C6H4\OHZDE\06-Apr-2025\0\\#t hf aug-
 cc-pvdz iop(5/13=1,5/36=2,99/5=2) pseudo=read geom=check guess=(read,t
 check) scf=(maxcycle=1)\\title\\0,1\C,0,-0.324304,0.589828,0.\C,0,0.32
 4304,-0.589828,0.\C,0,0.324304,1.84557,0.\C,0,-0.324304,-1.84557,0.\H,
 0,-1.408272,0.599713,0.\H,0,1.408272,-0.599713,0.\C,0,0.841122,2.93215
 1,0.\C,0,-0.841122,-2.932151,0.\H,0,1.305614,3.886246,0.\H,0,-1.305614
 ,-3.886246,0.\\Version=ES64L-G16RevC.01\State=1-AG\HF=-230.4879716\RMS
 D=1.792e+00\Dipole=0.,0.,0.\Quadrupole=-0.2822027,4.8970094,-4.6148066

 Normal termination of Gaussian 16 at Sun Apr  6 08:07:32 2025.
