 Gaussian 16, Revision C.01,

 ----------------------------------------------------------------------
 #t hf aug-cc-pvdz symm=none int=(grid=ultrafine) guess=(read,tcheck) s
 table=(opt,rrhf)
 ----------------------------------------------------------------------
 -----
 title
 -----
 Symbolic Z-matrix:
 Charge =  0 Multiplicity = 1

 SCF Done:  E(RHF) =  -385.990668807     A.U. after   14 cycles

 1\1\GINC-SE013\Stability\RHF\Aug-CC-pVDZ\C8H14O1\OHZDE\06-Apr-2025\0\\
 #t hf aug-cc-pvdz symm=none int=(grid=ultrafine) guess=(read,tcheck) s
 table=(opt,rrhf)\\title\\0,1\C,0,2.611997,0.223827,-0.300825\C,0,1.549
 505,0.338129,0.501487\C,0,3.878275,-0.323343,0.18862\C,0,-4.786972,-0.
 124165,-0.302575\C,0,0.207729,0.863036,0.114332\C,0,-3.411591,-0.66654
 5,0.08194\C,0,-0.908819,-0.183212,0.275038\C,0,-2.290909,0.359831,-0.0
 87143\O,0,4.87791,-0.455105,-0.482993\H,0,2.582459,0.530856,-1.340266\
 H,0,1.654351,0.007675,1.533289\H,0,3.872769,-0.625229,1.256593\H,0,-5.

 Normal termination of Gaussian 16 at Sun Apr  6 08:09:06 2025.
 Gaussian 16:  ES64L-G16RevC.01  3-Jul-2019

 ----------------------------------------------------------------------
 #t hf aug-cc-pvdz iop(5/13=1,5/36=2,99/5=2) pseudo=read geom=check gue
 ss=(read,tcheck) scf=(maxcycle=1)
 ----------------------------------------------------------------------
 -----
 title
 -----
 Structure from the checkpoint file:  "E-oct-2-enal.chk"
 Charge =  0 Multiplicity = 1

                         Standard orientation:
 ---------------------------------------------------------------------
 Center     Atomic      Atomic             Coordinates (Angstroms)
 Number     Number       Type             X           Y           Z
 ---------------------------------------------------------------------
      1          6           0        2.611997    0.223827   -0.300825
      2          6           0        1.549505    0.338129    0.501487
      3          6           0        3.878275   -0.323343    0.188620
      4          6           0       -4.786972   -0.124165   -0.302575
      5          6           0        0.207729    0.863036    0.114332
      6          6           0       -3.411591   -0.666545    0.081940
      7          6           0       -0.908819   -0.183212    0.275038
      8          6           0       -2.290909    0.359831   -0.087143
      9          8           0        4.877910   -0.455105   -0.482993
     10          1           0        2.582459    0.530856   -1.340266
     11          1           0        1.654351    0.007675    1.533289
     12          1           0        3.872769   -0.625229    1.256593
     13          1           0       -5.051986    0.745375    0.302406
     14          1           0       -5.564751   -0.875434   -0.160722
     15          1           0       -4.810822    0.183879   -1.349781
     16          1           0       -0.030363    1.722364    0.751305
     17          1           0        0.231964    1.227423   -0.914648
     18          1           0       -3.185367   -1.549033   -0.523759
     19          1           0       -3.431941   -1.009179    1.120746
     20          1           0       -0.917566   -0.545349    1.307622
     21          1           0       -0.678207   -1.048957   -0.351592
     22          1           0       -2.280124    0.713817   -1.123199
     23          1           0       -2.508987    1.237280    0.530712
 ---------------------------------------------------------------------

 SCF Done:  E(RHF) =  -387.865430030     A.U. after    2 cycles

 The electronic state is 1-A.
 Alpha  occ. eigenvalues --  -21.05139 -11.48131 -11.47237 -11.44372 -11.42884
 Alpha  occ. eigenvalues --  -11.40441 -11.39301 -11.37595 -11.35247  -1.69706
 Alpha  occ. eigenvalues --   -1.30062  -1.21091  -1.11413  -1.01319  -0.91208
 Alpha  occ. eigenvalues --   -0.84360  -0.83224  -0.80404  -0.68005  -0.64579
 Alpha  occ. eigenvalues --   -0.61414  -0.60343  -0.57523  -0.56347  -0.54512
 Alpha  occ. eigenvalues --   -0.51835  -0.50213  -0.49245  -0.48330  -0.47303
 Alpha  occ. eigenvalues --   -0.46211  -0.45722  -0.41615  -0.33376  -0.28776
 Alpha virt. eigenvalues --    0.03741   0.04321   0.04524   0.05269   0.05497
 Alpha virt. eigenvalues --    0.05709   0.05887   0.06035   0.07019   0.07422
 Alpha virt. eigenvalues --    0.07895   0.08151   0.08731   0.10060   0.11168

 Mulliken charges:
               1
     1  C   -1.003406
     2  C    0.309250
     3  C    0.755654
     4  C   -4.376285
     5  C   -4.545371
     6  C   -3.053788
     7  C   -2.334564
     8  C   -2.404255
     9  O   -3.036842
    10  H    1.341778
    11  H    1.560888
    12  H    1.298006
    13  H    1.339316
    14  H    1.077787
    15  H    1.318996
    16  H    1.275829
    17  H    1.430251
    18  H    1.443141
    19  H    1.439463
    20  H    1.551441
    21  H    1.534702
    22  H    1.588532
    23  H    1.489478
 Sum of Mulliken charges =  -0.00000

 Dipole moment (field-independent basis, Debye):
    X=             -2.8326    Y=              0.4294    Z=              0.6797  Tot=              2.9445

 Test job not archived.
 1\1\GINC-SE013\SP\RHF\Aug-CC-pVDZ\C8H14O1\OHZDE\06-Apr-2025\0\\#t hf a
 ug-cc-pvdz iop(5/13=1,5/36=2,99/5=2) pseudo=read geom=check guess=(rea
 d,tcheck) scf=(maxcycle=1)\\title\\0,1\C,0,2.611997,0.223827,-0.300825
 \C,0,1.549505,0.338129,0.501487\C,0,3.878275,-0.323343,0.18862\C,0,-4.
 786972,-0.124165,-0.302575\C,0,0.207729,0.863036,0.114332\C,0,-3.41159
 1,-0.666545,0.08194\C,0,-0.908819,-0.183212,0.275038\C,0,-2.290909,0.3
 59831,-0.087143\O,0,4.87791,-0.455105,-0.482993\H,0,2.582459,0.530856,
 -1.340266\H,0,1.654351,0.007675,1.533289\H,0,3.872769,-0.625229,1.2565

 Normal termination of Gaussian 16 at Sun Apr  6 08:10:15 2025.
