 Gaussian 16, Revision C.01,

 ----------------------------------------------------------------------
 #t hf aug-cc-pvdz symm=none int=(grid=ultrafine) guess=(read,tcheck) s
 table=(opt,rrhf)
 ----------------------------------------------------------------------
 -----
 title
 -----
 Symbolic Z-matrix:
 Charge =  0 Multiplicity = 1

 SCF Done:  E(RHF) =  -268.881745925     A.U. after   14 cycles
 Normal termination of Gaussian 16 at Sun Apr  6 08:07:42 2025.
 Gaussian 16:  ES64L-G16RevC.01  3-Jul-2019

 ----------------------------------------------------------------------
 #t hf aug-cc-pvdz iop(5/13=1,5/36=2,99/5=2) pseudo=read geom=check gue
 ss=(read,tcheck) scf=(maxcycle=1)
 ----------------------------------------------------------------------
 -----
 title
 -----
 Structure from the checkpoint file:  "E-pent-3-en-2-one.chk"
 Charge =  0 Multiplicity = 1

                         Standard orientation:
 ---------------------------------------------------------------------
 Center     Atomic      Atomic             Coordinates (Angstroms)
 Number     Number       Type             X           Y           Z
 ---------------------------------------------------------------------
      1          6           0        0.000000    0.531086    0.000000
      2          6           0       -1.331860    0.464679    0.000000
      3          6           0        0.850788   -0.688356    0.000000
      4          6           0       -2.260297    1.629509    0.000000
      5          6           0        2.345543   -0.454617    0.000000
      6          8           0        0.383363   -1.811009    0.000000
      7          1           0        0.503575    1.491936    0.000000
      8          1           0       -1.777905   -0.525425    0.000000
      9          1           0       -1.728950    2.580430    0.000000
     10          1           0       -2.916004    1.597196    0.874296
     11          1           0       -2.916004    1.597196   -0.874296
     12          1           0        2.872893   -1.404393    0.000000
     13          1           0        2.635225    0.128660    0.877308
     14          1           0        2.635225    0.128660   -0.877308
 ---------------------------------------------------------------------

 SCF Done:  E(RHF) =  -270.143852933     A.U. after    2 cycles

 The electronic state is 1-A'.
 Alpha  occ. eigenvalues --  -21.03583 -11.49310 -11.44652 -11.40451 -11.38714
 Alpha  occ. eigenvalues --  -11.37426  -1.69481  -1.22953  -1.11220  -1.01575
 Alpha  occ. eigenvalues --   -0.84004  -0.73787  -0.64055  -0.60369  -0.59229
 Alpha  occ. eigenvalues --   -0.57630  -0.57180  -0.51022  -0.49453  -0.45874
 Alpha  occ. eigenvalues --   -0.44732  -0.32934  -0.27784
 Alpha virt. eigenvalues --    0.03184   0.04742   0.05533   0.05671   0.06452
 Alpha virt. eigenvalues --    0.06667   0.07451   0.08283   0.09266   0.09414
 Alpha virt. eigenvalues --    0.11525   0.13240   0.13809   0.13830   0.15078

 Mulliken charges:
               1
     1  C   -2.161584
     2  C    0.817191
     3  C    3.942982
     4  C   -4.579403
     5  C   -4.985830
     6  O   -3.604081
     7  H    1.719965
     8  H    1.568945
     9  H    1.251876
    10  H    1.134830
    11  H    1.134830
    12  H    1.253417
    13  H    1.253431
    14  H    1.253431
 Sum of Mulliken charges =  -0.00000

 Dipole moment (field-independent basis, Debye):
    X=             -0.5277    Y=              1.6484    Z=             -0.0000  Tot=              1.7308

 Test job not archived.
 1\1\GINC-SE249\SP\RHF\Aug-CC-pVDZ\C5H8O1\OHZDE\06-Apr-2025\0\\#t hf au
 g-cc-pvdz iop(5/13=1,5/36=2,99/5=2) pseudo=read geom=check guess=(read
 ,tcheck) scf=(maxcycle=1)\\title\\0,1\C,0,0.,0.531086,0.\C,0,-1.33186,
 0.464679,0.\C,0,0.850788,-0.688356,0.\C,0,-2.260297,1.629509,0.\C,0,2.
 345543,-0.454617,0.\O,0,0.383363,-1.811009,0.\H,0,0.503575,1.491936,0.
 \H,0,-1.777905,-0.525425,0.\H,0,-1.72895,2.58043,0.\H,0,-2.916004,1.59
 7195,0.874296\H,0,-2.916004,1.597195,-0.874296\H,0,2.872893,-1.404393,
 0.\H,0,2.635225,0.12866,0.877308\H,0,2.635225,0.12866,-0.877308\\Versi

 Normal termination of Gaussian 16 at Sun Apr  6 08:07:46 2025.
