 Gaussian 16, Revision C.01,

 ----------------------------------------------------------------------
 #t hf aug-cc-pvdz symm=none int=(grid=ultrafine) guess=(read,tcheck) s
 table=(opt,rrhf)
 ----------------------------------------------------------------------
 -----
 title
 -----
 Symbolic Z-matrix:
 Charge =  0 Multiplicity = 1

 SCF Done:  E(RHF) =  -226.626707615     A.U. after   11 cycles
 Normal termination of Gaussian 16 at Sun Apr  6 08:13:22 2025.
 Gaussian 16:  ES64L-G16RevC.01  3-Jul-2019

 ----------------------------------------------------------------------
 #t hf aug-cc-pvdz iop(5/13=1,5/36=2,99/5=2) pseudo=read geom=check gue
 ss=(read,tcheck) scf=(maxcycle=1)
 ----------------------------------------------------------------------
 -----
 title
 -----
 Structure from the checkpoint file:  "ethanedial.chk"
 Charge =  0 Multiplicity = 1

                         Standard orientation:
 ---------------------------------------------------------------------
 Center     Atomic      Atomic             Coordinates (Angstroms)
 Number     Number       Type             X           Y           Z
 ---------------------------------------------------------------------
      1          6           0       -0.327410    0.688228    0.000000
      2          6           0        0.327410   -0.688228    0.000000
      3          1           0       -1.432549    0.678671    0.000000
      4          1           0        1.432549   -0.678671    0.000000
      5          8           0        0.327410    1.696141    0.000000
      6          8           0       -0.327410   -1.696141    0.000000
 ---------------------------------------------------------------------

 SCF Done:  E(RHF) =  -227.560978644     A.U. after    2 cycles

 The electronic state is 1-AG.
 Alpha  occ. eigenvalues --  -21.11237 -21.11210 -11.52036 -11.48917  -1.76755
 Alpha  occ. eigenvalues --   -1.72955  -1.01757  -0.84310  -0.66836  -0.60492
 Alpha  occ. eigenvalues --   -0.53945  -0.53902  -0.43864  -0.37572  -0.30750
 Alpha virt. eigenvalues --    0.03889   0.05600   0.08971   0.10089   0.10457
 Alpha virt. eigenvalues --    0.10717   0.12205   0.12390   0.13688   0.15722
 Alpha virt. eigenvalues --    0.17080   0.19155   0.22608   0.23440   0.27928

 Mulliken charges:
               1
     1  C    1.112851
     2  C    1.112851
     3  H    1.477301
     4  H    1.477301
     5  O   -2.590152
     6  O   -2.590152
 Sum of Mulliken charges =   0.00000

 Dipole moment (field-independent basis, Debye):
    X=              0.0000    Y=              0.0000    Z=              0.0000  Tot=              0.0000

 Test job not archived.
 1\1\GINC-SE023\SP\RHF\Aug-CC-pVDZ\C2H2O2\OHZDE\06-Apr-2025\0\\#t hf au
 g-cc-pvdz iop(5/13=1,5/36=2,99/5=2) pseudo=read geom=check guess=(read
 ,tcheck) scf=(maxcycle=1)\\title\\0,1\C,0,-0.32741,0.688228,0.\C,0,0.3
 2741,-0.688228,0.\H,0,-1.432549,0.678671,0.\H,0,1.432549,-0.678671,0.\
 O,0,0.32741,1.696141,0.\O,0,-0.32741,-1.696141,0.\\Version=ES64L-G16Re
 vC.01\State=1-AG\HF=-227.5609786\RMSD=1.335e-01\Dipole=0.,0.,0.\Quadru
 pole=0.8878004,-2.2619842,1.3741838,-1.1495778,0.,0.\PG=C02H [SGH(C2H2
 O2)]\\@

 Normal termination of Gaussian 16 at Sun Apr  6 08:13:24 2025.
