 Gaussian 16, Revision C.01,

 ----------------------------------------------------------------------
 #t hf aug-cc-pvdz symm=none int=(grid=ultrafine) guess=(read,tcheck) s
 table=(opt,rrhf)
 ----------------------------------------------------------------------
 -----
 title
 -----
 Symbolic Z-matrix:
 Charge =  0 Multiplicity = 1

 SCF Done:  E(RHF) =  -133.096516680     A.U. after   12 cycles
 Normal termination of Gaussian 16 at Sun Apr  6 08:13:22 2025.
 Gaussian 16:  ES64L-G16RevC.01  3-Jul-2019

 ----------------------------------------------------------------------
 #t hf aug-cc-pvdz iop(5/13=1,5/36=2,99/5=2) pseudo=read geom=check gue
 ss=(read,tcheck) scf=(maxcycle=1)
 ----------------------------------------------------------------------
 -----
 title
 -----
 Structure from the checkpoint file:  "ethanimine.chk"
 Charge =  0 Multiplicity = 1

                         Standard orientation:
 ---------------------------------------------------------------------
 Center     Atomic      Atomic             Coordinates (Angstroms)
 Number     Number       Type             X           Y           Z
 ---------------------------------------------------------------------
      1          6           0       -1.030686   -0.636526    0.000000
      2          6           0        0.000000    0.445344    0.000000
      3          7           0        1.241167    0.190751    0.000000
      4          1           0       -0.556818   -1.615743    0.000000
      5          1           0       -1.676866   -0.544559    0.876683
      6          1           0       -1.676866   -0.544559   -0.876683
      7          1           0       -0.389088    1.470939    0.000000
      8          1           0        1.795584    1.045760    0.000000
 ---------------------------------------------------------------------

 SCF Done:  E(RHF) =  -133.742975313     A.U. after    2 cycles

 The electronic state is 1-A'.
 Alpha  occ. eigenvalues --  -15.73597 -11.43473 -11.37280  -1.34209  -1.07435
 Alpha  occ. eigenvalues --   -0.80329  -0.68559  -0.57844  -0.53757  -0.52243
 Alpha  occ. eigenvalues --   -0.40545  -0.38421
 Alpha virt. eigenvalues --    0.03509   0.05321   0.06201   0.06306   0.07386
 Alpha virt. eigenvalues --    0.11459   0.11747   0.13395   0.15358   0.15454
 Alpha virt. eigenvalues --    0.16189   0.16278   0.17700   0.19447   0.21923

 Mulliken charges:
               1
     1  C   -3.549827
     2  C    0.604900
     3  N   -2.850230
     4  H    1.211902
     5  H    1.218690
     6  H    1.218690
     7  H    1.439691
     8  H    0.706182
 Sum of Mulliken charges =   0.00000

 Dipole moment (field-independent basis, Debye):
    X=             -1.2961    Y=              1.2247    Z=              0.0000  Tot=              1.7832

 Test job not archived.
 1\1\GINC-SE104\SP\RHF\Aug-CC-pVDZ\C2H5N1\OHZDE\06-Apr-2025\0\\#t hf au
 g-cc-pvdz iop(5/13=1,5/36=2,99/5=2) pseudo=read geom=check guess=(read
 ,tcheck) scf=(maxcycle=1)\\title\\0,1\C,0,-1.030686,-0.636526,0.\C,0,0
 .,0.445344,0.\N,0,1.241167,0.190751,0.\H,0,-0.556818,-1.615743,0.\H,0,
 -1.676866,-0.544559,0.876683\H,0,-1.676866,-0.544559,-0.876683\H,0,-0.
 389088,1.470939,0.\H,0,1.795584,1.04576,0.\\Version=ES64L-G16RevC.01\S
 tate=1-A'\HF=-133.7429753\RMSD=1.905e-01\Dipole=-0.5099422,0.4818393,0
 .\Quadrupole=-0.4396708,0.8417509,-0.4020801,1.6165984,0.,0.\PG=CS [SG

 Normal termination of Gaussian 16 at Sun Apr  6 08:13:26 2025.
