 Gaussian 16, Revision C.01,

 ----------------------------------------------------------------------
 #t hf aug-cc-pvdz symm=none int=(grid=ultrafine) guess=(read,tcheck) s
 table=(opt,rrhf)
 ----------------------------------------------------------------------
 -----
 title
 -----
 Symbolic Z-matrix:
 Charge =  0 Multiplicity = 1

 SCF Done:  E(RHF) =  -154.105469054     A.U. after   12 cycles
 Normal termination of Gaussian 16 at Sun Apr  6 08:13:23 2025.
 Gaussian 16:  ES64L-G16RevC.01  3-Jul-2019

 ----------------------------------------------------------------------
 #t hf aug-cc-pvdz iop(5/13=1,5/36=2,99/5=2) pseudo=read geom=check gue
 ss=(read,tcheck) scf=(maxcycle=1)
 ----------------------------------------------------------------------
 -----
 title
 -----
 Structure from the checkpoint file:  "ethanol.chk"
 Charge =  0 Multiplicity = 1

                         Standard orientation:
 ---------------------------------------------------------------------
 Center     Atomic      Atomic             Coordinates (Angstroms)
 Number     Number       Type             X           Y           Z
 ---------------------------------------------------------------------
      1          6           0       -1.215127   -0.241882   -0.021159
      2          6           0        0.077656    0.555024    0.046899
      3          8           0        1.241995   -0.256233   -0.108913
      4          1           0       -2.078754    0.421353    0.059053
      5          1           0       -1.283191   -0.786082   -0.963270
      6          1           0       -1.275073   -0.964301    0.796308
      7          1           0        0.129489    1.119523    0.984758
      8          1           0        0.123134    1.276394   -0.768848
      9          1           0        1.273257   -0.895871    0.608864
 ---------------------------------------------------------------------

 SCF Done:  E(RHF) =  -154.830858006     A.U. after    2 cycles

 The electronic state is 1-A.
 Alpha  occ. eigenvalues --  -21.06258 -11.42231 -11.36214  -1.69918  -1.11266
 Alpha  occ. eigenvalues --   -0.87686  -0.65473  -0.59812  -0.55972  -0.51548
 Alpha  occ. eigenvalues --   -0.49058  -0.39838  -0.31384
 Alpha virt. eigenvalues --    0.03716   0.05716   0.05775   0.06304   0.06773
 Alpha virt. eigenvalues --    0.06914   0.11770   0.12435   0.14225   0.15121
 Alpha virt. eigenvalues --    0.15759   0.17891   0.18605   0.19441   0.23596

 Mulliken charges:
               1
     1  C   -3.459068
     2  C   -1.204064
     3  O   -2.406380
     4  H    1.245456
     5  H    1.211678
     6  H    1.183139
     7  H    1.286796
     8  H    1.357109
     9  H    0.785335
 Sum of Mulliken charges =  -0.00000

 Dipole moment (field-independent basis, Debye):
    X=             -0.5420    Y=              0.0286    Z=              0.5330  Tot=              0.7607

 Test job not archived.
 1\1\GINC-SE107\SP\RHF\Aug-CC-pVDZ\C2H6O1\OHZDE\06-Apr-2025\0\\#t hf au
 g-cc-pvdz iop(5/13=1,5/36=2,99/5=2) pseudo=read geom=check guess=(read
 ,tcheck) scf=(maxcycle=1)\\title\\0,1\C,0,-1.215127,-0.241882,-0.02115
 9\C,0,0.077656,0.555024,0.046899\O,0,1.241995,-0.256233,-0.108913\H,0,
 -2.078754,0.421353,0.059053\H,0,-1.283191,-0.786082,-0.96327\H,0,-1.27
 5073,-0.964301,0.796308\H,0,0.129488,1.119523,0.984758\H,0,0.123133,1.
 276394,-0.768848\H,0,1.273257,-0.89587,0.608864\\Version=ES64L-G16RevC
 .01\State=1-A\HF=-154.830858\RMSD=1.794e-01\Dipole=-0.213221,0.0112395

 Normal termination of Gaussian 16 at Sun Apr  6 08:13:24 2025.
