 Gaussian 16, Revision C.01,

 ----------------------------------------------------------------------
 #t hf aug-cc-pvdz symm=none int=(grid=ultrafine) guess=(read,tcheck) s
 table=(opt,rrhf)
 ----------------------------------------------------------------------
 -----
 title
 -----
 Symbolic Z-matrix:
 Charge =  0 Multiplicity = 1

 SCF Done:  E(RHF) =  -476.770148527     A.U. after   12 cycles
 Normal termination of Gaussian 16 at Sun Apr  6 08:13:22 2025.
 Gaussian 16:  ES64L-G16RevC.01  3-Jul-2019

 ----------------------------------------------------------------------
 #t hf aug-cc-pvdz iop(5/13=1,5/36=2,99/5=2) pseudo=read geom=check gue
 ss=(read,tcheck) scf=(maxcycle=1)
 ----------------------------------------------------------------------
 -----
 title
 -----
 Structure from the checkpoint file:  "ethanethiol.chk"
 Charge =  0 Multiplicity = 1

                         Standard orientation:
 ---------------------------------------------------------------------
 Center     Atomic      Atomic             Coordinates (Angstroms)
 Number     Number       Type             X           Y           Z
 ---------------------------------------------------------------------
      1          6           0        1.516650    0.705578    0.000000
      2          6           0        0.000000    0.834467    0.000000
      3         16           0       -0.755427   -0.847361    0.000000
      4          1           0        1.868133    0.170753    0.882762
      5          1           0        1.868133    0.170753   -0.882762
      6          1           0        1.975965    1.695046    0.000000
      7          1           0       -0.341365    1.368763   -0.884290
      8          1           0       -0.341365    1.368763    0.884290
      9          1           0       -2.042577   -0.456567    0.000000
 ---------------------------------------------------------------------

 SCF Done:  E(RHF) =  -477.419268067     A.U. after    2 cycles

 The electronic state is 1-A'.
 Alpha  occ. eigenvalues --  -75.67951 -13.12268 -13.06477 -13.00190 -11.41726
 Alpha  occ. eigenvalues --  -11.37065  -8.01822  -1.22578  -1.04184  -0.86559
 Alpha  occ. eigenvalues --   -0.63344  -0.60759  -0.52644  -0.50452  -0.46264
 Alpha  occ. eigenvalues --   -0.37657  -0.23453
 Alpha virt. eigenvalues --    0.03005   0.04449   0.05457   0.05626   0.06513
 Alpha virt. eigenvalues --    0.07653   0.10209   0.12213   0.12643   0.14762
 Alpha virt. eigenvalues --    0.14846   0.15493   0.17035   0.17971   0.19106

 Mulliken charges:
               1
     1  C   -3.404058
     2  C   -3.670927
     3  S   -0.286948
     4  H    1.291094
     5  H    1.291094
     6  H    1.169858
     7  H    1.359396
     8  H    1.359396
     9  H    0.891096
 Sum of Mulliken charges =  -0.00000

 Dipole moment (field-independent basis, Debye):
    X=              0.9988    Y=              0.1490    Z=             -0.0000  Tot=              1.0098

 Test job not archived.
 1\1\GINC-SE041\SP\RHF\Aug-CC-pVDZ\C2H6S1\OHZDE\06-Apr-2025\0\\#t hf au
 g-cc-pvdz iop(5/13=1,5/36=2,99/5=2) pseudo=read geom=check guess=(read
 ,tcheck) scf=(maxcycle=1)\\title\\0,1\C,0,1.51665,0.705578,0.\C,0,0.,0
 .834467,0.\S,0,-0.755427,-0.847361,0.\H,0,1.868133,0.170753,0.882762\H
 ,0,1.868133,0.170753,-0.882762\H,0,1.975965,1.695046,0.\H,0,-0.341365,
 1.368763,-0.88429\H,0,-0.341365,1.368763,0.88429\H,0,-2.042577,-0.4565
 66,0.\\Version=ES64L-G16RevC.01\State=1-A'\HF=-477.4192681\RMSD=1.670e
 -01\Dipole=0.3929396,0.0586382,0.\Quadrupole=0.572184,1.0763703,-1.648

 Normal termination of Gaussian 16 at Sun Apr  6 08:13:25 2025.
