 Gaussian 16, Revision C.01,

 ----------------------------------------------------------------------
 #t hf aug-cc-pvdz symm=none int=(grid=ultrafine) guess=(read,tcheck) s
 table=(opt,rrhf)
 ----------------------------------------------------------------------
 -----
 title
 -----
 Symbolic Z-matrix:
 Charge =  0 Multiplicity = 1

 SCF Done:  E(RHF) =  -530.654435041     A.U. after   13 cycles
 Normal termination of Gaussian 16 at Sun Apr  6 08:13:26 2025.
 Gaussian 16:  ES64L-G16RevC.01  3-Jul-2019

 ----------------------------------------------------------------------
 #t hf aug-cc-pvdz iop(5/13=1,5/36=2,99/5=2) pseudo=read geom=check gue
 ss=(read,tcheck) scf=(maxcycle=1)
 ----------------------------------------------------------------------
 -----
 title
 -----
 Structure from the checkpoint file:  "ethanethioamide.chk"
 Charge =  0 Multiplicity = 1

                         Standard orientation:
 ---------------------------------------------------------------------
 Center     Atomic      Atomic             Coordinates (Angstroms)
 Number     Number       Type             X           Y           Z
 ---------------------------------------------------------------------
      1          6           0       -1.237894   -1.104197   -0.000349
      2          6           0       -0.280575    0.059414   -0.004593
      3          7           0       -0.872923    1.267541    0.000200
      4         16           0        1.365722   -0.118344    0.000090
      5          1           0       -1.971419   -1.006290   -0.804504
      6          1           0       -0.698836   -2.036611   -0.119837
      7          1           0       -1.784470   -1.132530    0.945767
      8          1           0       -1.873504    1.369103   -0.005404
      9          1           0       -0.302047    2.095742    0.010785
 ---------------------------------------------------------------------

 SCF Done:  E(RHF) =  -531.522695692     A.U. after    2 cycles

 The electronic state is 1-A.
 Alpha  occ. eigenvalues --  -75.63153 -15.80432 -13.11808 -12.97253 -12.94142
 Alpha  occ. eigenvalues --  -11.49276 -11.39773  -7.97346  -1.43020  -1.14524
 Alpha  occ. eigenvalues --   -1.04249  -0.81507  -0.72386  -0.62380  -0.60961
 Alpha  occ. eigenvalues --   -0.54755  -0.47967  -0.43309  -0.25325  -0.21117
 Alpha virt. eigenvalues --    0.02228   0.04661   0.05646   0.05968   0.07038
 Alpha virt. eigenvalues --    0.08674   0.09846   0.11140   0.13842   0.14332
 Alpha virt. eigenvalues --    0.14570   0.16467   0.17125   0.17649   0.18898

 Mulliken charges:
               1
     1  C   -3.609975
     2  C    0.362959
     3  N   -3.092477
     4  S    1.099087
     5  H    1.100968
     6  H    1.435300
     7  H    1.132690
     8  H    0.833118
     9  H    0.738331
 Sum of Mulliken charges =  -0.00000

 Dipole moment (field-independent basis, Debye):
    X=             -1.7110    Y=              0.9576    Z=              0.0114  Tot=              1.9608

 Test job not archived.
 1\1\GINC-SE028\SP\RHF\Aug-CC-pVDZ\C2H5N1S1\OHZDE\06-Apr-2025\0\\#t hf
 aug-cc-pvdz iop(5/13=1,5/36=2,99/5=2) pseudo=read geom=check guess=(re
 ad,tcheck) scf=(maxcycle=1)\\title\\0,1\C,0,-1.237894,-1.104197,-0.000
 349\C,0,-0.280575,0.059414,-0.004593\N,0,-0.872923,1.267541,0.0002\S,0
 ,1.365722,-0.118344,0.00009\H,0,-1.971419,-1.00629,-0.804504\H,0,-0.69
 8836,-2.036611,-0.119837\H,0,-1.78447,-1.13253,0.945767\H,0,-1.873504,
 1.369103,-0.005404\H,0,-0.302047,2.095742,0.010785\\Version=ES64L-G16R
 evC.01\State=1-A\HF=-531.5226957\RMSD=2.060e-01\Dipole=-0.6731785,0.37

 Normal termination of Gaussian 16 at Sun Apr  6 08:13:29 2025.
