 Gaussian 16, Revision C.01,

 ----------------------------------------------------------------------
 #t hf aug-cc-pvdz symm=none int=(grid=ultrafine) guess=(read,tcheck) s
 table=(opt,rrhf)
 ----------------------------------------------------------------------
 -----
 title
 -----
 Symbolic Z-matrix:
 Charge =  0 Multiplicity = 1

 SCF Done:  E(RHF) =  -474.386604464     A.U. after   13 cycles
 Normal termination of Gaussian 16 at Sun Apr  6 08:13:21 2025.
 Gaussian 16:  ES64L-G16RevC.01  3-Jul-2019

 ----------------------------------------------------------------------
 #t hf aug-cc-pvdz iop(5/13=1,5/36=2,99/5=2) pseudo=read geom=check gue
 ss=(read,tcheck) scf=(maxcycle=1)
 ----------------------------------------------------------------------
 -----
 title
 -----
 Structure from the checkpoint file:  "ethenethione.chk"
 Charge =  0 Multiplicity = 1

                         Standard orientation:
 ---------------------------------------------------------------------
 Center     Atomic      Atomic             Coordinates (Angstroms)
 Number     Number       Type             X           Y           Z
 ---------------------------------------------------------------------
      1         16           0       -0.000127   -1.112931    0.000000
      2          6           0        0.000196    1.751740   -0.000000
      3          6           0       -0.000000    0.447878   -0.000000
      4          1           0        0.000427    2.304594    0.929946
      5          1           0        0.000427    2.304594   -0.929946
 ---------------------------------------------------------------------

 SCF Done:  E(RHF) =  -474.976087231     A.U. after    2 cycles

 The electronic state is 1-A'.
 Alpha  occ. eigenvalues --  -75.71154 -13.21524 -13.02237 -13.02107 -11.49792
 Alpha  occ. eigenvalues --  -11.41181  -8.05449  -1.24369  -1.06508  -0.72647
 Alpha  occ. eigenvalues --   -0.62645  -0.51399  -0.46867  -0.35431  -0.23326
 Alpha virt. eigenvalues --    0.02317   0.05581   0.06554   0.07761   0.08560
 Alpha virt. eigenvalues --    0.09941   0.13683   0.15378   0.15758   0.16087
 Alpha virt. eigenvalues --    0.17497   0.19357   0.20321   0.22701   0.22816

 Mulliken charges:
               1
     1  S    1.190035
     2  C   -2.909346
     3  C   -0.785791
     4  H    1.252552
     5  H    1.252552
 Sum of Mulliken charges =   0.00000

 Dipole moment (field-independent basis, Debye):
    X=              0.0002    Y=             -2.5152    Z=             -0.0000  Tot=              2.5152

 Test job not archived.
 1\1\GINC-SE155\SP\RHF\Aug-CC-pVDZ\C2H2S1\OHZDE\06-Apr-2025\0\\#t hf au
 g-cc-pvdz iop(5/13=1,5/36=2,99/5=2) pseudo=read geom=check guess=(read
 ,tcheck) scf=(maxcycle=1)\\title\\0,1\S,0,-0.000127,-1.112931,0.\C,0,0
 .000196,1.75174,0.\C,0,0.,0.447878,0.\H,0,0.000427,2.304594,0.929946\H
 ,0,0.000427,2.304594,-0.929946\\Version=ES64L-G16RevC.01\State=1-A'\HF
 =-474.9760872\RMSD=5.055e-01\Dipole=0.0000947,-0.989542,0.\Quadrupole=
 -3.9359793,3.7737736,0.1622057,0.0014035,0.,0.\PG=CS [SG(C2S1),X(H2)]\
 \@

 Normal termination of Gaussian 16 at Sun Apr  6 08:13:23 2025.
