 Gaussian 16, Revision C.01,

 ----------------------------------------------------------------------
 #t hf aug-cc-pvdz symm=none int=(grid=ultrafine) guess=(read,tcheck) s
 table=(opt,rrhf)
 ----------------------------------------------------------------------
 -----
 title
 -----
 Symbolic Z-matrix:
 Charge =  0 Multiplicity = 1

 SCF Done:  E(RHF) =  -133.089085392     A.U. after   13 cycles
 Normal termination of Gaussian 16 at Sun Apr  6 08:13:22 2025.
 Gaussian 16:  ES64L-G16RevC.01  3-Jul-2019

 ----------------------------------------------------------------------
 #t hf aug-cc-pvdz iop(5/13=1,5/36=2,99/5=2) pseudo=read geom=check gue
 ss=(read,tcheck) scf=(maxcycle=1)
 ----------------------------------------------------------------------
 -----
 title
 -----
 Structure from the checkpoint file:  "ethenamine.chk"
 Charge =  0 Multiplicity = 1

                         Standard orientation:
 ---------------------------------------------------------------------
 Center     Atomic      Atomic             Coordinates (Angstroms)
 Number     Number       Type             X           Y           Z
 ---------------------------------------------------------------------
      1          6           0        1.249205   -0.196057    0.013814
      2          6           0        0.069711    0.426754   -0.000397
      3          7           0       -1.181689   -0.169404   -0.079242
      4          1           0        1.330242   -1.275684    0.016682
      5          1           0        2.164905    0.373573    0.006405
      6          1           0        0.029960    1.509834   -0.008170
      7          1           0       -1.221005   -1.153102    0.136560
      8          1           0       -1.945772    0.347030    0.322711
 ---------------------------------------------------------------------

 SCF Done:  E(RHF) =  -133.739242816     A.U. after    2 cycles

 The electronic state is 1-A.
 Alpha  occ. eigenvalues --  -15.75554 -11.42375 -11.35041  -1.35967  -1.06395
 Alpha  occ. eigenvalues --   -0.81572  -0.69350  -0.61446  -0.54323  -0.50059
 Alpha  occ. eigenvalues --   -0.46793  -0.28451
 Alpha virt. eigenvalues --    0.03715   0.05463   0.05594   0.06573   0.07219
 Alpha virt. eigenvalues --    0.11653   0.12978   0.14265   0.14797   0.15255
 Alpha virt. eigenvalues --    0.16703   0.18381   0.19208   0.20085   0.21714

 Mulliken charges:
               1
     1  C   -2.676671
     2  C    0.277624
     3  N   -2.902312
     4  H    1.359025
     5  H    1.308166
     6  H    1.442733
     7  H    0.553191
     8  H    0.638244
 Sum of Mulliken charges =  -0.00000

 Dipole moment (field-independent basis, Debye):
    X=             -1.3628    Y=              0.0439    Z=              0.7357  Tot=              1.5493

 Test job not archived.
 1\1\GINC-SE136\SP\RHF\Aug-CC-pVDZ\C2H5N1\OHZDE\06-Apr-2025\0\\#t hf au
 g-cc-pvdz iop(5/13=1,5/36=2,99/5=2) pseudo=read geom=check guess=(read
 ,tcheck) scf=(maxcycle=1)\\title\\0,1\C,0,1.249205,-0.196057,0.013814\
 C,0,0.069711,0.426754,-0.000397\N,0,-1.181689,-0.169404,-0.079242\H,0,
 1.330242,-1.275684,0.016682\H,0,2.164905,0.373573,0.006405\H,0,0.02996
 ,1.509834,-0.00817\H,0,-1.221005,-1.153102,0.13656\H,0,-1.945772,0.347
 03,0.322711\\Version=ES64L-G16RevC.01\State=1-A\HF=-133.7392428\RMSD=3
 .741e-01\Dipole=-0.5361722,0.0172642,0.2894347\Quadrupole=0.8780629,1.

 Normal termination of Gaussian 16 at Sun Apr  6 08:13:23 2025.
