 Gaussian 16, Revision C.01,

 ----------------------------------------------------------------------
 #t hf aug-cc-pvdz symm=none int=(grid=ultrafine) guess=(read,tcheck) s
 table=(opt,rrhf)
 ----------------------------------------------------------------------
 -----
 title
 -----
 Symbolic Z-matrix:
 Charge =  0 Multiplicity = 1

 SCF Done:  E(RHF) =  -193.962756857     A.U. after   13 cycles
 Normal termination of Gaussian 16 at Sun Apr  6 08:13:37 2025.
 Gaussian 16:  ES64L-G16RevC.01  3-Jul-2019

 ----------------------------------------------------------------------
 #t hf aug-cc-pvdz iop(5/13=1,5/36=2,99/5=2) pseudo=read geom=check gue
 ss=(read,tcheck) scf=(maxcycle=1)
 ----------------------------------------------------------------------
 -----
 title
 -----
 Structure from the checkpoint file:  "ethenylcyclopropane.chk"
 Charge =  0 Multiplicity = 1

                         Standard orientation:
 ---------------------------------------------------------------------
 Center     Atomic      Atomic             Coordinates (Angstroms)
 Number     Number       Type             X           Y           Z
 ---------------------------------------------------------------------
      1          6           0       -0.252597    1.434985    0.748313
      2          6           0       -0.252597    1.434985   -0.748313
      3          6           0        0.389449    0.284544   -0.000000
      4          6           0       -0.252597   -1.039865    0.000000
      5          6           0        0.387394   -2.205488    0.000000
      6          1           0        0.401712    2.122298    1.265403
      7          1           0       -1.185014    1.236819    1.258413
      8          1           0       -1.185014    1.236819   -1.258413
      9          1           0        0.401712    2.122298   -1.265403
     10          1           0        1.471951    0.266496    0.000000
     11          1           0       -1.339751   -1.036337    0.000000
     12          1           0        1.469284   -2.259461    0.000000
     13          1           0       -0.149199   -3.143904    0.000000
 ---------------------------------------------------------------------

 SCF Done:  E(RHF) =  -194.939322407     A.U. after    2 cycles

 The electronic state is 1-A'.
 Alpha  occ. eigenvalues --  -11.43394 -11.40930 -11.39309 -11.37339 -11.35958
 Alpha  occ. eigenvalues --   -1.32525  -1.12169  -0.88549  -0.86163  -0.78436
 Alpha  occ. eigenvalues --   -0.66774  -0.64506  -0.57181  -0.53617  -0.50966
 Alpha  occ. eigenvalues --   -0.46338  -0.44795  -0.39564  -0.31047
 Alpha virt. eigenvalues --    0.04174   0.05435   0.05819   0.05943   0.06266
 Alpha virt. eigenvalues --    0.06333   0.06369   0.08504   0.10719   0.11216
 Alpha virt. eigenvalues --    0.12591   0.13548   0.14053   0.14784   0.15417

 Mulliken charges:
               1
     1  C   -2.224775
     2  C   -2.224775
     3  C   -1.555695
     4  C   -0.870623
     5  C   -3.330989
     6  H    1.163578
     7  H    1.298104
     8  H    1.298104
     9  H    1.163578
    10  H    1.154368
    11  H    1.346673
    12  H    1.456010
    13  H    1.326442
 Sum of Mulliken charges =   0.00000

 Dipole moment (field-independent basis, Debye):
    X=             -0.0385    Y=              0.6743    Z=             -0.0000  Tot=              0.6754

 Test job not archived.
 1\1\GINC-SE222\SP\RHF\Aug-CC-pVDZ\C5H8\OHZDE\06-Apr-2025\0\\#t hf aug-
 cc-pvdz iop(5/13=1,5/36=2,99/5=2) pseudo=read geom=check guess=(read,t
 check) scf=(maxcycle=1)\\title\\0,1\C,0,-0.252597,1.434985,0.748313\C,
 0,-0.252597,1.434985,-0.748313\C,0,0.389449,0.284544,0.\C,0,-0.252597,
 -1.039865,0.\C,0,0.387394,-2.205488,0.\H,0,0.401712,2.122298,1.265403\
 H,0,-1.185014,1.236819,1.258413\H,0,-1.185014,1.236819,-1.258413\H,0,0
 .401712,2.122298,-1.265403\H,0,1.471951,0.266496,0.\H,0,-1.339751,-1.0
 36337,0.\H,0,1.469284,-2.259461,0.\H,0,-0.149199,-3.143904,0.\\Version

 Normal termination of Gaussian 16 at Sun Apr  6 08:13:40 2025.
