 Gaussian 16, Revision C.01,

 ----------------------------------------------------------------------
 #t hf aug-cc-pvdz symm=none int=(grid=ultrafine) guess=(read,tcheck) s
 table=(opt,rrhf)
 ----------------------------------------------------------------------
 -----
 title
 -----
 Symbolic Z-matrix:
 Charge =  0 Multiplicity = 1

 SCF Done:  E(RHF) =  -152.919682448     A.U. after   13 cycles
 Normal termination of Gaussian 16 at Sun Apr  6 08:13:21 2025.
 Gaussian 16:  ES64L-G16RevC.01  3-Jul-2019

 ----------------------------------------------------------------------
 #t hf aug-cc-pvdz iop(5/13=1,5/36=2,99/5=2) pseudo=read geom=check gue
 ss=(read,tcheck) scf=(maxcycle=1)
 ----------------------------------------------------------------------
 -----
 title
 -----
 Structure from the checkpoint file:  "ethenol.chk"
 Charge =  0 Multiplicity = 1

                         Standard orientation:
 ---------------------------------------------------------------------
 Center     Atomic      Atomic             Coordinates (Angstroms)
 Number     Number       Type             X           Y           Z
 ---------------------------------------------------------------------
      1          6           0        1.211962   -0.100418    0.000000
      2          6           0        0.000000    0.441434    0.000000
      3          8           0       -1.190822   -0.218573    0.000000
      4          1           0        1.366451   -1.172202    0.000000
      5          1           0        2.084447    0.533775    0.000000
      6          1           0       -0.160334    1.511121    0.000000
      7          1           0       -1.035759   -1.170209    0.000000
 ---------------------------------------------------------------------

 SCF Done:  E(RHF) =  -153.609571919     A.U. after    2 cycles

 The electronic state is 1-A'.
 Alpha  occ. eigenvalues --  -21.10410 -11.44677 -11.36936  -1.74995  -1.10162
 Alpha  occ. eigenvalues --   -0.83430  -0.64880  -0.62199  -0.51908  -0.48481
 Alpha  occ. eigenvalues --   -0.44056  -0.28750
 Alpha virt. eigenvalues --    0.03718   0.05643   0.05915   0.06345   0.11180
 Alpha virt. eigenvalues --    0.12231   0.13711   0.13953   0.14859   0.16529
 Alpha virt. eigenvalues --    0.18651   0.20895   0.21218   0.22204   0.25206

 Mulliken charges:
               1
     1  C   -3.046415
     2  C    1.050904
     3  O   -3.060940
     4  H    1.348835
     5  H    1.316694
     6  H    1.536064
     7  H    0.854858
 Sum of Mulliken charges =  -0.00000

 Dipole moment (field-independent basis, Debye):
    X=             -0.2868    Y=             -0.3629    Z=              0.0000  Tot=              0.4626

 Test job not archived.
 1\1\GINC-SE165\SP\RHF\Aug-CC-pVDZ\C2H4O1\OHZDE\06-Apr-2025\0\\#t hf au
 g-cc-pvdz iop(5/13=1,5/36=2,99/5=2) pseudo=read geom=check guess=(read
 ,tcheck) scf=(maxcycle=1)\\title\\0,1\C,0,1.211962,-0.100418,0.\C,0,0.
 ,0.441434,0.\O,0,-1.190822,-0.218573,0.\H,0,1.366451,-1.172202,0.\H,0,
 2.084447,0.533775,0.\H,0,-0.160334,1.511121,0.\H,0,-1.035759,-1.170209
 ,0.\\Version=ES64L-G16RevC.01\State=1-A'\HF=-153.6095719\RMSD=3.836e-0
 1\Dipole=-0.1128482,-0.1427954,0.\Quadrupole=-0.7921048,2.8322659,-2.0
 401611,0.5582868,0.,0.\PG=CS [SG(C2H4O1)]\\@

 Normal termination of Gaussian 16 at Sun Apr  6 08:13:23 2025.
