 Gaussian 16, Revision C.01,

 ----------------------------------------------------------------------
 #t hf aug-cc-pvdz symm=none int=(grid=ultrafine) guess=(read,tcheck) s
 table=(opt,rrhf)
 ----------------------------------------------------------------------
 -----
 title
 -----
 Symbolic Z-matrix:
 Charge =  0 Multiplicity = 1

 SCF Done:  E(RHF) =  -78.0437022052     A.U. after    9 cycles
 Normal termination of Gaussian 16 at Sun Apr  6 08:13:21 2025.
 Gaussian 16:  ES64L-G16RevC.01  3-Jul-2019

 ----------------------------------------------------------------------
 #t hf aug-cc-pvdz iop(5/13=1,5/36=2,99/5=2) pseudo=read geom=check gue
 ss=(read,tcheck) scf=(maxcycle=1)
 ----------------------------------------------------------------------
 -----
 title
 -----
 Structure from the checkpoint file:  "ethene.chk"
 Charge =  0 Multiplicity = 1

                         Standard orientation:
 ---------------------------------------------------------------------
 Center     Atomic      Atomic             Coordinates (Angstroms)
 Number     Number       Type             X           Y           Z
 ---------------------------------------------------------------------
      1          6           0        0.000000    0.000000    0.662415
      2          6           0        0.000000    0.000000   -0.662415
      3          1           0        0.000000    0.920717    1.231649
      4          1           0       -0.000000   -0.920717    1.231649
      5          1           0       -0.000000   -0.920717   -1.231649
      6          1           0        0.000000    0.920717   -1.231649
 ---------------------------------------------------------------------

 SCF Done:  E(RHF) =  -78.4409438435     A.U. after    2 cycles

 The electronic state is 1-AG.
 Alpha  occ. eigenvalues --  -11.40331 -11.36975  -1.13601  -0.82228  -0.64270
 Alpha  occ. eigenvalues --   -0.55996  -0.49292  -0.35994
 Alpha virt. eigenvalues --    0.03774   0.05651   0.06170   0.06416   0.10170
 Alpha virt. eigenvalues --    0.12828   0.14569   0.14793   0.15690   0.19328
 Alpha virt. eigenvalues --    0.20527   0.21769   0.22991   0.24724   0.29702

 Mulliken charges:
               1
     1  C   -2.597830
     2  C   -2.597830
     3  H    1.298915
     4  H    1.298915
     5  H    1.298915
     6  H    1.298915
 Sum of Mulliken charges =  -0.00000

 Dipole moment (field-independent basis, Debye):
    X=             -0.0000    Y=             -0.0000    Z=             -0.0000  Tot=              0.0000

 Test job not archived.
 1\1\GINC-SE146\SP\RHF\Aug-CC-pVDZ\C2H4\OHZDE\06-Apr-2025\0\\#t hf aug-
 cc-pvdz iop(5/13=1,5/36=2,99/5=2) pseudo=read geom=check guess=(read,t
 check) scf=(maxcycle=1)\\title\\0,1\C,0,0.,0.,0.662415\C,0,0.,0.,-0.66
 2415\H,0,0.,0.920717,1.231649\H,0,0.,-0.920717,1.231649\H,0,0.,-0.9207
 17,-1.231649\H,0,0.,0.920717,-1.231649\\Version=ES64L-G16RevC.01\State
 =1-AG\HF=-78.4409438\RMSD=3.386e-01\Dipole=0.,0.,0.\Quadrupole=-1.8051
 561,0.8028827,1.0022735,0.,0.,0.\PG=D02H [C2"(C1.C1),SG(H4)]\\@

 Normal termination of Gaussian 16 at Sun Apr  6 08:13:22 2025.
