 Gaussian 16, Revision C.01,

 ----------------------------------------------------------------------
 #t hf aug-cc-pvdz symm=none int=(grid=ultrafine) guess=(read,tcheck) s
 table=(opt,rrhf)
 ----------------------------------------------------------------------
 -----
 title
 -----
 Symbolic Z-matrix:
 Charge =  0 Multiplicity = 1

 SCF Done:  E(RHF) =  -232.175030578     A.U. after   11 cycles

 1\1\GINC-SE046\Stability\RHF\Aug-CC-pVDZ\C4H10O1\OHZDE\06-Apr-2025\0\\
 #t hf aug-cc-pvdz symm=none int=(grid=ultrafine) guess=(read,tcheck) s
 table=(opt,rrhf)\\title\\0,1\C,0,0.,2.382161,0.411002\C,0,0.,-2.382161
 ,0.411002\C,0,0.,1.185118,-0.517097\C,0,0.,-1.185118,-0.517097\O,0,0.,
 0.,0.260427\H,0,0.,3.307756,-0.166158\H,0,-0.883458,2.373885,1.04936\H
 ,0,0.883458,2.373885,1.04936\H,0,0.,-3.307756,-0.166158\H,0,0.883458,-
 2.373885,1.04936\H,0,-0.883458,-2.373885,1.04936\H,0,0.884361,1.20187,
 -1.16885\H,0,-0.884361,1.20187,-1.16885\H,0,-0.884361,-1.20187,-1.1688

 Normal termination of Gaussian 16 at Sun Apr  6 08:13:40 2025.
 Gaussian 16:  ES64L-G16RevC.01  3-Jul-2019

 ----------------------------------------------------------------------
 #t hf aug-cc-pvdz iop(5/13=1,5/36=2,99/5=2) pseudo=read geom=check gue
 ss=(read,tcheck) scf=(maxcycle=1)
 ----------------------------------------------------------------------
 -----
 title
 -----
 Structure from the checkpoint file:  "ethoxyethane.chk"
 Charge =  0 Multiplicity = 1

                         Standard orientation:
 ---------------------------------------------------------------------
 Center     Atomic      Atomic             Coordinates (Angstroms)
 Number     Number       Type             X           Y           Z
 ---------------------------------------------------------------------
      1          6           0        0.000000    2.382161    0.411002
      2          6           0       -0.000000   -2.382161    0.411002
      3          6           0        0.000000    1.185118   -0.517097
      4          6           0       -0.000000   -1.185118   -0.517097
      5          8           0       -0.000000   -0.000000    0.260427
      6          1           0        0.000000    3.307756   -0.166158
      7          1           0       -0.883458    2.373885    1.049360
      8          1           0        0.883458    2.373885    1.049360
      9          1           0       -0.000000   -3.307756   -0.166158
     10          1           0        0.883458   -2.373885    1.049360
     11          1           0       -0.883458   -2.373885    1.049360
     12          1           0        0.884361    1.201870   -1.168850
     13          1           0       -0.884361    1.201870   -1.168850
     14          1           0       -0.884361   -1.201870   -1.168850
     15          1           0        0.884361   -1.201870   -1.168850
 ---------------------------------------------------------------------

 SCF Done:  E(RHF) =  -233.305445226     A.U. after    2 cycles

 The electronic state is 1-A1.
 Alpha  occ. eigenvalues --  -21.03194 -11.43288 -11.41551 -11.36124 -11.35382
 Alpha  occ. eigenvalues --   -1.74460  -1.14859  -1.07510  -0.88444  -0.85236
 Alpha  occ. eigenvalues --   -0.66213  -0.61965  -0.60750  -0.57174  -0.54035
 Alpha  occ. eigenvalues --   -0.51187  -0.49431  -0.48106  -0.43534  -0.37861
 Alpha  occ. eigenvalues --   -0.29221
 Alpha virt. eigenvalues --    0.04215   0.05140   0.05750   0.05817   0.05924
 Alpha virt. eigenvalues --    0.06205   0.06372   0.06746   0.08477   0.09730
 Alpha virt. eigenvalues --    0.11234   0.13082   0.14364   0.15542   0.15727

 Mulliken charges:
               1
     1  C   -4.019442
     2  C   -4.019442
     3  C   -1.216743
     4  C   -1.216743
     5  O   -3.027268
     6  H    1.104438
     7  H    1.290328
     8  H    1.290328
     9  H    1.104438
    10  H    1.290328
    11  H    1.290328
    12  H    1.532362
    13  H    1.532362
    14  H    1.532362
    15  H    1.532362
 Sum of Mulliken charges =  -0.00000

 Dipole moment (field-independent basis, Debye):
    X=              0.0000    Y=              0.0000    Z=             -0.3611  Tot=              0.3611

 Test job not archived.
 1\1\GINC-SE046\SP\RHF\Aug-CC-pVDZ\C4H10O1\OHZDE\06-Apr-2025\0\\#t hf a
 ug-cc-pvdz iop(5/13=1,5/36=2,99/5=2) pseudo=read geom=check guess=(rea
 d,tcheck) scf=(maxcycle=1)\\title\\0,1\C,0,0.,2.382161,0.411002\C,0,0.
 ,-2.382161,0.411002\C,0,0.,1.185118,-0.517097\C,0,0.,-1.185118,-0.5170
 97\O,0,0.,0.,0.260427\H,0,0.,3.307756,-0.166158\H,0,-0.883458,2.373885
 ,1.04936\H,0,0.883458,2.373885,1.04936\H,0,0.,-3.307756,-0.166158\H,0,
 0.883458,-2.373885,1.04936\H,0,-0.883458,-2.373885,1.04936\H,0,0.88436
 1,1.20187,-1.16885\H,0,-0.884361,1.20187,-1.16885\H,0,-0.884361,-1.201

 Normal termination of Gaussian 16 at Sun Apr  6 08:13:44 2025.
