 Gaussian 16, Revision C.01,

 ----------------------------------------------------------------------
 #t hf aug-cc-pvdz symm=none int=(grid=ultrafine) guess=(read,tcheck) s
 table=(opt,rrhf)
 ----------------------------------------------------------------------
 -----
 title
 -----
 Symbolic Z-matrix:
 Charge =  0 Multiplicity = 1

 SCF Done:  E(RHF) =  -284.870551470     A.U. after   13 cycles
 Normal termination of Gaussian 16 at Sun Apr  6 08:13:44 2025.
 Gaussian 16:  ES64L-G16RevC.01  3-Jul-2019

 ----------------------------------------------------------------------
 #t hf aug-cc-pvdz iop(5/13=1,5/36=2,99/5=2) pseudo=read geom=check gue
 ss=(read,tcheck) scf=(maxcycle=1)
 ----------------------------------------------------------------------
 -----
 title
 -----
 Structure from the checkpoint file:  "ethoxyacetonitrile.chk"
 Charge =  0 Multiplicity = 1

                         Standard orientation:
 ---------------------------------------------------------------------
 Center     Atomic      Atomic             Coordinates (Angstroms)
 Number     Number       Type             X           Y           Z
 ---------------------------------------------------------------------
      1          8           0        0.000000    0.357505    0.000000
      2          1           0        0.720822   -1.378199    0.885457
      3          1           0        0.720822   -1.378199   -0.885457
      4          6           0        0.166851   -1.039701    0.000000
      5          1           0        1.824588    0.770256    0.885970
      6          1           0        1.824588    0.770256   -0.885970
      7          6           0        1.244020    1.056931    0.000000
      8          1           0        0.387072    2.824218   -0.883974
      9          1           0        1.894072    3.101368    0.000000
     10          1           0        0.387072    2.824218    0.883974
     11          6           0        0.957978    2.542132    0.000000
     12          7           0       -2.157412   -2.231285    0.000000
     13          6           0       -1.145042   -1.688522    0.000000
 ---------------------------------------------------------------------

 SCF Done:  E(RHF) =  -286.176518245     A.U. after    2 cycles

 The electronic state is 1-A'.
 Alpha  occ. eigenvalues --  -21.07375 -15.76408 -11.49352 -11.45071 -11.43101
 Alpha  occ. eigenvalues --  -11.37822  -1.78680  -1.31042  -1.15583  -1.04875
 Alpha  occ. eigenvalues --   -0.89153  -0.72924  -0.69636  -0.64580  -0.63381
 Alpha  occ. eigenvalues --   -0.54830  -0.53887  -0.51900  -0.49369  -0.44236
 Alpha  occ. eigenvalues --   -0.44162  -0.41617  -0.32963
 Alpha virt. eigenvalues --    0.03261   0.04419   0.05129   0.05301   0.05839
 Alpha virt. eigenvalues --    0.06577   0.07461   0.09160   0.10414   0.12248
 Alpha virt. eigenvalues --    0.13021   0.14057   0.14344   0.14354   0.15143

 Mulliken charges:
               1
     1  O   -2.861824
     2  H    1.481900
     3  H    1.481900
     4  C   -0.931992
     5  H    1.539147
     6  H    1.539147
     7  C   -1.366673
     8  H    1.274665
     9  H    1.124791
    10  H    1.274665
    11  C   -3.913574
    12  N   -2.234194
    13  C    1.592040
 Sum of Mulliken charges =  -0.00000

 Dipole moment (field-independent basis, Debye):
    X=              3.5477    Y=              2.0220    Z=              0.0000  Tot=              4.0835

 Test job not archived.
 1\1\GINC-SE038\SP\RHF\Aug-CC-pVDZ\C4H7N1O1\OHZDE\06-Apr-2025\0\\#t hf
 aug-cc-pvdz iop(5/13=1,5/36=2,99/5=2) pseudo=read geom=check guess=(re
 ad,tcheck) scf=(maxcycle=1)\\title\\0,1\O,0,0.,0.357505,0.\H,0,0.72082
 3,-1.378199,0.885457\H,0,0.720823,-1.378199,-0.885457\C,0,0.166852,-1.
 039701,0.\H,0,1.824588,0.770257,0.88597\H,0,1.824588,0.770257,-0.88597
 \C,0,1.24402,1.056932,0.\H,0,0.387071,2.824218,-0.883974\H,0,1.894071,
 3.101369,0.\H,0,0.387071,2.824218,0.883974\C,0,0.957977,2.542132,0.\N,
 0,-2.157411,-2.231286,0.\C,0,-1.145041,-1.688522,0.\\Version=ES64L-G16

 Normal termination of Gaussian 16 at Sun Apr  6 08:13:47 2025.
