 Gaussian 16, Revision C.01,

 ----------------------------------------------------------------------
 #t hf aug-cc-pvdz symm=none int=(grid=ultrafine) guess=(read,tcheck) s
 table=(opt,rrhf)
 ----------------------------------------------------------------------
 -----
 title
 -----
 Symbolic Z-matrix:
 Charge =  0 Multiplicity = 1

 SCF Done:  E(RHF) =  -230.985490656     A.U. after   13 cycles
 Normal termination of Gaussian 16 at Sun Apr  6 08:13:37 2025.
 Gaussian 16:  ES64L-G16RevC.01  3-Jul-2019

 ----------------------------------------------------------------------
 #t hf aug-cc-pvdz iop(5/13=1,5/36=2,99/5=2) pseudo=read geom=check gue
 ss=(read,tcheck) scf=(maxcycle=1)
 ----------------------------------------------------------------------
 -----
 title
 -----
 Structure from the checkpoint file:  "ethoxyethene.chk"
 Charge =  0 Multiplicity = 1

                         Standard orientation:
 ---------------------------------------------------------------------
 Center     Atomic      Atomic             Coordinates (Angstroms)
 Number     Number       Type             X           Y           Z
 ---------------------------------------------------------------------
      1          6           0        2.445855   -0.294356   -0.000008
      2          1           0        2.499430   -1.373583    0.000358
      3          1           0        3.364930    0.269880   -0.000226
      4          6           0        1.282938    0.346338   -0.000141
      5          1           0        1.226582    1.430931   -0.000503
      6          8           0        0.088531   -0.298764    0.000118
      7          6           0       -1.073605    0.536374    0.000222
      8          1           0       -1.057562    1.179175   -0.885919
      9          1           0       -1.057825    1.178653    0.886755
     10          6           0       -2.298114   -0.351311   -0.000172
     11          1           0       -2.312414   -0.988238   -0.884210
     12          1           0       -2.312552   -0.988828    0.883437
     13          1           0       -3.201281    0.259848   -0.000035
 ---------------------------------------------------------------------

 SCF Done:  E(RHF) =  -232.078439418     A.U. after    2 cycles

 The electronic state is 1-A.
 Alpha  occ. eigenvalues --  -21.06330 -11.44472 -11.43568 -11.37088 -11.36133
 Alpha  occ. eigenvalues --   -1.77834  -1.15377  -1.07138  -0.88818  -0.81061
 Alpha  occ. eigenvalues --   -0.65437  -0.65339  -0.60721  -0.55534  -0.51946
 Alpha  occ. eigenvalues --   -0.50708  -0.47603  -0.44604  -0.39669  -0.26490
 Alpha virt. eigenvalues --    0.03906   0.05213   0.05540   0.05926   0.06007
 Alpha virt. eigenvalues --    0.06476   0.06773   0.07630   0.11132   0.12321
 Alpha virt. eigenvalues --    0.12764   0.14251   0.14632   0.15374   0.15762

 Mulliken charges:
               1
     1  C   -3.785746
     2  H    1.483419
     3  H    1.323461
     4  C    1.969476
     5  H    1.450436
     6  O   -3.517170
     7  C   -1.661942
     8  H    1.502162
     9  H    1.502043
    10  C   -3.885849
    11  H    1.255680
    12  H    1.255725
    13  H    1.108305
 Sum of Mulliken charges =   0.00000

 Dipole moment (field-independent basis, Debye):
    X=             -1.3232    Y=              0.6443    Z=             -0.0000  Tot=              1.4718

 Test job not archived.
 1\1\GINC-SE047\SP\RHF\Aug-CC-pVDZ\C4H8O1\OHZDE\06-Apr-2025\0\\#t hf au
 g-cc-pvdz iop(5/13=1,5/36=2,99/5=2) pseudo=read geom=check guess=(read
 ,tcheck) scf=(maxcycle=1)\\title\\0,1\C,0,2.445855,-0.294356,-0.000008
 \H,0,2.49943,-1.373583,0.000358\H,0,3.36493,0.26988,-0.000226\C,0,1.28
 2938,0.346338,-0.000141\H,0,1.226582,1.430931,-0.000503\O,0,0.088531,-
 0.298764,0.000118\C,0,-1.073605,0.536374,0.000222\H,0,-1.057562,1.1791
 75,-0.885919\H,0,-1.057825,1.178653,0.886755\C,0,-2.298114,-0.351311,-
 0.000172\H,0,-2.312414,-0.988238,-0.88421\H,0,-2.312552,-0.988828,0.88

 Normal termination of Gaussian 16 at Sun Apr  6 08:13:40 2025.
