 Gaussian 16, Revision C.01,

 ----------------------------------------------------------------------
 #t hf aug-cc-pvdz symm=none int=(grid=ultrafine) guess=(read,tcheck) s
 table=(opt,rrhf)
 ----------------------------------------------------------------------
 -----
 title
 -----
 Symbolic Z-matrix:
 Charge =  0 Multiplicity = 1

 SCF Done:  E(RHF) =  -383.667848038     A.U. after   15 cycles

 1\1\GINC-SE146\Stability\RHF\Aug-CC-pVDZ\C8H10O1\OHZDE\06-Apr-2025\0\\
 #t hf aug-cc-pvdz symm=none int=(grid=ultrafine) guess=(read,tcheck) s
 table=(opt,rrhf)\\title\\0,1\C,0,2.782896,0.485045,0.\C,0,2.194136,-0.
 770352,0.\C,0,1.968374,1.616338,0.\C,0,0.807719,-0.912627,0.\C,0,0.589
 648,1.491986,0.\C,0,0.,0.224518,0.\C,0,-3.525326,-0.78267,0.\C,0,-2.03
 6225,-1.053818,0.\O,0,-1.362668,0.203627,0.\H,0,3.859197,0.585368,0.\H
 ,0,2.812468,-1.658314,0.\H,0,2.412071,2.603099,0.\H,0,0.376293,-1.9016
 43,0.\H,0,-0.052598,2.36169,0.\H,0,-4.074153,-1.725007,0.\H,0,-3.81476

 Normal termination of Gaussian 16 at Sun Apr  6 08:14:40 2025.
 Gaussian 16:  ES64L-G16RevC.01  3-Jul-2019

 ----------------------------------------------------------------------
 #t hf aug-cc-pvdz iop(5/13=1,5/36=2,99/5=2) pseudo=read geom=check gue
 ss=(read,tcheck) scf=(maxcycle=1)
 ----------------------------------------------------------------------
 -----
 title
 -----
 Structure from the checkpoint file:  "ethoxybenzene.chk"
 Charge =  0 Multiplicity = 1

                         Standard orientation:
 ---------------------------------------------------------------------
 Center     Atomic      Atomic             Coordinates (Angstroms)
 Number     Number       Type             X           Y           Z
 ---------------------------------------------------------------------
      1          6           0        2.782896    0.485044    0.000000
      2          6           0        2.194136   -0.770353    0.000000
      3          6           0        1.968374    1.616337    0.000000
      4          6           0        0.807719   -0.912627    0.000000
      5          6           0        0.589648    1.491986    0.000000
      6          6           0        0.000000    0.224518    0.000000
      7          6           0       -3.525326   -0.782669    0.000000
      8          6           0       -2.036225   -1.053817    0.000000
      9          8           0       -1.362668    0.203627    0.000000
     10          1           0        3.859197    0.585367    0.000000
     11          1           0        2.812467   -1.658315    0.000000
     12          1           0        2.412072    2.603098    0.000000
     13          1           0        0.376292   -1.901643    0.000000
     14          1           0       -0.052597    2.361690    0.000000
     15          1           0       -4.074154   -1.725006    0.000000
     16          1           0       -3.814766   -0.215004    0.883932
     17          1           0       -3.814766   -0.215004   -0.883932
     18          1           0       -1.744865   -1.627360   -0.885629
     19          1           0       -1.744865   -1.627360    0.885629
 ---------------------------------------------------------------------

 SCF Done:  E(RHF) =  -385.489152948     A.U. after    2 cycles

 The electronic state is 1-A'.
 Alpha  occ. eigenvalues --  -21.06630 -11.52797 -11.45338 -11.44388 -11.42226
 Alpha  occ. eigenvalues --  -11.40066 -11.39724 -11.37315 -11.35905  -1.78654
 Alpha  occ. eigenvalues --   -1.31711  -1.14442  -1.09088  -1.05116  -0.90412
 Alpha  occ. eigenvalues --   -0.86253  -0.82367  -0.71247  -0.65816  -0.65611
 Alpha  occ. eigenvalues --   -0.60718  -0.59620  -0.57812  -0.53506  -0.53449
 Alpha  occ. eigenvalues --   -0.50181  -0.49809  -0.46513  -0.44187  -0.40354
 Alpha  occ. eigenvalues --   -0.38619  -0.32967  -0.25865
 Alpha virt. eigenvalues --    0.03580   0.04584   0.05053   0.05749   0.06280
 Alpha virt. eigenvalues --    0.06493   0.06633   0.06680   0.07204   0.08202
 Alpha virt. eigenvalues --    0.10145   0.11837   0.13002   0.13068   0.13521

 Mulliken charges:
               1
     1  C   -2.694949
     2  C   -0.336791
     3  C   -0.136690
     4  C   -3.566661
     5  C   -4.034757
     6  C    7.199421
     7  C   -3.750763
     8  C   -2.799774
     9  O   -5.038479
    10  H    1.540446
    11  H    1.491811
    12  H    1.491960
    13  H    1.809585
    14  H    1.856151
    15  H    1.055559
    16  H    1.299130
    17  H    1.299130
    18  H    1.657835
    19  H    1.657835
 Sum of Mulliken charges =   0.00000

 Dipole moment (field-independent basis, Debye):
    X=             -0.9131    Y=             -0.5459    Z=              0.0000  Tot=              1.0638

 Test job not archived.
 1\1\GINC-SE146\SP\RHF\Aug-CC-pVDZ\C8H10O1\OHZDE\06-Apr-2025\0\\#t hf a
 ug-cc-pvdz iop(5/13=1,5/36=2,99/5=2) pseudo=read geom=check guess=(rea
 d,tcheck) scf=(maxcycle=1)\\title\\0,1\C,0,2.782896,0.485045,0.\C,0,2.
 194136,-0.770352,0.\C,0,1.968374,1.616338,0.\C,0,0.807719,-0.912627,0.
 \C,0,0.589648,1.491986,0.\C,0,0.,0.224518,0.\C,0,-3.525326,-0.78267,0.
 \C,0,-2.036225,-1.053818,0.\O,0,-1.362668,0.203627,0.\H,0,3.859197,0.5
 85368,0.\H,0,2.812468,-1.658314,0.\H,0,2.412071,2.603099,0.\H,0,0.3762
 93,-1.901643,0.\H,0,-0.052598,2.36169,0.\H,0,-4.074153,-1.725007,0.\H,

 Normal termination of Gaussian 16 at Sun Apr  6 08:14:48 2025.
