 Gaussian 16, Revision C.01,

 ----------------------------------------------------------------------
 #t hf aug-cc-pvdz symm=none int=(grid=ultrafine) guess=(read,tcheck) s
 table=(opt,rrhf)
 ----------------------------------------------------------------------
 -----
 title
 -----
 Symbolic Z-matrix:
 Charge =  0 Multiplicity = 1

 SCF Done:  E(RHF) =  -357.567176836     A.U. after   15 cycles
 Normal termination of Gaussian 16 at Sun Apr  6 08:13:35 2025.
 Gaussian 16:  ES64L-G16RevC.01  3-Jul-2019

 ----------------------------------------------------------------------
 #t hf aug-cc-pvdz iop(5/13=1,5/36=2,99/5=2) pseudo=read geom=check gue
 ss=(read,tcheck) scf=(maxcycle=1)
 ----------------------------------------------------------------------
 -----
 title
 -----
 Structure from the checkpoint file:  "ethylnitrate.chk"
 Charge =  0 Multiplicity = 1

                         Standard orientation:
 ---------------------------------------------------------------------
 Center     Atomic      Atomic             Coordinates (Angstroms)
 Number     Number       Type             X           Y           Z
 ---------------------------------------------------------------------
      1          7           0       -1.111550   -0.313232    0.000000
      2          8           0        0.000000    0.559326    0.000000
      3          8           0       -2.159770    0.267327    0.000000
      4          8           0       -0.888584   -1.499078    0.000000
      5          6           0        2.325207    0.990121    0.000000
      6          6           0        1.286493   -0.110502    0.000000
      7          1           0        3.318360    0.540497    0.000000
      8          1           0        2.232623    1.618133    0.884918
      9          1           0        2.232623    1.618133   -0.884918
     10          1           0        1.356935   -0.741228    0.885089
     11          1           0        1.356935   -0.741228   -0.885089
 ---------------------------------------------------------------------

 SCF Done:  E(RHF) =  -359.113949434     A.U. after    2 cycles

 The electronic state is 1-A'.
 Alpha  occ. eigenvalues --  -21.13737 -21.12135 -21.11955 -16.05597 -11.46715
 Alpha  occ. eigenvalues --  -11.39290  -2.08481  -1.76381  -1.73584  -1.16599
 Alpha  occ. eigenvalues --   -0.96354  -0.86576  -0.74024  -0.73485  -0.66350
 Alpha  occ. eigenvalues --   -0.66244  -0.58413  -0.54398  -0.53564  -0.47874
 Alpha  occ. eigenvalues --   -0.37861  -0.36890  -0.33850  -0.32545
 Alpha virt. eigenvalues --    0.03151   0.05416   0.05593   0.05838   0.06243
 Alpha virt. eigenvalues --    0.10636   0.11848   0.12858   0.12995   0.14053
 Alpha virt. eigenvalues --    0.15843   0.16168   0.16769   0.17425   0.17808

 Mulliken charges:
               1
     1  N    6.655490
     2  O   -2.715573
     3  O   -2.782629
     4  O   -2.682356
     5  C   -3.383774
     6  C   -2.001729
     7  H    1.130002
     8  H    1.271864
     9  H    1.271864
    10  H    1.618419
    11  H    1.618419
 Sum of Mulliken charges =  -0.00000

 Dipole moment (field-independent basis, Debye):
    X=              2.7507    Y=              0.5749    Z=             -0.0000  Tot=              2.8101

 Test job not archived.
 1\1\GINC-SE013\SP\RHF\Aug-CC-pVDZ\C2H5N1O3\OHZDE\06-Apr-2025\0\\#t hf
 aug-cc-pvdz iop(5/13=1,5/36=2,99/5=2) pseudo=read geom=check guess=(re
 ad,tcheck) scf=(maxcycle=1)\\title\\0,1\N,0,-1.11155,-0.313232,0.\O,0,
 0.,0.559326,0.\O,0,-2.15977,0.267328,0.\O,0,-0.888584,-1.499078,0.\C,0
 ,2.325207,0.990121,0.\C,0,1.286493,-0.110502,0.\H,0,3.31836,0.540496,0
 .\H,0,2.232623,1.618133,0.884918\H,0,2.232623,1.618133,-0.884918\H,0,1
 .356935,-0.741228,0.885089\H,0,1.356935,-0.741228,-0.885089\\Version=E
 S64L-G16RevC.01\State=1-A'\HF=-359.1139494\RMSD=1.867e-01\Dipole=1.082

 Normal termination of Gaussian 16 at Sun Apr  6 08:13:39 2025.
