 Gaussian 16, Revision C.01,

 ----------------------------------------------------------------------
 #t hf aug-cc-pvdz symm=none int=(grid=ultrafine) guess=(read,tcheck) s
 table=(opt,rrhf)
 ----------------------------------------------------------------------
 -----
 title
 -----
 Symbolic Z-matrix:
 Charge =  0 Multiplicity = 1

 SCF Done:  E(RHF) =  -264.432684992     A.U. after   15 cycles
 Normal termination of Gaussian 16 at Sun Apr  6 08:13:28 2025.
 Gaussian 16:  ES64L-G16RevC.01  3-Jul-2019

 ----------------------------------------------------------------------
 #t hf aug-cc-pvdz iop(5/13=1,5/36=2,99/5=2) pseudo=read geom=check gue
 ss=(read,tcheck) scf=(maxcycle=1)
 ----------------------------------------------------------------------
 -----
 title
 -----
 Structure from the checkpoint file:  "ethynylformate.chk"
 Charge =  0 Multiplicity = 1

                         Standard orientation:
 ---------------------------------------------------------------------
 Center     Atomic      Atomic             Coordinates (Angstroms)
 Number     Number       Type             X           Y           Z
 ---------------------------------------------------------------------
      1          8           0       -0.029545   -0.591156   -0.000011
      2          8           0       -2.183481    0.034844   -0.000001
      3          6           0       -1.049749    0.363965    0.000007
      4          6           0        1.205881   -0.154845   -0.000002
      5          6           0        2.343204    0.213694    0.000005
      6          1           0       -0.647409    1.384949    0.000027
      7          1           0        3.355602    0.528657    0.000011
 ---------------------------------------------------------------------

 SCF Done:  E(RHF) =  -265.541464333     A.U. after    2 cycles

 The electronic state is 1-A.
 Alpha  occ. eigenvalues --  -21.16719 -21.10545 -11.55244 -11.47702 -11.42311
 Alpha  occ. eigenvalues --   -1.89496  -1.72055  -1.10153  -0.92441  -0.79798
 Alpha  occ. eigenvalues --   -0.70808  -0.60619  -0.59940  -0.53583  -0.47764
 Alpha  occ. eigenvalues --   -0.40470  -0.34066  -0.32447
 Alpha virt. eigenvalues --    0.02795   0.05122   0.09235   0.09358   0.09974
 Alpha virt. eigenvalues --    0.11088   0.11426   0.12391   0.13099   0.15228
 Alpha virt. eigenvalues --    0.15231   0.15503   0.15791   0.19291   0.20871

 Mulliken charges:
               1
     1  O   -3.254734
     2  O   -2.500661
     3  C    2.202175
     4  C    2.592823
     5  C   -1.124376
     6  H    1.433528
     7  H    0.651245
 Sum of Mulliken charges =   0.00000

 Dipole moment (field-independent basis, Debye):
    X=              0.8632    Y=              0.8451    Z=              0.0000  Tot=              1.2080

 Test job not archived.
 1\1\GINC-SE412\SP\RHF\Aug-CC-pVDZ\C3H2O2\OHZDE\06-Apr-2025\0\\#t hf au
 g-cc-pvdz iop(5/13=1,5/36=2,99/5=2) pseudo=read geom=check guess=(read
 ,tcheck) scf=(maxcycle=1)\\title\\0,1\O,0,-0.029545,-0.591156,-0.00001
 1\O,0,-2.183481,0.034844,-0.000001\C,0,-1.049749,0.363965,0.000007\C,0
 ,1.205881,-0.154845,-0.000002\C,0,2.343204,0.213694,0.000005\H,0,-0.64
 7409,1.384949,0.000027\H,0,3.355602,0.528657,0.000011\\Version=ES64L-G
 16RevC.01\State=1-A\HF=-265.5414643\RMSD=5.891e-01\Dipole=0.3396216,0.
 3324791,0.0000065\Quadrupole=1.400815,-0.5826747,-0.8181404,0.4606681,

 Normal termination of Gaussian 16 at Sun Apr  6 08:13:30 2025.
