 Gaussian 16, Revision C.01,

 ----------------------------------------------------------------------
 #t hf aug-cc-pvdz symm=none int=(grid=ultrafine) guess=(read,tcheck) s
 table=(opt,rrhf)
 ----------------------------------------------------------------------
 -----
 title
 -----
 Symbolic Z-matrix:
 Charge =  0 Multiplicity = 1

 SCF Done:  E(RHF) =  -134.272361615     A.U. after   12 cycles
 Normal termination of Gaussian 16 at Sun Apr  6 08:13:29 2025.
 Gaussian 16:  ES64L-G16RevC.01  3-Jul-2019

 ----------------------------------------------------------------------
 #t hf aug-cc-pvdz iop(5/13=1,5/36=2,99/5=2) pseudo=read geom=check gue
 ss=(read,tcheck) scf=(maxcycle=1)
 ----------------------------------------------------------------------
 -----
 title
 -----
 Structure from the checkpoint file:  "ethylamine.chk"
 Charge =  0 Multiplicity = 1

                         Standard orientation:
 ---------------------------------------------------------------------
 Center     Atomic      Atomic             Coordinates (Angstroms)
 Number     Number       Type             X           Y           Z
 ---------------------------------------------------------------------
      1          6           0        1.217924   -0.353536    0.000000
      2          6           0        0.000000    0.571510    0.000000
      3          7           0       -1.306888   -0.088652    0.000000
      4          1           0        1.220384   -0.996853    0.882589
      5          1           0        1.220384   -0.996853   -0.882589
      6          1           0        2.148415    0.218943    0.000000
      7          1           0        0.037134    1.227011   -0.872854
      8          1           0        0.037134    1.227011    0.872854
      9          1           0       -1.411390   -0.683272    0.813701
     10          1           0       -1.411390   -0.683272   -0.813701
 ---------------------------------------------------------------------

 SCF Done:  E(RHF) =  -134.958724837     A.U. after    2 cycles

 The electronic state is 1-A'.
 Alpha  occ. eigenvalues --  -15.72276 -11.40411 -11.35252  -1.32860  -1.07343
 Alpha  occ. eigenvalues --   -0.86874  -0.66935  -0.59035  -0.56180  -0.53960
 Alpha  occ. eigenvalues --   -0.48289  -0.47141  -0.33954
 Alpha virt. eigenvalues --    0.03822   0.05595   0.05909   0.05922   0.06829
 Alpha virt. eigenvalues --    0.07035   0.07676   0.11306   0.12675   0.15015
 Alpha virt. eigenvalues --    0.15723   0.17404   0.18012   0.19070   0.19147

 Mulliken charges:
               1
     1  C   -3.275744
     2  C   -2.153276
     3  N   -2.160958
     4  H    1.207388
     5  H    1.207388
     6  H    1.237321
     7  H    1.380945
     8  H    1.380945
     9  H    0.587996
    10  H    0.587996
 Sum of Mulliken charges =   0.00000

 Dipole moment (field-independent basis, Debye):
    X=              0.6448    Y=             -0.6638    Z=             -0.0000  Tot=              0.9254

 Test job not archived.
 1\1\GINC-SE084\SP\RHF\Aug-CC-pVDZ\C2H7N1\OHZDE\06-Apr-2025\0\\#t hf au
 g-cc-pvdz iop(5/13=1,5/36=2,99/5=2) pseudo=read geom=check guess=(read
 ,tcheck) scf=(maxcycle=1)\\title\\0,1\C,0,1.217924,-0.353536,0.\C,0,0.
 ,0.57151,0.\N,0,-1.306888,-0.088652,0.\H,0,1.220384,-0.996853,0.882589
 \H,0,1.220384,-0.996853,-0.882589\H,0,2.148415,0.218943,0.\H,0,0.03713
 4,1.227011,-0.872854\H,0,0.037134,1.227011,0.872854\H,0,-1.41139,-0.68
 3272,0.813701\H,0,-1.41139,-0.683272,-0.813701\\Version=ES64L-G16RevC.
 01\State=1-A'\HF=-134.9587248\RMSD=1.709e-01\Dipole=0.2537017,-0.26114

 Normal termination of Gaussian 16 at Sun Apr  6 08:13:32 2025.
