 Gaussian 16, Revision C.01,

 ----------------------------------------------------------------------
 #t hf aug-cc-pvdz symm=none int=(grid=ultrafine) guess=(read,tcheck) s
 table=(opt,rrhf)
 ----------------------------------------------------------------------
 -----
 title
 -----
 Symbolic Z-matrix:
 Charge =  0 Multiplicity = 1

 SCF Done:  E(RHF) =  -383.994789542     A.U. after   13 cycles

 1\1\GINC-SE049\Stability\RHF\Aug-CC-pVDZ\C6H12O2\OHZDE\06-Apr-2025\0\\
 #t hf aug-cc-pvdz symm=none int=(grid=ultrafine) guess=(read,tcheck) s
 table=(opt,rrhf)\\title\\0,1\C,0,0.075104,0.3591,0.000098\C,0,-3.70178
 9,-0.60267,-0.000001\C,0,3.556061,-0.733886,-0.000152\C,0,-1.1689,-0.4
 99935,0.000212\C,0,-2.468473,0.298186,-0.000293\C,0,2.452426,0.299222,
 0.000029\O,0,0.097456,1.565027,0.000074\O,0,1.188412,-0.404077,0.00005
 9\H,0,-4.618593,-0.01246,-0.000388\H,0,-3.723582,-1.248219,-0.880573\H
 ,0,-3.723777,-1.24737,0.881188\H,0,4.525714,-0.234679,-0.000156\H,0,3.

 Normal termination of Gaussian 16 at Sun Apr  6 08:14:34 2025.
 Gaussian 16:  ES64L-G16RevC.01  3-Jul-2019

 ----------------------------------------------------------------------
 #t hf aug-cc-pvdz iop(5/13=1,5/36=2,99/5=2) pseudo=read geom=check gue
 ss=(read,tcheck) scf=(maxcycle=1)
 ----------------------------------------------------------------------
 -----
 title
 -----
 Structure from the checkpoint file:  "ethyl_butanoate.chk"
 Charge =  0 Multiplicity = 1

                         Standard orientation:
 ---------------------------------------------------------------------
 Center     Atomic      Atomic             Coordinates (Angstroms)
 Number     Number       Type             X           Y           Z
 ---------------------------------------------------------------------
      1          6           0        0.075104    0.359100    0.000098
      2          6           0       -3.701789   -0.602670   -0.000001
      3          6           0        3.556061   -0.733886   -0.000152
      4          6           0       -1.168900   -0.499935    0.000212
      5          6           0       -2.468473    0.298186   -0.000293
      6          6           0        2.452426    0.299222    0.000029
      7          8           0        0.097456    1.565027    0.000074
      8          8           0        1.188412   -0.404077    0.000059
      9          1           0       -4.618593   -0.012460   -0.000388
     10          1           0       -3.723582   -1.248219   -0.880573
     11          1           0       -3.723777   -1.247370    0.881188
     12          1           0        4.525714   -0.234679   -0.000156
     13          1           0        3.498825   -1.368972    0.883727
     14          1           0        3.498716   -1.368774   -0.884166
     15          1           0       -1.114011   -1.161253   -0.869006
     16          1           0       -1.114289   -1.160543    0.869994
     17          1           0       -2.485329    0.956406    0.869828
     18          1           0       -2.485160    0.955591   -0.871038
     19          1           0        2.493919    0.941368   -0.879840
     20          1           0        2.494054    0.941198    0.880017
 ---------------------------------------------------------------------

 SCF Done:  E(RHF) =  -385.785287800     A.U. after    2 cycles

 The electronic state is 1-A.
 Alpha  occ. eigenvalues --  -21.08085 -21.04174 -11.52561 -11.44090 -11.42634
 Alpha  occ. eigenvalues --  -11.39190 -11.37370 -11.35520  -1.83591  -1.65532
 Alpha  occ. eigenvalues --   -1.22555  -1.14020  -1.03704  -0.90736  -0.85510
 Alpha  occ. eigenvalues --   -0.75001  -0.66961  -0.66372  -0.64271  -0.59089
 Alpha  occ. eigenvalues --   -0.56737  -0.56601  -0.52531  -0.52210  -0.51687
 Alpha  occ. eigenvalues --   -0.47957  -0.46717  -0.45176  -0.44875  -0.40338
 Alpha  occ. eigenvalues --   -0.31800  -0.28989
 Alpha virt. eigenvalues --    0.03567   0.04749   0.05017   0.05407   0.05640
 Alpha virt. eigenvalues --    0.05726   0.06552   0.07189   0.07587   0.08228
 Alpha virt. eigenvalues --    0.08258   0.08667   0.09858   0.12568   0.12751

 Mulliken charges:
               1
     1  C    7.373425
     2  C   -3.946017
     3  C   -3.649524
     4  C   -4.683793
     5  C   -2.490272
     6  C   -2.647523
     7  O   -3.167353
     8  O   -3.505889
     9  H    1.030897
    10  H    1.278718
    11  H    1.278708
    12  H    1.094593
    13  H    1.317986
    14  H    1.317947
    15  H    1.602474
    16  H    1.602439
    17  H    1.460721
    18  H    1.460475
    19  H    1.636023
    20  H    1.635964
 Sum of Mulliken charges =   0.00000

 Dipole moment (field-independent basis, Debye):
    X=              0.5291    Y=             -1.0536    Z=             -0.0000  Tot=              1.1790

 Test job not archived.
 1\1\GINC-SE049\SP\RHF\Aug-CC-pVDZ\C6H12O2\OHZDE\06-Apr-2025\0\\#t hf a
 ug-cc-pvdz iop(5/13=1,5/36=2,99/5=2) pseudo=read geom=check guess=(rea
 d,tcheck) scf=(maxcycle=1)\\title\\0,1\C,0,0.075104,0.3591,0.000098\C,
 0,-3.701789,-0.60267,-0.000001\C,0,3.556061,-0.733886,-0.000152\C,0,-1
 .1689,-0.499935,0.000212\C,0,-2.468473,0.298186,-0.000293\C,0,2.452426
 ,0.299222,0.000029\O,0,0.097456,1.565027,0.000074\O,0,1.188412,-0.4040
 77,0.000059\H,0,-4.618593,-0.01246,-0.000388\H,0,-3.723582,-1.248219,-
 0.880573\H,0,-3.723777,-1.24737,0.881188\H,0,4.525714,-0.234679,-0.000

 Normal termination of Gaussian 16 at Sun Apr  6 08:14:46 2025.
