 Gaussian 16, Revision C.01,

 ----------------------------------------------------------------------
 #t hf aug-cc-pvdz symm=none int=(grid=ultrafine) guess=(read,tcheck) s
 table=(opt,rrhf)
 ----------------------------------------------------------------------
 -----
 title
 -----
 Symbolic Z-matrix:
 Charge =  0 Multiplicity = 1

 SCF Done:  E(RHF) =  -344.956162633     A.U. after   13 cycles

 1\1\GINC-SE209\Stability\RHF\Aug-CC-pVDZ\C5H10O2\OHZDE\06-Apr-2025\0\\
 #t hf aug-cc-pvdz symm=none int=(grid=ultrafine) guess=(read,tcheck) s
 table=(opt,rrhf)\\title\\0,1\C,0,0.,0.540816,0.\C,0,1.243175,2.7516,0.
 \C,0,-0.679664,-3.043361,0.\C,0,1.345131,1.232352,0.\C,0,-1.070032,-1.
 582821,0.\O,0,-1.072742,1.091993,0.\O,0,0.146706,-0.800498,0.\H,0,0.70
 6894,3.109292,0.877772\H,0,2.237781,3.19741,0.\H,0,0.706894,3.109292,-
 0.877772\H,0,-1.57723,-3.662892,0.\H,0,-0.09276,-3.292082,-0.884003\H,
 0,-0.09276,-3.292082,0.884003\H,0,1.899563,0.870429,0.869102\H,0,1.899

 Normal termination of Gaussian 16 at Sun Apr  6 08:14:10 2025.
 Gaussian 16:  ES64L-G16RevC.01  3-Jul-2019

 ----------------------------------------------------------------------
 #t hf aug-cc-pvdz iop(5/13=1,5/36=2,99/5=2) pseudo=read geom=check gue
 ss=(read,tcheck) scf=(maxcycle=1)
 ----------------------------------------------------------------------
 -----
 title
 -----
 Structure from the checkpoint file:  "ethyl_propanoate.chk"
 Charge =  0 Multiplicity = 1

                         Standard orientation:
 ---------------------------------------------------------------------
 Center     Atomic      Atomic             Coordinates (Angstroms)
 Number     Number       Type             X           Y           Z
 ---------------------------------------------------------------------
      1          6           0        0.000000    0.540816    0.000000
      2          6           0        1.243175    2.751600    0.000000
      3          6           0       -0.679664   -3.043361    0.000000
      4          6           0        1.345131    1.232352    0.000000
      5          6           0       -1.070032   -1.582821    0.000000
      6          8           0       -1.072742    1.091993    0.000000
      7          8           0        0.146706   -0.800498    0.000000
      8          1           0        0.706894    3.109292    0.877772
      9          1           0        2.237781    3.197410    0.000000
     10          1           0        0.706894    3.109292   -0.877772
     11          1           0       -1.577230   -3.662892    0.000000
     12          1           0       -0.092760   -3.292082   -0.884003
     13          1           0       -0.092760   -3.292082    0.884003
     14          1           0        1.899563    0.870429    0.869102
     15          1           0        1.899563    0.870429   -0.869102
     16          1           0       -1.655657   -1.316641    0.880006
     17          1           0       -1.655657   -1.316641   -0.880006
 ---------------------------------------------------------------------

 SCF Done:  E(RHF) =  -346.542271864     A.U. after    2 cycles

 The electronic state is 1-A'.
 Alpha  occ. eigenvalues --  -21.08125 -21.04215 -11.52132 -11.44056 -11.41620
 Alpha  occ. eigenvalues --  -11.37390 -11.36579  -1.83629  -1.65575  -1.18957
 Alpha  occ. eigenvalues --   -1.13090  -0.95451  -0.88272  -0.74749  -0.66897
 Alpha  occ. eigenvalues --   -0.66648  -0.62953  -0.58061  -0.55007  -0.53553
 Alpha  occ. eigenvalues --   -0.53540  -0.50529  -0.48846  -0.47066  -0.45484
 Alpha  occ. eigenvalues --   -0.40601  -0.31857  -0.29060
 Alpha virt. eigenvalues --    0.03501   0.04800   0.05351   0.05509   0.05793
 Alpha virt. eigenvalues --    0.05972   0.06540   0.07192   0.07794   0.08771
 Alpha virt. eigenvalues --    0.09994   0.12198   0.13364   0.13810   0.14082

 Mulliken charges:
               1
     1  C    6.844433
     2  C   -3.401897
     3  C   -3.638817
     4  C   -4.488850
     5  C   -2.460735
     6  O   -3.107271
     7  O   -3.335191
     8  H    1.283983
     9  H    1.042362
    10  H    1.283983
    11  H    1.096554
    12  H    1.300250
    13  H    1.300250
    14  H    1.544483
    15  H    1.544483
    16  H    1.595990
    17  H    1.595990
 Sum of Mulliken charges =  -0.00000

 Dipole moment (field-independent basis, Debye):
    X=              0.7592    Y=             -1.0926    Z=              0.0000  Tot=              1.3304

 Test job not archived.
 1\1\GINC-SE209\SP\RHF\Aug-CC-pVDZ\C5H10O2\OHZDE\06-Apr-2025\0\\#t hf a
 ug-cc-pvdz iop(5/13=1,5/36=2,99/5=2) pseudo=read geom=check guess=(rea
 d,tcheck) scf=(maxcycle=1)\\title\\0,1\C,0,0.,0.540816,0.\C,0,1.243175
 ,2.7516,0.\C,0,-0.679664,-3.043361,0.\C,0,1.345131,1.232352,0.\C,0,-1.
 070032,-1.582821,0.\O,0,-1.072742,1.091993,0.\O,0,0.146706,-0.800498,0
 .\H,0,0.706894,3.109292,0.877772\H,0,2.237781,3.19741,0.\H,0,0.706894,
 3.109292,-0.877772\H,0,-1.57723,-3.662892,0.\H,0,-0.09276,-3.292082,-0
 .884003\H,0,-0.09276,-3.292082,0.884003\H,0,1.899563,0.870429,0.869102

 Normal termination of Gaussian 16 at Sun Apr  6 08:14:43 2025.
