 Gaussian 16, Revision C.01,

 ----------------------------------------------------------------------
 #t hf aug-cc-pvdz symm=none int=(grid=ultrafine) guess=(read,tcheck) s
 table=(opt,rrhf)
 ----------------------------------------------------------------------
 -----
 title
 -----
 Symbolic Z-matrix:
 Charge =  0 Multiplicity = 1

 SCF Done:  E(RHF) =  -227.326419495     A.U. after   13 cycles
 Normal termination of Gaussian 16 at Sun Apr  6 08:13:29 2025.
 Gaussian 16:  ES64L-G16RevC.01  3-Jul-2019

 ----------------------------------------------------------------------
 #t hf aug-cc-pvdz iop(5/13=1,5/36=2,99/5=2) pseudo=read geom=check gue
 ss=(read,tcheck) scf=(maxcycle=1)
 ----------------------------------------------------------------------
 -----
 title
 -----
 Structure from the checkpoint file:  "ethynoxyethyne.chk"
 Charge =  0 Multiplicity = 1

                         Standard orientation:
 ---------------------------------------------------------------------
 Center     Atomic      Atomic             Coordinates (Angstroms)
 Number     Number       Type             X           Y           Z
 ---------------------------------------------------------------------
      1          8           0        0.000001    0.762059   -0.000003
      2          6           0        1.132678    0.087612   -0.000010
      3          6           0       -1.132682    0.087622    0.000031
      4          6           0        2.202434   -0.441297    0.000011
      5          6           0       -2.202430   -0.441306   -0.000042
      6          1           0        3.145026   -0.926136   -0.000026
      7          1           0       -3.145031   -0.926124    0.000107
 ---------------------------------------------------------------------

 SCF Done:  E(RHF) =  -228.313129365     A.U. after    2 cycles

 The electronic state is 1-A.
 Alpha  occ. eigenvalues --  -21.19184 -11.48086 -11.47409 -11.42875 -11.41721
 Alpha  occ. eigenvalues --   -1.88488  -1.12195  -1.07561  -0.84122  -0.73192
 Alpha  occ. eigenvalues --   -0.68966  -0.63117  -0.59878  -0.43063  -0.40100
 Alpha  occ. eigenvalues --   -0.37898  -0.30589
 Alpha virt. eigenvalues --    0.02538   0.04527   0.08426   0.10292   0.10561
 Alpha virt. eigenvalues --    0.11077   0.12277   0.12296   0.13157   0.13291
 Alpha virt. eigenvalues --    0.13606   0.13647   0.16862   0.18665   0.20022

 Mulliken charges:
               1
     1  O   -3.402987
     2  C    3.253936
     3  C    3.253782
     4  C   -2.203447
     5  C   -2.203305
     6  H    0.651013
     7  H    0.651008
 Sum of Mulliken charges =   0.00000

 Dipole moment (field-independent basis, Debye):
    X=             -0.0000    Y=             -0.5083    Z=              0.0002  Tot=              0.5083

 Test job not archived.
 1\1\GINC-SE398\SP\RHF\Aug-CC-pVDZ\C4H2O1\OHZDE\06-Apr-2025\0\\#t hf au
 g-cc-pvdz iop(5/13=1,5/36=2,99/5=2) pseudo=read geom=check guess=(read
 ,tcheck) scf=(maxcycle=1)\\title\\0,1\O,0,0.000001,0.762059,-0.000003\
 C,0,1.132678,0.087612,-0.00001\C,0,-1.132682,0.087622,0.000031\C,0,2.2
 02434,-0.441297,0.000011\C,0,-2.20243,-0.441306,-0.000042\H,0,3.145026
 ,-0.926136,-0.000026\H,0,-3.145031,-0.926124,0.000107\\Version=ES64L-G
 16RevC.01\State=1-A\HF=-228.3131294\RMSD=1.049e+00\Dipole=-0.0000025,-
 0.1999823,0.0000591\Quadrupole=4.9880563,-1.7319725,-3.2560839,-0.0000

 Normal termination of Gaussian 16 at Sun Apr  6 08:13:32 2025.
