 Gaussian 16, Revision C.01,

 ----------------------------------------------------------------------
 #t hf aug-cc-pvdz symm=none int=(grid=ultrafine) guess=(read,tcheck) s
 table=(opt,rrhf)
 ----------------------------------------------------------------------
 -----
 title
 -----
 Symbolic Z-matrix:
 Charge =  0 Multiplicity = 1

 SCF Done:  E(RHF) =  -423.033668129     A.U. after   13 cycles

 1\1\GINC-SE208\Stability\RHF\Aug-CC-pVDZ\C7H14O2\OHZDE\06-Apr-2025\0\\
 #t hf aug-cc-pvdz symm=none int=(grid=ultrafine) guess=(read,tcheck) s
 table=(opt,rrhf)\\title\\0,1\C,0,0.,0.729498,0.\C,0,-2.141505,-3.89140
 2,0.\C,0,2.54932,3.3398,0.\C,0,0.207382,-0.768043,0.\C,0,-0.847268,-3.
 079942,0.\C,0,-1.088975,-1.570401,0.\C,0,1.128138,2.824006,0.\O,0,-1.0
 66056,1.293479,0.\O,0,1.183521,1.378692,0.\H,0,-2.7467,-3.66722,0.8805
 66\H,0,-2.7467,-3.66722,-0.880566\H,0,-1.939443,-4.963233,0.\H,0,2.543
 948,4.430393,0.\H,0,3.089196,3.000657,0.883914\H,0,3.089196,3.000657,-

 Normal termination of Gaussian 16 at Sun Apr  6 08:15:05 2025.
 Gaussian 16:  ES64L-G16RevC.01  3-Jul-2019

 ----------------------------------------------------------------------
 #t hf aug-cc-pvdz iop(5/13=1,5/36=2,99/5=2) pseudo=read geom=check gue
 ss=(read,tcheck) scf=(maxcycle=1)
 ----------------------------------------------------------------------
 -----
 title
 -----
 Structure from the checkpoint file:  "ethyl_pentanoate.chk"
 Charge =  0 Multiplicity = 1

                         Standard orientation:
 ---------------------------------------------------------------------
 Center     Atomic      Atomic             Coordinates (Angstroms)
 Number     Number       Type             X           Y           Z
 ---------------------------------------------------------------------
      1          6           0        0.000000    0.729498    0.000000
      2          6           0       -2.141504   -3.891402    0.000000
      3          6           0        2.549320    3.339800    0.000000
      4          6           0        0.207382   -0.768043    0.000000
      5          6           0       -0.847267   -3.079942    0.000000
      6          6           0       -1.088975   -1.570401    0.000000
      7          6           0        1.128138    2.824006    0.000000
      8          8           0       -1.066056    1.293479    0.000000
      9          8           0        1.183521    1.378692    0.000000
     10          1           0       -2.746699   -3.667220    0.880566
     11          1           0       -2.746699   -3.667220   -0.880566
     12          1           0       -1.939442   -4.963233    0.000000
     13          1           0        2.543948    4.430393    0.000000
     14          1           0        3.089196    3.000657    0.883914
     15          1           0        3.089196    3.000657   -0.883914
     16          1           0        0.822926   -1.014904   -0.869453
     17          1           0        0.822926   -1.014904    0.869453
     18          1           0       -0.247535   -3.351756    0.874139
     19          1           0       -0.247535   -3.351756   -0.874139
     20          1           0       -1.685980   -1.291579    0.871119
     21          1           0       -1.685980   -1.291579   -0.871119
     22          1           0        0.574702    3.151987   -0.879985
     23          1           0        0.574702    3.151987    0.879985
 ---------------------------------------------------------------------

 SCF Done:  E(RHF) =  -425.029264880     A.U. after    2 cycles

 The electronic state is 1-A'.
 Alpha  occ. eigenvalues --  -21.08058 -21.04156 -11.52723 -11.44140 -11.42996
 Alpha  occ. eigenvalues --  -11.41102 -11.37600 -11.37353 -11.34912  -1.83567
 Alpha  occ. eigenvalues --   -1.65512  -1.24909  -1.14729  -1.09225  -0.95804
 Alpha  occ. eigenvalues --   -0.89122  -0.83387  -0.74968  -0.67213  -0.66059
 Alpha  occ. eigenvalues --   -0.64949  -0.59515  -0.59088  -0.57550  -0.53852
 Alpha  occ. eigenvalues --   -0.53214  -0.51005  -0.50736  -0.50074  -0.46453
 Alpha  occ. eigenvalues --   -0.45384  -0.45070  -0.43270  -0.39899  -0.31777
 Alpha  occ. eigenvalues --   -0.28924
 Alpha virt. eigenvalues --    0.03678   0.04710   0.04800   0.05245   0.05575
 Alpha virt. eigenvalues --    0.05598   0.06509   0.06767   0.07186   0.07707
 Alpha virt. eigenvalues --    0.07754   0.07814   0.08879   0.09905   0.10769

 Mulliken charges:
               1
     1  C    7.894212
     2  C   -4.458400
     3  C   -3.695253
     4  C   -4.992529
     5  C   -2.881874
     6  C   -2.131642
     7  C   -2.810250
     8  O   -3.231219
     9  O   -3.608976
    10  H    1.282511
    11  H    1.282511
    12  H    1.065862
    13  H    1.087066
    14  H    1.345779
    15  H    1.345779
    16  H    1.601215
    17  H    1.601215
    18  H    1.407396
    19  H    1.407396
    20  H    1.588147
    21  H    1.588147
    22  H    1.656454
    23  H    1.656454
 Sum of Mulliken charges =   0.00000

 Dipole moment (field-independent basis, Debye):
    X=              1.2660    Y=             -0.0754    Z=              0.0000  Tot=              1.2682

 Test job not archived.
 1\1\GINC-SE208\SP\RHF\Aug-CC-pVDZ\C7H14O2\OHZDE\06-Apr-2025\0\\#t hf a
 ug-cc-pvdz iop(5/13=1,5/36=2,99/5=2) pseudo=read geom=check guess=(rea
 d,tcheck) scf=(maxcycle=1)\\title\\0,1\C,0,0.,0.729498,0.\C,0,-2.14150
 5,-3.891402,0.\C,0,2.54932,3.3398,0.\C,0,0.207382,-0.768043,0.\C,0,-0.
 847268,-3.079942,0.\C,0,-1.088975,-1.570401,0.\C,0,1.128138,2.824006,0
 .\O,0,-1.066056,1.293479,0.\O,0,1.183521,1.378692,0.\H,0,-2.7467,-3.66
 722,0.880566\H,0,-2.7467,-3.66722,-0.880566\H,0,-1.939443,-4.963233,0.
 \H,0,2.543948,4.430393,0.\H,0,3.089196,3.000657,0.883914\H,0,3.089196,

 Normal termination of Gaussian 16 at Sun Apr  6 08:16:01 2025.
