 Gaussian 16, Revision C.01,

 ----------------------------------------------------------------------
 #t hf aug-cc-pvdz symm=none int=(grid=ultrafine) guess=(read,tcheck) s
 table=(opt,rrhf)
 ----------------------------------------------------------------------
 -----
 title
 -----
 Symbolic Z-matrix:
 Charge =  0 Multiplicity = 1

 SCF Done:  E(RHF) =  -740.339577059     A.U. after   14 cycles
 Normal termination of Gaussian 16 at Sun Apr  6 08:14:09 2025.
 Gaussian 16:  ES64L-G16RevC.01  3-Jul-2019

 ----------------------------------------------------------------------
 #t hf aug-cc-pvdz iop(5/13=1,5/36=2,99/5=2) pseudo=read geom=check gue
 ss=(read,tcheck) scf=(maxcycle=1)
 ----------------------------------------------------------------------
 -----
 title
 -----
 Structure from the checkpoint file:  "ethylmethylestersulfurous_acid.chk"
 Charge =  0 Multiplicity = 1

                         Standard orientation:
 ---------------------------------------------------------------------
 Center     Atomic      Atomic             Coordinates (Angstroms)
 Number     Number       Type             X           Y           Z
 ---------------------------------------------------------------------
      1          6           0        3.202611   -0.606388   -0.196480
      2          6           0        2.057940    0.309114    0.175790
      3          8           0        0.826178   -0.417197   -0.065662
      4         16           0       -0.533353    0.384629    0.403904
      5          8           0       -0.730154    1.533535   -0.482721
      6          8           0       -1.448610   -0.871512   -0.158233
      7          6           0       -2.865846   -0.639006   -0.072695
      8          1           0        3.194710   -1.508286    0.414470
      9          1           0        3.137485   -0.896520   -1.244359
     10          1           0        4.150175   -0.089481   -0.039400
     11          1           0        2.057795    1.214467   -0.432283
     12          1           0        2.110019    0.595329    1.230062
     13          1           0       -3.159148    0.196081   -0.707639
     14          1           0       -3.330310   -1.554113   -0.428240
     15          1           0       -3.174611   -0.452460    0.958160
 ---------------------------------------------------------------------

 SCF Done:  E(RHF) =  -742.121180960     A.U. after    2 cycles

 The electronic state is 1-A.
 Alpha  occ. eigenvalues --  -75.86258 -21.08177 -21.07843 -21.04131 -13.42959
 Alpha  occ. eigenvalues --  -13.34456 -13.27831 -11.44885 -11.42297 -11.37618
 Alpha  occ. eigenvalues --   -8.20215  -1.87527  -1.73777  -1.67860  -1.14984
 Alpha  occ. eigenvalues --   -1.03947  -0.93214  -0.87968  -0.66798  -0.66597
 Alpha  occ. eigenvalues --   -0.63323  -0.61227  -0.59488  -0.54839  -0.53137
 Alpha  occ. eigenvalues --   -0.49929  -0.48483  -0.46538  -0.42542  -0.37927
 Alpha  occ. eigenvalues --   -0.34260  -0.33676  -0.26960
 Alpha virt. eigenvalues --    0.03596   0.03868   0.05300   0.05803   0.06119
 Alpha virt. eigenvalues --    0.06703   0.06799   0.07530   0.10117   0.10776
 Alpha virt. eigenvalues --    0.11688   0.13231   0.13568   0.14025   0.15127

 Mulliken charges:
               1
     1  C   -3.785004
     2  C   -1.552315
     3  O   -2.826814
     4  S    5.130728
     5  O   -2.367881
     6  O   -2.730542
     7  C   -2.853793
     8  H    1.295464
     9  H    1.322801
    10  H    1.146271
    11  H    1.568452
    12  H    1.606945
    13  H    1.373922
    14  H    1.301632
    15  H    1.370136
 Sum of Mulliken charges =  -0.00000

 Dipole moment (field-independent basis, Debye):
    X=              0.4980    Y=             -1.5217    Z=              0.7732  Tot=              1.7781

 Test job not archived.
 1\1\GINC-SE013\SP\RHF\Aug-CC-pVDZ\C3H8O3S1\OHZDE\06-Apr-2025\0\\#t hf
 aug-cc-pvdz iop(5/13=1,5/36=2,99/5=2) pseudo=read geom=check guess=(re
 ad,tcheck) scf=(maxcycle=1)\\title\\0,1\C,0,3.202611,-0.606388,-0.1964
 8\C,0,2.05794,0.309114,0.17579\O,0,0.826178,-0.417197,-0.065662\S,0,-0
 .533353,0.384629,0.403904\O,0,-0.730154,1.533535,-0.482721\O,0,-1.4486
 1,-0.871512,-0.158233\C,0,-2.865846,-0.639006,-0.072695\H,0,3.19471,-1
 .508286,0.41447\H,0,3.137485,-0.89652,-1.244359\H,0,4.150175,-0.089481
 ,-0.0394\H,0,2.057795,1.214467,-0.432283\H,0,2.110019,0.595329,1.23006

 Normal termination of Gaussian 16 at Sun Apr  6 08:14:43 2025.
