 Gaussian 16, Revision C.01,

 ----------------------------------------------------------------------
 #t hf aug-cc-pvdz symm=none int=(grid=ultrafine) guess=(read,tcheck) s
 table=(opt,rrhf)
 ----------------------------------------------------------------------
 -----
 title
 -----
 Symbolic Z-matrix:
 Charge =  0 Multiplicity = 1

 SCF Done:  E(RHF) =  -341.237339025     A.U. after   14 cycles
 Normal termination of Gaussian 16 at Sun Apr  6 08:13:37 2025.
 Gaussian 16:  ES64L-G16RevC.01  3-Jul-2019

 ----------------------------------------------------------------------
 #t hf aug-cc-pvdz iop(5/13=1,5/36=2,99/5=2) pseudo=read geom=check gue
 ss=(read,tcheck) scf=(maxcycle=1)
 ----------------------------------------------------------------------
 -----
 title
 -----
 Structure from the checkpoint file:  "ethynoxymethoxyacetylene.chk"
 Charge =  0 Multiplicity = 1

                         Standard orientation:
 ---------------------------------------------------------------------
 Center     Atomic      Atomic             Coordinates (Angstroms)
 Number     Number       Type             X           Y           Z
 ---------------------------------------------------------------------
      1          8           0        1.114134   -0.637896    0.000386
      2          8           0       -1.114134   -0.637904   -0.000379
      3          6           0       -0.000004    0.243836    0.000033
      4          6           0        2.273010   -0.042046    0.000077
      5          6           0       -2.273014   -0.042063   -0.000138
      6          6           0        3.353062    0.474479   -0.000141
      7          6           0       -3.353053    0.474491    0.000162
      8          1           0       -0.000326    0.856536    0.903526
      9          1           0        0.000313    0.856601   -0.903415
     10          1           0        4.314214    0.920528   -0.000423
     11          1           0       -4.314202    0.920549    0.000292
 ---------------------------------------------------------------------

 SCF Done:  E(RHF) =  -342.710685245     A.U. after    2 cycles

 The electronic state is 1-A.
 Alpha  occ. eigenvalues --  -21.14152 -21.14140 -11.50335 -11.47824 -11.46524
 Alpha  occ. eigenvalues --  -11.41343 -11.40863  -1.90636  -1.78152  -1.11215
 Alpha  occ. eigenvalues --   -1.07327  -1.00401  -0.79209  -0.74635  -0.72278
 Alpha  occ. eigenvalues --   -0.69332  -0.65066  -0.57550  -0.53389  -0.51281
 Alpha  occ. eigenvalues --   -0.49207  -0.38497  -0.35453  -0.31520  -0.31365
 Alpha virt. eigenvalues --    0.02750   0.04287   0.05765   0.06374   0.08433
 Alpha virt. eigenvalues --    0.09993   0.10377   0.11269   0.11288   0.11977
 Alpha virt. eigenvalues --    0.12510   0.12558   0.13536   0.14136   0.15070

 Mulliken charges:
               1
     1  O   -3.759468
     2  O   -3.759392
     3  C   -0.130312
     4  C    3.533189
     5  C    3.532800
     6  C   -1.869689
     7  C   -1.869408
     8  H    1.586531
     9  H    1.586523
    10  H    0.574609
    11  H    0.574616
 Sum of Mulliken charges =  -0.00000

 Dipole moment (field-independent basis, Debye):
    X=             -0.0000    Y=              0.8323    Z=             -0.0002  Tot=              0.8323

 Test job not archived.
 1\1\GINC-SE398\SP\RHF\Aug-CC-pVDZ\C5H4O2\OHZDE\06-Apr-2025\0\\#t hf au
 g-cc-pvdz iop(5/13=1,5/36=2,99/5=2) pseudo=read geom=check guess=(read
 ,tcheck) scf=(maxcycle=1)\\title\\0,1\O,0,1.114134,-0.637896,0.000386\
 O,0,-1.114134,-0.637904,-0.000379\C,0,-0.000004,0.243836,0.000033\C,0,
 2.27301,-0.042046,0.000077\C,0,-2.273014,-0.042063,-0.000138\C,0,3.353
 062,0.474479,-0.000141\C,0,-3.353053,0.474491,0.000162\H,0,-0.000326,0
 .856536,0.903526\H,0,0.000313,0.856601,-0.903415\H,0,4.314214,0.920528
 ,-0.000423\H,0,-4.314202,0.920549,0.000292\\Version=ES64L-G16RevC.01\S

 Normal termination of Gaussian 16 at Sun Apr  6 08:13:41 2025.
