 Gaussian 16, Revision C.01,

 ----------------------------------------------------------------------
 #t hf aug-cc-pvdz symm=none int=(grid=ultrafine) guess=(read,tcheck) s
 table=(opt,rrhf)
 ----------------------------------------------------------------------
 -----
 title
 -----
 Symbolic Z-matrix:
 Charge =  0 Multiplicity = 1

 SCF Done:  E(RHF) =  -986.594038711     A.U. after   15 cycles
 Normal termination of Gaussian 16 at Sun Apr  6 08:13:38 2025.
 Gaussian 16:  ES64L-G16RevC.01  3-Jul-2019

 ----------------------------------------------------------------------
 #t hf aug-cc-pvdz iop(5/13=1,5/36=2,99/5=2) pseudo=read geom=check gue
 ss=(read,tcheck) scf=(maxcycle=1)
 ----------------------------------------------------------------------
 -----
 title
 -----
 Structure from the checkpoint file:  "ethynylsulfanylmethylsulfanylethyne.chk"
 Charge =  0 Multiplicity = 1

                         Standard orientation:
 ---------------------------------------------------------------------
 Center     Atomic      Atomic             Coordinates (Angstroms)
 Number     Number       Type             X           Y           Z
 ---------------------------------------------------------------------
      1         16           0       -1.085714    0.117394    0.777209
      2         16           0        1.616055   -1.007193    0.004656
      3          6           0       -0.092200   -0.704472   -0.547441
      4          6           0       -2.551811    0.291449   -0.041856
      5          6           0        2.295903    0.534104   -0.121587
      6          6           0       -3.614199    0.432090   -0.592782
      7          6           0        2.852247    1.598818   -0.193854
      8          1           0       -0.096062   -0.091324   -1.442322
      9          1           0       -0.512041   -1.685333   -0.754731
     10          1           0       -4.551006    0.558816   -1.074999
     11          1           0        3.334006    2.542688   -0.252663
 ---------------------------------------------------------------------

 SCF Done:  E(RHF) =  -987.954656397     A.U. after    2 cycles

 The electronic state is 1-A.
 Alpha  occ. eigenvalues --  -75.73592 -75.72690 -13.21666 -13.19452 -13.15757
 Alpha  occ. eigenvalues --  -13.13616 -13.06845 -13.05768 -11.44959 -11.42983
 Alpha  occ. eigenvalues --  -11.42805 -11.41828 -11.41635  -8.07749  -8.06774
 Alpha  occ. eigenvalues --   -1.31015  -1.20765  -1.08868  -1.04027  -0.94006
 Alpha  occ. eigenvalues --   -0.74546  -0.74327  -0.66011  -0.61129  -0.55590
 Alpha  occ. eigenvalues --   -0.47966  -0.46616  -0.44386  -0.43805  -0.39214
 Alpha  occ. eigenvalues --   -0.35306  -0.24243  -0.23733
 Alpha virt. eigenvalues --    0.02447   0.03424   0.04407   0.06291   0.07090
 Alpha virt. eigenvalues --    0.07510   0.08468   0.10405   0.10700   0.10964
 Alpha virt. eigenvalues --    0.11784   0.11997   0.12595   0.12977   0.14552

 Mulliken charges:
               1
     1  S    1.173682
     2  S    1.049006
     3  C   -3.911433
     4  C    0.769286
     5  C    1.829869
     6  C   -2.421750
     7  C   -3.199307
     8  H    1.614897
     9  H    1.543793
    10  H    0.772358
    11  H    0.779599
 Sum of Mulliken charges =   0.00000

 Dipole moment (field-independent basis, Debye):
    X=              1.0670    Y=             -0.8914    Z=              0.5514  Tot=              1.4957

 Test job not archived.
 1\1\GINC-SE275\SP\RHF\Aug-CC-pVDZ\C5H4S2\OHZDE\06-Apr-2025\0\\#t hf au
 g-cc-pvdz iop(5/13=1,5/36=2,99/5=2) pseudo=read geom=check guess=(read
 ,tcheck) scf=(maxcycle=1)\\title\\0,1\S,0,-1.085714,0.117394,0.777209\
 S,0,1.616055,-1.007193,0.004656\C,0,-0.0922,-0.704472,-0.547441\C,0,-2
 .551811,0.291449,-0.041856\C,0,2.295903,0.534104,-0.121587\C,0,-3.6141
 99,0.43209,-0.592782\C,0,2.852247,1.598818,-0.193854\H,0,-0.096062,-0.
 091324,-1.442322\H,0,-0.512041,-1.685333,-0.754731\H,0,-4.551006,0.558
 816,-1.074999\H,0,3.334006,2.542688,-0.252663\\Version=ES64L-G16RevC.0

 Normal termination of Gaussian 16 at Sun Apr  6 08:13:42 2025.
