 Gaussian 16, Revision C.01,

 ----------------------------------------------------------------------
 #t hf aug-cc-pvdz symm=none int=(grid=ultrafine) guess=(read,tcheck) s
 table=(opt,rrhf)
 ----------------------------------------------------------------------
 -----
 title
 -----
 Symbolic Z-matrix:
 Charge =  0 Multiplicity = 1

 SCF Done:  E(RHF) =  -532.593026438     A.U. after   13 cycles

 1\1\GINC-SE168\Stability\RHF\Aug-CC-pVDZ\C6H10O4\OHZDE\06-Apr-2025\0\\
 #t hf aug-cc-pvdz symm=none int=(grid=ultrafine) guess=(read,tcheck) s
 table=(opt,rrhf)\\title\\0,1\C,0,-0.035271,2.693968,0.165692\C,0,0.035
 271,-2.693968,0.165692\C,0,-0.708324,3.282365,1.375353\C,0,0.708324,-3
 .282365,1.375353\C,0,0.235431,0.714142,-1.108083\C,0,-0.235431,-0.7141
 42,-1.108083\O,0,0.708324,3.280261,-0.579645\O,0,-0.708324,-3.280261,-
 0.579645\O,0,-0.367648,1.393029,0.009128\O,0,0.367648,-1.393029,0.0091
 28\H,0,-0.362315,2.770947,2.273853\H,0,-1.78658,3.138698,1.314018\H,0,

 Normal termination of Gaussian 16 at Sun Apr  6 08:15:04 2025.
 Gaussian 16:  ES64L-G16RevC.01  3-Jul-2019

 ----------------------------------------------------------------------
 #t hf aug-cc-pvdz iop(5/13=1,5/36=2,99/5=2) pseudo=read geom=check gue
 ss=(read,tcheck) scf=(maxcycle=1)
 ----------------------------------------------------------------------
 -----
 title
 -----
 Structure from the checkpoint file:  "ethylene_diacetate.chk"
 Charge =  0 Multiplicity = 1

                         Standard orientation:
 ---------------------------------------------------------------------
 Center     Atomic      Atomic             Coordinates (Angstroms)
 Number     Number       Type             X           Y           Z
 ---------------------------------------------------------------------
      1          6           0       -0.035271    2.693968    0.165692
      2          6           0        0.035271   -2.693968    0.165692
      3          6           0       -0.708324    3.282365    1.375353
      4          6           0        0.708324   -3.282365    1.375353
      5          6           0        0.235431    0.714142   -1.108083
      6          6           0       -0.235431   -0.714142   -1.108083
      7          8           0        0.708324    3.280261   -0.579645
      8          8           0       -0.708324   -3.280261   -0.579645
      9          8           0       -0.367648    1.393029    0.009128
     10          8           0        0.367648   -1.393029    0.009128
     11          1           0       -0.362315    2.770947    2.273853
     12          1           0       -1.786580    3.138698    1.314018
     13          1           0       -0.474667    4.340124    1.441134
     14          1           0        0.362315   -2.770947    2.273853
     15          1           0        1.786580   -3.138698    1.314018
     16          1           0        0.474667   -4.340124    1.441134
     17          1           0       -0.066747    1.203955   -2.034470
     18          1           0        1.320178    0.776496   -1.028180
     19          1           0        0.066747   -1.203955   -2.034470
     20          1           0       -1.320178   -0.776496   -1.028180
 ---------------------------------------------------------------------

 SCF Done:  E(RHF) =  -534.921211213     A.U. after    2 cycles

 The electronic state is 1-A.
 Alpha  occ. eigenvalues --  -21.09254 -21.09249 -21.05135 -21.05130 -11.52619
 Alpha  occ. eigenvalues --  -11.52484 -11.48926 -11.41543 -11.39696 -11.39651
 Alpha  occ. eigenvalues --   -1.86436  -1.82956  -1.66814  -1.65962  -1.16351
 Alpha  occ. eigenvalues --   -1.11532  -1.07419  -0.91413  -0.77971  -0.76585
 Alpha  occ. eigenvalues --   -0.68697  -0.67001  -0.63756  -0.63386  -0.61101
 Alpha  occ. eigenvalues --   -0.60276  -0.59095  -0.58721  -0.53492  -0.52244
 Alpha  occ. eigenvalues --   -0.49218  -0.47852  -0.47526  -0.42718  -0.41561
 Alpha  occ. eigenvalues --   -0.33441  -0.32158  -0.30193  -0.29568
 Alpha virt. eigenvalues --    0.03317   0.04436   0.04502   0.05850   0.05969
 Alpha virt. eigenvalues --    0.05992   0.06448   0.06833   0.07482   0.07568
 Alpha virt. eigenvalues --    0.09568   0.10316   0.12358   0.12783   0.13607

 Mulliken charges:
               1
     1  C    5.676628
     2  C    5.676628
     3  C   -4.651431
     4  C   -4.651431
     5  C   -1.707999
     6  C   -1.707999
     7  O   -3.083604
     8  O   -3.083604
     9  O   -3.245137
    10  O   -3.245137
    11  H    1.290065
    12  H    1.323712
    13  H    1.250651
    14  H    1.290065
    15  H    1.323712
    16  H    1.250651
    17  H    1.467099
    18  H    1.680016
    19  H    1.467099
    20  H    1.680016
 Sum of Mulliken charges =   0.00000

 Dipole moment (field-independent basis, Debye):
    X=             -0.0000    Y=              0.0000    Z=              1.1592  Tot=              1.1592

 Test job not archived.
 1\1\GINC-SE168\SP\RHF\Aug-CC-pVDZ\C6H10O4\OHZDE\06-Apr-2025\0\\#t hf a
 ug-cc-pvdz iop(5/13=1,5/36=2,99/5=2) pseudo=read geom=check guess=(rea
 d,tcheck) scf=(maxcycle=1)\\title\\0,1\C,0,-0.035271,2.693968,0.165692
 \C,0,0.035271,-2.693968,0.165692\C,0,-0.708324,3.282365,1.375353\C,0,0
 .708324,-3.282365,1.375353\C,0,0.235431,0.714142,-1.108083\C,0,-0.2354
 31,-0.714142,-1.108083\O,0,0.708324,3.280261,-0.579645\O,0,-0.708324,-
 3.280261,-0.579645\O,0,-0.367648,1.393029,0.009128\O,0,0.367648,-1.393
 029,0.009128\H,0,-0.362315,2.770947,2.273853\H,0,-1.78658,3.138698,1.3

 Normal termination of Gaussian 16 at Sun Apr  6 08:15:58 2025.
