 Gaussian 16, Revision C.01,

 ----------------------------------------------------------------------
 #t hf aug-cc-pvdz symm=none int=(grid=ultrafine) guess=(read,tcheck) s
 table=(opt,rrhf)
 ----------------------------------------------------------------------
 -----
 title
 -----
 Symbolic Z-matrix:
 Charge =  0 Multiplicity = 1

 SCF Done:  E(RHF) =  -871.895028279     A.U. after   15 cycles
 Normal termination of Gaussian 16 at Sun Apr  6 08:13:26 2025.
 Gaussian 16:  ES64L-G16RevC.01  3-Jul-2019

 ----------------------------------------------------------------------
 #t hf aug-cc-pvdz iop(5/13=1,5/36=2,99/5=2) pseudo=read geom=check gue
 ss=(read,tcheck) scf=(maxcycle=1)
 ----------------------------------------------------------------------
 -----
 title
 -----
 Structure from the checkpoint file:  "ethynyl_hydrodisulfide.chk"
 Charge =  0 Multiplicity = 1

                         Standard orientation:
 ---------------------------------------------------------------------
 Center     Atomic      Atomic             Coordinates (Angstroms)
 Number     Number       Type             X           Y           Z
 ---------------------------------------------------------------------
      1         16           0        0.004284    0.891567    0.012200
      2         16           0       -1.557225   -0.508946   -0.087104
      3          6           0        1.406295   -0.051449   -0.001347
      4          6           0        2.452012   -0.649297   -0.003520
      5          1           0       -1.672295   -0.734996    1.238559
      6          1           0        3.369516   -1.182461   -0.010889
 ---------------------------------------------------------------------

 SCF Done:  E(RHF) =  -872.700410359     A.U. after    2 cycles

 The electronic state is 1-A.
 Alpha  occ. eigenvalues --  -75.75174 -75.73224 -13.21246 -13.16010 -13.13833
 Alpha  occ. eigenvalues --  -13.09656 -13.06785 -13.05344 -11.42868 -11.41781
 Alpha  occ. eigenvalues --   -8.09112  -8.06919  -1.27187  -1.10812  -1.00588
 Alpha  occ. eigenvalues --   -0.74567  -0.58111  -0.52266  -0.46248  -0.43849
 Alpha  occ. eigenvalues --   -0.33827  -0.27913  -0.25299
 Alpha virt. eigenvalues --    0.02259   0.03074   0.05612   0.07346   0.09335
 Alpha virt. eigenvalues --    0.10777   0.11802   0.12598   0.13133   0.14926
 Alpha virt. eigenvalues --    0.15232   0.15945   0.16961   0.17490   0.18785

 Mulliken charges:
               1
     1  S   -0.362467
     2  S   -1.091864
     3  C    1.471184
     4  C   -2.081870
     5  H    1.262390
     6  H    0.802628
 Sum of Mulliken charges =  -0.00000

 Dipole moment (field-independent basis, Debye):
    X=             -0.8389    Y=              0.3980    Z=             -0.8518  Tot=              1.2601

 Test job not archived.
 1\1\GINC-SE412\SP\RHF\Aug-CC-pVDZ\C2H2S2\OHZDE\06-Apr-2025\0\\#t hf au
 g-cc-pvdz iop(5/13=1,5/36=2,99/5=2) pseudo=read geom=check guess=(read
 ,tcheck) scf=(maxcycle=1)\\title\\0,1\S,0,0.004284,0.891567,0.0122\S,0
 ,-1.557225,-0.508946,-0.087104\C,0,1.406295,-0.051449,-0.001347\C,0,2.
 452012,-0.649297,-0.00352\H,0,-1.672295,-0.734996,1.238559\H,0,3.36951
 6,-1.182461,-0.010889\\Version=ES64L-G16RevC.01\State=1-A\HF=-872.7004
 104\RMSD=8.365e-01\Dipole=-0.3300586,0.156578,-0.3351422\Quadrupole=2.
 8931204,0.0937253,-2.9868456,-0.3713193,0.7832636,-0.0160461\PG=C01 [X

 Normal termination of Gaussian 16 at Sun Apr  6 08:13:29 2025.
