 Gaussian 16, Revision C.01,

 ----------------------------------------------------------------------
 #t hf aug-cc-pvdz symm=none int=(grid=ultrafine) guess=(read,tcheck) s
 table=(opt,rrhf)
 ----------------------------------------------------------------------
 -----
 title
 -----
 Symbolic Z-matrix:
 Charge =  0 Multiplicity = 1

 SCF Done:  E(RHF) =  -305.916849755     A.U. after   13 cycles
 Normal termination of Gaussian 16 at Sun Apr  6 08:13:44 2025.
 Gaussian 16:  ES64L-G16RevC.01  3-Jul-2019

 ----------------------------------------------------------------------
 #t hf aug-cc-pvdz iop(5/13=1,5/36=2,99/5=2) pseudo=read geom=check gue
 ss=(read,tcheck) scf=(maxcycle=1)
 ----------------------------------------------------------------------
 -----
 title
 -----
 Structure from the checkpoint file:  "ethylacetate.chk"
 Charge =  0 Multiplicity = 1

                         Standard orientation:
 ---------------------------------------------------------------------
 Center     Atomic      Atomic             Coordinates (Angstroms)
 Number     Number       Type             X           Y           Z
 ---------------------------------------------------------------------
      1          6           0        0.909826   -0.524796    0.000000
      2          6           0        2.312486    0.022275    0.000000
      3          6           0       -2.229581    1.332555    0.000000
      4          6           0       -1.391432    0.074275    0.000000
      5          8           0        0.616627   -1.694503    0.000000
      6          8           0        0.000000    0.471377    0.000000
      7          1           0        2.468339    0.648836    0.878091
      8          1           0        2.468339    0.648836   -0.878091
      9          1           0        3.022001   -0.799004    0.000000
     10          1           0       -3.287649    1.068276    0.000000
     11          1           0       -2.028233    1.937197    0.884062
     12          1           0       -2.028233    1.937197   -0.884062
     13          1           0       -1.577685   -0.541093   -0.880090
     14          1           0       -1.577685   -0.541093    0.880090
 ---------------------------------------------------------------------

 SCF Done:  E(RHF) =  -307.299044002     A.U. after    2 cycles

 The electronic state is 1-A'.
 Alpha  occ. eigenvalues --  -21.08294 -21.04365 -11.51585 -11.44053 -11.39085
 Alpha  occ. eigenvalues --  -11.37251  -1.83704  -1.65597  -1.15526  -1.08755
 Alpha  occ. eigenvalues --   -0.90073  -0.75837  -0.66362  -0.65330  -0.60267
 Alpha  occ. eigenvalues --   -0.59623  -0.56503  -0.52380  -0.51196  -0.48656
 Alpha  occ. eigenvalues --   -0.46409  -0.41108  -0.31954  -0.29119
 Alpha virt. eigenvalues --    0.03507   0.04956   0.05470   0.05864   0.06279
 Alpha virt. eigenvalues --    0.06281   0.07153   0.07683   0.10226   0.11720
 Alpha virt. eigenvalues --    0.12597   0.14360   0.14497   0.14612   0.15309

 Mulliken charges:
               1
     1  C    5.813266
     2  C   -4.599083
     3  C   -3.539537
     4  C   -1.984167
     5  O   -3.063320
     6  O   -3.191449
     7  H    1.287442
     8  H    1.287442
     9  H    1.252917
    10  H    1.105289
    11  H    1.273112
    12  H    1.273112
    13  H    1.542488
    14  H    1.542488
 Sum of Mulliken charges =  -0.00000

 Dipole moment (field-independent basis, Debye):
    X=             -0.3802    Y=              1.4531    Z=             -0.0000  Tot=              1.5020

 Test job not archived.
 1\1\GINC-SE085\SP\RHF\Aug-CC-pVDZ\C4H8O2\OHZDE\06-Apr-2025\0\\#t hf au
 g-cc-pvdz iop(5/13=1,5/36=2,99/5=2) pseudo=read geom=check guess=(read
 ,tcheck) scf=(maxcycle=1)\\title\\0,1\C,0,0.909826,-0.524796,0.\C,0,2.
 312486,0.022275,0.\C,0,-2.229581,1.332555,0.\C,0,-1.391432,0.074275,0.
 \O,0,0.616627,-1.694503,0.\O,0,0.,0.471377,0.\H,0,2.468339,0.648836,0.
 878091\H,0,2.468339,0.648836,-0.878091\H,0,3.022001,-0.799004,0.\H,0,-
 3.287649,1.068275,0.\H,0,-2.028233,1.937197,0.884062\H,0,-2.028233,1.9
 37197,-0.884062\H,0,-1.577685,-0.541093,-0.88009\H,0,-1.577685,-0.5410

 Normal termination of Gaussian 16 at Sun Apr  6 08:13:47 2025.
