 Gaussian 16, Revision C.01,

 ----------------------------------------------------------------------
 #t hf aug-cc-pvdz symm=none int=(grid=ultrafine) guess=(read,tcheck) s
 table=(opt,rrhf)
 ----------------------------------------------------------------------
 -----
 title
 -----
 Symbolic Z-matrix:
 Charge =  0 Multiplicity = 1

 SCF Done:  E(RHF) =  -228.875114248     A.U. after   13 cycles
 Normal termination of Gaussian 16 at Sun Apr  6 08:13:28 2025.
 Gaussian 16:  ES64L-G16RevC.01  3-Jul-2019

 ----------------------------------------------------------------------
 #t hf aug-cc-pvdz iop(5/13=1,5/36=2,99/5=2) pseudo=read geom=check gue
 ss=(read,tcheck) scf=(maxcycle=1)
 ----------------------------------------------------------------------
 -----
 title
 -----
 Structure from the checkpoint file:  "ethylhydroperoxide.chk"
 Charge =  0 Multiplicity = 1

                         Standard orientation:
 ---------------------------------------------------------------------
 Center     Atomic      Atomic             Coordinates (Angstroms)
 Number     Number       Type             X           Y           Z
 ---------------------------------------------------------------------
      1          6           0        0.459938    0.519040    0.021772
      2          8           0       -0.510152   -0.525067   -0.027869
      3          8           0       -1.815721    0.108175   -0.095134
      4          6           0        1.818413   -0.154922    0.004015
      5          1           0        0.327982    1.173442   -0.843321
      6          1           0        0.318113    1.110577    0.931373
      7          1           0       -2.200256   -0.182756    0.742877
      8          1           0        1.942232   -0.811711    0.864757
      9          1           0        2.600069    0.604443    0.037023
     10          1           0        1.948740   -0.743562   -0.903410
 ---------------------------------------------------------------------

 SCF Done:  E(RHF) =  -229.887318267     A.U. after    2 cycles

 The electronic state is 1-A.
 Alpha  occ. eigenvalues --  -21.11214 -21.08892 -11.43051 -11.36789  -1.92945
 Alpha  occ. eigenvalues --   -1.44175  -1.10534  -0.87485  -0.66341  -0.62776
 Alpha  occ. eigenvalues --   -0.58248  -0.54341  -0.50457  -0.49765  -0.41500
 Alpha  occ. eigenvalues --   -0.33986  -0.29105
 Alpha virt. eigenvalues --    0.03928   0.05353   0.05974   0.06252   0.06596
 Alpha virt. eigenvalues --    0.06835   0.12022   0.13298   0.14338   0.15065
 Alpha virt. eigenvalues --    0.16504   0.16553   0.17909   0.18791   0.20233

 Mulliken charges:
               1
     1  C   -1.459796
     2  O   -1.528747
     3  O   -0.929525
     4  C   -3.521156
     5  H    1.462965
     6  H    1.435496
     7  H    0.884822
     8  H    1.238158
     9  H    1.184751
    10  H    1.233032
 Sum of Mulliken charges =  -0.00000

 Dipole moment (field-independent basis, Debye):
    X=              0.4037    Y=              0.3026    Z=              0.6849  Tot=              0.8506

 Test job not archived.
 1\1\GINC-SE011\SP\RHF\Aug-CC-pVDZ\C2H6O2\OHZDE\06-Apr-2025\0\\#t hf au
 g-cc-pvdz iop(5/13=1,5/36=2,99/5=2) pseudo=read geom=check guess=(read
 ,tcheck) scf=(maxcycle=1)\\title\\0,1\C,0,0.459938,0.51904,0.021772\O,
 0,-0.510152,-0.525067,-0.027869\O,0,-1.815721,0.108175,-0.095134\C,0,1
 .818413,-0.154922,0.004015\H,0,0.327982,1.173442,-0.843321\H,0,0.31811
 3,1.110577,0.931373\H,0,-2.200256,-0.182756,0.742877\H,0,1.942232,-0.8
 11711,0.864757\H,0,2.600069,0.604443,0.037023\H,0,1.94874,-0.743562,-0
 .90341\\Version=ES64L-G16RevC.01\State=1-A\HF=-229.8873183\RMSD=1.695e

 Normal termination of Gaussian 16 at Sun Apr  6 08:13:31 2025.
