 Gaussian 16, Revision C.01,

 ----------------------------------------------------------------------
 #t hf aug-cc-pvdz symm=none int=(grid=ultrafine) guess=(read,tcheck) s
 table=(opt,rrhf)
 ----------------------------------------------------------------------
 -----
 title
 -----
 Symbolic Z-matrix:
 Charge =  0 Multiplicity = 1

 SCF Done:  E(RHF) =  -282.748384479     A.U. after   14 cycles
 Normal termination of Gaussian 16 at Sun Apr  6 08:13:29 2025.
 Gaussian 16:  ES64L-G16RevC.01  3-Jul-2019

 ----------------------------------------------------------------------
 #t hf aug-cc-pvdz iop(5/13=1,5/36=2,99/5=2) pseudo=read geom=check gue
 ss=(read,tcheck) scf=(maxcycle=1)
 ----------------------------------------------------------------------
 -----
 title
 -----
 Structure from the checkpoint file:  "ethylnitrite.chk"
 Charge =  0 Multiplicity = 1

                         Standard orientation:
 ---------------------------------------------------------------------
 Center     Atomic      Atomic             Coordinates (Angstroms)
 Number     Number       Type             X           Y           Z
 ---------------------------------------------------------------------
      1          6           0       -0.721786    0.465243    0.000043
      2          8           0        0.102893   -0.724419   -0.000006
      3          6           0       -2.163450    0.006048    0.000234
      4          1           0       -0.479504    1.060827    0.881644
      5          1           0       -0.479710    1.060747   -0.881667
      6          7           0        1.487781   -0.524975   -0.000126
      7          8           0        1.827924    0.603525   -0.000194
      8          1           0       -2.384003   -0.591203   -0.883644
      9          1           0       -2.822542    0.874902    0.000221
     10          1           0       -2.383821   -0.591040    0.884268
 ---------------------------------------------------------------------

 SCF Done:  E(RHF) =  -283.991337284     A.U. after    2 cycles

 The electronic state is 1-A.
 Alpha  occ. eigenvalues --  -21.14392 -21.10166 -15.93015 -11.44808 -11.37905
 Alpha  occ. eigenvalues --   -1.97287  -1.72517  -1.15893  -0.97440  -0.85378
 Alpha  occ. eigenvalues --   -0.68816  -0.67603  -0.62632  -0.58724  -0.55411
 Alpha  occ. eigenvalues --   -0.51307  -0.50816  -0.42694  -0.34298  -0.30100
 Alpha virt. eigenvalues --    0.03661   0.05766   0.05898   0.06180   0.06600
 Alpha virt. eigenvalues --    0.10897   0.12164   0.13446   0.13868   0.14095
 Alpha virt. eigenvalues --    0.15110   0.16332   0.17025   0.17467   0.18365

 Mulliken charges:
               1
     1  C   -1.771216
     2  O   -2.025484
     3  C   -3.465194
     4  H    1.543694
     5  H    1.543684
     6  N    2.306867
     7  O   -1.731073
     8  H    1.234884
     9  H    1.128954
    10  H    1.234883
 Sum of Mulliken charges =  -0.00000

 Dipole moment (field-independent basis, Debye):
    X=             -1.8302    Y=              1.0639    Z=              0.0001  Tot=              2.1170

 Test job not archived.
 1\1\GINC-SE249\SP\RHF\Aug-CC-pVDZ\C2H5N1O2\OHZDE\06-Apr-2025\0\\#t hf
 aug-cc-pvdz iop(5/13=1,5/36=2,99/5=2) pseudo=read geom=check guess=(re
 ad,tcheck) scf=(maxcycle=1)\\title\\0,1\C,0,-0.721786,0.465243,0.00004
 3\O,0,0.102893,-0.724419,-0.000006\C,0,-2.16345,0.006048,0.000234\H,0,
 -0.479504,1.060827,0.881644\H,0,-0.47971,1.060747,-0.881667\N,0,1.4877
 81,-0.524975,-0.000126\O,0,1.827924,0.603525,-0.000194\H,0,-2.384003,-
 0.591203,-0.883644\H,0,-2.822542,0.874902,0.000221\H,0,-2.383821,-0.59
 104,0.884268\\Version=ES64L-G16RevC.01\State=1-A\HF=-283.9913373\RMSD=

 Normal termination of Gaussian 16 at Sun Apr  6 08:13:35 2025.
