 Gaussian 16, Revision C.01,

 ----------------------------------------------------------------------
 #t hf aug-cc-pvdz symm=none int=(grid=ultrafine) guess=(read,tcheck) s
 table=(opt,rrhf)
 ----------------------------------------------------------------------
 -----
 title
 -----
 Symbolic Z-matrix:
 Charge =  0 Multiplicity = 1

 SCF Done:  E(RHF) =  -308.807391111     A.U. after   14 cycles
 Normal termination of Gaussian 16 at Sun Apr  6 08:14:21 2025.
 Gaussian 16:  ES64L-G16RevC.01  3-Jul-2019

 ----------------------------------------------------------------------
 #t hf aug-cc-pvdz iop(5/13=1,5/36=2,99/5=2) pseudo=read geom=check gue
 ss=(read,tcheck) scf=(maxcycle=1)
 ----------------------------------------------------------------------
 -----
 title
 -----
 Structure from the checkpoint file:  "ethylbenzene.chk"
 Charge =  0 Multiplicity = 1

                         Standard orientation:
 ---------------------------------------------------------------------
 Center     Atomic      Atomic             Coordinates (Angstroms)
 Number     Number       Type             X           Y           Z
 ---------------------------------------------------------------------
      1          6           0        0.232915   -2.318566   -0.000000
      2          6           0        0.234056   -1.617939    1.200385
      3          6           0        0.234056   -1.617939   -1.200385
      4          6           0        0.234056   -0.228276    1.197195
      5          6           0        0.234056   -0.228276   -1.197195
      6          6           0        0.231803    0.488886    0.000000
      7          6           0       -1.235575    2.562053   -0.000000
      8          6           0        0.192517    1.998175    0.000000
      9          1           0        0.236268   -3.400335   -0.000000
     10          1           0        0.239777   -2.153732    2.140626
     11          1           0        0.239777   -2.153732   -2.140626
     12          1           0        0.241085    0.308775    2.138169
     13          1           0        0.241085    0.308775   -2.138169
     14          1           0       -1.787127    2.229520   -0.880348
     15          1           0       -1.223850    3.653141   -0.000000
     16          1           0       -1.787127    2.229520    0.880348
     17          1           0        0.726399    2.374684    0.875281
     18          1           0        0.726399    2.374684   -0.875281
 ---------------------------------------------------------------------

 SCF Done:  E(RHF) =  -310.340529955     A.U. after    2 cycles

 The electronic state is 1-A'.
 Alpha  occ. eigenvalues --  -11.51079 -11.43410 -11.42388 -11.40765 -11.39752
 Alpha  occ. eigenvalues --  -11.39702 -11.36523 -11.35143  -1.35172  -1.17927
 Alpha  occ. eigenvalues --   -1.08546  -1.05368  -0.90782  -0.85811  -0.81711
 Alpha  occ. eigenvalues --   -0.70128  -0.64387  -0.62535  -0.58788  -0.57352
 Alpha  occ. eigenvalues --   -0.54544  -0.53067  -0.50619  -0.47879  -0.47080
 Alpha  occ. eigenvalues --   -0.43222  -0.41643  -0.32466  -0.31293
 Alpha virt. eigenvalues --    0.03534   0.04734   0.05220   0.05771   0.06249
 Alpha virt. eigenvalues --    0.06304   0.06572   0.06854   0.07675   0.08225
 Alpha virt. eigenvalues --    0.10656   0.11708   0.12061   0.13070   0.13104

 Mulliken charges:
               1
     1  C   -3.025433
     2  C   -1.599050
     3  C   -1.599050
     4  C   -2.246768
     5  C   -2.246768
     6  C    4.458731
     7  C   -3.781816
     8  C   -4.301859
     9  H    1.521076
    10  H    1.495032
    11  H    1.495032
    12  H    1.749092
    13  H    1.749092
    14  H    1.384260
    15  H    1.157914
    16  H    1.384260
    17  H    1.203128
    18  H    1.203128
 Sum of Mulliken charges =  -0.00000

 Dipole moment (field-independent basis, Debye):
    X=              0.0257    Y=              0.2400    Z=              0.0000  Tot=              0.2414

 Test job not archived.
 1\1\GINC-SE084\SP\RHF\Aug-CC-pVDZ\C8H10\OHZDE\06-Apr-2025\0\\#t hf aug
 -cc-pvdz iop(5/13=1,5/36=2,99/5=2) pseudo=read geom=check guess=(read,
 tcheck) scf=(maxcycle=1)\\title\\0,1\C,0,0.232915,-2.318566,0.\C,0,0.2
 34056,-1.617939,1.200385\C,0,0.234056,-1.617939,-1.200385\C,0,0.234056
 ,-0.228276,1.197195\C,0,0.234056,-0.228276,-1.197195\C,0,0.231803,0.48
 8886,0.\C,0,-1.235575,2.562053,0.\C,0,0.192517,1.998175,0.\H,0,0.23626
 8,-3.400335,0.\H,0,0.239777,-2.153732,2.140626\H,0,0.239777,-2.153732,
 -2.140626\H,0,0.241085,0.308775,2.138169\H,0,0.241085,0.308775,-2.1381

 Normal termination of Gaussian 16 at Sun Apr  6 08:14:43 2025.
