 Gaussian 16, Revision C.01,

 ----------------------------------------------------------------------
 #t hf aug-cc-pvdz symm=none int=(grid=ultrafine) guess=(read,tcheck) s
 table=(opt,rrhf)
 ----------------------------------------------------------------------
 -----
 title
 -----
 Symbolic Z-matrix:
 Charge =  0 Multiplicity = 1

 SCF Done:  E(RHF) =  -622.335421729     A.U. after   16 cycles
 Normal termination of Gaussian 16 at Sun Apr  6 08:13:35 2025.
 Gaussian 16:  ES64L-G16RevC.01  3-Jul-2019

 ----------------------------------------------------------------------
 #t hf aug-cc-pvdz iop(5/13=1,5/36=2,99/5=2) pseudo=read geom=check gue
 ss=(read,tcheck) scf=(maxcycle=1)
 ----------------------------------------------------------------------
 -----
 title
 -----
 Structure from the checkpoint file:  "ethynylthiourea.chk"
 Charge =  0 Multiplicity = 1

                         Standard orientation:
 ---------------------------------------------------------------------
 Center     Atomic      Atomic             Coordinates (Angstroms)
 Number     Number       Type             X           Y           Z
 ---------------------------------------------------------------------
      1         16           0       -2.081317   -0.343098    0.000000
      2          7           0        0.542113   -0.729566    0.000018
      3          7           0       -0.127051    1.471695   -0.000093
      4          6           0       -0.501303    0.182134   -0.000006
      5          6           0        1.846197   -0.419257   -0.000003
      6          6           0        3.006498   -0.108367    0.000000
      7          1           0        0.254221   -1.695995    0.000037
      8          1           0        0.842627    1.744288    0.000376
      9          1           0       -0.845401    2.171629    0.000218
     10          1           0        4.035849    0.147679   -0.000061
 ---------------------------------------------------------------------

 SCF Done:  E(RHF) =  -623.593017489     A.U. after    2 cycles

 The electronic state is 1-A.
 Alpha  occ. eigenvalues --  -75.63393 -15.82677 -15.80973 -13.12277 -12.98366
 Alpha  occ. eigenvalues --  -12.94451 -11.52122 -11.46987 -11.42937  -7.97567
 Alpha  occ. eigenvalues --   -1.53254  -1.35067  -1.13984  -1.06724  -0.88275
 Alpha  occ. eigenvalues --   -0.81231  -0.74937  -0.70077  -0.64426  -0.61123
 Alpha  occ. eigenvalues --   -0.47647  -0.47329  -0.41629  -0.34905  -0.24183
 Alpha  occ. eigenvalues --   -0.22739
 Alpha virt. eigenvalues --    0.02177   0.04499   0.05351   0.06577   0.08185
 Alpha virt. eigenvalues --    0.09739   0.10409   0.11568   0.11710   0.12144
 Alpha virt. eigenvalues --    0.12559   0.13457   0.15277   0.15403   0.16899

 Mulliken charges:
               1
     1  S    1.380030
     2  N   -3.041023
     3  N   -2.904143
     4  C    0.731831
     5  C    2.687142
     6  C   -2.044286
     7  H    0.819997
     8  H    0.860403
     9  H    0.732289
    10  H    0.777760
 Sum of Mulliken charges =   0.00000

 Dipole moment (field-independent basis, Debye):
    X=              1.5935    Y=              1.0073    Z=              0.0008  Tot=              1.8852

 Test job not archived.
 1\1\GINC-SE276\SP\RHF\Aug-CC-pVDZ\C3H4N2S1\OHZDE\06-Apr-2025\0\\#t hf
 aug-cc-pvdz iop(5/13=1,5/36=2,99/5=2) pseudo=read geom=check guess=(re
 ad,tcheck) scf=(maxcycle=1)\\title\\0,1\S,0,-2.081317,-0.343098,0.\N,0
 ,0.542113,-0.729566,0.000018\N,0,-0.127051,1.471695,-0.000093\C,0,-0.5
 01303,0.182134,-0.000006\C,0,1.846197,-0.419257,-0.000003\C,0,3.006498
 ,-0.108367,0.\H,0,0.254221,-1.695995,0.000037\H,0,0.842627,1.744288,0.
 000376\H,0,-0.845401,2.171629,0.000218\H,0,4.035849,0.147679,-0.000061
 \\Version=ES64L-G16RevC.01\State=1-A\HF=-623.5930175\RMSD=6.030e-01\Di

 Normal termination of Gaussian 16 at Sun Apr  6 08:13:38 2025.
