 Gaussian 16, Revision C.01,

 ----------------------------------------------------------------------
 #t hf aug-cc-pvdz symm=none int=(grid=ultrafine) guess=(read,tcheck) s
 table=(opt,rrhf)
 ----------------------------------------------------------------------
 -----
 title
 -----
 Symbolic Z-matrix:
 Charge =  0 Multiplicity = 1

 SCF Done:  E(RHF) =  -189.307336118     A.U. after   11 cycles
 Normal termination of Gaussian 16 at Sun Apr  6 08:13:31 2025.
 Gaussian 16:  ES64L-G16RevC.01  3-Jul-2019

 ----------------------------------------------------------------------
 #t hf aug-cc-pvdz iop(5/13=1,5/36=2,99/5=2) pseudo=read geom=check gue
 ss=(read,tcheck) scf=(maxcycle=1)
 ----------------------------------------------------------------------
 -----
 title
 -----
 Structure from the checkpoint file:  "ethylenediamine.chk"
 Charge =  0 Multiplicity = 1

                         Standard orientation:
 ---------------------------------------------------------------------
 Center     Atomic      Atomic             Coordinates (Angstroms)
 Number     Number       Type             X           Y           Z
 ---------------------------------------------------------------------
      1          6           0        0.397467    0.657442    0.000000
      2          6           0       -0.397467   -0.657442    0.000000
      3          7           0       -0.397467    1.884333    0.000000
      4          7           0        0.397467   -1.884333    0.000000
      5          1           0        0.996875   -1.932923    0.815009
      6          1           0        0.996875   -1.932923   -0.815009
      7          1           0       -0.996875    1.932923    0.815009
      8          1           0       -0.996875    1.932923   -0.815009
      9          1           0       -1.053507   -0.679296    0.874859
     10          1           0       -1.053507   -0.679296   -0.874859
     11          1           0        1.053507    0.679296    0.874859
     12          1           0        1.053507    0.679296   -0.874859
 ---------------------------------------------------------------------

 SCF Done:  E(RHF) =  -190.244304585     A.U. after    2 cycles

 The electronic state is 1-AG.
 Alpha  occ. eigenvalues --  -15.72893 -15.72822 -11.42238 -11.36643  -1.36773
 Alpha  occ. eigenvalues --   -1.27988  -1.01277  -0.86683  -0.69407  -0.64109
 Alpha  occ. eigenvalues --   -0.57979  -0.57751  -0.53814  -0.49384  -0.47223
 Alpha  occ. eigenvalues --   -0.39461  -0.30781
 Alpha virt. eigenvalues --    0.04147   0.05053   0.05670   0.06187   0.06447
 Alpha virt. eigenvalues --    0.06449   0.06725   0.10292   0.10681   0.13080
 Alpha virt. eigenvalues --    0.14370   0.15214   0.16071   0.18305   0.18384

 Mulliken charges:
               1
     1  C   -1.586269
     2  C   -1.586269
     3  N   -2.267199
     4  N   -2.267199
     5  H    0.565902
     6  H    0.565902
     7  H    0.565902
     8  H    0.565902
     9  H    1.360832
    10  H    1.360832
    11  H    1.360832
    12  H    1.360832
 Sum of Mulliken charges =  -0.00000

 Dipole moment (field-independent basis, Debye):
    X=              0.0000    Y=             -0.0000    Z=             -0.0000  Tot=              0.0000

 Test job not archived.
 1\1\GINC-SE168\SP\RHF\Aug-CC-pVDZ\C2H8N2\OHZDE\06-Apr-2025\0\\#t hf au
 g-cc-pvdz iop(5/13=1,5/36=2,99/5=2) pseudo=read geom=check guess=(read
 ,tcheck) scf=(maxcycle=1)\\title\\0,1\C,0,0.397467,0.657442,0.\C,0,-0.
 397467,-0.657442,0.\N,0,-0.397467,1.884333,0.\N,0,0.397467,-1.884333,0
 .\H,0,0.996875,-1.932923,0.815009\H,0,0.996875,-1.932923,-0.815009\H,0
 ,-0.996875,1.932923,0.815009\H,0,-0.996875,1.932923,-0.815009\H,0,-1.0
 53507,-0.679296,0.874859\H,0,-1.053507,-0.679296,-0.874859\H,0,1.05350
 7,0.679296,0.874859\H,0,1.053507,0.679296,-0.874859\\Version=ES64L-G16

 Normal termination of Gaussian 16 at Sun Apr  6 08:13:35 2025.
