 Gaussian 16, Revision C.01,

 ----------------------------------------------------------------------
 #t hf aug-cc-pvdz symm=none int=(grid=ultrafine) guess=(read,tcheck) s
 table=(opt,rrhf)
 ----------------------------------------------------------------------
 -----
 title
 -----
 Symbolic Z-matrix:
 Charge =  0 Multiplicity = 1

 SCF Done:  E(RHF) =  -725.784140155     A.U. after   13 cycles
 Normal termination of Gaussian 16 at Sun Apr  6 08:13:35 2025.
 Gaussian 16:  ES64L-G16RevC.01  3-Jul-2019

 ----------------------------------------------------------------------
 #t hf aug-cc-pvdz iop(5/13=1,5/36=2,99/5=2) pseudo=read geom=check gue
 ss=(read,tcheck) scf=(maxcycle=1)
 ----------------------------------------------------------------------
 -----
 title
 -----
 Structure from the checkpoint file:  "ethylestercarbonochloridic_acid.chk"
 Charge =  0 Multiplicity = 1

                         Standard orientation:
 ---------------------------------------------------------------------
 Center     Atomic      Atomic             Coordinates (Angstroms)
 Number     Number       Type             X           Y           Z
 ---------------------------------------------------------------------
      1          8           0        0.000000    0.875253    0.000000
      2          1           0       -1.597409   -0.112403    0.885605
      3          1           0       -1.597409   -0.112403   -0.885605
      4          6           0       -1.403897    0.489442    0.000000
      5          1           0       -1.992692    2.365984    0.884747
      6          1           0       -3.270428    1.523039    0.000000
      7          1           0       -1.992692    2.365984   -0.884747
      8          6           0       -2.208098    1.768537    0.000000
      9          8           0        2.148853    0.326496    0.000000
     10         17           0        0.523259   -1.724654    0.000000
     11          6           0        1.006061    0.021175    0.000000
 ---------------------------------------------------------------------

 SCF Done:  E(RHF) =  -727.194396361     A.U. after    2 cycles

 The electronic state is 1-A'.
 Alpha  occ. eigenvalues --  -99.91441 -21.12376 -21.08369 -11.57505 -11.47135
 Alpha  occ. eigenvalues --  -11.39298 -10.48764  -9.68591  -9.68050  -9.67791
 Alpha  occ. eigenvalues --   -1.87470  -1.70562  -1.32742  -1.16329  -0.93538
 Alpha  occ. eigenvalues --   -0.83519  -0.70568  -0.69128  -0.62847  -0.61271
 Alpha  occ. eigenvalues --   -0.57073  -0.53373  -0.52453  -0.51200  -0.49961
 Alpha  occ. eigenvalues --   -0.44246  -0.35320  -0.34231
 Alpha virt. eigenvalues --    0.02927   0.05189   0.05546   0.05863   0.06167
 Alpha virt. eigenvalues --    0.07394   0.08953   0.10699   0.11908   0.12036
 Alpha virt. eigenvalues --    0.13528   0.13822   0.14065   0.14555   0.16685

 Mulliken charges:
               1
     1  O   -2.566857
     2  H    1.599281
     3  H    1.599281
     4  C   -2.083408
     5  H    1.267247
     6  H    1.136891
     7  H    1.267247
     8  C   -3.286868
     9  O   -2.414392
    10  Cl  -0.145459
    11  C    3.627037
 Sum of Mulliken charges =  -0.00000

 Dipole moment (field-independent basis, Debye):
    X=             -2.2887    Y=              2.2094    Z=              0.0000  Tot=              3.1811

 Test job not archived.
 1\1\GINC-SE009\SP\RHF\Aug-CC-pVDZ\C3H5Cl1O2\OHZDE\06-Apr-2025\0\\#t hf
  aug-cc-pvdz iop(5/13=1,5/36=2,99/5=2) pseudo=read geom=check guess=(r
 ead,tcheck) scf=(maxcycle=1)\\title\\0,1\O,0,0.,0.875253,0.\H,0,-1.597
 409,-0.112403,0.885605\H,0,-1.597409,-0.112403,-0.885605\C,0,-1.403897
 ,0.489442,0.\H,0,-1.992692,2.365984,0.884747\H,0,-3.270428,1.523039,0.
 \H,0,-1.992692,2.365984,-0.884747\C,0,-2.208098,1.768537,0.\O,0,2.1488
 53,0.326496,0.\Cl,0,0.523259,-1.724654,0.\C,0,1.006061,0.021175,0.\\Ve
 rsion=ES64L-G16RevC.01\State=1-A'\HF=-727.1943964\RMSD=1.924e-01\Dipol

 Normal termination of Gaussian 16 at Sun Apr  6 08:13:39 2025.
