 Gaussian 16, Revision C.01,

 ----------------------------------------------------------------------
 #t hf aug-cc-pvdz symm=none int=(grid=ultrafine) guess=(read,tcheck) s
 table=(opt,rrhf)
 ----------------------------------------------------------------------
 -----
 title
 -----
 Symbolic Z-matrix:
 Charge =  0 Multiplicity = 1

 SCF Done:  E(RHF) =  -234.191498014     A.U. after   12 cycles
 Normal termination of Gaussian 16 at Sun Apr  6 08:14:00 2025.
 Gaussian 16:  ES64L-G16RevC.01  3-Jul-2019

 ----------------------------------------------------------------------
 #t hf aug-cc-pvdz iop(5/13=1,5/36=2,99/5=2) pseudo=read geom=check gue
 ss=(read,tcheck) scf=(maxcycle=1)
 ----------------------------------------------------------------------
 -----
 title
 -----
 Structure from the checkpoint file:  "ethylcyclobutane.chk"
 Charge =  0 Multiplicity = 1

                         Standard orientation:
 ---------------------------------------------------------------------
 Center     Atomic      Atomic             Coordinates (Angstroms)
 Number     Number       Type             X           Y           Z
 ---------------------------------------------------------------------
      1          6           0        2.426570    0.268454   -0.038318
      2          1           0        2.760369    0.116017    0.990136
      3          1           0        3.253108    0.001930   -0.698500
      4          1           0        2.233139    1.334903   -0.166770
      5          6           0        1.182111   -0.565869   -0.339346
      6          1           0        1.417681   -1.627286   -0.214177
      7          1           0        0.901208   -0.440117   -1.390298
      8          6           0       -1.860514    0.318742   -0.486059
      9          1           0       -2.881941    0.608681   -0.244065
     10          1           0       -1.761084    0.301163   -1.570736
     11          6           0       -0.724980    1.118216    0.203651
     12          1           0       -1.069190    1.647720    1.091661
     13          1           0       -0.170207    1.821261   -0.418230
     14          6           0       -0.010079   -0.222816    0.548294
     15          1           0        0.287769   -0.318234    1.594712
     16          6           0       -1.322720   -0.972916    0.181963
     17          1           0       -1.213766   -1.850521   -0.456380
     18          1           0       -1.899417   -1.258384    1.061532
 ---------------------------------------------------------------------

 SCF Done:  E(RHF) =  -235.414717763     A.U. after    2 cycles

 The electronic state is 1-A.
 Alpha  occ. eigenvalues --  -11.48544 -11.40778 -11.38306 -11.37904 -11.35276
 Alpha  occ. eigenvalues --  -11.32878  -1.33229  -1.13644  -0.95687  -0.94631
 Alpha  occ. eigenvalues --   -0.85785  -0.75841  -0.66883  -0.63964  -0.60037
 Alpha  occ. eigenvalues --   -0.55964  -0.53434  -0.51057  -0.48961  -0.47552
 Alpha  occ. eigenvalues --   -0.43687  -0.41165  -0.38597  -0.37605
 Alpha virt. eigenvalues --    0.04363   0.05228   0.05298   0.05733   0.05828
 Alpha virt. eigenvalues --    0.05925   0.06250   0.06544   0.06602   0.08717
 Alpha virt. eigenvalues --    0.08848   0.09405   0.12529   0.12956   0.13825

 Mulliken charges:
               1
     1  C   -3.919534
     2  H    1.254853
     3  H    1.084114
     4  H    1.369267
     5  C   -3.453072
     6  H    1.399538
     7  H    1.465116
     8  C   -2.340350
     9  H    1.252051
    10  H    1.379353
    11  C   -3.276850
    12  H    1.345178
    13  H    1.496440
    14  C    0.090845
    15  H    1.535305
    16  C   -3.407674
    17  H    1.433465
    18  H    1.291955
 Sum of Mulliken charges =   0.00000

 Dipole moment (field-independent basis, Debye):
    X=              0.0134    Y=             -0.0779    Z=              0.0618  Tot=              0.1004

 Test job not archived.
 1\1\GINC-SE170\SP\RHF\Aug-CC-pVDZ\C6H12\OHZDE\06-Apr-2025\0\\#t hf aug
 -cc-pvdz iop(5/13=1,5/36=2,99/5=2) pseudo=read geom=check guess=(read,
 tcheck) scf=(maxcycle=1)\\title\\0,1\C,0,2.42657,0.268454,-0.038318\H,
 0,2.760369,0.116017,0.990136\H,0,3.253108,0.00193,-0.6985\H,0,2.233139
 ,1.334903,-0.16677\C,0,1.182111,-0.565869,-0.339346\H,0,1.417681,-1.62
 7286,-0.214177\H,0,0.901208,-0.440117,-1.390298\C,0,-1.860514,0.318742
 ,-0.486059\H,0,-2.881941,0.608681,-0.244065\H,0,-1.761084,0.301163,-1.
 570736\C,0,-0.72498,1.118216,0.203651\H,0,-1.06919,1.64772,1.091661\H,

 Normal termination of Gaussian 16 at Sun Apr  6 08:14:44 2025.
