 Gaussian 16, Revision C.01,

 ----------------------------------------------------------------------
 #t hf aug-cc-pvdz symm=none int=(grid=ultrafine) guess=(read,tcheck) s
 table=(opt,rrhf)
 ----------------------------------------------------------------------
 -----
 title
 -----
 Symbolic Z-matrix:
 Charge =  0 Multiplicity = 1

 SCF Done:  E(RHF) =  -206.709134736     A.U. after   12 cycles
 Normal termination of Gaussian 16 at Sun Apr  6 08:13:28 2025.
 Gaussian 16:  ES64L-G16RevC.01  3-Jul-2019

 ----------------------------------------------------------------------
 #t hf aug-cc-pvdz iop(5/13=1,5/36=2,99/5=2) pseudo=read geom=check gue
 ss=(read,tcheck) scf=(maxcycle=1)
 ----------------------------------------------------------------------
 -----
 title
 -----
 Structure from the checkpoint file:  "ethylidyneazane_oxide.chk"
 Charge =  0 Multiplicity = 1

                         Standard orientation:
 ---------------------------------------------------------------------
 Center     Atomic      Atomic             Coordinates (Angstroms)
 Number     Number       Type             X           Y           Z
 ---------------------------------------------------------------------
      1          8           0       -1.941721    0.000054   -0.000024
      2          7           0       -0.729470   -0.000047    0.000008
      3          6           0        1.881444    0.000042   -0.000025
      4          6           0        0.425458   -0.000109    0.000075
      5          1           0        2.266021    1.018563   -0.064600
      6          1           0        2.266367   -0.453230    0.914221
      7          1           0        2.266253   -0.565029   -0.849781
 ---------------------------------------------------------------------

 SCF Done:  E(RHF) =  -207.647683487     A.U. after    2 cycles

 The electronic state is 1-A.
 Alpha  occ. eigenvalues --  -21.05516 -15.90885 -11.49275 -11.45958  -1.81898
 Alpha  occ. eigenvalues --   -1.29872  -1.12253  -0.70382  -0.65125  -0.65124
 Alpha  occ. eigenvalues --   -0.60609  -0.57236  -0.57236  -0.28641  -0.28641
 Alpha virt. eigenvalues --    0.01663   0.05492   0.05492   0.07374   0.10776
 Alpha virt. eigenvalues --    0.10776   0.11580   0.12415   0.14602   0.14603
 Alpha virt. eigenvalues --    0.18075   0.20816   0.22531   0.22531   0.26364

 Mulliken charges:
               1
     1  O   -3.191108
     2  N    1.149062
     3  C   -3.292271
     4  C    2.099240
     5  H    1.078263
     6  H    1.078439
     7  H    1.078374
 Sum of Mulliken charges =  -0.00000

 Dipole moment (field-independent basis, Debye):
    X=              2.4419    Y=              0.0003    Z=             -0.0002  Tot=              2.4419

 Test job not archived.
 1\1\GINC-SE012\SP\RHF\Aug-CC-pVDZ\C2H3N1O1\OHZDE\06-Apr-2025\0\\#t hf
 aug-cc-pvdz iop(5/13=1,5/36=2,99/5=2) pseudo=read geom=check guess=(re
 ad,tcheck) scf=(maxcycle=1)\\title\\0,1\O,0,-0.000024,0.000054,1.94172
 1\N,0,0.000008,-0.000047,0.72947\C,0,-0.000025,0.000042,-1.881444\C,0,
 0.000075,-0.000109,-0.425458\H,0,-0.0632,1.018651,-2.266021\H,0,0.9135
 97,-0.454486,-2.266367\H,0,-0.850557,-0.563861,-2.266253\\Version=ES64
 L-G16RevC.01\State=1-A\HF=-207.6476835\RMSD=4.107e-01\Dipole=-0.000065
 2,0.000104,-0.960736\Quadrupole=-0.3812632,-0.3811923,0.7624556,-0.000

 Normal termination of Gaussian 16 at Sun Apr  6 08:13:31 2025.
