 Gaussian 16, Revision C.01,

 ----------------------------------------------------------------------
 #t hf aug-cc-pvdz symm=none int=(grid=ultrafine) guess=(read,tcheck) s
 table=(opt,rrhf)
 ----------------------------------------------------------------------
 -----
 title
 -----
 Symbolic Z-matrix:
 Charge =  0 Multiplicity = 1

 SCF Done:  E(RHF) =  -186.865977751     A.U. after   14 cycles
 Normal termination of Gaussian 16 at Sun Apr  6 08:13:27 2025.
 Gaussian 16:  ES64L-G16RevC.01  3-Jul-2019

 ----------------------------------------------------------------------
 #t hf aug-cc-pvdz iop(5/13=1,5/36=2,99/5=2) pseudo=read geom=check gue
 ss=(read,tcheck) scf=(maxcycle=1)
 ----------------------------------------------------------------------
 -----
 title
 -----
 Structure from the checkpoint file:  "ethynylhydrazine.chk"
 Charge =  0 Multiplicity = 1

                         Standard orientation:
 ---------------------------------------------------------------------
 Center     Atomic      Atomic             Coordinates (Angstroms)
 Number     Number       Type             X           Y           Z
 ---------------------------------------------------------------------
      1          7           0        0.512308    0.546801   -0.071754
      2          7           0        1.510698   -0.467956   -0.034828
      3          6           0       -0.763301    0.125139   -0.013554
      4          6           0       -1.913127   -0.223847    0.004210
      5          1           0        0.705929    1.370690    0.481900
      6          1           0        1.827585   -0.633181    0.915230
      7          1           0        2.290894   -0.164761   -0.602259
      8          1           0       -2.926878   -0.532418    0.007263
 ---------------------------------------------------------------------

 SCF Done:  E(RHF) =  -187.737175918     A.U. after    2 cycles

 The electronic state is 1-A.
 Alpha  occ. eigenvalues --  -15.78840 -15.77423 -11.42141 -11.38098  -1.49520
 Alpha  occ. eigenvalues --   -1.17562  -1.02442  -0.76281  -0.69494  -0.68039
 Alpha  occ. eigenvalues --   -0.63057  -0.48140  -0.40071  -0.36989  -0.30056
 Alpha virt. eigenvalues --    0.03251   0.04965   0.05720   0.06056   0.11428
 Alpha virt. eigenvalues --    0.12413   0.13308   0.13862   0.15009   0.16225
 Alpha virt. eigenvalues --    0.16624   0.17006   0.17834   0.18320   0.20366

 Mulliken charges:
               1
     1  N   -2.008661
     2  N   -1.641430
     3  C    1.734705
     4  C   -0.904502
     5  H    0.769348
     6  H    0.595679
     7  H    0.693511
     8  H    0.761349
 Sum of Mulliken charges =   0.00000

 Dipole moment (field-independent basis, Debye):
    X=              1.8876    Y=              0.8760    Z=              1.0750  Tot=              2.3422

 Test job not archived.
 1\1\GINC-SE275\SP\RHF\Aug-CC-pVDZ\C2H4N2\OHZDE\06-Apr-2025\0\\#t hf au
 g-cc-pvdz iop(5/13=1,5/36=2,99/5=2) pseudo=read geom=check guess=(read
 ,tcheck) scf=(maxcycle=1)\\title\\0,1\N,0,0.512308,0.546801,-0.071754\
 N,0,1.510698,-0.467956,-0.034828\C,0,-0.763301,0.125139,-0.013554\C,0,
 -1.913127,-0.223847,0.00421\H,0,0.705929,1.37069,0.4819\H,0,1.827585,-
 0.633181,0.91523\H,0,2.290894,-0.164761,-0.602259\H,0,-2.926878,-0.532
 418,0.007263\\Version=ES64L-G16RevC.01\State=1-A\HF=-187.7371759\RMSD=
 5.455e-01\Dipole=0.7426265,0.3446435,0.4229484\Quadrupole=3.7480027,-1

 Normal termination of Gaussian 16 at Sun Apr  6 08:13:29 2025.
