 Gaussian 16, Revision C.01,

 ----------------------------------------------------------------------
 #t hf aug-cc-pvdz symm=none int=(grid=ultrafine) guess=(read,tcheck) s
 table=(opt,rrhf)
 ----------------------------------------------------------------------
 -----
 title
 -----
 Symbolic Z-matrix:
 Charge =  0 Multiplicity = 1

 SCF Done:  E(RHF) =  -76.8286872110     A.U. after    9 cycles
 Normal termination of Gaussian 16 at Sun Apr  6 08:13:25 2025.
 Gaussian 16:  ES64L-G16RevC.01  3-Jul-2019

 ----------------------------------------------------------------------
 #t hf aug-cc-pvdz iop(5/13=1,5/36=2,99/5=2) pseudo=read geom=check gue
 ss=(read,tcheck) scf=(maxcycle=1)
 ----------------------------------------------------------------------
 -----
 title
 -----
 Structure from the checkpoint file:  "ethyne.chk"
 Charge =  0 Multiplicity = 1

                         Standard orientation:
 ---------------------------------------------------------------------
 Center     Atomic      Atomic             Coordinates (Angstroms)
 Number     Number       Type             X           Y           Z
 ---------------------------------------------------------------------
      1          6           0        0.000000    0.000000    0.598150
      2          6           0        0.000000    0.000000   -0.598150
      3          1           0        0.000000    0.000000    1.659779
      4          1           0        0.000000    0.000000   -1.659779
 ---------------------------------------------------------------------

 SCF Done:  E(RHF) =  -77.2000561953     A.U. after    2 cycles

 The electronic state is 1-SGG.
 Alpha  occ. eigenvalues --  -11.41239 -11.41165  -1.09819  -0.78839  -0.66081
 Alpha  occ. eigenvalues --   -0.39001  -0.39001
 Alpha virt. eigenvalues --    0.03301   0.04819   0.10811   0.10811   0.12575
 Alpha virt. eigenvalues --    0.14093   0.14414   0.14414   0.15526   0.25128
 Alpha virt. eigenvalues --    0.25128   0.25332   0.34372   0.36524   0.38474

 Mulliken charges:
               1
     1  C   -0.586228
     2  C   -0.586228
     3  H    0.586228
     4  H    0.586228
 Sum of Mulliken charges =   0.00000

 Dipole moment (field-independent basis, Debye):
    X=             -0.0000    Y=             -0.0000    Z=              0.0000  Tot=              0.0000

 Test job not archived.
 1\1\GINC-SE344\SP\RHF\Aug-CC-pVDZ\C2H2\OHZDE\06-Apr-2025\0\\#t hf aug-
 cc-pvdz iop(5/13=1,5/36=2,99/5=2) pseudo=read geom=check guess=(read,t
 check) scf=(maxcycle=1)\\title\\0,1\C,0,0.,0.,0.59815\C,0,0.,0.,-0.598
 15\H,0,0.,0.,1.659779\H,0,0.,0.,-1.659779\\Version=ES64L-G16RevC.01\St
 ate=1-SGG\HF=-77.2000562\RMSD=1.372e+00\Dipole=0.,0.,0.\Quadrupole=-1.
 8048877,-1.8048877,3.6097754,0.,0.,0.\PG=D*H [C*(H1C1.C1H1)]\\@

 Normal termination of Gaussian 16 at Sun Apr  6 08:13:28 2025.
