 Gaussian 16, Revision C.01,

 ----------------------------------------------------------------------
 #t hf aug-cc-pvdz symm=none int=(grid=ultrafine) guess=(read,tcheck) s
 table=(opt,rrhf)
 ----------------------------------------------------------------------
 -----
 title
 -----
 Symbolic Z-matrix:
 Charge =  0 Multiplicity = 1

 SCF Done:  E(RHF) =  -593.882683852     A.U. after   12 cycles

 1\1\GINC-SE422\Stability\RHF\Aug-CC-pVDZ\C5H12S1\OHZDE\06-Apr-2025\0\\
 #t hf aug-cc-pvdz symm=none int=(grid=ultrafine) guess=(read,tcheck) s
 table=(opt,rrhf)\\title\\0,1\C,0,2.375076,2.291871,0.\H,0,3.465991,2.2
 77864,0.\H,0,2.044631,2.840367,0.882327\H,0,2.044631,2.840367,-0.88232
 7\C,0,1.831458,0.869153,0.\H,0,2.172537,0.327306,-0.883073\H,0,2.17253
 7,0.327306,0.883073\S,0,0.,0.889482,0.\C,0,-0.338622,-0.909728,0.\H,0,
 0.126062,-1.351508,-0.883539\H,0,0.126062,-1.351508,0.883539\C,0,-1.84
 0977,-1.176175,0.\H,0,-2.290661,-0.701679,0.875094\H,0,-2.290661,-0.70

 Normal termination of Gaussian 16 at Sun Apr  6 08:13:59 2025.
 Gaussian 16:  ES64L-G16RevC.01  3-Jul-2019

 ----------------------------------------------------------------------
 #t hf aug-cc-pvdz iop(5/13=1,5/36=2,99/5=2) pseudo=read geom=check gue
 ss=(read,tcheck) scf=(maxcycle=1)
 ----------------------------------------------------------------------
 -----
 title
 -----
 Structure from the checkpoint file:  "ethylpropylsulfide.chk"
 Charge =  0 Multiplicity = 1

                         Standard orientation:
 ---------------------------------------------------------------------
 Center     Atomic      Atomic             Coordinates (Angstroms)
 Number     Number       Type             X           Y           Z
 ---------------------------------------------------------------------
      1          6           0        2.375076    2.291871    0.000000
      2          1           0        3.465991    2.277864    0.000000
      3          1           0        2.044631    2.840367    0.882327
      4          1           0        2.044631    2.840367   -0.882327
      5          6           0        1.831458    0.869153    0.000000
      6          1           0        2.172537    0.327306   -0.883073
      7          1           0        2.172537    0.327306    0.883073
      8         16           0        0.000000    0.889482    0.000000
      9          6           0       -0.338622   -0.909728    0.000000
     10          1           0        0.126062   -1.351508   -0.883539
     11          1           0        0.126062   -1.351508    0.883539
     12          6           0       -1.840977   -1.176175    0.000000
     13          1           0       -2.290661   -0.701679    0.875094
     14          1           0       -2.290661   -0.701679   -0.875094
     15          6           0       -2.164305   -2.670386    0.000000
     16          1           0       -1.752397   -3.165193   -0.881569
     17          1           0       -1.752397   -3.165193    0.881569
     18          1           0       -3.242119   -2.836574    0.000000
 ---------------------------------------------------------------------

 SCF Done:  E(RHF) =  -595.149741574     A.U. after    2 cycles

 The electronic state is 1-A'.
 Alpha  occ. eigenvalues --  -75.66123 -13.11531 -13.06163 -12.99587 -11.42112
 Alpha  occ. eigenvalues --  -11.40788 -11.39042 -11.36608 -11.35508  -8.00199
 Alpha  occ. eigenvalues --   -1.27200  -1.18003  -1.05877  -0.95109  -0.86071
 Alpha  occ. eigenvalues --   -0.82599  -0.65119  -0.62320  -0.59834  -0.57918
 Alpha  occ. eigenvalues --   -0.55064  -0.52692  -0.51693  -0.49791  -0.46902
 Alpha  occ. eigenvalues --   -0.46844  -0.38344  -0.35068  -0.21506
 Alpha virt. eigenvalues --    0.03617   0.03893   0.05334   0.05425   0.06168
 Alpha virt. eigenvalues --    0.06434   0.06473   0.06849   0.07031   0.08476
 Alpha virt. eigenvalues --    0.08978   0.09620   0.10813   0.11919   0.12506

 Mulliken charges:
               1
     1  C   -4.000585
     2  H    1.047468
     3  H    1.363888
     4  H    1.363888
     5  C   -3.882607
     6  H    1.533767
     7  H    1.533767
     8  S    1.489282
     9  C   -3.176045
    10  H    1.598317
    11  H    1.598317
    12  C   -3.095354
    13  H    1.474148
    14  H    1.474148
    15  C   -4.016137
    16  H    1.274400
    17  H    1.274400
    18  H    1.144938
 Sum of Mulliken charges =   0.00000

 Dipole moment (field-independent basis, Debye):
    X=             -0.1076    Y=             -0.0485    Z=              0.0000  Tot=              0.1180

 Test job not archived.
 1\1\GINC-SE422\SP\RHF\Aug-CC-pVDZ\C5H12S1\OHZDE\06-Apr-2025\0\\#t hf a
 ug-cc-pvdz iop(5/13=1,5/36=2,99/5=2) pseudo=read geom=check guess=(rea
 d,tcheck) scf=(maxcycle=1)\\title\\0,1\C,0,2.375076,2.291871,0.\H,0,3.
 465991,2.277864,0.\H,0,2.044631,2.840367,0.882327\H,0,2.044631,2.84036
 7,-0.882327\C,0,1.831458,0.869153,0.\H,0,2.172537,0.327306,-0.883073\H
 ,0,2.172537,0.327306,0.883073\S,0,0.,0.889482,0.\C,0,-0.338622,-0.9097
 28,0.\H,0,0.126062,-1.351508,-0.883539\H,0,0.126062,-1.351508,0.883539
 \C,0,-1.840977,-1.176175,0.\H,0,-2.290661,-0.701679,0.875094\H,0,-2.29

 Normal termination of Gaussian 16 at Sun Apr  6 08:14:43 2025.
