 Gaussian 16, Revision C.01,

 ----------------------------------------------------------------------
 #t hf aug-cc-pvdz symm=none int=(grid=ultrafine) guess=(read,tcheck) s
 table=(opt,rrhf)
 ----------------------------------------------------------------------
 -----
 title
 -----
 Symbolic Z-matrix:
 Charge =  0 Multiplicity = 1

 SCF Done:  E(RHF) =  -1057.77191509     A.U. after   14 cycles
 Normal termination of Gaussian 16 at Sun Apr  6 08:13:45 2025.
 Gaussian 16:  ES64L-G16RevC.01  3-Jul-2019

 ----------------------------------------------------------------------
 #t hf aug-cc-pvdz iop(5/13=1,5/36=2,99/5=2) pseudo=read geom=check gue
 ss=(read,tcheck) scf=(maxcycle=1)
 ----------------------------------------------------------------------
 -----
 title
 -----
 Structure from the checkpoint file:  "ethylenediisothiocyanate.chk"
 Charge =  0 Multiplicity = 1

                         Standard orientation:
 ---------------------------------------------------------------------
 Center     Atomic      Atomic             Coordinates (Angstroms)
 Number     Number       Type             X           Y           Z
 ---------------------------------------------------------------------
      1         16           0       -4.596838   -0.003107   -0.000137
      2         16           0        4.596838    0.003103   -0.000056
      3          7           0       -1.832054   -0.149686    0.000108
      4          7           0        1.832054    0.149689    0.000098
      5          6           0       -0.565103    0.514998    0.000097
      6          6           0        0.565103   -0.514994    0.000093
      7          6           0       -3.015809   -0.039311   -0.000005
      8          6           0        3.015809    0.039311    0.000027
      9          1           0       -0.483266    1.151721    0.883482
     10          1           0       -0.483277    1.151723   -0.883288
     11          1           0        0.483272   -1.151716   -0.883294
     12          1           0        0.483270   -1.151720    0.883476
 ---------------------------------------------------------------------

 SCF Done:  E(RHF) =  -1059.41716640     A.U. after    2 cycles

 The electronic state is 1-A.
 Alpha  occ. eigenvalues --  -75.69629 -75.69618 -15.79881 -15.79827 -13.23496
 Alpha  occ. eigenvalues --  -13.23102 -13.01093 -13.01048 -13.00879 -13.00847
 Alpha  occ. eigenvalues --  -11.55780 -11.55411 -11.50356 -11.45279  -8.03904
 Alpha  occ. eigenvalues --   -8.03878  -1.48351  -1.42678  -1.22326  -1.16388
 Alpha  occ. eigenvalues --   -1.10357  -0.97765  -0.78333  -0.71949  -0.69444
 Alpha  occ. eigenvalues --   -0.64128  -0.61562  -0.56467  -0.55715  -0.54290
 Alpha  occ. eigenvalues --   -0.52382  -0.50397  -0.48742  -0.28225  -0.27646
 Alpha  occ. eigenvalues --   -0.26520  -0.25896
 Alpha virt. eigenvalues --    0.01891   0.04520   0.05652   0.05806   0.05845
 Alpha virt. eigenvalues --    0.05922   0.08090   0.08216   0.09221   0.10349
 Alpha virt. eigenvalues --    0.10703   0.11050   0.11092   0.12132   0.12827

 Mulliken charges:
               1
     1  S    1.630988
     2  S    1.630989
     3  N   -3.718295
     4  N   -3.718293
     5  C   -2.467128
     6  C   -2.467125
     7  C    1.342094
     8  C    1.342092
     9  H    1.606160
    10  H    1.606179
    11  H    1.606164
    12  H    1.606176
 Sum of Mulliken charges =  -0.00000

 Dipole moment (field-independent basis, Debye):
    X=              0.0000    Y=             -0.0000    Z=             -0.0003  Tot=              0.0003

 Test job not archived.
 1\1\GINC-SE169\SP\RHF\Aug-CC-pVDZ\C4H4N2S2\OHZDE\06-Apr-2025\0\\#t hf
 aug-cc-pvdz iop(5/13=1,5/36=2,99/5=2) pseudo=read geom=check guess=(re
 ad,tcheck) scf=(maxcycle=1)\\title\\0,1\S,0,-4.596838,-0.003107,-0.000
 137\S,0,4.596838,0.003103,-0.000056\N,0,-1.832054,-0.149686,0.000108\N
 ,0,1.832054,0.149689,0.000098\C,0,-0.565103,0.514998,0.000097\C,0,0.56
 5103,-0.514994,0.000093\C,0,-3.015809,-0.039311,-0.000005\C,0,3.015809
 ,0.039311,0.000027\H,0,-0.483266,1.151721,0.883482\H,0,-0.483277,1.151
 723,-0.883288\H,0,0.483272,-1.151716,-0.883294\H,0,0.48327,-1.15172,0.

 Normal termination of Gaussian 16 at Sun Apr  6 08:13:50 2025.
