 Gaussian 16, Revision C.01,

 ----------------------------------------------------------------------
 #t hf aug-cc-pvdz symm=none int=(grid=ultrafine) guess=(read,tcheck) s
 table=(opt,rrhf)
 ----------------------------------------------------------------------
 -----
 title
 -----
 Symbolic Z-matrix:
 Charge =  0 Multiplicity = 1

 SCF Done:  E(RHF) =  -1057.75361237     A.U. after   14 cycles
 Normal termination of Gaussian 16 at Sun Apr  6 08:13:46 2025.
 Gaussian 16:  ES64L-G16RevC.01  3-Jul-2019

 ----------------------------------------------------------------------
 #t hf aug-cc-pvdz iop(5/13=1,5/36=2,99/5=2) pseudo=read geom=check gue
 ss=(read,tcheck) scf=(maxcycle=1)
 ----------------------------------------------------------------------
 -----
 title
 -----
 Structure from the checkpoint file:  "ethylenedithiocyanate.chk"
 Charge =  0 Multiplicity = 1

                         Standard orientation:
 ---------------------------------------------------------------------
 Center     Atomic      Atomic             Coordinates (Angstroms)
 Number     Number       Type             X           Y           Z
 ---------------------------------------------------------------------
      1         16           0       -0.485479    1.616939   -0.499622
      2         16           0        0.485479   -1.616939   -0.499622
      3          7           0        0.485479    4.238358    0.048550
      4          7           0       -0.485479   -4.238358    0.048550
      5          6           0        0.219813    0.726015    0.967138
      6          6           0       -0.219813   -0.726015    0.967138
      7          6           0        0.100064    3.168473   -0.157999
      8          6           0       -0.100064   -3.168473   -0.157999
      9          1           0       -0.158457    1.213127    1.862783
     10          1           0        1.302444    0.822259    0.936478
     11          1           0       -1.302444   -0.822259    0.936478
     12          1           0        0.158457   -1.213127    1.862783
 ---------------------------------------------------------------------

 SCF Done:  E(RHF) =  -1059.38783506     A.U. after    2 cycles

 The electronic state is 1-A.
 Alpha  occ. eigenvalues --  -75.76388 -75.76361 -15.78568 -15.78566 -13.24735
 Alpha  occ. eigenvalues --  -13.23334 -13.17383 -13.17075 -13.09932 -13.09354
 Alpha  occ. eigenvalues --  -11.50170 -11.45901 -11.45782 -11.45476  -8.10557
 Alpha  occ. eigenvalues --   -8.10552  -1.37910  -1.34281  -1.28673  -1.20312
 Alpha  occ. eigenvalues --   -1.09433  -0.92362  -0.73454  -0.71884  -0.65688
 Alpha  occ. eigenvalues --   -0.62540  -0.60424  -0.53819  -0.52788  -0.51492
 Alpha  occ. eigenvalues --   -0.50962  -0.50780  -0.49876  -0.42121  -0.40122
 Alpha  occ. eigenvalues --   -0.29624  -0.27368
 Alpha virt. eigenvalues --    0.01148   0.04242   0.04291   0.04624   0.06055
 Alpha virt. eigenvalues --    0.06595   0.08188   0.09398   0.09768   0.11136
 Alpha virt. eigenvalues --    0.11524   0.11627   0.12759   0.13320   0.13364

 Mulliken charges:
               1
     1  S    1.916107
     2  S    1.916107
     3  N   -1.940722
     4  N   -1.940722
     5  C   -3.289848
     6  C   -3.289848
     7  C    0.360358
     8  C    0.360358
     9  H    1.394613
    10  H    1.559492
    11  H    1.559492
    12  H    1.394613
 Sum of Mulliken charges =  -0.00000

 Dipole moment (field-independent basis, Debye):
    X=             -0.0000    Y=              0.0000    Z=             -1.0954  Tot=              1.0954

 Test job not archived.
 1\1\GINC-SE169\SP\RHF\Aug-CC-pVDZ\C4H4N2S2\OHZDE\06-Apr-2025\0\\#t hf
 aug-cc-pvdz iop(5/13=1,5/36=2,99/5=2) pseudo=read geom=check guess=(re
 ad,tcheck) scf=(maxcycle=1)\\title\\0,1\S,0,-0.485479,1.616939,-0.4996
 22\S,0,0.485479,-1.616939,-0.499622\N,0,0.485479,4.238358,0.04855\N,0,
 -0.485479,-4.238358,0.04855\C,0,0.219813,0.726015,0.967138\C,0,-0.2198
 13,-0.726015,0.967138\C,0,0.100064,3.168473,-0.157999\C,0,-0.100064,-3
 .168473,-0.157999\H,0,-0.158457,1.213127,1.862783\H,0,1.302444,0.82225
 9,0.936478\H,0,-1.302444,-0.822259,0.936478\H,0,0.158457,-1.213127,1.8

 Normal termination of Gaussian 16 at Sun Apr  6 08:13:51 2025.
