 Gaussian 16, Revision C.01,

 ----------------------------------------------------------------------
 #t hf aug-cc-pvdz symm=none int=(grid=ultrafine) guess=(read,tcheck) s
 table=(opt,rrhf)
 ----------------------------------------------------------------------
 -----
 title
 -----
 Symbolic Z-matrix:
 Charge =  0 Multiplicity = 1

 SCF Done:  E(RHF) =  -302.099183444     A.U. after   13 cycles
 Normal termination of Gaussian 16 at Sun Apr  6 08:13:45 2025.
 Gaussian 16:  ES64L-G16RevC.01  3-Jul-2019

 ----------------------------------------------------------------------
 #t hf aug-cc-pvdz iop(5/13=1,5/36=2,99/5=2) pseudo=read geom=check gue
 ss=(read,tcheck) scf=(maxcycle=1)
 ----------------------------------------------------------------------
 -----
 title
 -----
 Structure from the checkpoint file:  "ethylurea.chk"
 Charge =  0 Multiplicity = 1

                         Standard orientation:
 ---------------------------------------------------------------------
 Center     Atomic      Atomic             Coordinates (Angstroms)
 Number     Number       Type             X           Y           Z
 ---------------------------------------------------------------------
      1          6           0       -2.624091   -0.223414    0.002412
      2          1           0       -2.704638   -0.964618    0.799272
      3          1           0       -3.440588    0.487321    0.123953
      4          1           0       -2.754705   -0.730974   -0.953978
      5          6           0       -1.283867    0.494871    0.060801
      6          1           0       -1.250407    1.248579   -0.732964
      7          1           0       -1.188350    1.024473    1.014316
      8          7           0       -0.191108   -0.449863   -0.112715
      9          1           0       -0.395796   -1.431081   -0.024719
     10          7           0        1.480161    1.166240    0.046537
     11          1           0        2.460546    1.348304   -0.083400
     12          1           0        0.852393    1.859667   -0.321530
     13          6           0        1.149206   -0.174524   -0.013340
     14          8           0        1.993836   -1.054739    0.042882
 ---------------------------------------------------------------------

 SCF Done:  E(RHF) =  -303.493469153     A.U. after    2 cycles

 The electronic state is 1-A.
 Alpha  occ. eigenvalues --  -21.00252 -15.76922 -15.75027 -11.49292 -11.44366
 Alpha  occ. eigenvalues --  -11.38248  -1.70127  -1.41716  -1.30814  -1.12420
 Alpha  occ. eigenvalues --   -0.91585  -0.83254  -0.71900  -0.66529  -0.65386
 Alpha  occ. eigenvalues --   -0.59293  -0.56576  -0.54999  -0.51136  -0.50683
 Alpha  occ. eigenvalues --   -0.46985  -0.36991  -0.29864  -0.28311
 Alpha virt. eigenvalues --    0.03160   0.04490   0.05279   0.05708   0.06225
 Alpha virt. eigenvalues --    0.06444   0.07567   0.07943   0.10697   0.12324
 Alpha virt. eigenvalues --    0.13088   0.13629   0.14247   0.15242   0.15910

 Mulliken charges:
               1
     1  C   -3.321831
     2  H    1.246089
     3  H    1.070229
     4  H    1.248836
     5  C   -2.635876
     6  H    1.572426
     7  H    1.569330
     8  N   -2.152219
     9  H    0.494599
    10  N   -2.666673
    11  H    0.554144
    12  H    0.710809
    13  C    5.390631
    14  O   -3.080493
 Sum of Mulliken charges =   0.00000

 Dipole moment (field-independent basis, Debye):
    X=             -2.6201    Y=              2.0742    Z=             -0.4198  Tot=              3.3680

 Test job not archived.
 1\1\GINC-SE344\SP\RHF\Aug-CC-pVDZ\C3H8N2O1\OHZDE\06-Apr-2025\0\\#t hf
 aug-cc-pvdz iop(5/13=1,5/36=2,99/5=2) pseudo=read geom=check guess=(re
 ad,tcheck) scf=(maxcycle=1)\\title\\0,1\C,0,-2.624091,-0.223414,0.0024
 12\H,0,-2.704638,-0.964618,0.799272\H,0,-3.440588,0.487321,0.123953\H,
 0,-2.754705,-0.730974,-0.953978\C,0,-1.283867,0.494871,0.060801\H,0,-1
 .250407,1.248579,-0.732964\H,0,-1.18835,1.024473,1.014316\N,0,-0.19110
 8,-0.449863,-0.112715\H,0,-0.395796,-1.431081,-0.024719\N,0,1.480161,1
 .16624,0.046537\H,0,2.460546,1.348304,-0.0834\H,0,0.852393,1.859667,-0

 Normal termination of Gaussian 16 at Sun Apr  6 08:13:49 2025.
