 Gaussian 16, Revision C.01,

 ----------------------------------------------------------------------
 #t hf aug-cc-pvdz symm=none int=(grid=ultrafine) guess=(read,tcheck) s
 table=(opt,rrhf)
 ----------------------------------------------------------------------
 -----
 title
 -----
 Symbolic Z-matrix:
 Charge =  0 Multiplicity = 1

 SCF Done:  E(RHF) =  -329.592716437     A.U. after   14 cycles
 Normal termination of Gaussian 16 at Sun Apr  6 08:13:36 2025.
 Gaussian 16:  ES64L-G16RevC.01  3-Jul-2019

 ----------------------------------------------------------------------
 #t hf aug-cc-pvdz iop(5/13=1,5/36=2,99/5=2) pseudo=read geom=check gue
 ss=(read,tcheck) scf=(maxcycle=1)
 ----------------------------------------------------------------------
 -----
 title
 -----
 Structure from the checkpoint file:  "fluorobenzene.chk"
 Charge =  0 Multiplicity = 1

                         Standard orientation:
 ---------------------------------------------------------------------
 Center     Atomic      Atomic             Coordinates (Angstroms)
 Number     Number       Type             X           Y           Z
 ---------------------------------------------------------------------
      1          6           0        0.000000    0.000000   -1.828651
      2          6           0        0.000000    1.203661   -1.131682
      3          6           0       -0.000000   -1.203661   -1.131682
      4          6           0        0.000000    1.212801    0.259047
      5          6           0       -0.000000   -1.212801    0.259047
      6          6           0        0.000000   -0.000000    0.924672
      7          9           0        0.000000   -0.000000    2.277491
      8          1           0        0.000000    0.000000   -2.909624
      9          1           0        0.000000    2.141917   -1.669399
     10          1           0       -0.000000   -2.141917   -1.669399
     11          1           0        0.000000    2.134302    0.823249
     12          1           0       -0.000000   -2.134302    0.823249
 ---------------------------------------------------------------------

 SCF Done:  E(RHF) =  -331.033148756     A.U. after    2 cycles

 The electronic state is 1-A1.
 Alpha  occ. eigenvalues --  -29.28172 -11.53520 -11.46634 -11.43437 -11.41578
 Alpha  occ. eigenvalues --  -11.40886 -11.37615  -1.37295  -1.14995  -1.11055
 Alpha  occ. eigenvalues --   -0.91698  -0.88864  -0.76680  -0.68965  -0.62112
 Alpha  occ. eigenvalues --   -0.60328  -0.59724  -0.54853  -0.48241  -0.47338
 Alpha  occ. eigenvalues --   -0.41362  -0.38208  -0.34397  -0.27089  -0.23195
 Alpha virt. eigenvalues --    0.03424   0.04984   0.05223   0.06068   0.06843
 Alpha virt. eigenvalues --    0.10816   0.11017   0.12237   0.12843   0.13818
 Alpha virt. eigenvalues --    0.13884   0.13941   0.14218   0.14340   0.15471

 Mulliken charges:
               1
     1  C   -2.354360
     2  C    0.197088
     3  C    0.197088
     4  C   -4.848260
     5  C   -4.848260
     6  C    3.341562
     7  F    0.603037
     8  H    1.477479
     9  H    1.466104
    10  H    1.466104
    11  H    1.651209
    12  H    1.651209
 Sum of Mulliken charges =   0.00000

 Dipole moment (field-independent basis, Debye):
    X=             -0.0000    Y=             -0.0000    Z=              1.6537  Tot=              1.6537

 Test job not archived.
 1\1\GINC-SE453\SP\RHF\Aug-CC-pVDZ\C6H5F1\OHZDE\06-Apr-2025\0\\#t hf au
 g-cc-pvdz iop(5/13=1,5/36=2,99/5=2) pseudo=read geom=check guess=(read
 ,tcheck) scf=(maxcycle=1)\\title\\0,1\C,0,0.,0.,-1.828651\C,0,0.,1.203
 661,-1.131682\C,0,0.,-1.203661,-1.131682\C,0,0.,1.212801,0.259047\C,0,
 0.,-1.212801,0.259047\C,0,0.,0.,0.924672\F,0,0.,0.,2.277491\H,0,0.,0.,
 -2.909624\H,0,0.,2.141917,-1.669399\H,0,0.,-2.141917,-1.669399\H,0,0.,
 2.134302,0.823249\H,0,0.,-2.134302,0.823249\\Version=ES64L-G16RevC.01\
 State=1-A1\HF=-331.0331488\RMSD=1.764e+00\Dipole=0.,0.,0.6505981\Quadr

 Normal termination of Gaussian 16 at Sun Apr  6 08:13:41 2025.
