 Gaussian 16, Revision C.01,

 ----------------------------------------------------------------------
 #t hf aug-cc-pvdz symm=none int=(grid=ultrafine) guess=(read,tcheck) s
 table=(opt,rrhf)
 ----------------------------------------------------------------------
 -----
 title
 -----
 Symbolic Z-matrix:
 Charge =  0 Multiplicity = 1

 SCF Done:  E(RHF) =  -178.103511083     A.U. after   11 cycles
 Normal termination of Gaussian 16 at Sun Apr  6 08:14:42 2025.
 Gaussian 16:  ES64L-G16RevC.01  3-Jul-2019

 ----------------------------------------------------------------------
 #t hf aug-cc-pvdz iop(5/13=1,5/36=2,99/5=2) pseudo=read geom=check gue
 ss=(read,tcheck) scf=(maxcycle=1)
 ----------------------------------------------------------------------
 -----
 title
 -----
 Structure from the checkpoint file:  "fluoroethane.chk"
 Charge =  0 Multiplicity = 1

                         Standard orientation:
 ---------------------------------------------------------------------
 Center     Atomic      Atomic             Coordinates (Angstroms)
 Number     Number       Type             X           Y           Z
 ---------------------------------------------------------------------
      1          6           0        0.000000    0.557702    0.000000
      2          6           0        1.131396   -0.441623    0.000000
      3          9           0       -1.231732   -0.112505    0.000000
      4          1           0        0.016530    1.191540    0.888182
      5          1           0        0.016530    1.191540   -0.888182
      6          1           0        2.088160    0.083889    0.000000
      7          1           0        1.087998   -1.075450    0.885435
      8          1           0        1.087998   -1.075450   -0.885435
 ---------------------------------------------------------------------

 SCF Done:  E(RHF) =  -178.856996950     A.U. after    2 cycles

 The electronic state is 1-A'.
 Alpha  occ. eigenvalues --  -29.24007 -11.44831 -11.37298  -1.22073  -0.95180
 Alpha  occ. eigenvalues --   -0.68354  -0.66137  -0.56630  -0.52449  -0.51932
 Alpha  occ. eigenvalues --   -0.35462  -0.24172  -0.24038
 Alpha virt. eigenvalues --    0.03980   0.05435   0.05833   0.06358   0.07137
 Alpha virt. eigenvalues --    0.12002   0.12754   0.13979   0.14242   0.15552
 Alpha virt. eigenvalues --    0.17992   0.18284   0.21360   0.24836   0.28511

 Mulliken charges:
               1
     1  C   -2.833677
     2  C   -3.764770
     3  F    0.281780
     4  H    1.336108
     5  H    1.336108
     6  H    1.219302
     7  H    1.212574
     8  H    1.212574
 Sum of Mulliken charges =  -0.00000

 Dipole moment (field-independent basis, Debye):
    X=             -0.7108    Y=             -0.3183    Z=              0.0000  Tot=              0.7788

 Test job not archived.
 1\1\GINC-SE023\SP\RHF\Aug-CC-pVDZ\C2H5F1\OHZDE\06-Apr-2025\0\\#t hf au
 g-cc-pvdz iop(5/13=1,5/36=2,99/5=2) pseudo=read geom=check guess=(read
 ,tcheck) scf=(maxcycle=1)\\title\\0,1\C,0,0.,0.557702,0.\C,0,1.131396,
 -0.441623,0.\F,0,-1.231732,-0.112505,0.\H,0,0.01653,1.19154,0.888182\H
 ,0,0.01653,1.19154,-0.888182\H,0,2.08816,0.08389,0.\H,0,1.087998,-1.07
 545,0.885435\H,0,1.087998,-1.07545,-0.885435\\Version=ES64L-G16RevC.01
 \State=1-A'\HF=-178.856997\RMSD=1.735e-01\Dipole=-0.2796592,-0.1252247
 ,0.\Quadrupole=-0.1732986,-0.2174552,0.3907538,-0.0452326,0.,0.\PG=CS

 Normal termination of Gaussian 16 at Sun Apr  6 08:14:45 2025.
