 Gaussian 16, Revision C.01,

 ----------------------------------------------------------------------
 #t hf aug-cc-pvdz symm=none int=(grid=ultrafine) guess=(read,tcheck) s
 table=(opt,rrhf)
 ----------------------------------------------------------------------
 -----
 title
 -----
 Symbolic Z-matrix:
 Charge =  0 Multiplicity = 1

 SCF Done:  E(RHF) =  -139.057395301     A.U. after   10 cycles
 Normal termination of Gaussian 16 at Sun Apr  6 08:14:40 2025.
 Gaussian 16:  ES64L-G16RevC.01  3-Jul-2019

 ----------------------------------------------------------------------
 #t hf aug-cc-pvdz iop(5/13=1,5/36=2,99/5=2) pseudo=read geom=check gue
 ss=(read,tcheck) scf=(maxcycle=1)
 ----------------------------------------------------------------------
 -----
 title
 -----
 Structure from the checkpoint file:  "fluoromethane.chk"
 Charge =  0 Multiplicity = 1

                         Standard orientation:
 ---------------------------------------------------------------------
 Center     Atomic      Atomic             Coordinates (Angstroms)
 Number     Number       Type             X           Y           Z
 ---------------------------------------------------------------------
      1          6           0        0.000000   -0.637684    0.000000
      2          9           0        0.000000    0.754062    0.000000
      3          1           0        1.032068   -0.986819    0.000000
      4          1           0       -0.516034   -0.986819    0.893797
      5          1           0       -0.516034   -0.986819   -0.893797
 ---------------------------------------------------------------------

 SCF Done:  E(RHF) =  -139.609733923     A.U. after    2 cycles

 The electronic state is 1-A'.
 Alpha  occ. eigenvalues --  -29.24925 -11.43097  -1.14372  -0.66013  -0.62539
 Alpha  occ. eigenvalues --   -0.62539  -0.36828  -0.24587  -0.24587
 Alpha virt. eigenvalues --    0.03781   0.06038   0.06038   0.11998   0.15011
 Alpha virt. eigenvalues --    0.15011   0.16666   0.24624   0.26303   0.26303
 Alpha virt. eigenvalues --    0.31075   0.31075   0.34868   0.39034   0.39034

 Mulliken charges:
               1
     1  C   -4.007520
     2  F    0.243635
     3  H    1.254628
     4  H    1.254628
     5  H    1.254628
 Sum of Mulliken charges =  -0.00000

 Dipole moment (field-independent basis, Debye):
    X=             -0.0000    Y=              0.6979    Z=              0.0000  Tot=              0.6979

 Test job not archived.
 1\1\GINC-SE038\SP\RHF\Aug-CC-pVDZ\C1H3F1\OHZDE\06-Apr-2025\0\\#t hf au
 g-cc-pvdz iop(5/13=1,5/36=2,99/5=2) pseudo=read geom=check guess=(read
 ,tcheck) scf=(maxcycle=1)\\title\\0,1\C,0,0.,0.,-0.637684\F,0,0.,0.,0.
 754062\H,0,0.,1.032068,-0.986819\H,0,0.893797,-0.516034,-0.986819\H,0,
 -0.893797,-0.516034,-0.986819\\Version=ES64L-G16RevC.01\State=1-A'\HF=
 -139.6097339\RMSD=6.508e-02\Dipole=0.,0.,0.2745559\Quadrupole=0.209974
 2,0.2099743,-0.4199485,0.,0.,0.0000002\PG=CS [SG(C1H1F1),X(H2)]\\@

 Normal termination of Gaussian 16 at Sun Apr  6 08:14:41 2025.
