 Gaussian 16, Revision C.01,

 ----------------------------------------------------------------------
 #t hf aug-cc-pvdz symm=none int=(grid=ultrafine) guess=(read,tcheck) s
 table=(opt,rrhf)
 ----------------------------------------------------------------------
 -----
 title
 -----
 Symbolic Z-matrix:
 Charge =  0 Multiplicity = 1

 SCF Done:  E(RHF) =  -230.792719189     A.U. after   13 cycles
 Normal termination of Gaussian 16 at Sun Apr  6 08:13:25 2025.
 Gaussian 16:  ES64L-G16RevC.01  3-Jul-2019

 ----------------------------------------------------------------------
 #t hf aug-cc-pvdz iop(5/13=1,5/36=2,99/5=2) pseudo=read geom=check gue
 ss=(read,tcheck) scf=(maxcycle=1)
 ----------------------------------------------------------------------
 -----
 title
 -----
 Structure from the checkpoint file:  "fluoroacetonitrile.chk"
 Charge =  0 Multiplicity = 1

                         Standard orientation:
 ---------------------------------------------------------------------
 Center     Atomic      Atomic             Coordinates (Angstroms)
 Number     Number       Type             X           Y           Z
 ---------------------------------------------------------------------
      1          9           0        0.332657   -1.506812    0.000000
      2          7           0        0.468461    1.859310    0.000000
      3          6           0       -0.629654   -0.510772    0.000000
      4          6           0        0.000000    0.810536    0.000000
      5          1           0       -1.247608   -0.626221    0.891185
      6          1           0       -1.247608   -0.626221   -0.891185
 ---------------------------------------------------------------------

 SCF Done:  E(RHF) =  -231.723134088     A.U. after    2 cycles

 The electronic state is 1-A'.
 Alpha  occ. eigenvalues --  -29.29715 -15.78655 -11.52385 -11.44706  -1.34968
 Alpha  occ. eigenvalues --   -1.21244  -0.78428  -0.72829  -0.70539  -0.54906
 Alpha  occ. eigenvalues --   -0.47054  -0.46410  -0.40254  -0.29379  -0.28930
 Alpha virt. eigenvalues --    0.03166   0.05281   0.08136   0.11359   0.11449
 Alpha virt. eigenvalues --    0.12184   0.12658   0.14501   0.15563   0.17751
 Alpha virt. eigenvalues --    0.18045   0.20518   0.22591   0.24583   0.26703

 Mulliken charges:
               1
     1  F    0.380661
     2  N   -2.265111
     3  C   -2.725799
     4  C    1.959035
     5  H    1.325607
     6  H    1.325607
 Sum of Mulliken charges =   0.00000

 Dipole moment (field-independent basis, Debye):
    X=             -0.7272    Y=             -3.6695    Z=              0.0000  Tot=              3.7409

 Test job not archived.
 1\1\GINC-SE276\SP\RHF\Aug-CC-pVDZ\C2H2F1N1\OHZDE\06-Apr-2025\0\\#t hf
 aug-cc-pvdz iop(5/13=1,5/36=2,99/5=2) pseudo=read geom=check guess=(re
 ad,tcheck) scf=(maxcycle=1)\\title\\0,1\F,0,0.332657,-1.506812,0.\N,0,
 0.468461,1.85931,0.\C,0,-0.629654,-0.510772,0.\C,0,0.,0.810536,0.\H,0,
 -1.247608,-0.626221,0.891185\H,0,-1.247608,-0.626221,-0.891185\\Versio
 n=ES64L-G16RevC.01\State=1-A'\HF=-231.7231341\RMSD=1.845e-01\Dipole=-0
 .2861054,-1.4437073,0.\Quadrupole=0.7923503,-1.969527,1.1771767,-1.161
 1916,0.,0.\PG=CS [SG(C2F1N1),X(H2)]\\@

 Normal termination of Gaussian 16 at Sun Apr  6 08:13:28 2025.
