 Gaussian 16, Revision C.01,

 ----------------------------------------------------------------------
 #t hf aug-cc-pvdz symm=none int=(grid=ultrafine) guess=(read,tcheck) s
 table=(opt,rrhf)
 ----------------------------------------------------------------------
 -----
 title
 -----
 Symbolic Z-matrix:
 Charge =  0 Multiplicity = 1

 SCF Done:  E(RHF) =  -176.908084479     A.U. after   12 cycles
 Normal termination of Gaussian 16 at Sun Apr  6 08:14:42 2025.
 Gaussian 16:  ES64L-G16RevC.01  3-Jul-2019

 ----------------------------------------------------------------------
 #t hf aug-cc-pvdz iop(5/13=1,5/36=2,99/5=2) pseudo=read geom=check gue
 ss=(read,tcheck) scf=(maxcycle=1)
 ----------------------------------------------------------------------
 -----
 title
 -----
 Structure from the checkpoint file:  "fluoroethene.chk"
 Charge =  0 Multiplicity = 1

                         Standard orientation:
 ---------------------------------------------------------------------
 Center     Atomic      Atomic             Coordinates (Angstroms)
 Number     Number       Type             X           Y           Z
 ---------------------------------------------------------------------
      1          6           0        0.000000    0.434774    0.000000
      2          6           0        1.185792   -0.138856    0.000000
      3          9           0       -1.143002   -0.282121    0.000000
      4          1           0       -0.195129    1.498103    0.000000
      5          1           0        1.296848   -1.213206    0.000000
      6          1           0        2.070547    0.478682    0.000000
 ---------------------------------------------------------------------

 SCF Done:  E(RHF) =  -177.626551651     A.U. after    2 cycles

 The electronic state is 1-A'.
 Alpha  occ. eigenvalues --  -29.28227 -11.46913 -11.38980  -1.22190  -0.92019
 Alpha  occ. eigenvalues --   -0.71908  -0.63109  -0.54438  -0.48042  -0.38920
 Alpha  occ. eigenvalues --   -0.27512  -0.24325
 Alpha virt. eigenvalues --    0.04081   0.05414   0.06244   0.11047   0.12158
 Alpha virt. eigenvalues --    0.12617   0.13074   0.15289   0.15681   0.19311
 Alpha virt. eigenvalues --    0.20929   0.22278   0.26267   0.27860   0.30187

 Mulliken charges:
               1
     1  C   -1.625974
     2  C   -2.905551
     3  F    0.619243
     4  H    1.290439
     5  H    1.321489
     6  H    1.300354
 Sum of Mulliken charges =  -0.00000

 Dipole moment (field-independent basis, Debye):
    X=             -1.8606    Y=             -0.4658    Z=              0.0000  Tot=              1.9180

 Test job not archived.
 1\1\GINC-SE028\SP\RHF\Aug-CC-pVDZ\C2H3F1\OHZDE\06-Apr-2025\0\\#t hf au
 g-cc-pvdz iop(5/13=1,5/36=2,99/5=2) pseudo=read geom=check guess=(read
 ,tcheck) scf=(maxcycle=1)\\title\\0,1\C,0,0.,0.434774,0.\C,0,1.185792,
 -0.138856,0.\F,0,-1.143002,-0.282121,0.\H,0,-0.195129,1.498103,0.\H,0,
 1.296848,-1.213206,0.\H,0,2.070547,0.478682,0.\\Version=ES64L-G16RevC.
 01\State=1-A'\HF=-177.6265517\RMSD=4.028e-01\Dipole=-0.7320123,-0.1832
 65,0.\Quadrupole=0.7741468,0.9370689,-1.7112157,0.0338738,0.,0.\PG=CS
 [SG(C2H3F1)]\\@

 Normal termination of Gaussian 16 at Sun Apr  6 08:14:44 2025.
