 Gaussian 16, Revision C.01,

 ----------------------------------------------------------------------
 #t hf aug-cc-pvdz symm=none int=(grid=ultrafine) guess=(read,tcheck) s
 table=(opt,rrhf)
 ----------------------------------------------------------------------
 -----
 title
 -----
 Symbolic Z-matrix:
 Charge =  0 Multiplicity = 1

 SCF Done:  E(RHF) =  -175.665235039     A.U. after   12 cycles
 Normal termination of Gaussian 16 at Sun Apr  6 08:13:24 2025.
 Gaussian 16:  ES64L-G16RevC.01  3-Jul-2019

 ----------------------------------------------------------------------
 #t hf aug-cc-pvdz iop(5/13=1,5/36=2,99/5=2) pseudo=read geom=check gue
 ss=(read,tcheck) scf=(maxcycle=1)
 ----------------------------------------------------------------------
 -----
 title
 -----
 Structure from the checkpoint file:  "fluoroacetylene.chk"
 Charge =  0 Multiplicity = 1

                         Standard orientation:
 ---------------------------------------------------------------------
 Center     Atomic      Atomic             Coordinates (Angstroms)
 Number     Number       Type             X           Y           Z
 ---------------------------------------------------------------------
      1          6           0        0.000000    0.000000   -0.095596
      2          6           0        0.000000    0.000000   -1.287136
      3          9           0        0.000000    0.000000    1.182582
      4          1           0        0.000000    0.000000   -2.346846
 ---------------------------------------------------------------------

 SCF Done:  E(RHF) =  -176.348362176     A.U. after    2 cycles

 The electronic state is 1-SG.
 Alpha  occ. eigenvalues --  -29.36622 -11.48252 -11.41558  -1.18894  -0.93438
 Alpha  occ. eigenvalues --   -0.71215  -0.53044  -0.53044  -0.45724  -0.28253
 Alpha  occ. eigenvalues --   -0.28253
 Alpha virt. eigenvalues --    0.03503   0.09618   0.11861   0.11973   0.11973
 Alpha virt. eigenvalues --    0.12968   0.12968   0.15578   0.22554   0.24056
 Alpha virt. eigenvalues --    0.24056   0.30628   0.33191   0.34032   0.34032

 Mulliken charges:
               1
     1  C   -1.702569
     2  C    0.389501
     3  F    0.569739
     4  H    0.743329
 Sum of Mulliken charges =   0.00000

 Dipole moment (field-independent basis, Debye):
    X=             -0.0000    Y=              0.0000    Z=              2.6614  Tot=              2.6614

 Test job not archived.
 1\1\GINC-SE453\SP\RHF\Aug-CC-pVDZ\C2H1F1\OHZDE\06-Apr-2025\0\\#t hf au
 g-cc-pvdz iop(5/13=1,5/36=2,99/5=2) pseudo=read geom=check guess=(read
 ,tcheck) scf=(maxcycle=1)\\title\\0,1\C,0,0.,0.,-0.095596\C,0,0.,0.,-1
 .287136\F,0,0.,0.,1.182582\H,0,0.,0.,-2.346846\\Version=ES64L-G16RevC.
 01\State=1-SG\HF=-176.3483622\RMSD=5.710e-01\Dipole=0.,0.,1.0470657\Qu
 adrupole=-1.7140612,-1.7140612,3.4281224,0.,0.,0.\PG=C*V [C*(H1C1C1F1)
 ]\\@

 Normal termination of Gaussian 16 at Sun Apr  6 08:13:27 2025.
