 Gaussian 16, Revision C.01,

 ----------------------------------------------------------------------
 #t hf aug-cc-pvdz symm=none int=(grid=ultrafine) guess=(read,tcheck) s
 table=(opt,rrhf)
 ----------------------------------------------------------------------
 -----
 title
 -----
 Symbolic Z-matrix:
 Charge =  0 Multiplicity = 1

 SCF Done:  E(RHF) =  -113.885508953     A.U. after   11 cycles
 Normal termination of Gaussian 16 at Sun Apr  6 08:14:41 2025.
 Gaussian 16:  ES64L-G16RevC.01  3-Jul-2019

 ----------------------------------------------------------------------
 #t hf aug-cc-pvdz iop(5/13=1,5/36=2,99/5=2) pseudo=read geom=check gue
 ss=(read,tcheck) scf=(maxcycle=1)
 ----------------------------------------------------------------------
 -----
 title
 -----
 Structure from the checkpoint file:  "formaldehyde.chk"
 Charge =  0 Multiplicity = 1

                         Standard orientation:
 ---------------------------------------------------------------------
 Center     Atomic      Atomic             Coordinates (Angstroms)
 Number     Number       Type             X           Y           Z
 ---------------------------------------------------------------------
      1          6           0        0.000000    0.000000   -0.526958
      2          8           0        0.000000   -0.000000    0.673270
      3          1           0        0.000000    0.938263   -1.112205
      4          1           0       -0.000000   -0.938263   -1.112205
 ---------------------------------------------------------------------

 SCF Done:  E(RHF) =  -114.367001338     A.U. after    2 cycles

 The electronic state is 1-A1.
 Alpha  occ. eigenvalues --  -21.08335 -11.47969  -1.71653  -0.90300  -0.67159
 Alpha  occ. eigenvalues --   -0.53739  -0.45716  -0.31097
 Alpha virt. eigenvalues --    0.03184   0.05535   0.09513   0.10327   0.14746
 Alpha virt. eigenvalues --    0.16516   0.16695   0.21558   0.25554   0.27672
 Alpha virt. eigenvalues --    0.29173   0.32908   0.33400   0.34198   0.43317

 Mulliken charges:
               1
     1  C   -0.511644
     2  O   -1.995239
     3  H    1.253442
     4  H    1.253442
 Sum of Mulliken charges =  -0.00000

 Dipole moment (field-independent basis, Debye):
    X=             -0.0000    Y=             -0.0000    Z=             -1.1715  Tot=              1.1715

 Test job not archived.
 1\1\GINC-SE041\SP\RHF\Aug-CC-pVDZ\C1H2O1\OHZDE\06-Apr-2025\0\\#t hf au
 g-cc-pvdz iop(5/13=1,5/36=2,99/5=2) pseudo=read geom=check guess=(read
 ,tcheck) scf=(maxcycle=1)\\title\\0,1\C,0,0.,0.,-0.526958\O,0,0.,0.,0.
 67327\H,0,0.,0.938263,-1.112205\H,0,0.,-0.938263,-1.112205\\Version=ES
 64L-G16RevC.01\State=1-A1\HF=-114.3670013\RMSD=6.319e-02\Dipole=0.,0.,
 -0.4608955\Quadrupole=0.1592898,-0.0495986,-0.1096912,0.,0.,0.\PG=C02V
  [C2(C1O1),SGV(H2)]\\@

 Normal termination of Gaussian 16 at Sun Apr  6 08:14:42 2025.
