 Gaussian 16, Revision C.01,

 ----------------------------------------------------------------------
 #t hf aug-cc-pvdz symm=none int=(grid=ultrafine) guess=(read,tcheck) s
 table=(opt,rrhf)
 ----------------------------------------------------------------------
 -----
 title
 -----
 Symbolic Z-matrix:
 Charge =  0 Multiplicity = 1

 SCF Done:  E(RHF) =  -168.963862079     A.U. after   12 cycles
 Normal termination of Gaussian 16 at Sun Apr  6 08:14:42 2025.
 Gaussian 16:  ES64L-G16RevC.01  3-Jul-2019

 ----------------------------------------------------------------------
 #t hf aug-cc-pvdz iop(5/13=1,5/36=2,99/5=2) pseudo=read geom=check gue
 ss=(read,tcheck) scf=(maxcycle=1)
 ----------------------------------------------------------------------
 -----
 title
 -----
 Structure from the checkpoint file:  "formamide.chk"
 Charge =  0 Multiplicity = 1

                         Standard orientation:
 ---------------------------------------------------------------------
 Center     Atomic      Atomic             Coordinates (Angstroms)
 Number     Number       Type             X           Y           Z
 ---------------------------------------------------------------------
      1          6           0        0.000000    0.418868   -0.000000
      2          7           0       -0.937301   -0.562370   -0.000000
      3          8           0        1.196475    0.233416    0.000000
      4          1           0       -0.446374    1.428379   -0.000000
      5          1           0       -0.646661   -1.526108   -0.000000
      6          1           0       -1.917653   -0.346221   -0.000000
 ---------------------------------------------------------------------

 SCF Done:  E(RHF) =  -169.697552767     A.U. after    2 cycles

 The electronic state is 1-A'.
 Alpha  occ. eigenvalues --  -21.03355 -15.78939 -11.48442  -1.70182  -1.34884
 Alpha  occ. eigenvalues --   -0.87289  -0.73504  -0.63762  -0.53287  -0.50334
 Alpha  occ. eigenvalues --   -0.32969  -0.29820
 Alpha virt. eigenvalues --    0.03167   0.04891   0.05839   0.11184   0.12270
 Alpha virt. eigenvalues --    0.12549   0.15418   0.17064   0.17221   0.19997
 Alpha virt. eigenvalues --    0.20036   0.24079   0.26439   0.27064   0.31397

 Mulliken charges:
               1
     1  C    2.064364
     2  N   -2.349753
     3  O   -2.539190
     4  H    1.472108
     5  H    0.600730
     6  H    0.751741
 Sum of Mulliken charges =  -0.00000

 Dipole moment (field-independent basis, Debye):
    X=             -2.6012    Y=             -0.6228    Z=             -0.0000  Tot=              2.6747

 Test job not archived.
 1\1\GINC-SE044\SP\RHF\Aug-CC-pVDZ\C1H3N1O1\OHZDE\06-Apr-2025\0\\#t hf
 aug-cc-pvdz iop(5/13=1,5/36=2,99/5=2) pseudo=read geom=check guess=(re
 ad,tcheck) scf=(maxcycle=1)\\title\\0,1\C,0,0.,0.418868,0.\N,0,-0.9373
 01,-0.56237,0.\O,0,1.196475,0.233417,0.\H,0,-0.446375,1.428379,0.\H,0,
 -0.64666,-1.526108,0.\H,0,-1.917653,-0.346222,0.\\Version=ES64L-G16Rev
 C.01\State=1-A'\HF=-169.6975528\RMSD=5.137e-02\Dipole=-1.0233839,-0.24
 50222,0.\Quadrupole=-0.248938,1.3703596,-1.1214217,-0.0192852,0.,0.\PG
 =CS [SG(C1H3N1O1)]\\@

 Normal termination of Gaussian 16 at Sun Apr  6 08:14:45 2025.
