 Gaussian 16, Revision C.01,

 ----------------------------------------------------------------------
 #t hf aug-cc-pvdz symm=none int=(grid=ultrafine) guess=(read,tcheck) s
 table=(opt,rrhf)
 ----------------------------------------------------------------------
 -----
 title
 -----
 Symbolic Z-matrix:
 Charge =  0 Multiplicity = 1

 SCF Done:  E(RHF) =  -212.778121729     A.U. after   12 cycles
 Normal termination of Gaussian 16 at Sun Apr  6 08:14:40 2025.
 Gaussian 16:  ES64L-G16RevC.01  3-Jul-2019

 ----------------------------------------------------------------------
 #t hf aug-cc-pvdz iop(5/13=1,5/36=2,99/5=2) pseudo=read geom=check gue
 ss=(read,tcheck) scf=(maxcycle=1)
 ----------------------------------------------------------------------
 -----
 title
 -----
 Structure from the checkpoint file:  "formyl_fluoride.chk"
 Charge =  0 Multiplicity = 1

                         Standard orientation:
 ---------------------------------------------------------------------
 Center     Atomic      Atomic             Coordinates (Angstroms)
 Number     Number       Type             X           Y           Z
 ---------------------------------------------------------------------
      1          6           0        0.000000    0.400163    0.000000
      2          8           0        1.146373    0.135369    0.000000
      3          9           0       -0.967416   -0.541572   -0.000000
      4          1           0       -0.464239    1.390219    0.000000
 ---------------------------------------------------------------------

 SCF Done:  E(RHF) =  -213.580510345     A.U. after    2 cycles

 The electronic state is 1-A'.
 Alpha  occ. eigenvalues --  -29.31885 -21.11045 -11.55794  -1.77608  -1.07568
 Alpha  occ. eigenvalues --   -0.77164  -0.60595  -0.56485  -0.44448  -0.32949
 Alpha  occ. eigenvalues --   -0.30978  -0.29866
 Alpha virt. eigenvalues --    0.03788   0.09647   0.10081   0.11703   0.15595
 Alpha virt. eigenvalues --    0.16049   0.21225   0.22293   0.25490   0.26570
 Alpha virt. eigenvalues --    0.30354   0.32618   0.33009   0.35383   0.37384

 Mulliken charges:
               1
     1  C    0.214669
     2  O   -2.306684
     3  F    0.702369
     4  H    1.389646
 Sum of Mulliken charges =   0.00000

 Dipole moment (field-independent basis, Debye):
    X=             -2.9378    Y=             -0.9093    Z=             -0.0000  Tot=              3.0753

 Test job not archived.
 1\1\GINC-SE107\SP\RHF\Aug-CC-pVDZ\C1H1F1O1\OHZDE\06-Apr-2025\0\\#t hf
 aug-cc-pvdz iop(5/13=1,5/36=2,99/5=2) pseudo=read geom=check guess=(re
 ad,tcheck) scf=(maxcycle=1)\\title\\0,1\C,0,0.,0.400163,0.\O,0,1.14637
 3,0.135369,0.\F,0,-0.967416,-0.541572,0.\H,0,-0.464239,1.390219,0.\\Ve
 rsion=ES64L-G16RevC.01\State=1-A'\HF=-213.5805103\RMSD=5.162e-02\Dipol
 e=-1.1558002,-0.3577567,0.\Quadrupole=-0.7957949,0.4736201,0.3221748,0
 .4025102,0.,0.\PG=CS [SG(C1H1F1O1)]\\@

 Normal termination of Gaussian 16 at Sun Apr  6 08:14:42 2025.
