 Gaussian 16, Revision C.01,

 ----------------------------------------------------------------------
 #t hf aug-cc-pvdz symm=none int=(grid=ultrafine) guess=(read,tcheck) s
 table=(opt,rrhf)
 ----------------------------------------------------------------------
 -----
 title
 -----
 Symbolic Z-matrix:
 Charge =  0 Multiplicity = 1

 SCF Done:  E(RHF) =  -572.824694074     A.U. after   13 cycles
 Normal termination of Gaussian 16 at Sun Apr  6 08:14:42 2025.
 Gaussian 16:  ES64L-G16RevC.01  3-Jul-2019

 ----------------------------------------------------------------------
 #t hf aug-cc-pvdz iop(5/13=1,5/36=2,99/5=2) pseudo=read geom=check gue
 ss=(read,tcheck) scf=(maxcycle=1)
 ----------------------------------------------------------------------
 -----
 title
 -----
 Structure from the checkpoint file:  "formyl_chloride.chk"
 Charge =  0 Multiplicity = 1

                         Standard orientation:
 ---------------------------------------------------------------------
 Center     Atomic      Atomic             Coordinates (Angstroms)
 Number     Number       Type             X           Y           Z
 ---------------------------------------------------------------------
      1          6           0        0.000000    0.806204    0.000000
      2          8           0        1.118460    1.175635    0.000000
      3         17           0       -0.473479   -0.921920    0.000000
      4          1           0       -0.898535    1.430335    0.000000
 ---------------------------------------------------------------------

 SCF Done:  E(RHF) =  -573.533694960     A.U. after    2 cycles

 The electronic state is 1-A'.
 Alpha  occ. eigenvalues --  -99.91539 -21.12246 -11.55361 -10.48893  -9.68652
 Alpha  occ. eigenvalues --   -9.67942  -9.67891  -1.77173  -1.33525  -0.91444
 Alpha  occ. eigenvalues --   -0.70943  -0.59782  -0.59225  -0.52139  -0.46531
 Alpha  occ. eigenvalues --   -0.36707
 Alpha virt. eigenvalues --    0.02930   0.06520   0.09447   0.09665   0.10369
 Alpha virt. eigenvalues --    0.12033   0.14491   0.15393   0.15904   0.18059
 Alpha virt. eigenvalues --    0.22797   0.24831   0.26169   0.28105   0.29786

 Mulliken charges:
               1
     1  C    0.258027
     2  O   -1.932828
     3  Cl  -0.039790
     4  H    1.714591
 Sum of Mulliken charges =   0.00000

 Dipole moment (field-independent basis, Debye):
    X=             -0.0193    Y=              1.9216    Z=              0.0000  Tot=              1.9217

 Test job not archived.
 1\1\GINC-SE104\SP\RHF\Aug-CC-pVDZ\C1H1Cl1O1\OHZDE\06-Apr-2025\0\\#t hf
  aug-cc-pvdz iop(5/13=1,5/36=2,99/5=2) pseudo=read geom=check guess=(r
 ead,tcheck) scf=(maxcycle=1)\\title\\0,1\C,0,0.,0.806204,0.\O,0,1.1184
 6,1.175635,0.\Cl,0,-0.473479,-0.92192,0.\H,0,-0.898535,1.430335,0.\\Ve
 rsion=ES64L-G16RevC.01\State=1-A'\HF=-573.533695\RMSD=5.481e-02\Dipole
 =-0.0075864,0.7560148,0.\Quadrupole=-0.5770624,0.9602941,-0.3832317,-0
 .6485888,0.,0.\PG=CS [SG(C1H1Cl1O1)]\\@

 Normal termination of Gaussian 16 at Sun Apr  6 08:14:45 2025.
