 Gaussian 16, Revision C.01,

 ----------------------------------------------------------------------
 #t hf aug-cc-pvdz symm=none int=(grid=ultrafine) guess=(read,tcheck) s
 table=(opt,rrhf)
 ----------------------------------------------------------------------
 -----
 title
 -----
 Symbolic Z-matrix:
 Charge =  0 Multiplicity = 1

 SCF Done:  E(RHF) =  -188.797503536     A.U. after   12 cycles
 Normal termination of Gaussian 16 at Sun Apr  6 08:14:42 2025.
 Gaussian 16:  ES64L-G16RevC.01  3-Jul-2019

 ----------------------------------------------------------------------
 #t hf aug-cc-pvdz iop(5/13=1,5/36=2,99/5=2) pseudo=read geom=check gue
 ss=(read,tcheck) scf=(maxcycle=1)
 ----------------------------------------------------------------------
 -----
 title
 -----
 Structure from the checkpoint file:  "formic_acid.chk"
 Charge =  0 Multiplicity = 1

                         Standard orientation:
 ---------------------------------------------------------------------
 Center     Atomic      Atomic             Coordinates (Angstroms)
 Number     Number       Type             X           Y           Z
 ---------------------------------------------------------------------
      1          6           0        0.000000    0.421048   -0.000000
      2          8           0       -1.028183   -0.446143   -0.000000
      3          8           0        1.158545    0.117343    0.000000
      4          1           0       -0.383251    1.447877   -0.000000
      5          1           0       -0.659643   -1.343762   -0.000000
 ---------------------------------------------------------------------

 SCF Done:  E(RHF) =  -189.570625898     A.U. after    2 cycles

 The electronic state is 1-A'.
 Alpha  occ. eigenvalues --  -21.13834 -21.07215 -11.51847  -1.83398  -1.66622
 Alpha  occ. eigenvalues --   -0.89499  -0.66447  -0.61097  -0.55449  -0.48105
 Alpha  occ. eigenvalues --   -0.35000  -0.31879
 Alpha virt. eigenvalues --    0.03909   0.05337   0.10638   0.11086   0.12115
 Alpha virt. eigenvalues --    0.15158   0.16372   0.19826   0.20027   0.22526
 Alpha virt. eigenvalues --    0.24150   0.27604   0.28578   0.31614   0.33038

 Mulliken charges:
               1
     1  C    2.380352
     2  O   -2.369187
     3  O   -2.321815
     4  H    1.505379
     5  H    0.805271
 Sum of Mulliken charges =   0.00000

 Dipole moment (field-independent basis, Debye):
    X=             -1.0731    Y=             -0.2697    Z=             -0.0000  Tot=              1.1065

 Test job not archived.
 1\1\GINC-SE101\SP\RHF\Aug-CC-pVDZ\C1H2O2\OHZDE\06-Apr-2025\0\\#t hf au
 g-cc-pvdz iop(5/13=1,5/36=2,99/5=2) pseudo=read geom=check guess=(read
 ,tcheck) scf=(maxcycle=1)\\title\\0,1\C,0,0.,0.421048,0.\O,0,-1.028183
 ,-0.446144,0.\O,0,1.158545,0.117343,0.\H,0,-0.383251,1.447877,0.\H,0,-
 0.659642,-1.343762,0.\\Version=ES64L-G16RevC.01\State=1-A'\HF=-189.570
 6259\RMSD=5.711e-02\Dipole=-0.4222031,-0.1061161,0.\Quadrupole=-2.3630
 348,2.4035788,-0.040544,-0.0000192,0.,0.\PG=CS [SG(C1H2O2)]\\@

 Normal termination of Gaussian 16 at Sun Apr  6 08:14:45 2025.
