 Gaussian 16, Revision C.01,

 ----------------------------------------------------------------------
 #t hf aug-cc-pvdz symm=none int=(grid=ultrafine) guess=(read,tcheck) s
 table=(opt,rrhf)
 ----------------------------------------------------------------------
 -----
 title
 -----
 Symbolic Z-matrix:
 Charge =  0 Multiplicity = 1

 SCF Done:  E(RHF) =  -230.672292185     A.U. after   13 cycles
 Normal termination of Gaussian 16 at Sun Apr  6 08:14:50 2025.
 Gaussian 16:  ES64L-G16RevC.01  3-Jul-2019

 ----------------------------------------------------------------------
 #t hf aug-cc-pvdz iop(5/13=1,5/36=2,99/5=2) pseudo=read geom=check gue
 ss=(read,tcheck) scf=(maxcycle=1)
 ----------------------------------------------------------------------
 -----
 title
 -----
 Structure from the checkpoint file:  "fulvene.chk"
 Charge =  0 Multiplicity = 1

                         Standard orientation:
 ---------------------------------------------------------------------
 Center     Atomic      Atomic             Coordinates (Angstroms)
 Number     Number       Type             X           Y           Z
 ---------------------------------------------------------------------
      1          6           0        0.000000    0.735787   -1.400081
      2          6           0       -0.000000   -0.735787   -1.400081
      3          6           0        0.000000    1.175419   -0.125488
      4          6           0       -0.000000   -1.175419   -0.125488
      5          6           0        0.000000    0.000000    0.758403
      6          6           0        0.000000    0.000000    2.096421
      7          1           0        0.000000    1.347657   -2.289398
      8          1           0       -0.000000   -1.347657   -2.289398
      9          1           0        0.000000    2.197794    0.217520
     10          1           0       -0.000000   -2.197794    0.217520
     11          1           0        0.000000   -0.923202    2.660823
     12          1           0        0.000000    0.923202    2.660823
 ---------------------------------------------------------------------

 SCF Done:  E(RHF) =  -231.785372741     A.U. after    2 cycles

 The electronic state is 1-A1.
 Alpha  occ. eigenvalues --  -11.46138 -11.44765 -11.41824 -11.39619 -11.39528
 Alpha  occ. eigenvalues --  -11.35565  -1.35672  -1.10183  -1.02439  -0.90353
 Alpha  occ. eigenvalues --   -0.76923  -0.75191  -0.68798  -0.60383  -0.54381
 Alpha  occ. eigenvalues --   -0.50448  -0.50006  -0.48071  -0.44227  -0.33208
 Alpha  occ. eigenvalues --   -0.29332
 Alpha virt. eigenvalues --    0.03544   0.04969   0.05207   0.05786   0.06458
 Alpha virt. eigenvalues --    0.06771   0.07719   0.10273   0.11655   0.13456
 Alpha virt. eigenvalues --    0.13829   0.13861   0.14708   0.14719   0.14818

 Mulliken charges:
               1
     1  C   -2.185005
     2  C   -2.185005
     3  C   -2.120685
     4  C   -2.120685
     5  C    4.388789
     6  C   -4.007635
     7  H    1.308806
     8  H    1.308806
     9  H    1.333854
    10  H    1.333854
    11  H    1.472452
    12  H    1.472452
 Sum of Mulliken charges =  -0.00000

 Dipole moment (field-independent basis, Debye):
    X=              0.0000    Y=             -0.0000    Z=              0.5935  Tot=              0.5935

 Test job not archived.
 1\1\GINC-SE146\SP\RHF\Aug-CC-pVDZ\C6H6\OHZDE\06-Apr-2025\0\\#t hf aug-
 cc-pvdz iop(5/13=1,5/36=2,99/5=2) pseudo=read geom=check guess=(read,t
 check) scf=(maxcycle=1)\\title\\0,1\C,0,0.,0.735787,-1.400081\C,0,0.,-
 0.735787,-1.400081\C,0,0.,1.175419,-0.125488\C,0,0.,-1.175419,-0.12548
 8\C,0,0.,0.,0.758403\C,0,0.,0.,2.096421\H,0,0.,1.347657,-2.289398\H,0,
 0.,-1.347657,-2.289398\H,0,0.,2.197794,0.21752\H,0,0.,-2.197794,0.2175
 2\H,0,0.,-0.923202,2.660823\H,0,0.,0.923202,2.660823\\Version=ES64L-G1
 6RevC.01\State=1-A1\HF=-231.7853727\RMSD=1.956e+00\Dipole=0.,0.,0.2335

 Normal termination of Gaussian 16 at Sun Apr  6 08:14:53 2025.
