 Gaussian 16, Revision C.01,

 ----------------------------------------------------------------------
 #t hf aug-cc-pvdz symm=none int=(grid=ultrafine) guess=(read,tcheck) s
 table=(opt,rrhf)
 ----------------------------------------------------------------------
 -----
 title
 -----
 Symbolic Z-matrix:
 Charge =  0 Multiplicity = 1

 SCF Done:  E(RHF) =  -261.524556360     A.U. after   13 cycles
 Normal termination of Gaussian 16 at Sun Apr  6 08:14:46 2025.
 Gaussian 16:  ES64L-G16RevC.01  3-Jul-2019

 ----------------------------------------------------------------------
 #t hf aug-cc-pvdz iop(5/13=1,5/36=2,99/5=2) pseudo=read geom=check gue
 ss=(read,tcheck) scf=(maxcycle=1)
 ----------------------------------------------------------------------
 -----
 title
 -----
 Structure from the checkpoint file:  "fumaronitrile.chk"
 Charge =  0 Multiplicity = 1

                         Standard orientation:
 ---------------------------------------------------------------------
 Center     Atomic      Atomic             Coordinates (Angstroms)
 Number     Number       Type             X           Y           Z
 ---------------------------------------------------------------------
      1          6           0        0.123949   -1.862885    0.000000
      2          6           0       -0.123949    1.862885    0.000000
      3          6           0       -0.463693    0.483335    0.000000
      4          6           0        0.463693   -0.483335    0.000000
      5          7           0       -0.123949   -2.988322    0.000000
      6          7           0        0.123949    2.988322    0.000000
      7          1           0       -1.519242    0.244524    0.000000
      8          1           0        1.519242   -0.244524    0.000000
 ---------------------------------------------------------------------

 SCF Done:  E(RHF) =  -262.683519047     A.U. after    2 cycles

 The electronic state is 1-AG.
 Alpha  occ. eigenvalues --  -15.79758 -15.79721 -11.53971 -11.49430 -11.46570
 Alpha  occ. eigenvalues --  -11.46023  -1.38062  -1.33297  -1.22924  -1.00441
 Alpha  occ. eigenvalues --   -0.78875  -0.73563  -0.64266  -0.56242  -0.56153
 Alpha  occ. eigenvalues --   -0.53905  -0.50068  -0.47969  -0.46548  -0.38324
 Alpha virt. eigenvalues --    0.02123   0.03717   0.05324   0.08035   0.09417
 Alpha virt. eigenvalues --    0.10147   0.10221   0.10752   0.11090   0.11560
 Alpha virt. eigenvalues --    0.11875   0.13285   0.13862   0.16532   0.17007

 Mulliken charges:
               1
     1  C    1.462926
     2  C    1.462926
     3  C   -0.837432
     4  C   -0.837432
     5  N   -2.246953
     6  N   -2.246953
     7  H    1.621460
     8  H    1.621460
 Sum of Mulliken charges =  -0.00000

 Dipole moment (field-independent basis, Debye):
    X=              0.0000    Y=             -0.0000    Z=              0.0000  Tot=              0.0000

 Test job not archived.
 1\1\GINC-SE155\SP\RHF\Aug-CC-pVDZ\C4H2N2\OHZDE\06-Apr-2025\0\\#t hf au
 g-cc-pvdz iop(5/13=1,5/36=2,99/5=2) pseudo=read geom=check guess=(read
 ,tcheck) scf=(maxcycle=1)\\title\\0,1\C,0,0.123949,-1.862885,0.\C,0,-0
 .123949,1.862885,0.\C,0,-0.463693,0.483335,0.\C,0,0.463693,-0.483335,0
 .\N,0,-0.123949,-2.988322,0.\N,0,0.123949,2.988322,0.\H,0,-1.519242,0.
 244524,0.\H,0,1.519242,-0.244524,0.\\Version=ES64L-G16RevC.01\State=1-
 AG\HF=-262.683519\RMSD=9.802e-01\Dipole=0.,0.,0.\Quadrupole=6.8484194,
 -10.3835958,3.5351764,-1.8355164,0.,0.\PG=C02H [SGH(C4H2N2)]\\@

 Normal termination of Gaussian 16 at Sun Apr  6 08:14:48 2025.
