 Gaussian 16, Revision C.01,

 ----------------------------------------------------------------------
 #t hf aug-cc-pvdz symm=none int=(grid=ultrafine) guess=(read,tcheck) s
 table=(opt,rrhf)
 ----------------------------------------------------------------------
 -----
 title
 -----
 Symbolic Z-matrix:
 Charge =  0 Multiplicity = 1

 SCF Done:  E(RHF) =  -341.399614849     A.U. after   15 cycles
 Normal termination of Gaussian 16 at Sun Apr  6 08:14:54 2025.
 Gaussian 16:  ES64L-G16RevC.01  3-Jul-2019

 ----------------------------------------------------------------------
 #t hf aug-cc-pvdz iop(5/13=1,5/36=2,99/5=2) pseudo=read geom=check gue
 ss=(read,tcheck) scf=(maxcycle=1)
 ----------------------------------------------------------------------
 -----
 title
 -----
 Structure from the checkpoint file:  "furan-2-carbaldehyde.chk"
 Charge =  0 Multiplicity = 1

                         Standard orientation:
 ---------------------------------------------------------------------
 Center     Atomic      Atomic             Coordinates (Angstroms)
 Number     Number       Type             X           Y           Z
 ---------------------------------------------------------------------
      1          6           0       -0.300615   -1.924790    0.000000
      2          6           0       -0.970523   -0.674797    0.000000
      3          6           0        1.032092   -1.640070    0.000000
      4          6           0        0.000000    0.288032    0.000000
      5          6           0       -0.029988    1.739577    0.000000
      6          8           0       -1.049576    2.396115    0.000000
      7          8           0        1.237658   -0.307636    0.000000
      8          1           0       -0.741738   -2.906165    0.000000
      9          1           0       -2.030305   -0.489429    0.000000
     10          1           0        1.913638   -2.256025    0.000000
     11          1           0        0.967952    2.216073    0.000000
 ---------------------------------------------------------------------

 SCF Done:  E(RHF) =  -342.896429190     A.U. after    2 cycles

 The electronic state is 1-A'.
 Alpha  occ. eigenvalues --  -21.13780 -21.06232 -11.49864 -11.49751 -11.46374
 Alpha  occ. eigenvalues --  -11.44105 -11.39700  -1.87372  -1.70440  -1.22182
 Alpha  occ. eigenvalues --   -1.11192  -0.92950  -0.83033  -0.78468  -0.73184
 Alpha  occ. eigenvalues --   -0.61844  -0.60609  -0.55414  -0.53648  -0.50479
 Alpha  occ. eigenvalues --   -0.46903  -0.45423  -0.35477  -0.31785  -0.30043
 Alpha virt. eigenvalues --    0.03056   0.04447   0.05540   0.06361   0.08842
 Alpha virt. eigenvalues --    0.09801   0.10095   0.12005   0.12105   0.12328
 Alpha virt. eigenvalues --    0.12589   0.13433   0.13489   0.14845   0.15330

 Mulliken charges:
               1
     1  C   -1.308966
     2  C   -2.894728
     3  C    0.141795
     4  C    4.994154
     5  C    0.671068
     6  O   -2.956961
     7  O   -4.225436
     8  H    1.287744
     9  H    1.368878
    10  H    1.448653
    11  H    1.473797
 Sum of Mulliken charges =  -0.00000

 Dipole moment (field-independent basis, Debye):
    X=              0.9125    Y=             -1.8449    Z=              0.0000  Tot=              2.0582

 Test job not archived.
 1\1\GINC-SE165\SP\RHF\Aug-CC-pVDZ\C5H4O2\OHZDE\06-Apr-2025\0\\#t hf au
 g-cc-pvdz iop(5/13=1,5/36=2,99/5=2) pseudo=read geom=check guess=(read
 ,tcheck) scf=(maxcycle=1)\\title\\0,1\C,0,-0.300615,-1.92479,0.\C,0,-0
 .970523,-0.674797,0.\C,0,1.032092,-1.64007,0.\C,0,0.,0.288032,0.\C,0,-
 0.029988,1.739577,0.\O,0,-1.049576,2.396115,0.\O,0,1.237658,-0.307636,
 0.\H,0,-0.741739,-2.906165,0.\H,0,-2.030305,-0.489429,0.\H,0,1.913637,
 -2.256025,0.\H,0,0.967952,2.216073,0.\\Version=ES64L-G16RevC.01\State=
 1-A'\HF=-342.8964292\RMSD=1.367e+00\Dipole=0.3590018,-0.7258437,0.\Qua

 Normal termination of Gaussian 16 at Sun Apr  6 08:15:57 2025.
