 Gaussian 16, Revision C.01,

 ----------------------------------------------------------------------
 #t hf aug-cc-pvdz symm=none int=(grid=ultrafine) guess=(read,tcheck) s
 table=(opt,rrhf)
 ----------------------------------------------------------------------
 -----
 title
 -----
 Symbolic Z-matrix:
 Charge =  0 Multiplicity = 1

 SCF Done:  E(RHF) =  -228.654526815     A.U. after   13 cycles
 Normal termination of Gaussian 16 at Sun Apr  6 08:14:44 2025.
 Gaussian 16:  ES64L-G16RevC.01  3-Jul-2019

 ----------------------------------------------------------------------
 #t hf aug-cc-pvdz iop(5/13=1,5/36=2,99/5=2) pseudo=read geom=check gue
 ss=(read,tcheck) scf=(maxcycle=1)
 ----------------------------------------------------------------------
 -----
 title
 -----
 Structure from the checkpoint file:  "furan.chk"
 Charge =  0 Multiplicity = 1

                         Standard orientation:
 ---------------------------------------------------------------------
 Center     Atomic      Atomic             Coordinates (Angstroms)
 Number     Number       Type             X           Y           Z
 ---------------------------------------------------------------------
      1          6           0        0.000000    0.716076   -0.955449
      2          6           0       -0.000000   -0.716076   -0.955449
      3          6           0        0.000000    1.093572    0.345603
      4          6           0       -0.000000   -1.093572    0.345603
      5          8           0        0.000000   -0.000000    1.157159
      6          1           0        0.000000    1.369847   -1.810079
      7          1           0       -0.000000   -1.369847   -1.810079
      8          1           0        0.000000    2.047381    0.840519
      9          1           0       -0.000000   -2.047381    0.840519
 ---------------------------------------------------------------------

 SCF Done:  E(RHF) =  -229.697421228     A.U. after    2 cycles

 The electronic state is 1-A1.
 Alpha  occ. eigenvalues --  -21.11237 -11.47426 -11.43159 -11.41993 -11.36665
 Alpha  occ. eigenvalues --   -1.84238  -1.19492  -1.05525  -0.80199  -0.80110
 Alpha  occ. eigenvalues --   -0.74213  -0.56988  -0.56290  -0.52594  -0.51276
 Alpha  occ. eigenvalues --   -0.42951  -0.33089  -0.31787
 Alpha virt. eigenvalues --    0.03492   0.04846   0.05768   0.06009   0.10987
 Alpha virt. eigenvalues --    0.11094   0.11767   0.13009   0.13703   0.14358
 Alpha virt. eigenvalues --    0.14475   0.14644   0.15261   0.15656   0.16099

 Mulliken charges:
               1
     1  C   -1.131730
     2  C   -1.131730
     3  C    0.210171
     4  C    0.210171
     5  O   -3.475326
     6  H    1.253127
     7  H    1.253127
     8  H    1.406095
     9  H    1.406095
 Sum of Mulliken charges =   0.00000

 Dipole moment (field-independent basis, Debye):
    X=             -0.0000    Y=              0.0000    Z=             -0.0322  Tot=              0.0322

 Test job not archived.
 1\1\GINC-SE222\SP\RHF\Aug-CC-pVDZ\C4H4O1\OHZDE\06-Apr-2025\0\\#t hf au
 g-cc-pvdz iop(5/13=1,5/36=2,99/5=2) pseudo=read geom=check guess=(read
 ,tcheck) scf=(maxcycle=1)\\title\\0,1\C,0,0.,0.716076,-0.955449\C,0,0.
 ,-0.716076,-0.955449\C,0,0.,1.093572,0.345603\C,0,0.,-1.093572,0.34560
 3\O,0,0.,0.,1.157159\H,0,0.,1.369847,-1.810079\H,0,0.,-1.369847,-1.810
 079\H,0,0.,2.047381,0.840519\H,0,0.,-2.047381,0.840519\\Version=ES64L-
 G16RevC.01\State=1-A1\HF=-229.6974212\RMSD=1.322e+00\Dipole=0.,0.,-0.0
 126667\Quadrupole=-3.2004879,2.5794638,0.6210241,0.,0.,0.\PG=C02V [C2(

 Normal termination of Gaussian 16 at Sun Apr  6 08:14:46 2025.
