 Gaussian 16, Revision C.01,

 ----------------------------------------------------------------------
 #t hf aug-cc-pvdz symm=none int=(grid=ultrafine) guess=(read,tcheck) s
 table=(opt,rrhf)
 ----------------------------------------------------------------------
 -----
 title
 -----
 Symbolic Z-matrix:
 Charge =  0 Multiplicity = 1

 SCF Done:  E(RHF) =  -304.745852858     A.U. after   13 cycles
 Normal termination of Gaussian 16 at Sun Apr  6 08:14:53 2025.
 Gaussian 16:  ES64L-G16RevC.01  3-Jul-2019

 ----------------------------------------------------------------------
 #t hf aug-cc-pvdz iop(5/13=1,5/36=2,99/5=2) pseudo=read geom=check gue
 ss=(read,tcheck) scf=(maxcycle=1)
 ----------------------------------------------------------------------
 -----
 title
 -----
 Structure from the checkpoint file:  "gamma-butyrolactone.chk"
 Charge =  0 Multiplicity = 1

                         Standard orientation:
 ---------------------------------------------------------------------
 Center     Atomic      Atomic             Coordinates (Angstroms)
 Number     Number       Type             X           Y           Z
 ---------------------------------------------------------------------
      1          1           0       -0.333393    2.025670   -0.458487
      2          1           0        1.594629    0.802016   -1.272848
      3          1           0        1.833367   -1.474019   -0.539014
      4          1           0       -0.033158    1.529153    1.201325
      5          6           0        0.022543    1.205712    0.159355
      6          1           0        2.219734    1.139183    0.340551
      7          6           0        1.405703    0.669565   -0.207531
      8          1           0        1.546271   -1.040846    1.156693
      9          6           0        1.270591   -0.821030    0.123306
     10          8           0       -2.082550   -0.030352   -0.067109
     11          6           0       -0.888795   -0.002092    0.002806
     12          8           0       -0.128412   -1.131408   -0.044870
 ---------------------------------------------------------------------

 SCF Done:  E(RHF) =  -306.097654939     A.U. after    2 cycles

 The electronic state is 1-A.
 Alpha  occ. eigenvalues --  -21.08747 -21.04555 -11.51974 -11.46898 -11.43282
 Alpha  occ. eigenvalues --  -11.38869  -1.84249  -1.66385  -1.22573  -1.05411
 Alpha  occ. eigenvalues --   -0.88445  -0.77112  -0.70180  -0.67381  -0.60807
 Alpha  occ. eigenvalues --   -0.57373  -0.54737  -0.49608  -0.48803  -0.46356
 Alpha  occ. eigenvalues --   -0.41758  -0.31360  -0.28662
 Alpha virt. eigenvalues --    0.03078   0.04908   0.05105   0.05265   0.05551
 Alpha virt. eigenvalues --    0.05989   0.10671   0.10947   0.11098   0.12756
 Alpha virt. eigenvalues --    0.13607   0.13863   0.14421   0.15060   0.15275

 Mulliken charges:
               1
     1  H    1.305483
     2  H    1.355308
     3  H    1.412449
     4  H    1.397807
     5  C   -3.395041
     6  H    1.275903
     7  C   -2.726510
     8  H    1.523908
     9  C   -1.553150
    10  O   -3.297079
    11  C    5.638592
    12  O   -2.937668
 Sum of Mulliken charges =  -0.00000

 Dipole moment (field-independent basis, Debye):
    X=              3.0266    Y=              0.7109    Z=              0.1828  Tot=              3.1144

 Test job not archived.
 1\1\GINC-SE223\SP\RHF\Aug-CC-pVDZ\C4H6O2\OHZDE\06-Apr-2025\0\\#t hf au
 g-cc-pvdz iop(5/13=1,5/36=2,99/5=2) pseudo=read geom=check guess=(read
 ,tcheck) scf=(maxcycle=1)\\title\\0,1\H,0,-0.333392,2.02567,-0.458487\
 H,0,1.594629,0.802015,-1.272848\H,0,1.833366,-1.47402,-0.539014\H,0,-0
 .033157,1.529153,1.201325\C,0,0.022543,1.205712,0.159355\H,0,2.219734,
 1.139182,0.340551\C,0,1.405703,0.669564,-0.207531\H,0,1.54627,-1.04084
 7,1.156693\C,0,1.270591,-0.821031,0.123306\O,0,-2.08255,-0.030351,-0.0
 67109\C,0,-0.888795,-0.002092,0.002806\O,0,-0.128413,-1.131408,-0.0448

 Normal termination of Gaussian 16 at Sun Apr  6 08:14:57 2025.
