 Gaussian 16, Revision C.01,

 ----------------------------------------------------------------------
 #t hf aug-cc-pvdz symm=none int=(grid=ultrafine) guess=(read,tcheck) s
 table=(opt,rrhf)
 ----------------------------------------------------------------------
 -----
 title
 -----
 Symbolic Z-matrix:
 Charge =  0 Multiplicity = 1

 SCF Done:  E(RHF) =  -683.460945034     A.U. after   12 cycles

 1\1\GINC-SE046\Stability\RHF\Aug-CC-pVDZ\C6H12O6\OHZDE\06-Apr-2025\0\\
 #t hf aug-cc-pvdz symm=none int=(grid=ultrafine) guess=(read,tcheck) s
 table=(opt,rrhf)\\title\\0,1\C,0,1.115853,0.989979,0.20106\C,0,-0.3144
 74,1.262685,-0.24486\C,0,1.590049,-0.399146,-0.223279\C,0,-1.222885,0.
 133264,0.240191\C,0,0.581955,-1.449023,0.245268\C,0,-2.647642,0.247392
 ,-0.273872\O,0,-0.712544,-1.117915,-0.238783\O,0,1.938737,2.012668,-0.
 343122\O,0,-0.797977,2.486634,0.288\O,0,2.916634,-0.629266,0.240675\O,
 0,0.944839,-2.68659,-0.268393\O,0,-3.47743,-0.790535,0.223836\H,0,1.14

 Normal termination of Gaussian 16 at Sun Apr  6 08:18:47 2025.
 Gaussian 16:  ES64L-G16RevC.01  3-Jul-2019

 ----------------------------------------------------------------------
 #t hf aug-cc-pvdz iop(5/13=1,5/36=2,99/5=2) pseudo=read geom=check gue
 ss=(read,tcheck) scf=(maxcycle=1)
 ----------------------------------------------------------------------
 -----
 title
 -----
 Structure from the checkpoint file:  "glucose.chk"
 Charge =  0 Multiplicity = 1

                         Standard orientation:
 ---------------------------------------------------------------------
 Center     Atomic      Atomic             Coordinates (Angstroms)
 Number     Number       Type             X           Y           Z
 ---------------------------------------------------------------------
      1          6           0        1.115853    0.989979    0.201060
      2          6           0       -0.314474    1.262685   -0.244860
      3          6           0        1.590049   -0.399146   -0.223279
      4          6           0       -1.222885    0.133264    0.240191
      5          6           0        0.581955   -1.449023    0.245268
      6          6           0       -2.647642    0.247392   -0.273872
      7          8           0       -0.712544   -1.117915   -0.238783
      8          8           0        1.938737    2.012668   -0.343122
      9          8           0       -0.797977    2.486634    0.288000
     10          8           0        2.916634   -0.629266    0.240675
     11          8           0        0.944839   -2.686590   -0.268393
     12          8           0       -3.477430   -0.790535    0.223836
     13          1           0        1.140111    1.046893    1.299737
     14          1           0       -0.336642    1.288486   -1.341217
     15          1           0        1.646637   -0.454256   -1.310960
     16          1           0       -1.241659    0.127736    1.337503
     17          1           0        0.545143   -1.472520    1.349105
     18          1           0       -2.633844    0.247751   -1.369821
     19          1           0       -3.076579    1.187253    0.065541
     20          1           0        2.858515    1.774040   -0.179127
     21          1           0       -0.153038    3.172141    0.080576
     22          1           0        2.899013   -0.846682    1.179337
     23          1           0        0.327548   -3.352594    0.052774
     24          1           0       -3.090410   -1.629125   -0.048206
 ---------------------------------------------------------------------

 SCF Done:  E(RHF) =  -686.418905577     A.U. after    2 cycles

 The electronic state is 1-A.
 Alpha  occ. eigenvalues --  -21.09548 -21.09245 -21.08361 -21.07857 -21.06719
 Alpha  occ. eigenvalues --  -21.06608 -11.53923 -11.50485 -11.50014 -11.47546
 Alpha  occ. eigenvalues --  -11.44038 -11.39900  -1.85061  -1.75737  -1.73503
 Alpha  occ. eigenvalues --   -1.70720  -1.69551  -1.67735  -1.17498  -1.13030
 Alpha  occ. eigenvalues --   -1.00152  -0.91430  -0.87942  -0.84495  -0.71117
 Alpha  occ. eigenvalues --   -0.70322  -0.69647  -0.66933  -0.62882  -0.61598
 Alpha  occ. eigenvalues --   -0.59127  -0.56772  -0.56468  -0.54232  -0.52965
 Alpha  occ. eigenvalues --   -0.52465  -0.48336  -0.44271  -0.42817  -0.41738
 Alpha  occ. eigenvalues --   -0.40433  -0.38886  -0.36844  -0.35140  -0.34369
 Alpha  occ. eigenvalues --   -0.31824  -0.31121  -0.29558
 Alpha virt. eigenvalues --    0.03719   0.03911   0.04725   0.05174   0.05755
 Alpha virt. eigenvalues --    0.06283   0.06344   0.06467   0.06972   0.07623
 Alpha virt. eigenvalues --    0.08512   0.08896   0.12090   0.12586   0.13071

 Mulliken charges:
               1
     1  C    1.850017
     2  C    1.184665
     3  C    0.872469
     4  C   -0.042570
     5  C    2.660825
     6  C   -0.929994
     7  O   -3.910682
     8  O   -3.664524
     9  O   -3.458587
    10  O   -3.347124
    11  O   -3.359672
    12  O   -2.863957
    13  H    1.579451
    14  H    1.639236
    15  H    1.678881
    16  H    2.045946
    17  H    1.704309
    18  H    1.307104
    19  H    1.345363
    20  H    0.779068
    21  H    0.735785
    22  H    0.642082
    23  H    0.759171
    24  H    0.792738
 Sum of Mulliken charges =  -0.00000

 Dipole moment (field-independent basis, Debye):
    X=              0.8039    Y=             -0.5292    Z=              0.4154  Tot=              1.0483

 Test job not archived.
 1\1\GINC-SE046\SP\RHF\Aug-CC-pVDZ\C6H12O6\OHZDE\06-Apr-2025\0\\#t hf a
 ug-cc-pvdz iop(5/13=1,5/36=2,99/5=2) pseudo=read geom=check guess=(rea
 d,tcheck) scf=(maxcycle=1)\\title\\0,1\C,0,1.115853,0.989979,0.20106\C
 ,0,-0.314474,1.262685,-0.24486\C,0,1.590049,-0.399146,-0.223279\C,0,-1
 .222885,0.133264,0.240191\C,0,0.581955,-1.449023,0.245268\C,0,-2.64764
 2,0.247392,-0.273872\O,0,-0.712544,-1.117915,-0.238783\O,0,1.938737,2.
 012668,-0.343122\O,0,-0.797977,2.486634,0.288\O,0,2.916634,-0.629266,0
 .240675\O,0,0.944839,-2.68659,-0.268393\O,0,-3.47743,-0.790535,0.22383

 Normal termination of Gaussian 16 at Sun Apr  6 08:19:19 2025.
