 Gaussian 16, Revision C.01,

 ----------------------------------------------------------------------
 #t hf aug-cc-pvdz symm=none int=(grid=ultrafine) guess=(read,tcheck) s
 table=(opt,rrhf)
 ----------------------------------------------------------------------
 -----
 title
 -----
 Symbolic Z-matrix:
 Charge =  0 Multiplicity = 1

 SCF Done:  E(RHF) =  -528.771712851     A.U. after   14 cycles
 Normal termination of Gaussian 16 at Sun Apr  6 08:16:17 2025.
 Gaussian 16:  ES64L-G16RevC.01  3-Jul-2019

 ----------------------------------------------------------------------
 #t hf aug-cc-pvdz iop(5/13=1,5/36=2,99/5=2) pseudo=read geom=check gue
 ss=(read,tcheck) scf=(maxcycle=1)
 ----------------------------------------------------------------------
 -----
 title
 -----
 Structure from the checkpoint file:  "glutamine.chk"
 Charge =  0 Multiplicity = 1

                         Standard orientation:
 ---------------------------------------------------------------------
 Center     Atomic      Atomic             Coordinates (Angstroms)
 Number     Number       Type             X           Y           Z
 ---------------------------------------------------------------------
      1          7           0       -1.424042    1.687954   -0.315662
      2          6           0       -1.175219    0.248620   -0.494595
      3          6           0       -2.365563   -0.567051    0.058790
      4          8           0       -2.366240   -1.768365    0.103385
      5          8           0       -3.404107    0.178411    0.450947
      6          1           0       -3.124488    1.108651    0.299481
      7          6           0        0.140646   -0.242894    0.117615
      8          6           0        1.376852    0.225616   -0.655543
      9          6           0        2.649673    0.036162    0.158499
     10          8           0        2.767995    0.503567    1.276755
     11          7           0        3.647934   -0.665145   -0.444780
     12          1           0       -1.174045    0.033000   -1.566491
     13          1           0        0.210972    0.115142    1.147316
     14          1           0        0.114142   -1.330876    0.160468
     15          1           0        1.436071   -0.283556   -1.619729
     16          1           0        1.310231    1.297639   -0.858898
     17          1           0        3.536523   -1.093206   -1.344786
     18          1           0        4.500031   -0.822115    0.066469
     19          1           0       -0.866188    2.078023    0.433662
     20          1           0       -1.250015    2.226005   -1.151686
 ---------------------------------------------------------------------

 SCF Done:  E(RHF) =  -531.122988520     A.U. after    2 cycles

 The electronic state is 1-A.
 Alpha  occ. eigenvalues --  -21.10403 -21.03948 -21.03005 -15.79093 -15.77150
 Alpha  occ. eigenvalues --  -11.52851 -11.52241 -11.47633 -11.44219 -11.39291
 Alpha  occ. eigenvalues --   -1.81561  -1.71226  -1.64749  -1.38899  -1.35498
 Alpha  occ. eigenvalues --   -1.19498  -1.05443  -0.92573  -0.81210  -0.77529
 Alpha  occ. eigenvalues --   -0.73064  -0.71969  -0.69392  -0.67428  -0.62419
 Alpha  occ. eigenvalues --   -0.61111  -0.56728  -0.55153  -0.52760  -0.50091
 Alpha  occ. eigenvalues --   -0.49109  -0.48444  -0.47260  -0.43052  -0.40094
 Alpha  occ. eigenvalues --   -0.33138  -0.32350  -0.29991  -0.27849
 Alpha virt. eigenvalues --    0.02868   0.03700   0.04222   0.05286   0.05465
 Alpha virt. eigenvalues --    0.06470   0.06930   0.07739   0.07906   0.08475
 Alpha virt. eigenvalues --    0.11134   0.11638   0.12257   0.12569   0.12995

 Mulliken charges:
               1
     1  N   -2.459297
     2  C   -2.244629
     3  C    6.710223
     4  O   -3.385136
     5  O   -3.238902
     6  H    1.105416
     7  C   -1.961618
     8  C   -4.216535
     9  C    6.069451
    10  O   -3.400763
    11  N   -3.344841
    12  H    1.795427
    13  H    1.539907
    14  H    1.507230
    15  H    1.492131
    16  H    1.531808
    17  H    0.698466
    18  H    0.758559
    19  H    0.562335
    20  H    0.480770
 Sum of Mulliken charges =   0.00000

 Dipole moment (field-independent basis, Debye):
    X=              2.4969    Y=              1.6228    Z=             -2.7666  Tot=              4.0647

 Test job not archived.
 1\1\GINC-SE047\SP\RHF\Aug-CC-pVDZ\C5H10N2O3\OHZDE\06-Apr-2025\0\\#t hf
  aug-cc-pvdz iop(5/13=1,5/36=2,99/5=2) pseudo=read geom=check guess=(r
 ead,tcheck) scf=(maxcycle=1)\\title\\0,1\N,0,-1.424042,1.687954,-0.315
 662\C,0,-1.175219,0.24862,-0.494595\C,0,-2.365563,-0.567051,0.05879\O,
 0,-2.36624,-1.768365,0.103385\O,0,-3.404107,0.178411,0.450947\H,0,-3.1
 24488,1.108651,0.299481\C,0,0.140646,-0.242894,0.117615\C,0,1.376852,0
 .225616,-0.655543\C,0,2.649673,0.036162,0.158499\O,0,2.767995,0.503567
 ,1.276755\N,0,3.647934,-0.665145,-0.44478\H,0,-1.174045,0.033,-1.56649

 Normal termination of Gaussian 16 at Sun Apr  6 08:16:41 2025.
