 Gaussian 16, Revision C.01,

 ----------------------------------------------------------------------
 #t hf aug-cc-pvdz symm=none int=(grid=ultrafine) guess=(read,tcheck) s
 table=(opt,rrhf)
 ----------------------------------------------------------------------
 -----
 title
 -----
 Symbolic Z-matrix:
 Charge =  0 Multiplicity = 1

 SCF Done:  E(RHF) =  -548.609588181     A.U. after   14 cycles
 Normal termination of Gaussian 16 at Sun Apr  6 08:16:10 2025.
 Gaussian 16:  ES64L-G16RevC.01  3-Jul-2019

 ----------------------------------------------------------------------
 #t hf aug-cc-pvdz iop(5/13=1,5/36=2,99/5=2) pseudo=read geom=check gue
 ss=(read,tcheck) scf=(maxcycle=1)
 ----------------------------------------------------------------------
 -----
 title
 -----
 Structure from the checkpoint file:  "glutamic_acid.chk"
 Charge =  0 Multiplicity = 1

                         Standard orientation:
 ---------------------------------------------------------------------
 Center     Atomic      Atomic             Coordinates (Angstroms)
 Number     Number       Type             X           Y           Z
 ---------------------------------------------------------------------
      1          7           0        0.630582    1.427132    0.497820
      2          6           0        0.942174   -0.008642    0.479325
      3          6           0        2.405547   -0.219182    0.025066
      4          8           0        2.939125   -1.297716    0.031446
      5          8           0        3.012778    0.899944   -0.375393
      6          1           0        2.332608    1.605804   -0.257569
      7          6           0        0.024429   -0.827843   -0.440883
      8          6           0       -1.389805   -1.084945    0.084499
      9          6           0       -2.385902    0.029375   -0.119800
     10          8           0       -2.158654    1.123873   -0.578738
     11          8           0       -3.623769   -0.339435    0.271599
     12          1           0        0.891335   -0.439220    1.483407
     13          1           0       -0.025257   -0.346028   -1.419975
     14          1           0        0.508995   -1.791744   -0.586679
     15          1           0       -1.813631   -1.966586   -0.401442
     16          1           0       -1.380996   -1.327411    1.150793
     17          1           0       -0.248077    1.634248    0.037933
     18          1           0        0.602211    1.803939    1.434644
     19          1           0       -4.215760    0.411176    0.113596
 ---------------------------------------------------------------------

 SCF Done:  E(RHF) =  -550.996942542     A.U. after    2 cycles

 The electronic state is 1-A.
 Alpha  occ. eigenvalues --  -21.14433 -21.09857 -21.07736 -21.03554 -15.75475
 Alpha  occ. eigenvalues --  -11.55834 -11.52007 -11.47692 -11.44953 -11.40263
 Alpha  occ. eigenvalues --   -1.85424  -1.81040  -1.67921  -1.64344  -1.37569
 Alpha  occ. eigenvalues --   -1.21238  -1.06351  -0.93606  -0.80279  -0.76963
 Alpha  occ. eigenvalues --   -0.71540  -0.70867  -0.67862  -0.64735  -0.63516
 Alpha  occ. eigenvalues --   -0.61189  -0.56584  -0.53965  -0.53770  -0.50777
 Alpha  occ. eigenvalues --   -0.49529  -0.47216  -0.46551  -0.43174  -0.39605
 Alpha  occ. eigenvalues --   -0.36203  -0.32513  -0.31907  -0.27741
 Alpha virt. eigenvalues --    0.03127   0.04350   0.04562   0.05179   0.06108
 Alpha virt. eigenvalues --    0.06672   0.06948   0.07507   0.08172   0.10504
 Alpha virt. eigenvalues --    0.11110   0.11723   0.12123   0.12503   0.12870

 Mulliken charges:
               1
     1  N   -2.466996
     2  C   -2.113356
     3  C    6.894504
     4  O   -3.426515
     5  O   -3.306523
     6  H    1.121602
     7  C   -2.103798
     8  C   -3.666350
     9  C    5.700744
    10  O   -3.009879
    11  O   -3.131897
    12  H    1.817984
    13  H    1.397006
    14  H    1.343590
    15  H    1.332393
    16  H    1.485022
    17  H    0.656187
    18  H    0.561947
    19  H    0.914336
 Sum of Mulliken charges =  -0.00000

 Dipole moment (field-independent basis, Debye):
    X=             -4.0097    Y=              0.7957    Z=              1.1183  Tot=              4.2381

 Test job not archived.
 1\1\GINC-SE047\SP\RHF\Aug-CC-pVDZ\C5H9N1O4\OHZDE\06-Apr-2025\0\\#t hf
 aug-cc-pvdz iop(5/13=1,5/36=2,99/5=2) pseudo=read geom=check guess=(re
 ad,tcheck) scf=(maxcycle=1)\\title\\0,1\N,0,0.630582,1.427132,0.49782\
 C,0,0.942174,-0.008642,0.479325\C,0,2.405547,-0.219182,0.025066\O,0,2.
 939125,-1.297716,0.031446\O,0,3.012778,0.899944,-0.375393\H,0,2.332608
 ,1.605804,-0.257569\C,0,0.024429,-0.827843,-0.440883\C,0,-1.389805,-1.
 084945,0.084499\C,0,-2.385902,0.029375,-0.1198\O,0,-2.158654,1.123873,
 -0.578738\O,0,-3.623769,-0.339435,0.271599\H,0,0.891335,-0.43922,1.483

 Normal termination of Gaussian 16 at Sun Apr  6 08:16:40 2025.
