 Gaussian 16, Revision C.01,

 ----------------------------------------------------------------------
 #t hf aug-cc-pvdz symm=none int=(grid=ultrafine) guess=(read,tcheck) s
 table=(opt,rrhf)
 ----------------------------------------------------------------------
 -----
 title
 -----
 Symbolic Z-matrix:
 Charge =  0 Multiplicity = 1

 SCF Done:  E(RHF) =  -342.887774761     A.U. after   12 cycles
 Normal termination of Gaussian 16 at Sun Apr  6 08:15:02 2025.
 Gaussian 16:  ES64L-G16RevC.01  3-Jul-2019

 ----------------------------------------------------------------------
 #t hf aug-cc-pvdz iop(5/13=1,5/36=2,99/5=2) pseudo=read geom=check gue
 ss=(read,tcheck) scf=(maxcycle=1)
 ----------------------------------------------------------------------
 -----
 title
 -----
 Structure from the checkpoint file:  "glycerine.chk"
 Charge =  0 Multiplicity = 1

                         Standard orientation:
 ---------------------------------------------------------------------
 Center     Atomic      Atomic             Coordinates (Angstroms)
 Number     Number       Type             X           Y           Z
 ---------------------------------------------------------------------
      1          8           0       -2.417963    0.047987   -0.123897
      2          1           0       -1.254547   -0.774720    1.304580
      3          1           0       -1.302489   -1.718686   -0.195314
      4          6           0       -1.251091   -0.706463    0.216624
      5          8           0        0.061919    1.328254    0.263126
      6          1           0        0.015456    0.038391   -1.353421
      7          6           0        0.012297    0.000165   -0.254588
      8          1           0        1.281639   -0.756010    1.300499
      9          1           0        1.324011   -1.707294   -0.195753
     10          6           0        1.283432   -0.694142    0.205599
     11          1           0        2.364208    0.899324   -0.013832
     12          8           0        2.446879   -0.029282   -0.258813
     13          1           0       -0.816557    1.714063    0.164460
     14          1           0       -2.606229   -0.068088   -1.060358
 ---------------------------------------------------------------------

 SCF Done:  E(RHF) =  -344.395284962     A.U. after    2 cycles

 The electronic state is 1-A.
 Alpha  occ. eigenvalues --  -21.08754 -21.07027 -21.06287 -11.46501 -11.45111
 Alpha  occ. eigenvalues --  -11.39213  -1.76094  -1.70573  -1.67773  -1.13169
 Alpha  occ. eigenvalues --   -0.96617  -0.84676  -0.70635  -0.66798  -0.63759
 Alpha  occ. eigenvalues --   -0.58609  -0.56457  -0.52770  -0.51898  -0.44732
 Alpha  occ. eigenvalues --   -0.41681  -0.39839  -0.35468  -0.32166  -0.30120
 Alpha virt. eigenvalues --    0.03836   0.04779   0.05583   0.05905   0.06238
 Alpha virt. eigenvalues --    0.06606   0.06884   0.08021   0.10424   0.13012
 Alpha virt. eigenvalues --    0.14206   0.14844   0.15275   0.15771   0.15942

 Mulliken charges:
               1
     1  O   -2.545086
     2  H    1.287827
     3  H    1.324423
     4  C   -0.611572
     5  O   -2.982625
     6  H    1.684469
     7  C    0.103636
     8  H    1.277465
     9  H    1.328138
    10  C   -0.439063
    11  H    0.806095
    12  O   -2.749513
    13  H    0.827768
    14  H    0.688038
 Sum of Mulliken charges =  -0.00000

 Dipole moment (field-independent basis, Debye):
    X=             -1.0995    Y=             -0.3844    Z=             -0.3933  Tot=              1.2294

 Test job not archived.
 1\1\GINC-SE084\SP\RHF\Aug-CC-pVDZ\C3H8O3\OHZDE\06-Apr-2025\0\\#t hf au
 g-cc-pvdz iop(5/13=1,5/36=2,99/5=2) pseudo=read geom=check guess=(read
 ,tcheck) scf=(maxcycle=1)\\title\\0,1\O,0,-2.417963,0.047987,-0.123897
 \H,0,-1.254547,-0.77472,1.30458\H,0,-1.302489,-1.718686,-0.195314\C,0,
 -1.251091,-0.706463,0.216624\O,0,0.061919,1.328254,0.263126\H,0,0.0154
 56,0.038391,-1.353421\C,0,0.012297,0.000165,-0.254588\H,0,1.281639,-0.
 75601,1.300499\H,0,1.324011,-1.707294,-0.195753\C,0,1.283432,-0.694142
 ,0.205599\H,0,2.364208,0.899324,-0.013832\O,0,2.446879,-0.029282,-0.25

 Normal termination of Gaussian 16 at Sun Apr  6 08:15:56 2025.
