 Gaussian 16, Revision C.01,

 ----------------------------------------------------------------------
 #t hf aug-cc-pvdz symm=none int=(grid=ultrafine) guess=(read,tcheck) s
 table=(opt,rrhf)
 ----------------------------------------------------------------------
 -----
 title
 -----
 Symbolic Z-matrix:
 Charge =  0 Multiplicity = 1

 SCF Done:  E(RHF) =  -282.885044295     A.U. after   13 cycles
 Normal termination of Gaussian 16 at Sun Apr  6 08:14:45 2025.
 Gaussian 16:  ES64L-G16RevC.01  3-Jul-2019

 ----------------------------------------------------------------------
 #t hf aug-cc-pvdz iop(5/13=1,5/36=2,99/5=2) pseudo=read geom=check gue
 ss=(read,tcheck) scf=(maxcycle=1)
 ----------------------------------------------------------------------
 -----
 title
 -----
 Structure from the checkpoint file:  "glycine.chk"
 Charge =  0 Multiplicity = 1

                         Standard orientation:
 ---------------------------------------------------------------------
 Center     Atomic      Atomic             Coordinates (Angstroms)
 Number     Number       Type             X           Y           Z
 ---------------------------------------------------------------------
      1          6           0        0.000000    0.554399    0.000000
      2          8           0        1.166268    0.850486    0.000000
      3          8           0       -0.993246    1.475442    0.000000
      4          6           0       -0.558650   -0.860872    0.000000
      5          7           0        0.418261   -1.927134    0.000000
      6          1           0       -0.577661    2.350468    0.000000
      7          1           0       -1.213149   -0.954876    0.869365
      8          1           0       -1.213149   -0.954876   -0.869365
      9          1           0        1.021928   -1.859686    0.809956
     10          1           0        1.021928   -1.859686   -0.809956
 ---------------------------------------------------------------------

 SCF Done:  E(RHF) =  -284.111168588     A.U. after    2 cycles

 The electronic state is 1-A'.
 Alpha  occ. eigenvalues --  -21.12776 -21.05999 -15.74181 -11.52513 -11.42016
 Alpha  occ. eigenvalues --   -1.83199  -1.65951  -1.34254  -1.03418  -0.79953
 Alpha  occ. eigenvalues --   -0.69291  -0.65122  -0.62019  -0.57654  -0.54973
 Alpha  occ. eigenvalues --   -0.49499  -0.47162  -0.36965  -0.34722  -0.30230
 Alpha virt. eigenvalues --    0.03712   0.05564   0.05993   0.06071   0.07305
 Alpha virt. eigenvalues --    0.10233   0.11502   0.11663   0.12006   0.14477
 Alpha virt. eigenvalues --    0.15669   0.17389   0.18426   0.18716   0.19590

 Mulliken charges:
               1
     1  C    5.405454
     2  O   -2.909977
     3  O   -2.964098
     4  C   -2.288840
     5  N   -2.074758
     6  H    0.919921
     7  H    1.378245
     8  H    1.378245
     9  H    0.577904
    10  H    0.577904
 Sum of Mulliken charges =  -0.00000

 Dipole moment (field-independent basis, Debye):
    X=             -0.5065    Y=              0.6120    Z=              0.0000  Tot=              0.7944

 Test job not archived.
 1\1\GINC-SE085\SP\RHF\Aug-CC-pVDZ\C2H5N1O2\OHZDE\06-Apr-2025\0\\#t hf
 aug-cc-pvdz iop(5/13=1,5/36=2,99/5=2) pseudo=read geom=check guess=(re
 ad,tcheck) scf=(maxcycle=1)\\title\\0,1\C,0,0.,0.554399,0.\O,0,1.16626
 8,0.850486,0.\O,0,-0.993246,1.475442,0.\C,0,-0.55865,-0.860872,0.\N,0,
 0.418261,-1.927134,0.\H,0,-0.577661,2.350468,0.\H,0,-1.213149,-0.95487
 6,0.869365\H,0,-1.213149,-0.954876,-0.869365\H,0,1.021928,-1.859686,0.
 809956\H,0,1.021928,-1.859686,-0.809956\\Version=ES64L-G16RevC.01\Stat
 e=1-A'\HF=-284.1111686\RMSD=1.998e-01\Dipole=-0.1992841,0.2407852,0.\Q

 Normal termination of Gaussian 16 at Sun Apr  6 08:14:49 2025.
