 Gaussian 16, Revision C.01,

 ----------------------------------------------------------------------
 #t hf aug-cc-pvdz symm=none int=(grid=ultrafine) guess=(read,tcheck) s
 table=(opt,rrhf)
 ----------------------------------------------------------------------
 -----
 title
 -----
 Symbolic Z-matrix:
 Charge =  0 Multiplicity = 1

 SCF Done:  E(RHF) =  -302.716200845     A.U. after   13 cycles
 Normal termination of Gaussian 16 at Sun Apr  6 08:14:44 2025.
 Gaussian 16:  ES64L-G16RevC.01  3-Jul-2019

 ----------------------------------------------------------------------
 #t hf aug-cc-pvdz iop(5/13=1,5/36=2,99/5=2) pseudo=read geom=check gue
 ss=(read,tcheck) scf=(maxcycle=1)
 ----------------------------------------------------------------------
 -----
 title
 -----
 Structure from the checkpoint file:  "glycolic_acid.chk"
 Charge =  0 Multiplicity = 1

                         Standard orientation:
 ---------------------------------------------------------------------
 Center     Atomic      Atomic             Coordinates (Angstroms)
 Number     Number       Type             X           Y           Z
 ---------------------------------------------------------------------
      1          6           0       -0.738863   -0.744609    0.000092
      2          6           0        0.514163    0.098603    0.000027
      3          8           0        1.636178   -0.642445   -0.000068
      4          8           0        0.505631    1.304270    0.000046
      5          8           0       -1.893095    0.053803   -0.000097
      6          1           0       -0.715438   -1.394908   -0.880519
      7          1           0       -0.715500   -1.394600    0.880937
      8          1           0       -1.602727    0.976905   -0.000086
      9          1           0        2.392158   -0.036384   -0.000096
 ---------------------------------------------------------------------

 SCF Done:  E(RHF) =  -303.979448784     A.U. after    2 cycles

 The electronic state is 1-A.
 Alpha  occ. eigenvalues --  -21.14415 -21.07760 -21.07485 -11.54178 -11.44210
 Alpha  occ. eigenvalues --   -1.85421  -1.72325  -1.67139  -1.06932  -0.81362
 Alpha  occ. eigenvalues --   -0.68655  -0.66726  -0.63872  -0.56502  -0.53268
 Alpha  occ. eigenvalues --   -0.48491  -0.42068  -0.36336  -0.33053  -0.32637
 Alpha virt. eigenvalues --    0.03538   0.05326   0.06227   0.07228   0.09979
 Alpha virt. eigenvalues --    0.11266   0.11339   0.11741   0.14021   0.15799
 Alpha virt. eigenvalues --    0.16660   0.17162   0.18161   0.20830   0.22409

 Mulliken charges:
               1
     1  C   -0.733224
     2  C    4.668378
     3  O   -2.930976
     4  O   -2.766035
     5  O   -2.566592
     6  H    1.339066
     7  H    1.339037
     8  H    0.792408
     9  H    0.857940
 Sum of Mulliken charges =  -0.00000

 Dipole moment (field-independent basis, Debye):
    X=              1.2919    Y=             -0.7547    Z=              0.0000  Tot=              1.4962

 Test job not archived.
 1\1\GINC-SE086\SP\RHF\Aug-CC-pVDZ\C2H4O3\OHZDE\06-Apr-2025\0\\#t hf au
 g-cc-pvdz iop(5/13=1,5/36=2,99/5=2) pseudo=read geom=check guess=(read
 ,tcheck) scf=(maxcycle=1)\\title\\0,1\C,0,-0.738863,-0.744609,0.000092
 \C,0,0.514163,0.098603,0.000027\O,0,1.636178,-0.642444,-0.000068\O,0,0
 .50563,1.30427,0.000046\O,0,-1.893095,0.053802,-0.000097\H,0,-0.715437
 ,-1.394908,-0.880519\H,0,-0.715499,-1.3946,0.880937\H,0,-1.602727,0.97
 6904,-0.000086\H,0,2.392158,-0.036383,-0.000096\\Version=ES64L-G16RevC
 .01\State=1-A\HF=-303.9794488\RMSD=2.087e-01\Dipole=0.5082612,-0.29693

 Normal termination of Gaussian 16 at Sun Apr  6 08:14:47 2025.
