 Gaussian 16, Revision C.01,

 ----------------------------------------------------------------------
 #t hf aug-cc-pvdz symm=none int=(grid=ultrafine) guess=(read,tcheck) s
 table=(opt,rrhf)
 ----------------------------------------------------------------------
 -----
 title
 -----
 Symbolic Z-matrix:
 Charge =  0 Multiplicity = 1

 SCF Done:  E(RHF) =  -336.586315073     A.U. after   13 cycles
 Normal termination of Gaussian 16 at Sun Apr  6 08:14:49 2025.
 Gaussian 16:  ES64L-G16RevC.01  3-Jul-2019

 ----------------------------------------------------------------------
 #t hf aug-cc-pvdz iop(5/13=1,5/36=2,99/5=2) pseudo=read geom=check gue
 ss=(read,tcheck) scf=(maxcycle=1)
 ----------------------------------------------------------------------
 -----
 title
 -----
 Structure from the checkpoint file:  "glyoxime.chk"
 Charge =  0 Multiplicity = 1

                         Standard orientation:
 ---------------------------------------------------------------------
 Center     Atomic      Atomic             Coordinates (Angstroms)
 Number     Number       Type             X           Y           Z
 ---------------------------------------------------------------------
      1          8           0        1.166590    2.672477    0.000000
      2          8           0       -1.166590   -2.672477    0.000000
      3          7           0        1.166590    1.298532    0.000000
      4          7           0       -1.166590   -1.298532    0.000000
      5          6           0        0.027863    0.723227    0.000000
      6          6           0       -0.027863   -0.723227    0.000000
      7          1           0        0.248784    2.997834    0.000000
      8          1           0       -0.248784   -2.997834    0.000000
      9          1           0       -0.917383    1.269774    0.000000
     10          1           0        0.917383   -1.269774    0.000000
 ---------------------------------------------------------------------

 SCF Done:  E(RHF) =  -338.040721974     A.U. after    2 cycles

 The electronic state is 1-AG.
 Alpha  occ. eigenvalues --  -21.12411 -21.12393 -15.81436 -15.81377 -11.48067
 Alpha  occ. eigenvalues --  -11.43110  -1.82684  -1.81500  -1.33828  -1.22992
 Alpha  occ. eigenvalues --   -0.93158  -0.84968  -0.70632  -0.69227  -0.63480
 Alpha  occ. eigenvalues --   -0.58387  -0.52793  -0.50569  -0.44882  -0.43150
 Alpha  occ. eigenvalues --   -0.42741  -0.37269  -0.28366
 Alpha virt. eigenvalues --    0.03778   0.04455   0.06675   0.06812   0.09763
 Alpha virt. eigenvalues --    0.10066   0.10769   0.12327   0.14271   0.14363
 Alpha virt. eigenvalues --    0.14397   0.16472   0.17913   0.17914   0.17998

 Mulliken charges:
               1
     1  O   -2.376822
     2  O   -2.376822
     3  N   -0.619330
     4  N   -0.619330
     5  C    0.585235
     6  C    0.585235
     7  H    0.753722
     8  H    0.753722
     9  H    1.657195
    10  H    1.657195
 Sum of Mulliken charges =  -0.00000

 Dipole moment (field-independent basis, Debye):
    X=              0.0000    Y=              0.0000    Z=              0.0000  Tot=              0.0000

 Test job not archived.
 1\1\GINC-SE168\SP\RHF\Aug-CC-pVDZ\C2H4N2O2\OHZDE\06-Apr-2025\0\\#t hf
 aug-cc-pvdz iop(5/13=1,5/36=2,99/5=2) pseudo=read geom=check guess=(re
 ad,tcheck) scf=(maxcycle=1)\\title\\0,1\O,0,1.16659,2.672477,0.\O,0,-1
 .16659,-2.672477,0.\N,0,1.16659,1.298532,0.\N,0,-1.16659,-1.298532,0.\
 C,0,0.027863,0.723227,0.\C,0,-0.027863,-0.723227,0.\H,0,0.248784,2.997
 834,0.\H,0,-0.248784,-2.997834,0.\H,0,-0.917383,1.269774,0.\H,0,0.9173
 83,-1.269774,0.\\Version=ES64L-G16RevC.01\State=1-AG\HF=-338.040722\RM
 SD=3.499e-01\Dipole=0.,0.,0.\Quadrupole=-3.5108406,4.8344617,-1.323621

 Normal termination of Gaussian 16 at Sun Apr  6 08:14:53 2025.
