 Gaussian 16, Revision C.01,

 ----------------------------------------------------------------------
 #t hf aug-cc-pvdz symm=none int=(grid=ultrafine) guess=(read,tcheck) s
 table=(opt,rrhf)
 ----------------------------------------------------------------------
 -----
 title
 -----
 Symbolic Z-matrix:
 Charge =  0 Multiplicity = 1

 SCF Done:  E(RHF) =  -204.167999322     A.U. after   13 cycles
 Normal termination of Gaussian 16 at Sun Apr  6 08:14:44 2025.
 Gaussian 16:  ES64L-G16RevC.01  3-Jul-2019

 ----------------------------------------------------------------------
 #t hf aug-cc-pvdz iop(5/13=1,5/36=2,99/5=2) pseudo=read geom=check gue
 ss=(read,tcheck) scf=(maxcycle=1)
 ----------------------------------------------------------------------
 -----
 title
 -----
 Structure from the checkpoint file:  "guanidine.chk"
 Charge =  0 Multiplicity = 1

                         Standard orientation:
 ---------------------------------------------------------------------
 Center     Atomic      Atomic             Coordinates (Angstroms)
 Number     Number       Type             X           Y           Z
 ---------------------------------------------------------------------
      1          6           0       -0.017918    0.121480    0.000209
      2          7           0       -0.222839    1.381238    0.009408
      3          7           0       -0.973010   -0.891051    0.074673
      4          7           0        1.277017   -0.374144   -0.080092
      5          1           0       -1.210359    1.609787   -0.043242
      6          1           0       -1.924503   -0.586110   -0.046428
      7          1           0       -0.761142   -1.727615   -0.447294
      8          1           0        1.968808    0.351335    0.024724
      9          1           0        1.466533   -1.188580    0.483063
 ---------------------------------------------------------------------

 SCF Done:  E(RHF) =  -205.118072822     A.U. after    2 cycles

 The electronic state is 1-A.
 Alpha  occ. eigenvalues --  -15.77012 -15.75942 -15.69586 -11.46420  -1.47717
 Alpha  occ. eigenvalues --   -1.27124  -1.22240  -0.82987  -0.71678  -0.69546
 Alpha  occ. eigenvalues --   -0.59559  -0.56813  -0.54130  -0.39199  -0.37407
 Alpha  occ. eigenvalues --   -0.32315
 Alpha virt. eigenvalues --    0.03433   0.04953   0.05659   0.07134   0.07240
 Alpha virt. eigenvalues --    0.12040   0.12613   0.15160   0.15331   0.16539
 Alpha virt. eigenvalues --    0.17808   0.18515   0.19622   0.20109   0.20986

 Mulliken charges:
               1
     1  C    4.668022
     2  N   -2.710674
     3  N   -2.408793
     4  N   -2.512106
     5  H    0.645217
     6  H    0.535591
     7  H    0.641673
     8  H    0.588396
     9  H    0.552673
 Sum of Mulliken charges =  -0.00000

 Dipole moment (field-independent basis, Debye):
    X=             -0.6134    Y=             -2.7400    Z=             -0.0335  Tot=              2.8080

 Test job not archived.
 1\1\GINC-SE169\SP\RHF\Aug-CC-pVDZ\C1H5N3\OHZDE\06-Apr-2025\0\\#t hf au
 g-cc-pvdz iop(5/13=1,5/36=2,99/5=2) pseudo=read geom=check guess=(read
 ,tcheck) scf=(maxcycle=1)\\title\\0,1\C,0,-0.017919,0.12148,0.000209\N
 ,0,-0.222845,1.381237,0.009408\N,0,-0.973006,-0.891055,0.074673\N,0,1.
 277018,-0.374139,-0.080092\H,0,-1.210366,1.609782,-0.043242\H,0,-1.924
 501,-0.586118,-0.046428\H,0,-0.761135,-1.727618,-0.447294\H,0,1.968806
 ,0.351343,0.024724\H,0,1.466538,-1.188574,0.483063\\Version=ES64L-G16R
 evC.01\State=1-A\HF=-205.1180728\RMSD=6.474e-02\Dipole=-0.2413199,-1.0

 Normal termination of Gaussian 16 at Sun Apr  6 08:14:46 2025.
