 Gaussian 16, Revision C.01,

 ----------------------------------------------------------------------
 #t hf aug-cc-pvdz symm=none int=(grid=ultrafine) guess=(read,tcheck) s
 table=(opt,rrhf)
 ----------------------------------------------------------------------
 -----
 title
 -----
 Symbolic Z-matrix:
 Charge =  0 Multiplicity = 1

 SCF Done:  E(RHF) =  -274.431613280     A.U. after   11 cycles
 Normal termination of Gaussian 16 at Sun Apr  6 08:15:51 2025.
 Gaussian 16:  ES64L-G16RevC.01  3-Jul-2019

 ----------------------------------------------------------------------
 #t hf aug-cc-pvdz iop(5/13=1,5/36=2,99/5=2) pseudo=read geom=check gue
 ss=(read,tcheck) scf=(maxcycle=1)
 ----------------------------------------------------------------------
 -----
 title
 -----
 Structure from the checkpoint file:  "heptane.chk"
 Charge =  0 Multiplicity = 1

                         Standard orientation:
 ---------------------------------------------------------------------
 Center     Atomic      Atomic             Coordinates (Angstroms)
 Number     Number       Type             X           Y           Z
 ---------------------------------------------------------------------
      1          6           0        0.000000    3.833474   -0.352624
      2          6           0       -0.000000   -3.833474   -0.352624
      3          6           0        0.000000    2.560916    0.492939
      4          6           0       -0.000000   -2.560916    0.492939
      5          6           0        0.000000    1.279918   -0.342345
      6          6           0       -0.000000   -1.279918   -0.342345
      7          6           0       -0.000000   -0.000000    0.494121
      8          1           0        0.000000    4.728440    0.271238
      9          1           0       -0.880595    3.878602   -0.996848
     10          1           0        0.880595    3.878602   -0.996848
     11          1           0       -0.880595   -3.878602   -0.996848
     12          1           0        0.880595   -3.878602   -0.996848
     13          1           0       -0.000000   -4.728440    0.271238
     14          1           0       -0.873897    2.560727    1.151361
     15          1           0        0.873897    2.560727    1.151361
     16          1           0        0.873897   -2.560727    1.151361
     17          1           0       -0.873897   -2.560727    1.151361
     18          1           0       -0.874400    1.280845   -1.001938
     19          1           0        0.874400    1.280845   -1.001938
     20          1           0        0.874400   -1.280845   -1.001938
     21          1           0       -0.874400   -1.280845   -1.001938
     22          1           0        0.874450   -0.000000    1.153429
     23          1           0       -0.874450    0.000000    1.153429
 ---------------------------------------------------------------------

 SCF Done:  E(RHF) =  -275.890076909     A.U. after    2 cycles

 The electronic state is 1-A1.
 Alpha  occ. eigenvalues --  -11.41796 -11.41595 -11.39740 -11.37838 -11.36131
 Alpha  occ. eigenvalues --  -11.35035 -11.33215  -1.27666  -1.18324  -1.07825
 Alpha  occ. eigenvalues --   -0.97785  -0.88653  -0.82357  -0.81547  -0.66206
 Alpha  occ. eigenvalues --   -0.62323  -0.58819  -0.57738  -0.57244  -0.54688
 Alpha  occ. eigenvalues --   -0.52055  -0.49048  -0.48682  -0.47580  -0.44993
 Alpha  occ. eigenvalues --   -0.44683  -0.44510  -0.43846  -0.37563
 Alpha virt. eigenvalues --    0.04274   0.04731   0.04925   0.05670   0.05671
 Alpha virt. eigenvalues --    0.06077   0.06097   0.06586   0.07229   0.07416
 Alpha virt. eigenvalues --    0.07860   0.07943   0.09398   0.10012   0.10728

 Mulliken charges:
               1
     1  C   -4.633868
     2  C   -4.633868
     3  C   -3.309903
     4  C   -3.309903
     5  C   -2.530197
     6  C   -2.530197
     7  C   -1.833500
     8  H    1.078709
     9  H    1.342957
    10  H    1.342957
    11  H    1.342957
    12  H    1.342957
    13  H    1.078709
    14  H    1.467807
    15  H    1.467807
    16  H    1.467807
    17  H    1.467807
    18  H    1.563061
    19  H    1.563061
    20  H    1.563061
    21  H    1.563061
    22  H    1.564360
    23  H    1.564360
 Sum of Mulliken charges =  -0.00000

 Dipole moment (field-independent basis, Debye):
    X=             -0.0000    Y=             -0.0000    Z=              0.1396  Tot=              0.1396

 Test job not archived.
 1\1\GINC-SE398\SP\RHF\Aug-CC-pVDZ\C7H16\OHZDE\06-Apr-2025\0\\#t hf aug
 -cc-pvdz iop(5/13=1,5/36=2,99/5=2) pseudo=read geom=check guess=(read,
 tcheck) scf=(maxcycle=1)\\title\\0,1\C,0,0.,3.833474,-0.352624\C,0,0.,
 -3.833474,-0.352624\C,0,0.,2.560916,0.492939\C,0,0.,-2.560916,0.492939
 \C,0,0.,1.279918,-0.342345\C,0,0.,-1.279918,-0.342345\C,0,0.,0.,0.4941
 21\H,0,0.,4.72844,0.271238\H,0,-0.880595,3.878602,-0.996848\H,0,0.8805
 95,3.878602,-0.996848\H,0,-0.880595,-3.878602,-0.996848\H,0,0.880595,-
 3.878602,-0.996848\H,0,0.,-4.72844,0.271238\H,0,-0.873897,2.560727,1.1

 Normal termination of Gaussian 16 at Sun Apr  6 08:16:00 2025.
