 Gaussian 16, Revision C.01,

 ----------------------------------------------------------------------
 #t hf aug-cc-pvdz symm=none int=(grid=ultrafine) guess=(read,tcheck) s
 table=(opt,rrhf)
 ----------------------------------------------------------------------
 -----
 title
 -----
 Symbolic Z-matrix:
 Charge =  0 Multiplicity = 1

 SCF Done:  E(RHF) =  -348.133716155     A.U. after   13 cycles

 1\1\GINC-SE013\Stability\RHF\Aug-CC-pVDZ\C7H14O1\OHZDE\06-Apr-2025\0\\
 #t hf aug-cc-pvdz symm=none int=(grid=ultrafine) guess=(read,tcheck) s
 table=(opt,rrhf)\\title\\0,1\C,0,2.934907,-1.847531,0.\C,0,-3.741441,1
 .922109,0.\C,0,2.204069,-0.532137,0.\C,0,-2.216713,2.017532,0.\C,0,0.6
 83613,-0.629266,0.\C,0,-1.526489,0.65337,0.\C,0,0.,0.738127,0.\O,0,2.4
 12916,-2.933644,0.\H,0,4.042127,-1.761298,0.\H,0,-4.203476,2.910263,0.
 \H,0,-4.102888,1.387142,0.88065\H,0,-4.102888,1.387142,-0.88065\H,0,2.
 570407,0.032064,0.867377\H,0,2.570407,0.032064,-0.867377\H,0,-1.88739,

 Normal termination of Gaussian 16 at Sun Apr  6 08:16:17 2025.
 Gaussian 16:  ES64L-G16RevC.01  3-Jul-2019

 ----------------------------------------------------------------------
 #t hf aug-cc-pvdz iop(5/13=1,5/36=2,99/5=2) pseudo=read geom=check gue
 ss=(read,tcheck) scf=(maxcycle=1)
 ----------------------------------------------------------------------
 -----
 title
 -----
 Structure from the checkpoint file:  "heptanal.chk"
 Charge =  0 Multiplicity = 1

                         Standard orientation:
 ---------------------------------------------------------------------
 Center     Atomic      Atomic             Coordinates (Angstroms)
 Number     Number       Type             X           Y           Z
 ---------------------------------------------------------------------
      1          6           0        2.934907   -1.847531    0.000000
      2          6           0       -3.741441    1.922109    0.000000
      3          6           0        2.204069   -0.532137    0.000000
      4          6           0       -2.216713    2.017532    0.000000
      5          6           0        0.683613   -0.629266    0.000000
      6          6           0       -1.526489    0.653370    0.000000
      7          6           0        0.000000    0.738127    0.000000
      8          8           0        2.412916   -2.933644    0.000000
      9          1           0        4.042127   -1.761298    0.000000
     10          1           0       -4.203476    2.910263    0.000000
     11          1           0       -4.102888    1.387142    0.880650
     12          1           0       -4.102888    1.387142   -0.880650
     13          1           0        2.570407    0.032064    0.867377
     14          1           0        2.570407    0.032064   -0.867377
     15          1           0       -1.887390    2.587509    0.874110
     16          1           0       -1.887390    2.587509   -0.874110
     17          1           0        0.362464   -1.205426   -0.870679
     18          1           0        0.362464   -1.205426    0.870679
     19          1           0       -1.856331    0.082600    0.874379
     20          1           0       -1.856331    0.082600   -0.874379
     21          1           0        0.328909    1.309595   -0.874725
     22          1           0        0.328909    1.309595    0.874725
 ---------------------------------------------------------------------

 SCF Done:  E(RHF) =  -349.841891961     A.U. after    2 cycles

 The electronic state is 1-A'.
 Alpha  occ. eigenvalues --  -21.06008 -11.48787 -11.42891 -11.42329 -11.40619
 Alpha  occ. eigenvalues --  -11.38185 -11.36390 -11.34312  -1.70724  -1.27904
 Alpha  occ. eigenvalues --   -1.17984  -1.07180  -0.96605  -0.87178  -0.82451
 Alpha  occ. eigenvalues --   -0.78761  -0.67107  -0.64984  -0.62916  -0.58997
 Alpha  occ. eigenvalues --   -0.57270  -0.54848  -0.52519  -0.51349  -0.50149
 Alpha  occ. eigenvalues --   -0.46877  -0.46105  -0.45248  -0.44729  -0.42202
 Alpha  occ. eigenvalues --   -0.39919  -0.29055
 Alpha virt. eigenvalues --    0.03879   0.04445   0.04639   0.05264   0.05924
 Alpha virt. eigenvalues --    0.06158   0.06419   0.06630   0.06959   0.07490
 Alpha virt. eigenvalues --    0.08678   0.09445   0.09511   0.09829   0.11393

 Mulliken charges:
               1
     1  C    0.777744
     2  C   -4.668594
     3  C   -3.273876
     4  C   -3.289781
     5  C   -2.662970
     6  C   -2.611645
     7  C   -1.872887
     8  O   -2.799011
     9  H    1.338132
    10  H    1.080174
    11  H    1.343101
    12  H    1.343101
    13  H    1.529914
    14  H    1.529914
    15  H    1.476119
    16  H    1.476119
    17  H    1.572089
    18  H    1.572089
    19  H    1.544617
    20  H    1.544617
    21  H    1.525516
    22  H    1.525516
 Sum of Mulliken charges =   0.00000

 Dipole moment (field-independent basis, Debye):
    X=             -0.0526    Y=              1.3801    Z=             -0.0000  Tot=              1.3812

 Test job not archived.
 1\1\GINC-SE013\SP\RHF\Aug-CC-pVDZ\C7H14O1\OHZDE\06-Apr-2025\0\\#t hf a
 ug-cc-pvdz iop(5/13=1,5/36=2,99/5=2) pseudo=read geom=check guess=(rea
 d,tcheck) scf=(maxcycle=1)\\title\\0,1\C,0,2.934907,-1.847531,0.\C,0,-
 3.741441,1.922109,0.\C,0,2.204069,-0.532137,0.\C,0,-2.216713,2.017532,
 0.\C,0,0.683613,-0.629266,0.\C,0,-1.526489,0.65337,0.\C,0,0.,0.738127,
 0.\O,0,2.412916,-2.933644,0.\H,0,4.042127,-1.761298,0.\H,0,-4.203476,2
 .910263,0.\H,0,-4.102888,1.387142,0.88065\H,0,-4.102888,1.387142,-0.88
 065\H,0,2.570407,0.032064,0.867377\H,0,2.570407,0.032064,-0.867377\H,0

 Normal termination of Gaussian 16 at Sun Apr  6 08:16:38 2025.
