 Gaussian 16, Revision C.01,

 ----------------------------------------------------------------------
 #t hf aug-cc-pvdz symm=none int=(grid=ultrafine) guess=(read,tcheck) s
 table=(opt,rrhf)
 ----------------------------------------------------------------------
 -----
 title
 -----
 Symbolic Z-matrix:
 Charge =  0 Multiplicity = 1

 SCF Done:  E(RHF) =  -460.197887758     A.U. after   16 cycles
 Normal termination of Gaussian 16 at Sun Apr  6 08:19:02 2025.
 Gaussian 16:  ES64L-G16RevC.01  3-Jul-2019

 ----------------------------------------------------------------------
 #t hf aug-cc-pvdz iop(5/13=1,5/36=2,99/5=2) pseudo=read geom=check gue
 ss=(read,tcheck) scf=(maxcycle=1)
 ----------------------------------------------------------------------
 -----
 title
 -----
 Structure from the checkpoint file:  "heptalene.chk"
 Charge =  0 Multiplicity = 1

                         Standard orientation:
 ---------------------------------------------------------------------
 Center     Atomic      Atomic             Coordinates (Angstroms)
 Number     Number       Type             X           Y           Z
 ---------------------------------------------------------------------
      1          6           0        1.510583    1.057959   -0.207635
      2          6           0        1.131202    2.378179   -0.627087
      3          6           0       -0.031282    3.021695   -0.376287
      4          6           0       -1.131202    2.495684    0.390765
      5          6           0       -1.415623    1.207590    0.659413
      6          6           0       -0.736352    0.000021    0.155956
      7          6           0        0.736352   -0.000021    0.155956
      8          6           0        1.415623   -1.207590    0.659413
      9          6           0        1.131202   -2.495684    0.390765
     10          6           0        0.031282   -3.021695   -0.376287
     11          6           0       -1.131202   -2.378179   -0.627087
     12          6           0       -1.510583   -1.057959   -0.207635
     13          1           0        2.580111    0.874669   -0.203910
     14          1           0        1.905624    2.939917   -1.136925
     15          1           0       -0.119386    4.051335   -0.699854
     16          1           0       -1.817588    3.233906    0.791454
     17          1           0       -2.284527    1.012644    1.278492
     18          1           0        2.284527   -1.012644    1.278492
     19          1           0        1.817588   -3.233906    0.791454
     20          1           0        0.119386   -4.051335   -0.699854
     21          1           0       -1.905624   -2.939917   -1.136925
     22          1           0       -2.580111   -0.874669   -0.203910
 ---------------------------------------------------------------------

 SCF Done:  E(RHF) =  -462.404439983     A.U. after    2 cycles

 The electronic state is 1-A.
 Alpha  occ. eigenvalues --  -11.49414 -11.48848 -11.47145 -11.44704 -11.43412
 Alpha  occ. eigenvalues --  -11.43206 -11.41243 -11.41137 -11.40449 -11.40313
 Alpha  occ. eigenvalues --  -11.39181 -11.36524  -1.36642  -1.24280  -1.18267
 Alpha  occ. eigenvalues --   -1.14605  -1.10006  -0.98572  -0.94366  -0.90130
 Alpha  occ. eigenvalues --   -0.83231  -0.74533  -0.73326  -0.69480  -0.67396
 Alpha  occ. eigenvalues --   -0.66905  -0.60723  -0.60708  -0.56464  -0.55144
 Alpha  occ. eigenvalues --   -0.52223  -0.49197  -0.48629  -0.46558  -0.44107
 Alpha  occ. eigenvalues --   -0.43953  -0.42819  -0.38654  -0.35792  -0.32500
 Alpha  occ. eigenvalues --   -0.22269
 Alpha virt. eigenvalues --    0.03028   0.04762   0.04982   0.05525   0.05564
 Alpha virt. eigenvalues --    0.05965   0.06738   0.06893   0.07005   0.07302
 Alpha virt. eigenvalues --    0.07948   0.09329   0.10436   0.10593   0.11531

 Mulliken charges:
               1
     1  C   -2.584548
     2  C   -0.189078
     3  C   -2.442739
     4  C   -1.852320
     5  C   -4.036384
     6  C    4.069709
     7  C    4.069709
     8  C   -4.036384
     9  C   -1.852320
    10  C   -2.442739
    11  C   -0.189078
    12  C   -2.584548
    13  H    1.622165
    14  H    1.359847
    15  H    1.390922
    16  H    1.344911
    17  H    1.317516
    18  H    1.317516
    19  H    1.344911
    20  H    1.390922
    21  H    1.359847
    22  H    1.622165
 Sum of Mulliken charges =   0.00000

 Dipole moment (field-independent basis, Debye):
    X=             -0.0000    Y=             -0.0000    Z=              0.1063  Tot=              0.1063

 Test job not archived.
 1\1\GINC-SE169\SP\RHF\Aug-CC-pVDZ\C12H10\OHZDE\06-Apr-2025\0\\#t hf au
 g-cc-pvdz iop(5/13=1,5/36=2,99/5=2) pseudo=read geom=check guess=(read
 ,tcheck) scf=(maxcycle=1)\\title\\0,1\C,0,1.510583,1.057959,-0.207635\
 C,0,1.131202,2.378179,-0.627087\C,0,-0.031282,3.021695,-0.376287\C,0,-
 1.131202,2.495684,0.390765\C,0,-1.415623,1.20759,0.659413\C,0,-0.73635
 2,0.000021,0.155956\C,0,0.736352,-0.000021,0.155956\C,0,1.415623,-1.20
 759,0.659413\C,0,1.131202,-2.495684,0.390765\C,0,0.031282,-3.021695,-0
 .376287\C,0,-1.131202,-2.378179,-0.627087\C,0,-1.510583,-1.057959,-0.2

 Normal termination of Gaussian 16 at Sun Apr  6 08:19:11 2025.
