 Gaussian 16, Revision C.01,

 ----------------------------------------------------------------------
 #t hf aug-cc-pvdz symm=none int=(grid=ultrafine) guess=(read,tcheck) s
 table=(opt,rrhf)
 ----------------------------------------------------------------------
 -----
 title
 -----
 Symbolic Z-matrix:
 Charge =  0 Multiplicity = 1

 SCF Done:  E(RHF) =  -348.144382175     A.U. after   13 cycles

 1\1\GINC-SE009\Stability\RHF\Aug-CC-pVDZ\C7H14O1\OHZDE\06-Apr-2025\0\\
 #t hf aug-cc-pvdz symm=none int=(grid=ultrafine) guess=(read,tcheck) s
 table=(opt,rrhf)\\title\\0,1\C,0,2.331625,0.140596,-0.002766\C,0,3.562
 671,-0.742228,0.006967\C,0,-4.097798,-0.269419,-0.00178\C,0,0.990909,-
 0.574254,-0.007194\C,0,-2.775391,0.495292,0.007306\C,0,-0.224164,0.345
 462,0.004932\C,0,-1.548821,-0.417709,-0.003855\O,0,2.419096,1.348033,-
 0.005792\H,0,3.571661,-1.365777,0.903608\H,0,3.553384,-1.419544,-0.849
 424\H,0,4.460036,-0.129875,-0.019314\H,0,-4.18373,-0.919977,0.871115\H

 Normal termination of Gaussian 16 at Sun Apr  6 08:15:55 2025.
 Gaussian 16:  ES64L-G16RevC.01  3-Jul-2019

 ----------------------------------------------------------------------
 #t hf aug-cc-pvdz iop(5/13=1,5/36=2,99/5=2) pseudo=read geom=check gue
 ss=(read,tcheck) scf=(maxcycle=1)
 ----------------------------------------------------------------------
 -----
 title
 -----
 Structure from the checkpoint file:  "heptan-2-one.chk"
 Charge =  0 Multiplicity = 1

                         Standard orientation:
 ---------------------------------------------------------------------
 Center     Atomic      Atomic             Coordinates (Angstroms)
 Number     Number       Type             X           Y           Z
 ---------------------------------------------------------------------
      1          6           0        2.331625    0.140596   -0.002766
      2          6           0        3.562671   -0.742228    0.006967
      3          6           0       -4.097798   -0.269419   -0.001780
      4          6           0        0.990909   -0.574254   -0.007194
      5          6           0       -2.775391    0.495292    0.007306
      6          6           0       -0.224164    0.345462    0.004932
      7          6           0       -1.548821   -0.417709   -0.003855
      8          8           0        2.419096    1.348033   -0.005792
      9          1           0        3.571661   -1.365777    0.903608
     10          1           0        3.553384   -1.419544   -0.849424
     11          1           0        4.460036   -0.129875   -0.019314
     12          1           0       -4.183730   -0.919977    0.871115
     13          1           0       -4.951146    0.409944    0.006808
     14          1           0       -4.184176   -0.898252   -0.890409
     15          1           0        0.972256   -1.232580   -0.883480
     16          1           0        0.975011   -1.253830    0.852590
     17          1           0       -2.733388    1.141611    0.888893
     18          1           0       -2.733543    1.162627   -0.858464
     19          1           0       -0.175148    1.014310   -0.856999
     20          1           0       -0.174496    0.992679    0.883335
     21          1           0       -1.591964   -1.065480   -0.886410
     22          1           0       -1.591700   -1.086565    0.862830
 ---------------------------------------------------------------------

 SCF Done:  E(RHF) =  -349.855599608     A.U. after    2 cycles

 The electronic state is 1-A.
 Alpha  occ. eigenvalues --  -21.04490 -11.49606 -11.42817 -11.41723 -11.39330
 Alpha  occ. eigenvalues --  -11.38513 -11.36667 -11.34405  -1.70274  -1.26639
 Alpha  occ. eigenvalues --   -1.16205  -1.08859  -1.00052  -0.88968  -0.82506
 Alpha  occ. eigenvalues --   -0.73773  -0.66626  -0.62808  -0.62034  -0.58673
 Alpha  occ. eigenvalues --   -0.57985  -0.57405  -0.53493  -0.52668  -0.50172
 Alpha  occ. eigenvalues --   -0.47688  -0.46157  -0.45209  -0.44509  -0.40645
 Alpha  occ. eigenvalues --   -0.40523  -0.27821
 Alpha virt. eigenvalues --    0.03601   0.04477   0.04728   0.05522   0.05880
 Alpha virt. eigenvalues --    0.06021   0.06452   0.06865   0.07105   0.07628
 Alpha virt. eigenvalues --    0.07742   0.09701   0.09843   0.10255   0.11243

 Mulliken charges:
               1
     1  C    4.950177
     2  C   -5.499076
     3  C   -4.546252
     4  C   -3.916817
     5  C   -3.306052
     6  C   -1.747669
     7  C   -2.483255
     8  O   -3.445861
     9  H    1.307669
    10  H    1.314064
    11  H    1.305873
    12  H    1.336797
    13  H    1.073849
    14  H    1.338552
    15  H    1.589726
    16  H    1.601984
    17  H    1.450615
    18  H    1.450661
    19  H    1.564256
    20  H    1.560974
    21  H    1.547874
    22  H    1.551911
 Sum of Mulliken charges =  -0.00000

 Dipole moment (field-independent basis, Debye):
    X=             -0.2915    Y=             -1.1740    Z=              0.0054  Tot=              1.2097

 Test job not archived.
 1\1\GINC-SE009\SP\RHF\Aug-CC-pVDZ\C7H14O1\OHZDE\06-Apr-2025\0\\#t hf a
 ug-cc-pvdz iop(5/13=1,5/36=2,99/5=2) pseudo=read geom=check guess=(rea
 d,tcheck) scf=(maxcycle=1)\\title\\0,1\C,0,2.331625,0.140596,-0.002766
 \C,0,3.562671,-0.742228,0.006967\C,0,-4.097798,-0.269419,-0.00178\C,0,
 0.990909,-0.574254,-0.007194\C,0,-2.775391,0.495292,0.007306\C,0,-0.22
 4164,0.345462,0.004932\C,0,-1.548821,-0.417709,-0.003855\O,0,2.419096,
 1.348033,-0.005792\H,0,3.571661,-1.365777,0.903608\H,0,3.553384,-1.419
 544,-0.849424\H,0,4.460036,-0.129875,-0.019314\H,0,-4.18373,-0.919977,

 Normal termination of Gaussian 16 at Sun Apr  6 08:16:40 2025.
