 Gaussian 16, Revision C.01,

 ----------------------------------------------------------------------
 #t hf aug-cc-pvdz symm=none int=(grid=ultrafine) guess=(read,tcheck) s
 table=(opt,rrhf)
 ----------------------------------------------------------------------
 -----
 title
 -----
 Symbolic Z-matrix:
 Charge =  0 Multiplicity = 1

 SCF Done:  E(RHF) =  -672.462964595     A.U. after   10 cycles
 Normal termination of Gaussian 16 at Sun Apr  6 08:14:48 2025.
 Gaussian 16:  ES64L-G16RevC.01  3-Jul-2019

 ----------------------------------------------------------------------
 #t hf aug-cc-pvdz iop(5/13=1,5/36=2,99/5=2) pseudo=read geom=check gue
 ss=(read,tcheck) scf=(maxcycle=1)
 ----------------------------------------------------------------------
 -----
 title
 -----
 Structure from the checkpoint file:  "hexafluoroethane.chk"
 Charge =  0 Multiplicity = 1

                         Standard orientation:
 ---------------------------------------------------------------------
 Center     Atomic      Atomic             Coordinates (Angstroms)
 Number     Number       Type             X           Y           Z
 ---------------------------------------------------------------------
      1          6           0        0.000000    0.000000    0.778102
      2          6           0        0.000000    0.000000   -0.778102
      3          9           0        0.000000    1.254581    1.232191
      4          9           0       -1.086499   -0.627290    1.232191
      5          9           0        1.086499   -0.627291    1.232191
      6          9           0        0.000000   -1.254581   -1.232191
      7          9           0       -1.086499    0.627291   -1.232191
      8          9           0        1.086499    0.627290   -1.232191
 ---------------------------------------------------------------------

 SCF Done:  E(RHF) =  -674.792517867     A.U. after    2 cycles

 The electronic state is 1-AG.
 Alpha  occ. eigenvalues --  -29.34776 -29.34776 -29.34756 -29.34756 -29.34698
 Alpha  occ. eigenvalues --  -29.34697 -11.66668 -11.60204  -1.54817  -1.35343
 Alpha  occ. eigenvalues --   -0.99423  -0.99423  -0.89884  -0.86291  -0.86291
 Alpha  occ. eigenvalues --   -0.52537  -0.50993  -0.49142  -0.49142  -0.46066
 Alpha  occ. eigenvalues --   -0.46066  -0.44828  -0.39527  -0.39527  -0.39234
 Alpha  occ. eigenvalues --   -0.39234  -0.32103  -0.32103  -0.27273  -0.26640
 Alpha  occ. eigenvalues --   -0.25938  -0.25938  -0.23105
 Alpha virt. eigenvalues --    0.09837   0.10717   0.12383   0.12383   0.12562
 Alpha virt. eigenvalues --    0.12562   0.15100   0.19548   0.19548   0.20921
 Alpha virt. eigenvalues --    0.23817   0.24176   0.24176   0.24781   0.28328

 Mulliken charges:
               1
     1  C   -1.743974
     2  C   -1.743974
     3  F    0.581325
     4  F    0.581325
     5  F    0.581324
     6  F    0.581325
     7  F    0.581324
     8  F    0.581325
 Sum of Mulliken charges =   0.00000

 Dipole moment (field-independent basis, Debye):
    X=             -0.0000    Y=              0.0000    Z=             -0.0000  Tot=              0.0000

 Test job not archived.
 1\1\GINC-SE276\SP\RHF\Aug-CC-pVDZ\C2F6\OHZDE\06-Apr-2025\0\\#t hf aug-
 cc-pvdz iop(5/13=1,5/36=2,99/5=2) pseudo=read geom=check guess=(read,t
 check) scf=(maxcycle=1)\\title\\0,1\C,0,0.,0.,0.778102\C,0,0.,0.,-0.77
 8102\F,0,0.,1.254581,1.232191\F,0,-1.086499,-0.62729,1.232191\F,0,1.08
 6499,-0.627291,1.232191\F,0,0.,-1.254581,-1.232191\F,0,-1.086499,0.627
 291,-1.232191\F,0,1.086499,0.62729,-1.232191\\Version=ES64L-G16RevC.01
 \State=1-AG\HF=-674.7925179\RMSD=1.624e-01\Dipole=0.,0.,0.\Quadrupole=
 -0.019908,-0.0199078,0.0398159,-0.0000029,-0.0000024,0.\PG=CI [X(C2F6)

 Normal termination of Gaussian 16 at Sun Apr  6 08:14:50 2025.
