 Gaussian 16, Revision C.01,

 ----------------------------------------------------------------------
 #t hf aug-cc-pvdz symm=none int=(grid=ultrafine) guess=(read,tcheck) s
 table=(opt,rrhf)
 ----------------------------------------------------------------------
 -----
 title
 -----
 Symbolic Z-matrix:
 Charge =  0 Multiplicity = 1

 SCF Done:  E(RHF) =  -235.389619149     A.U. after   11 cycles
 Normal termination of Gaussian 16 at Sun Apr  6 08:15:36 2025.
 Gaussian 16:  ES64L-G16RevC.01  3-Jul-2019

 ----------------------------------------------------------------------
 #t hf aug-cc-pvdz iop(5/13=1,5/36=2,99/5=2) pseudo=read geom=check gue
 ss=(read,tcheck) scf=(maxcycle=1)
 ----------------------------------------------------------------------
 -----
 title
 -----
 Structure from the checkpoint file:  "hexane.chk"
 Charge =  0 Multiplicity = 1

                         Standard orientation:
 ---------------------------------------------------------------------
 Center     Atomic      Atomic             Coordinates (Angstroms)
 Number     Number       Type             X           Y           Z
 ---------------------------------------------------------------------
      1          6           0        1.752978    0.132983    0.595759
      2          6           0        2.270241   -1.006545   -0.282683
      3          6           0        0.797724    1.099291   -0.117681
      4          6           0       -0.524607    0.497784   -0.611141
      5          6           0       -1.447868   -0.017439    0.494787
      6          6           0       -2.787022   -0.527764   -0.035684
      7          1           0       -2.645338   -1.354700   -0.734820
      8          1           0        2.766819   -0.619752   -1.175521
      9          1           0       -3.427267   -0.884472    0.772434
     10          1           0        2.992417   -1.620604    0.257299
     11          1           0        1.465980   -1.665190   -0.613039
     12          1           0       -3.327819    0.259908   -0.564432
     13          1           0        1.267957   -0.282455    1.482703
     14          1           0       -0.954091   -0.819080    1.049556
     15          1           0        2.605211    0.708606    0.966413
     16          1           0       -1.624471    0.786112    1.216882
     17          1           0        0.573150    1.931568    0.556617
     18          1           0        1.322016    1.537463   -0.972764
     19          1           0       -0.325283   -0.311677   -1.319828
     20          1           0       -1.057960    1.264417   -1.181643
 ---------------------------------------------------------------------

 SCF Done:  E(RHF) =  -236.643929564     A.U. after    2 cycles

 The electronic state is 1-A.
 Alpha  occ. eigenvalues --  -11.41719 -11.41212 -11.38954 -11.36964 -11.35033
 Alpha  occ. eigenvalues --  -11.33388  -1.26451  -1.15250  -1.03656  -0.93267
 Alpha  occ. eigenvalues --   -0.85551  -0.79128  -0.64623  -0.62686  -0.59315
 Alpha  occ. eigenvalues --   -0.57553  -0.54950  -0.52563  -0.51841  -0.47592
 Alpha  occ. eigenvalues --   -0.47367  -0.45537  -0.42740  -0.41323  -0.40531
 Alpha virt. eigenvalues --    0.04202   0.05113   0.05293   0.05643   0.05727
 Alpha virt. eigenvalues --    0.05882   0.06148   0.06347   0.06805   0.07929
 Alpha virt. eigenvalues --    0.08519   0.08964   0.08998   0.10974   0.12615

 Mulliken charges:
               1
     1  C   -3.198357
     2  C   -3.696140
     3  C   -3.031508
     4  C   -2.505691
     5  C   -2.897772
     6  C   -4.092856
     7  H    1.318464
     8  H    1.281313
     9  H    1.095121
    10  H    1.138851
    11  H    1.444781
    12  H    1.309409
    13  H    1.629488
    14  H    1.683876
    15  H    1.304127
    16  H    1.466830
    17  H    1.368704
    18  H    1.268395
    19  H    1.761923
    20  H    1.351040
 Sum of Mulliken charges =  -0.00000

 Dipole moment (field-independent basis, Debye):
    X=              0.0617    Y=              0.0875    Z=              0.1276  Tot=              0.1666

 Test job not archived.
 1\1\GINC-SE454\SP\RHF\Aug-CC-pVDZ\C6H14\OHZDE\06-Apr-2025\0\\#t hf aug
 -cc-pvdz iop(5/13=1,5/36=2,99/5=2) pseudo=read geom=check guess=(read,
 tcheck) scf=(maxcycle=1)\\title\\0,1\C,0,1.752978,0.132983,0.595759\C,
 0,2.270241,-1.006545,-0.282683\C,0,0.797724,1.099291,-0.117681\C,0,-0.
 524607,0.497784,-0.611141\C,0,-1.447868,-0.017439,0.494787\C,0,-2.7870
 22,-0.527764,-0.035684\H,0,-2.645338,-1.3547,-0.73482\H,0,2.766819,-0.
 619752,-1.175521\H,0,-3.427267,-0.884472,0.772434\H,0,2.992417,-1.6206
 04,0.257299\H,0,1.46598,-1.66519,-0.613039\H,0,-3.327819,0.259908,-0.5

 Normal termination of Gaussian 16 at Sun Apr  6 08:15:59 2025.
