 Gaussian 16, Revision C.01,

 ----------------------------------------------------------------------
 #t hf aug-cc-pvdz symm=none int=(grid=ultrafine) guess=(read,tcheck) s
 table=(opt,rrhf)
 ----------------------------------------------------------------------
 -----
 title
 -----
 Symbolic Z-matrix:
 Charge =  0 Multiplicity = 1

 SCF Done:  E(RHF) =  -339.971246630     A.U. after   12 cycles
 Normal termination of Gaussian 16 at Sun Apr  6 08:15:08 2025.
 Gaussian 16:  ES64L-G16RevC.01  3-Jul-2019

 ----------------------------------------------------------------------
 #t hf aug-cc-pvdz iop(5/13=1,5/36=2,99/5=2) pseudo=read geom=check gue
 ss=(read,tcheck) scf=(maxcycle=1)
 ----------------------------------------------------------------------
 -----
 title
 -----
 Structure from the checkpoint file:  "hexahydropyrimidin-2-one.chk"
 Charge =  0 Multiplicity = 1

                         Standard orientation:
 ---------------------------------------------------------------------
 Center     Atomic      Atomic             Coordinates (Angstroms)
 Number     Number       Type             X           Y           Z
 ---------------------------------------------------------------------
      1          6           0       -0.164367    1.106122    0.000000
      2          6           0        0.630174   -1.644396   -0.000000
      3          6           0       -0.028352   -1.065946    1.246291
      4          6           0       -0.028352   -1.065946   -1.246291
      5          7           0       -0.028352    0.386872    1.163911
      6          7           0       -0.028352    0.386872   -1.163911
      7          8           0       -0.348128    2.315601    0.000000
      8          1           0        1.692401   -1.394346   -0.000000
      9          1           0        0.538186   -2.730567   -0.000000
     10          1           0       -1.047815   -1.460098    1.343027
     11          1           0        0.519860   -1.364705    2.140522
     12          1           0        0.519860   -1.364705   -2.140522
     13          1           0       -1.047815   -1.460098   -1.343027
     14          1           0       -0.223673    0.927248    1.988963
     15          1           0       -0.223673    0.927248   -1.988963
 ---------------------------------------------------------------------

 SCF Done:  E(RHF) =  -341.534816650     A.U. after    2 cycles

 The electronic state is 1-A'.
 Alpha  occ. eigenvalues --  -20.99629 -15.74756 -15.74693 -11.48796 -11.44844
 Alpha  occ. eigenvalues --  -11.44373 -11.38187  -1.69791  -1.45154  -1.32997
 Alpha  occ. eigenvalues --   -1.16650  -0.98592  -0.90861  -0.79197  -0.70501
 Alpha  occ. eigenvalues --   -0.65887  -0.63408  -0.61474  -0.61081  -0.56586
 Alpha  occ. eigenvalues --   -0.52854  -0.48285  -0.46047  -0.45105  -0.34137
 Alpha  occ. eigenvalues --   -0.28834  -0.27966
 Alpha virt. eigenvalues --    0.03238   0.04958   0.05085   0.05310   0.05764
 Alpha virt. eigenvalues --    0.05888   0.06643   0.07208   0.10802   0.12067
 Alpha virt. eigenvalues --    0.12291   0.13169   0.13698   0.14175   0.14651

 Mulliken charges:
               1
     1  C    5.210220
     2  C   -2.575444
     3  C   -2.226938
     4  C   -2.226938
     5  N   -2.252348
     6  N   -2.252348
     7  O   -3.172785
     8  H    1.422847
     9  H    1.336963
    10  H    1.476831
    11  H    1.360420
    12  H    1.360420
    13  H    1.476831
    14  H    0.531135
    15  H    0.531135
 Sum of Mulliken charges =   0.00000

 Dipole moment (field-independent basis, Debye):
    X=              0.0599    Y=             -3.6446    Z=             -0.0000  Tot=              3.6451

 Test job not archived.
 1\1\GINC-SE276\SP\RHF\Aug-CC-pVDZ\C4H8N2O1\OHZDE\06-Apr-2025\0\\#t hf
 aug-cc-pvdz iop(5/13=1,5/36=2,99/5=2) pseudo=read geom=check guess=(re
 ad,tcheck) scf=(maxcycle=1)\\title\\0,1\C,0,-0.164367,1.106122,0.\C,0,
 0.630174,-1.644396,0.\C,0,-0.028352,-1.065946,1.246291\C,0,-0.028352,-
 1.065946,-1.246291\N,0,-0.028352,0.386872,1.163911\N,0,-0.028352,0.386
 872,-1.163911\O,0,-0.348128,2.315601,0.\H,0,1.692401,-1.394346,0.\H,0,
 0.538186,-2.730567,0.\H,0,-1.047815,-1.460098,1.343027\H,0,0.51986,-1.
 364705,2.140522\H,0,0.51986,-1.364705,-2.140522\H,0,-1.047815,-1.46009

 Normal termination of Gaussian 16 at Sun Apr  6 08:15:56 2025.
