 Gaussian 16, Revision C.01,

 ----------------------------------------------------------------------
 #t hf aug-cc-pvdz symm=none int=(grid=ultrafine) guess=(read,tcheck) s
 table=(opt,rrhf)
 ----------------------------------------------------------------------
 -----
 title
 -----
 Symbolic Z-matrix:
 Charge =  0 Multiplicity = 1

 SCF Done:  E(RHF) =  -309.094906257     A.U. after   13 cycles

 1\1\GINC-SE453\Stability\RHF\Aug-CC-pVDZ\C6H12O1\OHZDE\06-Apr-2025\0\\
 #t hf aug-cc-pvdz symm=none int=(grid=ultrafine) guess=(read,tcheck) s
 table=(opt,rrhf)\\title\\0,1\C,0,1.730475,2.260799,0.\C,0,-1.877092,-3
 .067542,0.\C,0,1.469179,0.778822,0.\C,0,-1.675526,-1.553237,0.\C,0,0.,
 0.375846,0.\C,0,-0.203783,-1.139524,0.\O,0,0.882361,3.116832,0.\H,0,2.
 805089,2.541058,0.\H,0,-2.936193,-3.328318,0.\H,0,-1.423356,-3.526632,
 0.880821\H,0,-1.423356,-3.526632,-0.880821\H,0,1.999279,0.36497,0.8674
 25\H,0,1.999279,0.36497,-0.867425\H,0,-2.170087,-1.119104,0.87384\H,0,

 Normal termination of Gaussian 16 at Sun Apr  6 08:15:23 2025.
 Gaussian 16:  ES64L-G16RevC.01  3-Jul-2019

 ----------------------------------------------------------------------
 #t hf aug-cc-pvdz iop(5/13=1,5/36=2,99/5=2) pseudo=read geom=check gue
 ss=(read,tcheck) scf=(maxcycle=1)
 ----------------------------------------------------------------------
 -----
 title
 -----
 Structure from the checkpoint file:  "hexanal.chk"
 Charge =  0 Multiplicity = 1

                         Standard orientation:
 ---------------------------------------------------------------------
 Center     Atomic      Atomic             Coordinates (Angstroms)
 Number     Number       Type             X           Y           Z
 ---------------------------------------------------------------------
      1          6           0        1.730475    2.260799    0.000000
      2          6           0       -1.877093   -3.067542    0.000000
      3          6           0        1.469179    0.778822    0.000000
      4          6           0       -1.675526   -1.553237    0.000000
      5          6           0        0.000000    0.375846    0.000000
      6          6           0       -0.203783   -1.139524    0.000000
      7          8           0        0.882362    3.116832    0.000000
      8          1           0        2.805089    2.541057    0.000000
      9          1           0       -2.936194   -3.328318    0.000000
     10          1           0       -1.423357   -3.526632    0.880821
     11          1           0       -1.423357   -3.526632   -0.880821
     12          1           0        1.999279    0.364970    0.867425
     13          1           0        1.999279    0.364970   -0.867425
     14          1           0       -2.170087   -1.119104    0.873840
     15          1           0       -2.170087   -1.119104   -0.873840
     16          1           0       -0.491084    0.816415    0.870631
     17          1           0       -0.491084    0.816415   -0.870631
     18          1           0        0.291599   -1.574837   -0.874744
     19          1           0        0.291599   -1.574837    0.874744
 ---------------------------------------------------------------------

 SCF Done:  E(RHF) =  -310.597984482     A.U. after    2 cycles

 The electronic state is 1-A'.
 Alpha  occ. eigenvalues --  -21.06019 -11.48717 -11.42662 -11.41910 -11.39234
 Alpha  occ. eigenvalues --  -11.36960 -11.34626  -1.70738  -1.26833  -1.15044
 Alpha  occ. eigenvalues --   -1.02667  -0.90887  -0.83170  -0.78842  -0.66773
 Alpha  occ. eigenvalues --   -0.65087  -0.61467  -0.58005  -0.55120  -0.54688
 Alpha  occ. eigenvalues --   -0.52100  -0.48419  -0.47332  -0.45549  -0.44979
 Alpha  occ. eigenvalues --   -0.42220  -0.41565  -0.29077
 Alpha virt. eigenvalues --    0.03855   0.04530   0.04844   0.05415   0.06146
 Alpha virt. eigenvalues --    0.06172   0.06466   0.06873   0.07669   0.08449
 Alpha virt. eigenvalues --    0.09056   0.09896   0.09961   0.12288   0.13077

 Mulliken charges:
               1
     1  C    1.007537
     2  C   -4.373687
     3  C   -3.149587
     4  C   -3.188715
     5  C   -2.266841
     6  C   -2.304361
     7  O   -2.795145
     8  H    1.317059
     9  H    1.067892
    10  H    1.328957
    11  H    1.328957
    12  H    1.507910
    13  H    1.507910
    14  H    1.428342
    15  H    1.428342
    16  H    1.557471
    17  H    1.557471
    18  H    1.520243
    19  H    1.520243
 Sum of Mulliken charges =   0.00000

 Dipole moment (field-independent basis, Debye):
    X=              0.3218    Y=             -1.2228    Z=             -0.0000  Tot=              1.2645

 Test job not archived.
 1\1\GINC-SE453\SP\RHF\Aug-CC-pVDZ\C6H12O1\OHZDE\06-Apr-2025\0\\#t hf a
 ug-cc-pvdz iop(5/13=1,5/36=2,99/5=2) pseudo=read geom=check guess=(rea
 d,tcheck) scf=(maxcycle=1)\\title\\0,1\C,0,1.730475,2.260799,0.\C,0,-1
 .877092,-3.067542,0.\C,0,1.469179,0.778822,0.\C,0,-1.675526,-1.553237,
 0.\C,0,0.,0.375846,0.\C,0,-0.203783,-1.139524,0.\O,0,0.882361,3.116832
 ,0.\H,0,2.805089,2.541058,0.\H,0,-2.936193,-3.328318,0.\H,0,-1.423356,
 -3.526632,0.880821\H,0,-1.423356,-3.526632,-0.880821\H,0,1.999279,0.36
 497,0.867425\H,0,1.999279,0.36497,-0.867425\H,0,-2.170087,-1.119104,0.

 Normal termination of Gaussian 16 at Sun Apr  6 08:15:58 2025.
