 Gaussian 16, Revision C.01,

 ----------------------------------------------------------------------
 #t hf aug-cc-pvdz symm=none int=(grid=ultrafine) guess=(read,tcheck) s
 table=(opt,rrhf)
 ----------------------------------------------------------------------
 -----
 title
 -----
 Symbolic Z-matrix:
 Charge =  0 Multiplicity = 1

 SCF Done:  E(RHF) =  -823.859767590     A.U. after   11 cycles
 Normal termination of Gaussian 16 at Sun Apr  6 08:15:12 2025.
 Gaussian 16:  ES64L-G16RevC.01  3-Jul-2019

 ----------------------------------------------------------------------
 #t hf aug-cc-pvdz iop(5/13=1,5/36=2,99/5=2) pseudo=read geom=check gue
 ss=(read,tcheck) scf=(maxcycle=1)
 ----------------------------------------------------------------------
 -----
 title
 -----
 Structure from the checkpoint file:  "hexafluorobenzene.chk"
 Charge =  0 Multiplicity = 1

                         Standard orientation:
 ---------------------------------------------------------------------
 Center     Atomic      Atomic             Coordinates (Angstroms)
 Number     Number       Type             X           Y           Z
 ---------------------------------------------------------------------
      1          6           0       -0.000000   -0.000000    1.388365
      2          6           0        0.000000    1.202359    0.694182
      3          6           0       -0.000000   -1.202359    0.694182
      4          6           0        0.000000    1.202359   -0.694182
      5          6           0       -0.000000   -1.202359   -0.694182
      6          6           0        0.000000   -0.000000   -1.388365
      7          9           0       -0.000000   -0.000000    2.719949
      8          9           0        0.000000    2.355545    1.359975
      9          9           0       -0.000000   -2.355545    1.359975
     10          9           0        0.000000    2.355545   -1.359975
     11          9           0       -0.000000   -2.355545   -1.359975
     12          9           0        0.000000   -0.000000   -2.719949
 ---------------------------------------------------------------------

 SCF Done:  E(RHF) =  -826.882835856     A.U. after    2 cycles

 The electronic state is 1-AG.
 Alpha  occ. eigenvalues --  -29.33813 -29.33712 -29.33712 -29.33665 -29.33665
 Alpha  occ. eigenvalues --  -29.33657 -11.62732 -11.55447 -11.55447 -11.53011
 Alpha  occ. eigenvalues --  -11.53011 -11.48163  -1.50475  -1.30630  -1.30630
 Alpha  occ. eigenvalues --   -1.11269  -1.11269  -0.93472  -0.93398  -0.79384
 Alpha  occ. eigenvalues --   -0.78267  -0.78267  -0.69826  -0.66977  -0.66977
 Alpha  occ. eigenvalues --   -0.57797  -0.57797  -0.45410  -0.45331  -0.45331
 Alpha  occ. eigenvalues --   -0.43983  -0.43055  -0.43055  -0.41233  -0.41233
 Alpha  occ. eigenvalues --   -0.38405  -0.32981  -0.32981  -0.32095  -0.32095
 Alpha  occ. eigenvalues --   -0.31284  -0.29117  -0.28864  -0.20281  -0.20281
 Alpha virt. eigenvalues --    0.07755   0.10147   0.10147   0.11360   0.11360
 Alpha virt. eigenvalues --    0.11405   0.11883   0.11883   0.12092   0.13553
 Alpha virt. eigenvalues --    0.13710   0.13710   0.14136   0.14881   0.14881

 Mulliken charges:
               1
     1  C   -1.158111
     2  C   -1.158096
     3  C   -1.158096
     4  C   -1.158096
     5  C   -1.158096
     6  C   -1.158111
     7  F    1.158105
     8  F    1.158099
     9  F    1.158099
    10  F    1.158099
    11  F    1.158099
    12  F    1.158105
 Sum of Mulliken charges =   0.00000

 Dipole moment (field-independent basis, Debye):
    X=             -0.0000    Y=             -0.0000    Z=             -0.0000  Tot=              0.0000

 Test job not archived.
 1\1\GINC-SE275\SP\RHF\Aug-CC-pVDZ\C6F6\OHZDE\06-Apr-2025\0\\#t hf aug-
 cc-pvdz iop(5/13=1,5/36=2,99/5=2) pseudo=read geom=check guess=(read,t
 check) scf=(maxcycle=1)\\title\\0,1\C,0,0.,1.388365,0.\C,0,1.202359,0.
 694182,0.\C,0,-1.202359,0.694182,0.\C,0,1.202359,-0.694182,0.\C,0,-1.2
 02359,-0.694182,0.\C,0,0.,-1.388365,0.\F,0,0.,2.719949,0.\F,0,2.355545
 ,1.359975,0.\F,0,-2.355545,1.359975,0.\F,0,2.355545,-1.359975,0.\F,0,-
 2.355545,-1.359975,0.\F,0,0.,-2.719949,0.\\Version=ES64L-G16RevC.01\St
 ate=1-AG\HF=-826.8828359\RMSD=1.113e+00\Dipole=0.,0.,0.\Quadrupole=5.6

 Normal termination of Gaussian 16 at Sun Apr  6 08:15:57 2025.
