 Gaussian 16, Revision C.01,

 ----------------------------------------------------------------------
 #t hf aug-cc-pvdz symm=none int=(grid=ultrafine) guess=(read,tcheck) s
 table=(opt,rrhf)
 ----------------------------------------------------------------------
 -----
 title
 -----
 Symbolic Z-matrix:
 Charge =  0 Multiplicity = 1

 SCF Done:  E(RHF) =  -384.005603982     A.U. after   13 cycles

 1\1\GINC-SE269\Stability\RHF\Aug-CC-pVDZ\C6H12O2\OHZDE\06-Apr-2025\0\\
 #t hf aug-cc-pvdz symm=none int=(grid=ultrafine) guess=(read,tcheck) s
 table=(opt,rrhf)\\title\\0,1\C,0,-2.062686,-1.102443,0.\C,0,3.632108,1
 .858226,0.\C,0,-0.556479,-1.037078,0.\C,0,2.104874,1.82966,0.\C,0,0.,0
 .382472,0.\C,0,1.528055,0.413443,0.\O,0,-2.819045,-0.165656,0.\O,0,-2.
 503459,-2.387142,0.\H,0,4.011459,2.880818,0.\H,0,4.036027,1.354785,0.8
 80787\H,0,4.036027,1.354785,-0.880787\H,0,-0.205394,-1.600622,0.869012
 \H,0,-0.205394,-1.600622,-0.869012\H,0,1.729349,2.370062,0.87383\H,0,1

 Normal termination of Gaussian 16 at Sun Apr  6 08:15:43 2025.
 Gaussian 16:  ES64L-G16RevC.01  3-Jul-2019

 ----------------------------------------------------------------------
 #t hf aug-cc-pvdz iop(5/13=1,5/36=2,99/5=2) pseudo=read geom=check gue
 ss=(read,tcheck) scf=(maxcycle=1)
 ----------------------------------------------------------------------
 -----
 title
 -----
 Structure from the checkpoint file:  "hexanoic_acid.chk"
 Charge =  0 Multiplicity = 1

                         Standard orientation:
 ---------------------------------------------------------------------
 Center     Atomic      Atomic             Coordinates (Angstroms)
 Number     Number       Type             X           Y           Z
 ---------------------------------------------------------------------
      1          6           0       -2.062686   -1.102443    0.000000
      2          6           0        3.632108    1.858225    0.000000
      3          6           0       -0.556479   -1.037078    0.000000
      4          6           0        2.104874    1.829660    0.000000
      5          6           0        0.000000    0.382472    0.000000
      6          6           0        1.528055    0.413443    0.000000
      7          8           0       -2.819045   -0.165656    0.000000
      8          8           0       -2.503459   -2.387142    0.000000
      9          1           0        4.011459    2.880817    0.000000
     10          1           0        4.036027    1.354784    0.880787
     11          1           0        4.036027    1.354784   -0.880787
     12          1           0       -0.205394   -1.600622    0.869012
     13          1           0       -0.205394   -1.600622   -0.869012
     14          1           0        1.729349    2.370062    0.873830
     15          1           0        1.729349    2.370062   -0.873830
     16          1           0       -0.381981    0.918569    0.871350
     17          1           0       -0.381981    0.918569   -0.871350
     18          1           0        1.904359   -0.128002   -0.874719
     19          1           0        1.904359   -0.128002    0.874719
     20          1           0       -3.471375   -2.353691    0.000000
 ---------------------------------------------------------------------

 SCF Done:  E(RHF) =  -385.799575710     A.U. after    2 cycles

 The electronic state is 1-A'.
 Alpha  occ. eigenvalues --  -21.11942 -21.05218 -11.52882 -11.43542 -11.42258
 Alpha  occ. eigenvalues --  -11.39594 -11.37107 -11.34730  -1.82511  -1.65065
 Alpha  occ. eigenvalues --   -1.26893  -1.15011  -1.02486  -0.90515  -0.83016
 Alpha  occ. eigenvalues --   -0.77808  -0.67320  -0.64056  -0.62381  -0.60919
 Alpha  occ. eigenvalues --   -0.57639  -0.56063  -0.54409  -0.50743  -0.49559
 Alpha  occ. eigenvalues --   -0.47170  -0.45726  -0.45576  -0.45101  -0.40934
 Alpha  occ. eigenvalues --   -0.33894  -0.29613
 Alpha virt. eigenvalues --    0.03913   0.04840   0.05046   0.05528   0.06041
 Alpha virt. eigenvalues --    0.06246   0.06503   0.07022   0.07448   0.08867
 Alpha virt. eigenvalues --    0.09238   0.09953   0.10000   0.12097   0.12864

 Mulliken charges:
               1
     1  C    6.273627
     2  C   -4.498789
     3  C   -4.375309
     4  C   -3.290106
     5  C   -2.173872
     6  C   -2.276677
     7  O   -3.069985
     8  O   -3.317133
     9  H    1.078637
    10  H    1.341035
    11  H    1.341035
    12  H    1.470319
    13  H    1.470319
    14  H    1.424964
    15  H    1.424964
    16  H    1.569786
    17  H    1.569786
    18  H    1.498651
    19  H    1.498651
    20  H    1.040094
 Sum of Mulliken charges =  -0.00000

 Dipole moment (field-independent basis, Debye):
    X=              0.8022    Y=             -0.6318    Z=             -0.0000  Tot=              1.0211

 Test job not archived.
 1\1\GINC-SE269\SP\RHF\Aug-CC-pVDZ\C6H12O2\OHZDE\06-Apr-2025\0\\#t hf a
 ug-cc-pvdz iop(5/13=1,5/36=2,99/5=2) pseudo=read geom=check guess=(rea
 d,tcheck) scf=(maxcycle=1)\\title\\0,1\C,0,-2.062686,-1.102443,0.\C,0,
 3.632108,1.858226,0.\C,0,-0.556479,-1.037078,0.\C,0,2.104874,1.82966,0
 .\C,0,0.,0.382472,0.\C,0,1.528055,0.413443,0.\O,0,-2.819045,-0.165656,
 0.\O,0,-2.503459,-2.387142,0.\H,0,4.011459,2.880818,0.\H,0,4.036027,1.
 354785,0.880787\H,0,4.036027,1.354785,-0.880787\H,0,-0.205394,-1.60062
 2,0.869012\H,0,-0.205394,-1.600622,-0.869012\H,0,1.729349,2.370062,0.8

 Normal termination of Gaussian 16 at Sun Apr  6 08:15:58 2025.
