 Gaussian 16, Revision C.01,

 ----------------------------------------------------------------------
 #t hf aug-cc-pvdz symm=none int=(grid=ultrafine) guess=(read,tcheck) s
 table=(opt,rrhf)
 ----------------------------------------------------------------------
 -----
 title
 -----
 Symbolic Z-matrix:
 Charge =  0 Multiplicity = 1

 SCF Done:  E(RHF) =  -464.946113199     A.U. after   11 cycles
 Normal termination of Gaussian 16 at Sun Apr  6 08:19:28 2025.
 Gaussian 16:  ES64L-G16RevC.01  3-Jul-2019

 ----------------------------------------------------------------------
 #t hf aug-cc-pvdz iop(5/13=1,5/36=2,99/5=2) pseudo=read geom=check gue
 ss=(read,tcheck) scf=(maxcycle=1)
 ----------------------------------------------------------------------
 -----
 title
 -----
 Structure from the checkpoint file:  "hexamethylbenzene.chk"
 Charge =  0 Multiplicity = 1

                         Standard orientation:
 ---------------------------------------------------------------------
 Center     Atomic      Atomic             Coordinates (Angstroms)
 Number     Number       Type             X           Y           Z
 ---------------------------------------------------------------------
      1          6           0       -0.011190    1.402717    0.000000
      2          6           0        0.011190    0.701358    1.214788
      3          6           0        0.011190    0.701358   -1.214788
      4          6           0       -0.011190   -0.701358    1.214788
      5          6           0       -0.011190   -0.701358   -1.214788
      6          6           0        0.011190   -1.402717   -0.000000
      7          6           0       -0.082337    2.914685    0.000000
      8          6           0        0.082337    1.457342    2.524191
      9          6           0        0.082337    1.457342   -2.524191
     10          6           0       -0.082337   -1.457342    2.524191
     11          6           0       -0.082337   -1.457342   -2.524191
     12          6           0        0.082337   -2.914685   -0.000000
     13          1           0       -0.610244    3.289820   -0.873575
     14          1           0       -0.610244    3.289820    0.873575
     15          1           0        0.910531    3.376329    0.000000
     16          1           0       -0.910531    1.688164    2.923987
     17          1           0        0.610244    0.888372    3.285855
     18          1           0        0.610244    2.401448    2.412280
     19          1           0        0.610244    0.888372   -3.285855
     20          1           0       -0.910531    1.688164   -2.923987
     21          1           0        0.610244    2.401448   -2.412280
     22          1           0       -0.610244   -2.401448    2.412280
     23          1           0        0.910531   -1.688164    2.923987
     24          1           0       -0.610244   -0.888372    3.285855
     25          1           0        0.910531   -1.688164   -2.923987
     26          1           0       -0.610244   -2.401448   -2.412280
     27          1           0       -0.610244   -0.888372   -3.285855
     28          1           0        0.610244   -3.289820   -0.873575
     29          1           0        0.610244   -3.289820    0.873575
     30          1           0       -0.910531   -3.376329   -0.000000
 ---------------------------------------------------------------------

 SCF Done:  E(RHF) =  -467.318457725     A.U. after    2 cycles

 The electronic state is 1-AG.
 Alpha  occ. eigenvalues --  -11.51604 -11.45744 -11.45744 -11.44237 -11.44237
 Alpha  occ. eigenvalues --  -11.39856 -11.38307 -11.38307 -11.37734 -11.37734
 Alpha  occ. eigenvalues --  -11.36860 -11.33653  -1.38203  -1.19226  -1.19226
 Alpha  occ. eigenvalues --   -1.06110  -1.06110  -1.01395  -1.01377  -0.91694
 Alpha  occ. eigenvalues --   -0.91694  -0.77268  -0.77268  -0.66570  -0.60344
 Alpha  occ. eigenvalues --   -0.60246  -0.57768  -0.57768  -0.57212  -0.57212
 Alpha  occ. eigenvalues --   -0.56888  -0.54633  -0.54633  -0.53913  -0.52449
 Alpha  occ. eigenvalues --   -0.52449  -0.48991  -0.48991  -0.48623  -0.46158
 Alpha  occ. eigenvalues --   -0.43289  -0.38192  -0.38192  -0.28465  -0.28465
 Alpha virt. eigenvalues --    0.03478   0.04589   0.04589   0.04869   0.04869
 Alpha virt. eigenvalues --    0.06104   0.06104   0.06150   0.07042   0.07360
 Alpha virt. eigenvalues --    0.07360   0.07558   0.07898   0.09652   0.09652

 Mulliken charges:
               1
     1  C    2.736202
     2  C    2.736119
     3  C    2.736119
     4  C    2.736119
     5  C    2.736119
     6  C    2.736202
     7  C   -5.560704
     8  C   -5.560726
     9  C   -5.560726
    10  C   -5.560726
    11  C   -5.560726
    12  C   -5.560704
    13  H    0.981867
    14  H    0.981867
    15  H    0.860847
    16  H    0.860842
    17  H    0.981864
    18  H    0.981862
    19  H    0.981864
    20  H    0.860842
    21  H    0.981862
    22  H    0.981862
    23  H    0.860842
    24  H    0.981864
    25  H    0.860842
    26  H    0.981862
    27  H    0.981864
    28  H    0.981867
    29  H    0.981867
    30  H    0.860847
 Sum of Mulliken charges =  -0.00000

 Dipole moment (field-independent basis, Debye):
    X=              0.0000    Y=              0.0000    Z=              0.0000  Tot=              0.0000

 Test job not archived.
 1\1\GINC-SE453\SP\RHF\Aug-CC-pVDZ\C12H18\OHZDE\06-Apr-2025\0\\#t hf au
 g-cc-pvdz iop(5/13=1,5/36=2,99/5=2) pseudo=read geom=check guess=(read
 ,tcheck) scf=(maxcycle=1)\\title\\0,1\C,0,0.,1.402717,0.01119\C,0,1.21
 4788,0.701358,-0.01119\C,0,-1.214788,0.701358,-0.01119\C,0,1.214788,-0
 .701358,0.01119\C,0,-1.214788,-0.701358,0.01119\C,0,0.,-1.402717,-0.01
 119\C,0,0.,2.914685,0.082337\C,0,2.524191,1.457342,-0.082337\C,0,-2.52
 4191,1.457342,-0.082337\C,0,2.524191,-1.457342,0.082337\C,0,-2.524191,
 -1.457342,0.082337\C,0,0.,-2.914685,-0.082337\H,0,-0.873575,3.28982,0.

 Normal termination of Gaussian 16 at Sun Apr  6 08:20:54 2025.
