 Gaussian 16, Revision C.01,

 ----------------------------------------------------------------------
 #t hf aug-cc-pvdz symm=none int=(grid=ultrafine) guess=(read,tcheck) s
 table=(opt,rrhf)
 ----------------------------------------------------------------------
 -----
 title
 -----
 Symbolic Z-matrix:
 Charge =  0 Multiplicity = 1

 SCF Done:  E(RHF) =  -2832.71294284     A.U. after   12 cycles
 Normal termination of Gaussian 16 at Sun Apr  6 08:14:54 2025.
 Gaussian 16:  ES64L-G16RevC.01  3-Jul-2019

 ----------------------------------------------------------------------
 #t hf aug-cc-pvdz iop(5/13=1,5/36=2,99/5=2) pseudo=read geom=check gue
 ss=(read,tcheck) scf=(maxcycle=1)
 ----------------------------------------------------------------------
 -----
 title
 -----
 Structure from the checkpoint file:  "hexachloroethane.chk"
 Charge =  0 Multiplicity = 1

                         Standard orientation:
 ---------------------------------------------------------------------
 Center     Atomic      Atomic             Coordinates (Angstroms)
 Number     Number       Type             X           Y           Z
 ---------------------------------------------------------------------
      1          6           0        0.227058    0.759035    0.000000
      2          6           0       -0.227058   -0.759035   -0.000000
      3         17           0       -1.206603    1.825782    0.000000
      4         17           0        1.206603    1.103896    1.454268
      5         17           0        1.206603    1.103896   -1.454268
      6         17           0        1.206603   -1.825782    0.000000
      7         17           0       -1.206603   -1.103896    1.454268
      8         17           0       -1.206603   -1.103896   -1.454268
 ---------------------------------------------------------------------

 SCF Done:  E(RHF) =  -2834.55450920     A.U. after    2 cycles

 The electronic state is 1-AG.
 Alpha  occ. eigenvalues --  -99.92911 -99.92911 -99.92900 -99.92900 -99.92893
 Alpha  occ. eigenvalues --  -99.92887 -11.60859 -11.56996 -10.50480 -10.50451
 Alpha  occ. eigenvalues --  -10.50251 -10.50251 -10.50161 -10.50161  -9.70293
 Alpha  occ. eigenvalues --   -9.70293  -9.70189  -9.70189  -9.70079  -9.69974
 Alpha  occ. eigenvalues --   -9.69469  -9.69451  -9.69443  -9.69443  -9.69327
 Alpha  occ. eigenvalues --   -9.69327  -9.69269  -9.69267  -9.69267  -9.69219
 Alpha  occ. eigenvalues --   -9.69114  -9.69114  -1.52921  -1.41261  -1.32539
 Alpha  occ. eigenvalues --   -1.32539  -1.32046  -1.32046  -1.08887  -0.92499
 Alpha  occ. eigenvalues --   -0.77204  -0.76241  -0.76241  -0.68463  -0.68463
 Alpha  occ. eigenvalues --   -0.57807  -0.57807  -0.57683  -0.56745  -0.56745
 Alpha  occ. eigenvalues --   -0.53747  -0.53747  -0.53146  -0.50353  -0.50227
 Alpha  occ. eigenvalues --   -0.50227  -0.49480
 Alpha virt. eigenvalues --   -0.01496   0.00475   0.03681   0.03681   0.04672
 Alpha virt. eigenvalues --    0.06745   0.06745   0.08930   0.09539   0.09539
 Alpha virt. eigenvalues --    0.11456   0.11456   0.11938   0.14212   0.15294

 Mulliken charges:
               1
     1  C   -0.403880
     2  C   -0.403880
     3  Cl   0.134627
     4  Cl   0.134627
     5  Cl   0.134627
     6  Cl   0.134627
     7  Cl   0.134627
     8  Cl   0.134627
 Sum of Mulliken charges =  -0.00000

 Dipole moment (field-independent basis, Debye):
    X=              0.0000    Y=              0.0000    Z=              0.0000  Tot=              0.0000

 Test job not archived.
 1\1\GINC-SE275\SP\RHF\Aug-CC-pVDZ\C2Cl6\OHZDE\06-Apr-2025\0\\#t hf aug
 -cc-pvdz iop(5/13=1,5/36=2,99/5=2) pseudo=read geom=check guess=(read,
 tcheck) scf=(maxcycle=1)\\title\\0,1\C,0,0.,0.,0.792268\C,0,0.,0.,-0.7
 92268\Cl,0,0.,1.679244,1.403393\Cl,0,-1.454268,-0.839622,1.403393\Cl,0
 ,1.454268,-0.839622,1.403393\Cl,0,0.,-1.679244,-1.403393\Cl,0,-1.45426
 8,0.839622,-1.403393\Cl,0,1.454268,0.839622,-1.403393\\Version=ES64L-G
 16RevC.01\State=1-AG\HF=-2834.5545092\RMSD=1.094e-01\Dipole=0.,0.,0.\Q
 uadrupole=0.9381762,0.9381762,-1.8763524,0.,0.,0.0000002\PG=C02H [SGH(

 Normal termination of Gaussian 16 at Sun Apr  6 08:15:55 2025.
