 Gaussian 16, Revision C.01,

 ----------------------------------------------------------------------
 #t hf aug-cc-pvdz symm=none int=(grid=ultrafine) guess=(read,tcheck) s
 table=(opt,rrhf)
 ----------------------------------------------------------------------
 -----
 title
 -----
 Symbolic Z-matrix:
 Charge =  0 Multiplicity = 1

 SCF Done:  E(RHF) =  -230.623938769     A.U. after   15 cycles
 Normal termination of Gaussian 16 at Sun Apr  6 08:14:50 2025.
 Gaussian 16:  ES64L-G16RevC.01  3-Jul-2019

 ----------------------------------------------------------------------
 #t hf aug-cc-pvdz iop(5/13=1,5/36=2,99/5=2) pseudo=read geom=check gue
 ss=(read,tcheck) scf=(maxcycle=1)
 ----------------------------------------------------------------------
 -----
 title
 -----
 Structure from the checkpoint file:  "hexa-1-3-diene-5-yne.chk"
 Charge =  0 Multiplicity = 1

                         Standard orientation:
 ---------------------------------------------------------------------
 Center     Atomic      Atomic             Coordinates (Angstroms)
 Number     Number       Type             X           Y           Z
 ---------------------------------------------------------------------
      1          6           0        3.128267   -0.342469   -0.000004
      2          6           0        1.993557    0.059429   -0.000007
      3          6           0        0.675269    0.570452   -0.000011
      4          6           0       -0.435926   -0.189337    0.000004
      5          6           0       -1.776186    0.350545    0.000000
      6          6           0       -2.884737   -0.395944    0.000015
      7          1           0        4.125512   -0.705141   -0.000001
      8          1           0        0.578120    1.651724   -0.000027
      9          1           0       -0.335274   -1.269130    0.000020
     10          1           0       -1.864320    1.432522   -0.000016
     11          1           0       -2.837239   -1.477747    0.000031
     12          1           0       -3.868261    0.051719    0.000011
 ---------------------------------------------------------------------

 SCF Done:  E(RHF) =  -231.732071998     A.U. after    2 cycles

 The electronic state is 1-A.
 Alpha  occ. eigenvalues --  -11.46820 -11.44353 -11.41922 -11.40752 -11.40385
 Alpha  occ. eigenvalues --  -11.38696  -1.27091  -1.14225  -1.03973  -0.89657
 Alpha  occ. eigenvalues --   -0.79839  -0.73916  -0.64988  -0.64621  -0.55709
 Alpha  occ. eigenvalues --   -0.53640  -0.48894  -0.47545  -0.39837  -0.37203
 Alpha  occ. eigenvalues --   -0.28791
 Alpha virt. eigenvalues --    0.03353   0.04722   0.05414   0.05817   0.06982
 Alpha virt. eigenvalues --    0.07405   0.07927   0.09866   0.10257   0.11487
 Alpha virt. eigenvalues --    0.12200   0.12992   0.13948   0.14396   0.14725

 Mulliken charges:
               1
     1  C   -3.296298
     2  C    2.345239
     3  C   -1.075187
     4  C   -1.257361
     5  C   -0.192234
     6  C   -4.257359
     7  H    0.717800
     8  H    1.469496
     9  H    1.420447
    10  H    1.386096
    11  H    1.408159
    12  H    1.331203
 Sum of Mulliken charges =  -0.00000

 Dipole moment (field-independent basis, Debye):
    X=             -0.6616    Y=             -0.0366    Z=              0.0000  Tot=              0.6626

 Test job not archived.
 1\1\GINC-SE412\SP\RHF\Aug-CC-pVDZ\C6H6\OHZDE\06-Apr-2025\0\\#t hf aug-
 cc-pvdz iop(5/13=1,5/36=2,99/5=2) pseudo=read geom=check guess=(read,t
 check) scf=(maxcycle=1)\\title\\0,1\C,0,3.128267,-0.342469,-0.000004\C
 ,0,1.993557,0.059429,-0.000007\C,0,0.675269,0.570452,-0.000011\C,0,-0.
 435926,-0.189337,0.000004\C,0,-1.776186,0.350545,0.\C,0,-2.884737,-0.3
 95944,0.000015\H,0,4.125512,-0.705141,-0.000001\H,0,0.57812,1.651724,-
 0.000027\H,0,-0.335274,-1.26913,0.00002\H,0,-1.86432,1.432522,-0.00001
 6\H,0,-2.837239,-1.477747,0.000031\H,0,-3.868261,0.051719,0.000011\\Ve

 Normal termination of Gaussian 16 at Sun Apr  6 08:14:54 2025.
