 Gaussian 16, Revision C.01,

 ----------------------------------------------------------------------
 #t hf aug-cc-pvdz symm=none int=(grid=ultrafine) guess=(read,tcheck) s
 table=(opt,rrhf)
 ----------------------------------------------------------------------
 -----
 title
 -----
 Symbolic Z-matrix:
 Charge =  0 Multiplicity = 1

 SCF Done:  E(RHF) =  -364.168125505     A.U. after   13 cycles
 Normal termination of Gaussian 16 at Sun Apr  6 08:15:49 2025.
 Gaussian 16:  ES64L-G16RevC.01  3-Jul-2019

 ----------------------------------------------------------------------
 #t hf aug-cc-pvdz iop(5/13=1,5/36=2,99/5=2) pseudo=read geom=check gue
 ss=(read,tcheck) scf=(maxcycle=1)
 ----------------------------------------------------------------------
 -----
 title
 -----
 Structure from the checkpoint file:  "hexanamide.chk"
 Charge =  0 Multiplicity = 1

                         Standard orientation:
 ---------------------------------------------------------------------
 Center     Atomic      Atomic             Coordinates (Angstroms)
 Number     Number       Type             X           Y           Z
 ---------------------------------------------------------------------
      1          6           0       -2.341682    0.111370    0.062323
      2          6           0        4.074930   -0.182147    0.064954
      3          6           0       -1.005389   -0.584989    0.280499
      4          6           0        2.730567    0.451968   -0.287379
      5          6           0        0.185855    0.257397   -0.174608
      6          6           0        1.531563   -0.380318    0.168545
      7          7           0       -3.379576   -0.706845   -0.277643
      8          8           0       -2.490867    1.311718    0.200335
      9          1           0        4.179038   -0.312677    1.144121
     10          1           0        4.907792    0.434652   -0.275258
     11          1           0        4.181268   -1.165989   -0.397058
     12          1           0       -0.928223   -0.779637    1.355244
     13          1           0       -0.998311   -1.560235   -0.212711
     14          1           0        2.671429    0.604297   -1.369128
     15          1           0        2.667243    1.447267    0.161800
     16          1           0        0.120409    0.418511   -1.254432
     17          1           0        0.107976    1.243573    0.284716
     18          1           0        1.592586   -0.535216    1.251266
     19          1           0        1.594355   -1.376608   -0.283106
     20          1           0       -4.296353   -0.304735   -0.373362
     21          1           0       -3.270304   -1.698720   -0.377277
 ---------------------------------------------------------------------

 SCF Done:  E(RHF) =  -365.926069859     A.U. after    2 cycles

 The electronic state is 1-A.
 Alpha  occ. eigenvalues --  -21.01654 -15.77646 -11.50566 -11.42548 -11.41715
 Alpha  occ. eigenvalues --  -11.39092 -11.36676 -11.34339  -1.69802  -1.34605
 Alpha  occ. eigenvalues --   -1.25801  -1.13788  -1.01394  -0.89713  -0.82657
 Alpha  occ. eigenvalues --   -0.78895  -0.70922  -0.66806  -0.63167  -0.61102
 Alpha  occ. eigenvalues --   -0.57492  -0.56010  -0.53747  -0.50921  -0.49746
 Alpha  occ. eigenvalues --   -0.46752  -0.46450  -0.45182  -0.44621  -0.40733
 Alpha  occ. eigenvalues --   -0.31949  -0.28087
 Alpha virt. eigenvalues --    0.03523   0.04455   0.04930   0.05342   0.05845
 Alpha virt. eigenvalues --    0.06238   0.06557   0.06958   0.07546   0.07895
 Alpha virt. eigenvalues --    0.09112   0.09916   0.09979   0.10906   0.12868

 Mulliken charges:
               1
     1  C    5.378244
     2  C   -4.446420
     3  C   -4.196623
     4  C   -3.223154
     5  C   -2.146935
     6  C   -2.241050
     7  N   -3.132212
     8  O   -3.285668
     9  H    1.335965
    10  H    1.076417
    11  H    1.335995
    12  H    1.475088
    13  H    1.549027
    14  H    1.424292
    15  H    1.441567
    16  H    1.505149
    17  H    1.635449
    18  H    1.497536
    19  H    1.543794
    20  H    0.750730
    21  H    0.722810
 Sum of Mulliken charges =   0.00000

 Dipole moment (field-independent basis, Debye):
    X=             -0.2108    Y=             -2.2028    Z=             -0.3744  Tot=              2.2443

 Test job not archived.
 1\1\GINC-SE454\SP\RHF\Aug-CC-pVDZ\C6H13N1O1\OHZDE\06-Apr-2025\0\\#t hf
  aug-cc-pvdz iop(5/13=1,5/36=2,99/5=2) pseudo=read geom=check guess=(r
 ead,tcheck) scf=(maxcycle=1)\\title\\0,1\C,0,-2.341682,0.11137,0.06232
 3\C,0,4.07493,-0.182147,0.064954\C,0,-1.005389,-0.584989,0.280499\C,0,
 2.730567,0.451968,-0.287379\C,0,0.185855,0.257397,-0.174608\C,0,1.5315
 63,-0.380318,0.168545\N,0,-3.379576,-0.706845,-0.277643\O,0,-2.490867,
 1.311718,0.200335\H,0,4.179038,-0.312677,1.144121\H,0,4.907792,0.43465
 2,-0.275258\H,0,4.181268,-1.165989,-0.397058\H,0,-0.928223,-0.779637,1

 Normal termination of Gaussian 16 at Sun Apr  6 08:16:01 2025.
