 Gaussian 16, Revision C.01,

 ----------------------------------------------------------------------
 #t hf aug-cc-pvdz symm=none int=(grid=ultrafine) guess=(read,tcheck) s
 table=(opt,rrhf)
 ----------------------------------------------------------------------
 -----
 title
 -----
 Symbolic Z-matrix:
 Charge =  0 Multiplicity = 1

 SCF Done:  E(RHF) =  -2984.21134579     A.U. after   11 cycles
 Normal termination of Gaussian 16 at Sun Apr  6 08:15:25 2025.
 Gaussian 16:  ES64L-G16RevC.01  3-Jul-2019

 ----------------------------------------------------------------------
 #t hf aug-cc-pvdz iop(5/13=1,5/36=2,99/5=2) pseudo=read geom=check gue
 ss=(read,tcheck) scf=(maxcycle=1)
 ----------------------------------------------------------------------
 -----
 title
 -----
 Structure from the checkpoint file:  "hexachlorobenzene.chk"
 Charge =  0 Multiplicity = 1

                         Standard orientation:
 ---------------------------------------------------------------------
 Center     Atomic      Atomic             Coordinates (Angstroms)
 Number     Number       Type             X           Y           Z
 ---------------------------------------------------------------------
      1          6           0       -0.000000   -0.000000    1.397768
      2          6           0        0.000000    1.210502    0.698884
      3          6           0       -0.000000   -1.210502    0.698884
      4          6           0        0.000000    1.210502   -0.698884
      5          6           0       -0.000000   -1.210502   -0.698884
      6          6           0        0.000000   -0.000000   -1.397768
      7         17           0       -0.000000   -0.000000    3.126245
      8         17           0        0.000000    2.707407    1.563122
      9         17           0       -0.000000   -2.707407    1.563122
     10         17           0        0.000000    2.707407   -1.563122
     11         17           0       -0.000000   -2.707407   -1.563122
     12         17           0        0.000000   -0.000000   -3.126245
 ---------------------------------------------------------------------

 SCF Done:  E(RHF) =  -2986.74720185     A.U. after    2 cycles

 The electronic state is 1-AG.
 Alpha  occ. eigenvalues --  -99.92575 -99.92565 -99.92565 -99.92561 -99.92561
 Alpha  occ. eigenvalues --  -99.92526 -11.61776 -11.54013 -11.54013 -11.52657
 Alpha  occ. eigenvalues --  -11.52657 -11.46270 -10.50067 -10.50031 -10.50031
 Alpha  occ. eigenvalues --  -10.50028 -10.50028 -10.50002  -9.70436  -9.70127
 Alpha  occ. eigenvalues --   -9.70127  -9.69878  -9.69878  -9.69637  -9.69324
 Alpha  occ. eigenvalues --   -9.69244  -9.69244  -9.69014  -9.69014  -9.68962
 Alpha  occ. eigenvalues --   -9.68917  -9.68917  -9.68864  -9.68864  -9.68795
 Alpha  occ. eigenvalues --   -9.68783  -1.53569  -1.40597  -1.40597  -1.34979
 Alpha  occ. eigenvalues --   -1.34979  -1.33473  -1.23969  -1.11231  -1.11231
 Alpha  occ. eigenvalues --   -0.93117  -0.93117  -0.76675  -0.75750  -0.73191
 Alpha  occ. eigenvalues --   -0.67920  -0.65650  -0.65650  -0.63222  -0.63222
 Alpha  occ. eigenvalues --   -0.61459  -0.61459  -0.56416  -0.56416  -0.55633
 Alpha  occ. eigenvalues --   -0.53316  -0.53316  -0.53098  -0.52538  -0.52538
 Alpha  occ. eigenvalues --   -0.49447  -0.49372  -0.37608  -0.37608
 Alpha virt. eigenvalues --    0.02140   0.03435   0.04763   0.04763   0.06649
 Alpha virt. eigenvalues --    0.06649   0.06700   0.06700   0.08348   0.09600
 Alpha virt. eigenvalues --    0.09600   0.10839   0.12237   0.12237   0.12497

 Mulliken charges:
               1
     1  C    0.428151
     2  C    0.428145
     3  C    0.428145
     4  C    0.428145
     5  C    0.428145
     6  C    0.428151
     7  Cl  -0.428146
     8  Cl  -0.428147
     9  Cl  -0.428147
    10  Cl  -0.428147
    11  Cl  -0.428147
    12  Cl  -0.428146
 Sum of Mulliken charges =  -0.00000

 Dipole moment (field-independent basis, Debye):
    X=              0.0000    Y=             -0.0000    Z=             -0.0000  Tot=              0.0000

 Test job not archived.
 1\1\GINC-SE412\SP\RHF\Aug-CC-pVDZ\C6Cl6\OHZDE\06-Apr-2025\0\\#t hf aug
 -cc-pvdz iop(5/13=1,5/36=2,99/5=2) pseudo=read geom=check guess=(read,
 tcheck) scf=(maxcycle=1)\\title\\0,1\C,0,0.,1.397768,0.\C,0,1.210502,0
 .698884,0.\C,0,-1.210502,0.698884,0.\C,0,1.210502,-0.698884,0.\C,0,-1.
 210502,-0.698884,0.\C,0,0.,-1.397768,0.\Cl,0,0.,3.126245,0.\Cl,0,2.707
 407,1.563122,0.\Cl,0,-2.707407,1.563122,0.\Cl,0,2.707407,-1.563122,0.\
 Cl,0,-2.707407,-1.563122,0.\Cl,0,0.,-3.126245,0.\\Version=ES64L-G16Rev
 C.01\State=1-AG\HF=-2986.7472019\RMSD=4.419e+00\Dipole=0.,0.,0.\Quadru

 Normal termination of Gaussian 16 at Sun Apr  6 08:15:59 2025.
