 Gaussian 16, Revision C.01,

 ----------------------------------------------------------------------
 #t hf aug-cc-pvdz symm=none int=(grid=ultrafine) guess=(read,tcheck) s
 table=(opt,rrhf)
 ----------------------------------------------------------------------
 -----
 title
 -----
 Symbolic Z-matrix:
 Charge =  0 Multiplicity = 1

 SCF Done:  E(RHF) =  -545.617033985     A.U. after   15 cycles
 Normal termination of Gaussian 16 at Sun Apr  6 08:16:19 2025.
 Gaussian 16:  ES64L-G16RevC.01  3-Jul-2019

 ----------------------------------------------------------------------
 #t hf aug-cc-pvdz iop(5/13=1,5/36=2,99/5=2) pseudo=read geom=check gue
 ss=(read,tcheck) scf=(maxcycle=1)
 ----------------------------------------------------------------------
 -----
 title
 -----
 Structure from the checkpoint file:  "histidine.chk"
 Charge =  0 Multiplicity = 1

                         Standard orientation:
 ---------------------------------------------------------------------
 Center     Atomic      Atomic             Coordinates (Angstroms)
 Number     Number       Type             X           Y           Z
 ---------------------------------------------------------------------
      1          7           0       -1.201957    1.645890    0.152460
      2          6           0       -1.122137    0.221629   -0.199424
      3          6           0       -2.533221   -0.393283   -0.152217
      4          8           0       -2.748314   -1.574901   -0.095497
      5          8           0       -3.514020    0.517294   -0.229519
      6          1           0       -3.060866    1.389226   -0.232101
      7          6           0       -0.112058   -0.609453    0.605562
      8          6           0        1.310812   -0.315666    0.248158
      9          7           0        1.798228    0.972889    0.135796
     10          6           0        3.064823    0.857017   -0.182550
     11          7           0        3.431444   -0.446678   -0.283277
     12          6           0        2.315898   -1.207793   -0.013417
     13          1           0       -0.839634    0.175548   -1.255509
     14          1           0       -0.281816   -0.417857    1.670751
     15          1           0       -0.320702   -1.665837    0.443593
     16          1           0        3.752508    1.668827   -0.350821
     17          1           0        4.345579   -0.792723   -0.516050
     18          1           0        2.335670   -2.282388   -0.032339
     19          1           0       -1.210332    1.750849    1.162273
     20          1           0       -0.360429    2.115801   -0.161192
 ---------------------------------------------------------------------

 SCF Done:  E(RHF) =  -548.071332565     A.U. after    2 cycles

 The electronic state is 1-A.
 Alpha  occ. eigenvalues --  -21.09572 -21.03356 -15.81321 -15.74713 -15.72809
 Alpha  occ. eigenvalues --  -11.51941 -11.47484 -11.45975 -11.44062 -11.42421
 Alpha  occ. eigenvalues --  -11.38197  -1.80758  -1.64041  -1.57792  -1.36704
 Alpha  occ. eigenvalues --   -1.28340  -1.15777  -1.06335  -0.95661  -0.86301
 Alpha  occ. eigenvalues --   -0.79421  -0.76678  -0.75975  -0.71355  -0.65655
 Alpha  occ. eigenvalues --   -0.62887  -0.59719  -0.59287  -0.58353  -0.56724
 Alpha  occ. eigenvalues --   -0.53966  -0.50951  -0.48505  -0.47764  -0.43581
 Alpha  occ. eigenvalues --   -0.40962  -0.37848  -0.36691  -0.31840  -0.31363
 Alpha  occ. eigenvalues --   -0.27657
 Alpha virt. eigenvalues --    0.02746   0.04233   0.04786   0.05132   0.05975
 Alpha virt. eigenvalues --    0.06753   0.07324   0.07606   0.08882   0.09423
 Alpha virt. eigenvalues --    0.10172   0.11004   0.11823   0.12582   0.12820

 Mulliken charges:
               1
     1  N   -2.749808
     2  C   -1.219352
     3  C    6.230691
     4  O   -3.323987
     5  O   -3.193988
     6  H    1.123917
     7  C   -3.728277
     8  C    5.202568
     9  N   -3.709940
    10  C    1.259620
    11  N   -3.136345
    12  C   -2.321573
    13  H    1.806793
    14  H    1.251670
    15  H    1.592930
    16  H    1.677034
    17  H    0.856475
    18  H    1.145516
    19  H    0.572584
    20  H    0.663473
 Sum of Mulliken charges =  -0.00000

 Dipole moment (field-independent basis, Debye):
    X=              5.8074    Y=              0.3538    Z=             -0.2288  Tot=              5.8227

 Test job not archived.
 1\1\GINC-SE270\SP\RHF\Aug-CC-pVDZ\C6H9N3O2\OHZDE\06-Apr-2025\0\\#t hf
 aug-cc-pvdz iop(5/13=1,5/36=2,99/5=2) pseudo=read geom=check guess=(re
 ad,tcheck) scf=(maxcycle=1)\\title\\0,1\N,0,-1.201957,1.64589,0.15246\
 C,0,-1.122137,0.221629,-0.199424\C,0,-2.533221,-0.393283,-0.152217\O,0
 ,-2.748314,-1.574901,-0.095497\O,0,-3.51402,0.517294,-0.229519\H,0,-3.
 060866,1.389226,-0.232101\C,0,-0.112058,-0.609453,0.605562\C,0,1.31081
 2,-0.315666,0.248158\N,0,1.798228,0.972889,0.135796\C,0,3.064823,0.857
 017,-0.18255\N,0,3.431444,-0.446678,-0.283277\C,0,2.315898,-1.207793,-

 Normal termination of Gaussian 16 at Sun Apr  6 08:16:40 2025.
