 Gaussian 16, Revision C.01,

 ----------------------------------------------------------------------
 #t hf aug-cc-pvdz symm=none int=(grid=ultrafine) guess=(read,tcheck) s
 table=(opt,rrhf)
 ----------------------------------------------------------------------
 -----
 title
 -----
 Symbolic Z-matrix:
 Charge =  0 Multiplicity = 1

 SCF Done:  E(RHF) =  -227.806591451     A.U. after   13 cycles
 Normal termination of Gaussian 16 at Sun Apr  6 08:15:57 2025.
 Gaussian 16:  ES64L-G16RevC.01  3-Jul-2019

 ----------------------------------------------------------------------
 #t hf aug-cc-pvdz iop(5/13=1,5/36=2,99/5=2) pseudo=read geom=check gue
 ss=(read,tcheck) scf=(maxcycle=1)
 ----------------------------------------------------------------------
 -----
 title
 -----
 Structure from the checkpoint file:  "hydroxyacetaldehyde.chk"
 Charge =  0 Multiplicity = 1

                         Standard orientation:
 ---------------------------------------------------------------------
 Center     Atomic      Atomic             Coordinates (Angstroms)
 Number     Number       Type             X           Y           Z
 ---------------------------------------------------------------------
      1          6           0        0.000000    0.928126    0.000000
      2          6           0        0.925344   -0.256408    0.000000
      3          8           0       -1.349713    0.557465    0.000000
      4          8           0        0.516462   -1.391513    0.000000
      5          1           0       -1.374140   -0.411223    0.000000
      6          1           0        0.240237    1.542269    0.879378
      7          1           0        0.240237    1.542269   -0.879378
      8          1           0        2.007614   -0.031238    0.000000
 ---------------------------------------------------------------------

 SCF Done:  E(RHF) =  -228.780868926     A.U. after    2 cycles

 The electronic state is 1-A'.
 Alpha  occ. eigenvalues --  -21.08462 -21.07697 -11.50265 -11.43292  -1.76134
 Alpha  occ. eigenvalues --   -1.69307  -1.07702  -0.82429  -0.70154  -0.64968
 Alpha  occ. eigenvalues --   -0.59821  -0.51386  -0.45122  -0.42802  -0.33312
 Alpha  occ. eigenvalues --   -0.32246
 Alpha virt. eigenvalues --    0.03291   0.05325   0.05742   0.07274   0.09921
 Alpha virt. eigenvalues --    0.10768   0.11219   0.11993   0.14369   0.15366
 Alpha virt. eigenvalues --    0.15480   0.17490   0.19431   0.23256   0.24869

 Mulliken charges:
               1
     1  C   -0.788901
     2  C    0.954206
     3  O   -2.571027
     4  O   -2.555656
     5  H    0.826085
     6  H    1.320395
     7  H    1.320395
     8  H    1.494504
 Sum of Mulliken charges =  -0.00000

 Dipole moment (field-independent basis, Debye):
    X=              0.9652    Y=              0.5678    Z=             -0.0000  Tot=              1.1198

 Test job not archived.
 1\1\GINC-SE038\SP\RHF\Aug-CC-pVDZ\C2H4O2\OHZDE\06-Apr-2025\0\\#t hf au
 g-cc-pvdz iop(5/13=1,5/36=2,99/5=2) pseudo=read geom=check guess=(read
 ,tcheck) scf=(maxcycle=1)\\title\\0,1\C,0,0.,0.928126,0.\C,0,0.925344,
 -0.256408,0.\O,0,-1.349713,0.557465,0.\O,0,0.516462,-1.391513,0.\H,0,-
 1.37414,-0.411223,0.\H,0,0.240237,1.542269,0.879378\H,0,0.240237,1.542
 269,-0.879378\H,0,2.007614,-0.031238,0.\\Version=ES64L-G16RevC.01\Stat
 e=1-A'\HF=-228.7808689\RMSD=1.751e-01\Dipole=0.3797476,0.2233892,0.\Qu
 adrupole=-0.1647657,-0.3378189,0.5025846,1.866372,0.,0.\PG=CS [SG(C2H2

 Normal termination of Gaussian 16 at Sun Apr  6 08:16:33 2025.
