 Gaussian 16, Revision C.01,

 ----------------------------------------------------------------------
 #t hf aug-cc-pvdz symm=none int=(grid=ultrafine) guess=(read,tcheck) s
 table=(opt,rrhf)
 ----------------------------------------------------------------------
 -----
 title
 -----
 Symbolic Z-matrix:
 Charge =  0 Multiplicity = 1

 SCF Done:  E(RHF) =  -549.206036026     A.U. after   15 cycles
 Normal termination of Gaussian 16 at Sun Apr  6 08:16:41 2025.
 Gaussian 16:  ES64L-G16RevC.01  3-Jul-2019

 ----------------------------------------------------------------------
 #t hf aug-cc-pvdz iop(5/13=1,5/36=2,99/5=2) pseudo=read geom=check gue
 ss=(read,tcheck) scf=(maxcycle=1)
 ----------------------------------------------------------------------
 -----
 title
 -----
 Structure from the checkpoint file:  "hydroxysulfanylethyne.chk"
 Charge =  0 Multiplicity = 1

                         Standard orientation:
 ---------------------------------------------------------------------
 Center     Atomic      Atomic             Coordinates (Angstroms)
 Number     Number       Type             X           Y           Z
 ---------------------------------------------------------------------
      1         16           0       -0.560952   -0.610114    0.012357
      2          8           0       -1.476085    0.795532   -0.118724
      3          6           0        1.020613   -0.035441    0.000928
      4          6           0        2.177382    0.307670   -0.001983
      5          1           0       -1.598128    1.151695    0.770681
      6          1           0        3.194069    0.612498   -0.012273
 ---------------------------------------------------------------------

 SCF Done:  E(RHF) =  -550.094372520     A.U. after    2 cycles

 The electronic state is 1-A.
 Alpha  occ. eigenvalues --  -75.76623 -21.11704 -13.23895 -13.19080 -13.08689
 Alpha  occ. eigenvalues --  -11.43111 -11.41811  -8.10392  -1.74487  -1.18959
 Alpha  occ. eigenvalues --   -1.03145  -0.75299  -0.63886  -0.56535  -0.49109
 Alpha  occ. eigenvalues --   -0.44144  -0.38419  -0.37048  -0.23837
 Alpha virt. eigenvalues --    0.02787   0.04596   0.06966   0.08513   0.09840
 Alpha virt. eigenvalues --    0.10782   0.12166   0.14144   0.14519   0.15538
 Alpha virt. eigenvalues --    0.17043   0.18611   0.19529   0.21153   0.22606

 Mulliken charges:
               1
     1  S    1.696348
     2  O   -2.000064
     3  C    0.205167
     4  C   -1.626526
     5  H    0.908034
     6  H    0.817042
 Sum of Mulliken charges =  -0.00000

 Dipole moment (field-independent basis, Debye):
    X=             -0.6971    Y=             -0.3271    Z=              0.5573  Tot=              0.9505

 Test job not archived.
 1\1\GINC-SE136\SP\RHF\Aug-CC-pVDZ\C2H2O1S1\OHZDE\06-Apr-2025\0\\#t hf
 aug-cc-pvdz iop(5/13=1,5/36=2,99/5=2) pseudo=read geom=check guess=(re
 ad,tcheck) scf=(maxcycle=1)\\title\\0,1\S,0,-0.560952,-0.610114,0.0123
 57\O,0,-1.476085,0.795532,-0.118724\C,0,1.020613,-0.035441,0.000928\C,
 0,2.177382,0.30767,-0.001983\H,0,-1.598128,1.151695,0.770681\H,0,3.194
 069,0.612498,-0.012273\\Version=ES64L-G16RevC.01\State=1-A\HF=-550.094
 3725\RMSD=7.504e-01\Dipole=-0.2742762,-0.1286862,0.2192482\Quadrupole=
 3.3332969,-0.2706714,-3.0626255,1.1231919,-1.192499,1.2092407\PG=C01 [

 Normal termination of Gaussian 16 at Sun Apr  6 08:16:43 2025.
