 Gaussian 16, Revision C.01,

 ----------------------------------------------------------------------
 #t hf aug-cc-pvdz symm=none int=(grid=ultrafine) guess=(read,tcheck) s
 table=(opt,rrhf)
 ----------------------------------------------------------------------
 -----
 title
 -----
 Symbolic Z-matrix:
 Charge =  0 Multiplicity = 1

 SCF Done:  E(RHF) =  -264.707006825     A.U. after   13 cycles
 Normal termination of Gaussian 16 at Sun Apr  6 08:16:38 2025.
 Gaussian 16:  ES64L-G16RevC.01  3-Jul-2019

 ----------------------------------------------------------------------
 #t hf aug-cc-pvdz iop(5/13=1,5/36=2,99/5=2) pseudo=read geom=check gue
 ss=(read,tcheck) scf=(maxcycle=1)
 ----------------------------------------------------------------------
 -----
 title
 -----
 Structure from the checkpoint file:  "hydroxymethylperoxide.chk"
 Charge =  0 Multiplicity = 1

                         Standard orientation:
 ---------------------------------------------------------------------
 Center     Atomic      Atomic             Coordinates (Angstroms)
 Number     Number       Type             X           Y           Z
 ---------------------------------------------------------------------
      1          6           0       -0.521080    0.491811    0.031617
      2          8           0       -1.757960   -0.126244   -0.064518
      3          8           0        0.469147   -0.535551   -0.126038
      4          8           0        1.752362    0.137407   -0.041874
      5          1           0       -1.897823   -0.685361    0.707197
      6          1           0        2.117970   -0.266792    0.756685
      7          1           0       -0.442357    1.205959   -0.787605
      8          1           0       -0.359703    0.990434    0.993457
 ---------------------------------------------------------------------

 SCF Done:  E(RHF) =  -265.804084678     A.U. after    2 cycles

 The electronic state is 1-A.
 Alpha  occ. eigenvalues --  -21.12435 -21.09839 -21.09416 -11.44942  -1.94912
 Alpha  occ. eigenvalues --   -1.73367  -1.42516  -0.93972  -0.70107  -0.65592
 Alpha  occ. eigenvalues --   -0.58656  -0.56114  -0.48960  -0.41051  -0.36408
 Alpha  occ. eigenvalues --   -0.34452  -0.29739
 Alpha virt. eigenvalues --    0.03818   0.05329   0.05919   0.06264   0.11982
 Alpha virt. eigenvalues --    0.12410   0.15147   0.16243   0.17403   0.18994
 Alpha virt. eigenvalues --    0.21391   0.21542   0.23729   0.24002   0.25474

 Mulliken charges:
               1
     1  C    0.271850
     2  O   -2.427345
     3  O   -1.383826
     4  O   -0.959379
     5  H    0.754691
     6  H    0.893851
     7  H    1.470065
     8  H    1.380094
 Sum of Mulliken charges =  -0.00000

 Dipole moment (field-independent basis, Debye):
    X=              0.0614    Y=              0.0171    Z=              1.3432  Tot=              1.3447

 Test job not archived.
 1\1\GINC-SE104\SP\RHF\Aug-CC-pVDZ\C1H4O3\OHZDE\06-Apr-2025\0\\#t hf au
 g-cc-pvdz iop(5/13=1,5/36=2,99/5=2) pseudo=read geom=check guess=(read
 ,tcheck) scf=(maxcycle=1)\\title\\0,1\C,0,-0.52108,0.491811,0.031617\O
 ,0,-1.75796,-0.126244,-0.064518\O,0,0.469147,-0.535551,-0.126038\O,0,1
 .752362,0.137407,-0.041874\H,0,-1.897823,-0.685361,0.707197\H,0,2.1179
 7,-0.266792,0.756685\H,0,-0.442357,1.205959,-0.787605\H,0,-0.359703,0.
 990434,0.993457\\Version=ES64L-G16RevC.01\State=1-A\HF=-265.8040847\RM
 SD=4.870e-02\Dipole=0.0241438,0.006718,0.528462\Quadrupole=-0.066174,-

 Normal termination of Gaussian 16 at Sun Apr  6 08:16:40 2025.
