 Gaussian 16, Revision C.01,

 ----------------------------------------------------------------------
 #t hf aug-cc-pvdz symm=none int=(grid=ultrafine) guess=(read,tcheck) s
 table=(opt,rrhf)
 ----------------------------------------------------------------------
 -----
 title
 -----
 Symbolic Z-matrix:
 Charge =  0 Multiplicity = 1

 SCF Done:  E(RHF) =  -226.444916537     A.U. after   15 cycles
 Normal termination of Gaussian 16 at Sun Apr  6 08:16:40 2025.
 Gaussian 16:  ES64L-G16RevC.01  3-Jul-2019

 ----------------------------------------------------------------------
 #t hf aug-cc-pvdz iop(5/13=1,5/36=2,99/5=2) pseudo=read geom=check gue
 ss=(read,tcheck) scf=(maxcycle=1)
 ----------------------------------------------------------------------
 -----
 title
 -----
 Structure from the checkpoint file:  "hydroperoxyacetylene.chk"
 Charge =  0 Multiplicity = 1

                         Standard orientation:
 ---------------------------------------------------------------------
 Center     Atomic      Atomic             Coordinates (Angstroms)
 Number     Number       Type             X           Y           Z
 ---------------------------------------------------------------------
      1          8           0        0.500202    0.649433   -0.012191
      2          8           0        1.498887   -0.464552   -0.099113
      3          6           0       -0.689930    0.150600    0.001728
      4          6           0       -1.824334   -0.241903    0.015562
      5          1           0        1.923095   -0.355188    0.766050
      6          1           0       -2.830223   -0.576039    0.020646
 ---------------------------------------------------------------------

 SCF Done:  E(RHF) =  -227.388454062     A.U. after    2 cycles

 The electronic state is 1-A.
 Alpha  occ. eigenvalues --  -21.17253 -21.16753 -11.45602 -11.40685  -1.96561
 Alpha  occ. eigenvalues --   -1.51648  -1.07262  -0.75020  -0.66292  -0.64177
 Alpha  occ. eigenvalues --   -0.57373  -0.49036  -0.38388  -0.35884  -0.30363
 Alpha virt. eigenvalues --    0.03263   0.05001   0.08941   0.10824   0.12663
 Alpha virt. eigenvalues --    0.13359   0.13572   0.14369   0.15876   0.16560
 Alpha virt. eigenvalues --    0.19705   0.21277   0.22049   0.23621   0.25371

 Mulliken charges:
               1
     1  O   -1.857080
     2  O   -0.888501
     3  C    1.732340
     4  C   -0.533836
     5  H    0.888144
     6  H    0.658933
 Sum of Mulliken charges =  -0.00000

 Dipole moment (field-independent basis, Debye):
    X=              0.8157    Y=             -0.4991    Z=              0.7299  Tot=              1.2030

 Test job not archived.
 1\1\GINC-SE023\SP\RHF\Aug-CC-pVDZ\C2H2O2\OHZDE\06-Apr-2025\0\\#t hf au
 g-cc-pvdz iop(5/13=1,5/36=2,99/5=2) pseudo=read geom=check guess=(read
 ,tcheck) scf=(maxcycle=1)\\title\\0,1\O,0,0.500202,0.649433,-0.012191\
 O,0,1.498887,-0.464552,-0.099113\C,0,-0.68993,0.1506,0.001728\C,0,-1.8
 24334,-0.241903,0.015562\H,0,1.923095,-0.355188,0.76605\H,0,-2.830223,
 -0.576039,0.020646\\Version=ES64L-G16RevC.01\State=1-A\HF=-227.3884541
 \RMSD=4.702e-01\Dipole=0.3209317,-0.1963659,0.2871558\Quadrupole=3.380
 9474,-1.8838957,-1.4970517,0.3013424,1.6636685,-0.1573501\PG=C01 [X(C2

 Normal termination of Gaussian 16 at Sun Apr  6 08:16:44 2025.
