 Gaussian 16, Revision C.01,

 ----------------------------------------------------------------------
 #t hf aug-cc-pvdz symm=none int=(grid=ultrafine) guess=(read,tcheck) s
 table=(opt,rrhf)
 ----------------------------------------------------------------------
 -----
 title
 -----
 Symbolic Z-matrix:
 Charge =  0 Multiplicity = 1

 SCF Done:  E(RHF) =  -1024.03839656     A.U. after   13 cycles
 Normal termination of Gaussian 16 at Sun Apr  6 08:16:51 2025.
 Gaussian 16:  ES64L-G16RevC.01  3-Jul-2019

 ----------------------------------------------------------------------
 #t hf aug-cc-pvdz iop(5/13=1,5/36=2,99/5=2) pseudo=read geom=check gue
 ss=(read,tcheck) scf=(maxcycle=1)
 ----------------------------------------------------------------------
 -----
 title
 -----
 Structure from the checkpoint file:  "hydroxymethyldisulfanylmethanol.chk"
 Charge =  0 Multiplicity = 1

                         Standard orientation:
 ---------------------------------------------------------------------
 Center     Atomic      Atomic             Coordinates (Angstroms)
 Number     Number       Type             X           Y           Z
 ---------------------------------------------------------------------
      1         16           0       -0.588948   -0.854750   -0.597619
      2         16           0        0.588932    0.854989   -0.597326
      3          8           0       -2.696710    0.623868    0.346427
      4          8           0        2.696697   -0.624032    0.346082
      5          6           0       -1.855232   -0.435708    0.688286
      6          6           0        1.855275    0.435453    0.688361
      7          1           0       -1.332873   -0.262522    1.630730
      8          1           0       -2.466770   -1.333392    0.769900
      9          1           0        1.332960    0.261952    1.630771
     10          1           0        2.466846    1.333087    0.770258
     11          1           0       -2.164171    1.423911    0.259063
     12          1           0        2.164119   -1.424019    0.258442
 ---------------------------------------------------------------------

 SCF Done:  E(RHF) =  -1025.49437254     A.U. after    2 cycles

 The electronic state is 1-A.
 Alpha  occ. eigenvalues --  -75.71397 -75.71287 -21.09311 -21.09293 -13.16305
 Alpha  occ. eigenvalues --  -13.11869 -13.10763 -13.09523 -13.05931 -13.05380
 Alpha  occ. eigenvalues --  -11.45243 -11.44683  -8.05314  -8.05280  -1.74194
 Alpha  occ. eigenvalues --   -1.73366  -1.24252  -1.08957  -0.95572  -0.87463
 Alpha  occ. eigenvalues --   -0.68518  -0.67820  -0.59587  -0.58938  -0.55584
 Alpha  occ. eigenvalues --   -0.55192  -0.44475  -0.41471  -0.36215  -0.34298
 Alpha  occ. eigenvalues --   -0.31451  -0.26322  -0.24181
 Alpha virt. eigenvalues --    0.02738   0.03457   0.04744   0.05370   0.06759
 Alpha virt. eigenvalues --    0.07681   0.08370   0.09227   0.11244   0.12149
 Alpha virt. eigenvalues --    0.12816   0.14029   0.14934   0.16158   0.16257

 Mulliken charges:
               1
     1  S    0.188177
     2  S    0.188191
     3  O   -2.255026
     4  O   -2.255028
     5  C   -1.835869
     6  C   -1.835872
     7  H    1.584828
     8  H    1.411806
     9  H    1.584831
    10  H    1.411802
    11  H    0.906073
    12  H    0.906089
 Sum of Mulliken charges =  -0.00000

 Dipole moment (field-independent basis, Debye):
    X=             -0.0000    Y=              0.0001    Z=             -0.4521  Tot=              0.4521

 Test job not archived.
 1\1\GINC-SE044\SP\RHF\Aug-CC-pVDZ\C2H6O2S2\OHZDE\06-Apr-2025\0\\#t hf
 aug-cc-pvdz iop(5/13=1,5/36=2,99/5=2) pseudo=read geom=check guess=(re
 ad,tcheck) scf=(maxcycle=1)\\title\\0,1\S,0,-0.588948,-0.85475,-0.5976
 19\S,0,0.588932,0.854989,-0.597326\O,0,-2.69671,0.623868,0.346427\O,0,
 2.696697,-0.624032,0.346082\C,0,-1.855232,-0.435708,0.688286\C,0,1.855
 275,0.435453,0.688361\H,0,-1.332873,-0.262522,1.63073\H,0,-2.46677,-1.
 333392,0.7699\H,0,1.33296,0.261952,1.630771\H,0,2.466846,1.333087,0.77
 0258\H,0,-2.164171,1.423911,0.259063\H,0,2.164119,-1.424019,0.258442\\

 Normal termination of Gaussian 16 at Sun Apr  6 08:16:56 2025.
