 Gaussian 16, Revision C.01,

 ----------------------------------------------------------------------
 #t hf aug-cc-pvdz symm=none int=(grid=ultrafine) guess=(read,tcheck) s
 table=(opt,rrhf)
 ----------------------------------------------------------------------
 -----
 title
 -----
 Symbolic Z-matrix:
 Charge =  0 Multiplicity = 1

 SCF Done:  E(RHF) =  -380.471737828     A.U. after   12 cycles
 Normal termination of Gaussian 16 at Sun Apr  6 08:17:04 2025.
 Gaussian 16:  ES64L-G16RevC.01  3-Jul-2019

 ----------------------------------------------------------------------
 #t hf aug-cc-pvdz iop(5/13=1,5/36=2,99/5=2) pseudo=read geom=check gue
 ss=(read,tcheck) scf=(maxcycle=1)
 ----------------------------------------------------------------------
 -----
 title
 -----
 Structure from the checkpoint file:  "hydroquinone.chk"
 Charge =  0 Multiplicity = 1

                         Standard orientation:
 ---------------------------------------------------------------------
 Center     Atomic      Atomic             Coordinates (Angstroms)
 Number     Number       Type             X           Y           Z
 ---------------------------------------------------------------------
      1          8           0       -0.055278    2.766941    0.000000
      2          6           0        0.001661    1.395041    0.000000
      3          6           0        1.201394    0.689669    0.000000
      4          6           0        1.201394   -0.699360    0.000000
      5          6           0       -0.001661   -1.395041    0.000000
      6          8           0        0.055278   -2.766941    0.000000
      7          6           0       -1.201394   -0.689669    0.000000
      8          6           0       -1.201394    0.699360    0.000000
      9          1           0        0.835947    3.128399    0.000000
     10          1           0        2.144114    1.223949    0.000000
     11          1           0        2.130783   -1.251030    0.000000
     12          1           0       -0.835947   -3.128399    0.000000
     13          1           0       -2.144114   -1.223949    0.000000
     14          1           0       -2.130783    1.251030    0.000000
 ---------------------------------------------------------------------

 SCF Done:  E(RHF) =  -382.175774731     A.U. after    2 cycles

 The electronic state is 1-AG.
 Alpha  occ. eigenvalues --  -21.09895 -21.09860 -11.52399 -11.46000 -11.43736
 Alpha  occ. eigenvalues --  -11.42932 -11.40431 -11.37042  -1.75858  -1.74252
 Alpha  occ. eigenvalues --   -1.30174  -1.10441  -1.05047  -0.89459  -0.84081
 Alpha  occ. eigenvalues --   -0.70577  -0.68834  -0.63849  -0.58812  -0.56574
 Alpha  occ. eigenvalues --   -0.55679  -0.55438  -0.48458  -0.46498  -0.43489
 Alpha  occ. eigenvalues --   -0.41154  -0.36475  -0.34084  -0.23653
 Alpha virt. eigenvalues --    0.03282   0.04971   0.05536   0.06124   0.06522
 Alpha virt. eigenvalues --    0.07420   0.10434   0.10590   0.12382   0.13378
 Alpha virt. eigenvalues --    0.13619   0.13790   0.13800   0.13996   0.14548

 Mulliken charges:
               1
     1  O   -4.447274
     2  C    5.020593
     3  C   -3.146634
     4  C   -1.795719
     5  C    5.020593
     6  O   -4.447274
     7  C   -3.146634
     8  C   -1.795719
     9  H    1.022144
    10  H    1.653207
    11  H    1.693683
    12  H    1.022144
    13  H    1.653207
    14  H    1.693683
 Sum of Mulliken charges =  -0.00000

 Dipole moment (field-independent basis, Debye):
    X=             -0.0000    Y=              0.0000    Z=              0.0000  Tot=              0.0000

 Test job not archived.
 1\1\GINC-SE028\SP\RHF\Aug-CC-pVDZ\C6H6O2\OHZDE\06-Apr-2025\0\\#t hf au
 g-cc-pvdz iop(5/13=1,5/36=2,99/5=2) pseudo=read geom=check guess=(read
 ,tcheck) scf=(maxcycle=1)\\title\\0,1\O,0,-0.055278,2.766941,0.\C,0,0.
 001661,1.395041,0.\C,0,1.201394,0.689669,0.\C,0,1.201394,-0.69936,0.\C
 ,0,-0.001661,-1.395041,0.\O,0,0.055278,-2.766941,0.\C,0,-1.201394,-0.6
 89669,0.\C,0,-1.201394,0.69936,0.\H,0,0.835947,3.128399,0.\H,0,2.14411
 4,1.223949,0.\H,0,2.130783,-1.25103,0.\H,0,-0.835947,-3.128399,0.\H,0,
 -2.144114,-1.223949,0.\H,0,-2.130783,1.25103,0.\\Version=ES64L-G16RevC

 Normal termination of Gaussian 16 at Sun Apr  6 08:17:18 2025.
