 Gaussian 16, Revision C.01,

 ----------------------------------------------------------------------
 #t hf aug-cc-pvdz symm=none int=(grid=ultrafine) guess=(read,tcheck) s
 table=(opt,rrhf)
 ----------------------------------------------------------------------
 -----
 title
 -----
 Symbolic Z-matrix:
 Charge =  0 Multiplicity = 1

 SCF Done:  E(RHF) =  -336.398337666     A.U. after   16 cycles
 Normal termination of Gaussian 16 at Sun Apr  6 08:16:44 2025.
 Gaussian 16:  ES64L-G16RevC.01  3-Jul-2019

 ----------------------------------------------------------------------
 #t hf aug-cc-pvdz iop(5/13=1,5/36=2,99/5=2) pseudo=read geom=check gue
 ss=(read,tcheck) scf=(maxcycle=1)
 ----------------------------------------------------------------------
 -----
 title
 -----
 Structure from the checkpoint file:  "hydroxymethylenemalononitrile.chk"
 Charge =  0 Multiplicity = 1

                         Standard orientation:
 ---------------------------------------------------------------------
 Center     Atomic      Atomic             Coordinates (Angstroms)
 Number     Number       Type             X           Y           Z
 ---------------------------------------------------------------------
      1          8           0        1.964875   -1.028829    0.000000
      2          7           0       -2.725203   -0.414146    0.000000
      3          7           0        0.766731    2.336947   -0.000002
      4          6           0       -0.171149   -0.063923    0.000000
      5          6           0        0.638308   -1.147035    0.000000
      6          6           0       -1.584579   -0.252310    0.000000
      7          6           0        0.348128    1.264198   -0.000001
      8          1           0        2.392732   -1.891508    0.000000
      9          1           0        0.213330   -2.143050    0.000002
 ---------------------------------------------------------------------

 SCF Done:  E(RHF) =  -337.848727063     A.U. after    2 cycles

 The electronic state is 1-A.
 Alpha  occ. eigenvalues --  -21.18393 -15.78067 -15.77889 -11.56038 -11.50708
 Alpha  occ. eigenvalues --  -11.46191 -11.44828  -1.83981  -1.37114  -1.30738
 Alpha  occ. eigenvalues --   -1.20568  -0.95880  -0.84022  -0.73467  -0.68553
 Alpha  occ. eigenvalues --   -0.60307  -0.55245  -0.53595  -0.50722  -0.50187
 Alpha  occ. eigenvalues --   -0.47103  -0.46747  -0.45362  -0.32961
 Alpha virt. eigenvalues --    0.01257   0.04282   0.06560   0.07058   0.09292
 Alpha virt. eigenvalues --    0.10295   0.10356   0.10620   0.12683   0.12726
 Alpha virt. eigenvalues --    0.13549   0.13610   0.14827   0.15610   0.15903

 Mulliken charges:
               1
     1  O   -3.368438
     2  N   -2.413763
     3  N   -2.192662
     4  C    1.706477
     5  C    0.862307
     6  C    1.487864
     7  C    1.128185
     8  H    1.009006
     9  H    1.781025
 Sum of Mulliken charges =   0.00000

 Dipole moment (field-independent basis, Debye):
    X=              4.0622    Y=             -4.8756    Z=              0.0000  Tot=              6.3461

 Test job not archived.
 1\1\GINC-SE049\SP\RHF\Aug-CC-pVDZ\C4H2N2O1\OHZDE\06-Apr-2025\0\\#t hf
 aug-cc-pvdz iop(5/13=1,5/36=2,99/5=2) pseudo=read geom=check guess=(re
 ad,tcheck) scf=(maxcycle=1)\\title\\0,1\O,0,1.964875,-1.028829,0.\N,0,
 -2.725203,-0.414146,0.\N,0,0.766731,2.336947,-0.000002\C,0,-0.171149,-
 0.063923,0.\C,0,0.638308,-1.147035,0.\C,0,-1.584579,-0.25231,0.\C,0,0.
 348128,1.264198,-0.000001\H,0,2.392732,-1.891508,0.\H,0,0.21333,-2.143
 05,0.000002\\Version=ES64L-G16RevC.01\State=1-A\HF=-337.8487271\RMSD=8
 .770e-01\Dipole=1.5982021,-1.9182022,0.0000013\Quadrupole=-2.6211366,1

 Normal termination of Gaussian 16 at Sun Apr  6 08:16:49 2025.
