 Gaussian 16, Revision C.01,

 ----------------------------------------------------------------------
 #t hf aug-cc-pvdz symm=none int=(grid=ultrafine) guess=(read,tcheck) s
 table=(opt,rrhf)
 ----------------------------------------------------------------------
 -----
 title
 -----
 Symbolic Z-matrix:
 Charge =  0 Multiplicity = 1

 SCF Done:  E(RHF) =  -151.690666760     A.U. after   13 cycles
 Normal termination of Gaussian 16 at Sun Apr  6 08:16:39 2025.
 Gaussian 16:  ES64L-G16RevC.01  3-Jul-2019

 ----------------------------------------------------------------------
 #t hf aug-cc-pvdz iop(5/13=1,5/36=2,99/5=2) pseudo=read geom=check gue
 ss=(read,tcheck) scf=(maxcycle=1)
 ----------------------------------------------------------------------
 -----
 title
 -----
 Structure from the checkpoint file:  "hydroxyacetylene.chk"
 Charge =  0 Multiplicity = 1

                         Standard orientation:
 ---------------------------------------------------------------------
 Center     Atomic      Atomic             Coordinates (Angstroms)
 Number     Number       Type             X           Y           Z
 ---------------------------------------------------------------------
      1          8           0        1.180945   -0.108391   -0.000024
      2          6           0       -0.123542   -0.002551    0.000003
      3          6           0       -1.320286    0.013531    0.000025
      4          1           0        1.594854    0.763873   -0.000012
      5          1           0       -2.379443    0.037377    0.000043
 ---------------------------------------------------------------------

 SCF Done:  E(RHF) =  -152.346930173     A.U. after    2 cycles

 The electronic state is 1-A.
 Alpha  occ. eigenvalues --  -21.15536 -11.45111 -11.39189  -1.79120  -1.07166
 Alpha  occ. eigenvalues --   -0.77109  -0.67475  -0.56265  -0.52242  -0.36348
 Alpha  occ. eigenvalues --   -0.31162
 Alpha virt. eigenvalues --    0.02763   0.05209   0.10449   0.12300   0.12817
 Alpha virt. eigenvalues --    0.13083   0.13575   0.14009   0.16013   0.20306
 Alpha virt. eigenvalues --    0.22828   0.23818   0.25904   0.26638   0.30843

 Mulliken charges:
               1
     1  O   -2.870334
     2  C    2.083749
     3  C   -0.860972
     4  H    0.940068
     5  H    0.707488
 Sum of Mulliken charges =  -0.00000

 Dipole moment (field-independent basis, Debye):
    X=              0.7254    Y=              0.8562    Z=              0.0000  Tot=              1.1222

 Test job not archived.
 1\1\GINC-SE041\SP\RHF\Aug-CC-pVDZ\C2H2O1\OHZDE\06-Apr-2025\0\\#t hf au
 g-cc-pvdz iop(5/13=1,5/36=2,99/5=2) pseudo=read geom=check guess=(read
 ,tcheck) scf=(maxcycle=1)\\title\\0,1\O,0,1.180945,-0.108391,-0.000024
 \C,0,-0.123542,-0.002551,0.000003\C,0,-1.320286,0.013531,0.000025\H,0,
 1.594854,0.763873,-0.000012\H,0,-2.379443,0.037377,0.000043\\Version=E
 S64L-G16RevC.01\State=1-A\HF=-152.3469302\RMSD=6.635e-01\Dipole=0.2854
 006,0.3368644,0.0000009\Quadrupole=3.0076985,-0.7959191,-2.2117794,1.5
 687074,-0.0000552,0.0000027\PG=C01 [X(C2H2O1)]\\@

 Normal termination of Gaussian 16 at Sun Apr  6 08:16:40 2025.
