 Gaussian 16, Revision C.01,

 ----------------------------------------------------------------------
 #t hf aug-cc-pvdz symm=none int=(grid=ultrafine) guess=(read,tcheck) s
 table=(opt,rrhf)
 ----------------------------------------------------------------------
 -----
 title
 -----
 Symbolic Z-matrix:
 Charge =  0 Multiplicity = 1

 SCF Done:  E(RHF) =  -168.945035407     A.U. after   13 cycles
 Normal termination of Gaussian 16 at Sun Apr  6 08:15:56 2025.
 Gaussian 16:  ES64L-G16RevC.01  3-Jul-2019

 ----------------------------------------------------------------------
 #t hf aug-cc-pvdz iop(5/13=1,5/36=2,99/5=2) pseudo=read geom=check gue
 ss=(read,tcheck) scf=(maxcycle=1)
 ----------------------------------------------------------------------
 -----
 title
 -----
 Structure from the checkpoint file:  "hydroxymethylimine.chk"
 Charge =  0 Multiplicity = 1

                         Standard orientation:
 ---------------------------------------------------------------------
 Center     Atomic      Atomic             Coordinates (Angstroms)
 Number     Number       Type             X           Y           Z
 ---------------------------------------------------------------------
      1          6           0        0.000000    0.416584    0.000000
      2          8           0       -1.110472   -0.343382    0.000000
      3          7           0        1.156625   -0.083800    0.000000
      4          1           0       -0.263473    1.473242    0.000000
      5          1           0       -0.825628   -1.270023    0.000000
      6          1           0        1.876503    0.630934    0.000000
 ---------------------------------------------------------------------

 SCF Done:  E(RHF) =  -169.679467258     A.U. after    2 cycles

 The electronic state is 1-A'.
 Alpha  occ. eigenvalues --  -21.11559 -15.73643 -11.46614  -1.77677  -1.30704
 Alpha  occ. eigenvalues --   -0.86728  -0.71147  -0.60681  -0.52863  -0.47051
 Alpha  occ. eigenvalues --   -0.40586  -0.33209
 Alpha virt. eigenvalues --    0.03831   0.05861   0.05918   0.10871   0.12231
 Alpha virt. eigenvalues --    0.12608   0.15328   0.15862   0.18536   0.20373
 Alpha virt. eigenvalues --    0.22067   0.22092   0.24994   0.26632   0.28571

 Mulliken charges:
               1
     1  C    2.038941
     2  O   -2.668577
     3  N   -2.563642
     4  H    1.601237
     5  H    0.829589
     6  H    0.762452
 Sum of Mulliken charges =   0.00000

 Dipole moment (field-independent basis, Debye):
    X=             -0.7551    Y=              1.0674    Z=              0.0000  Tot=              1.3075

 Test job not archived.
 1\1\GINC-SE101\SP\RHF\Aug-CC-pVDZ\C1H3N1O1\OHZDE\06-Apr-2025\0\\#t hf
 aug-cc-pvdz iop(5/13=1,5/36=2,99/5=2) pseudo=read geom=check guess=(re
 ad,tcheck) scf=(maxcycle=1)\\title\\0,1\C,0,0.,0.416584,0.\O,0,-1.1104
 72,-0.343382,0.\N,0,1.156625,-0.0838,0.\H,0,-0.263473,1.473242,0.\H,0,
 -0.825628,-1.270023,0.\H,0,1.876503,0.630934,0.\\Version=ES64L-G16RevC
 .01\State=1-A'\HF=-169.6794673\RMSD=5.420e-02\Dipole=-0.2970946,0.4199
 56,0.\Quadrupole=-1.0176451,2.1375604,-1.1199153,2.1259583,0.,0.\PG=CS
  [SG(C1H3N1O1)]\\@

 Normal termination of Gaussian 16 at Sun Apr  6 08:16:33 2025.
