 Gaussian 16, Revision C.01,

 ----------------------------------------------------------------------
 #t hf aug-cc-pvdz symm=none int=(grid=ultrafine) guess=(read,tcheck) s
 table=(opt,rrhf)
 ----------------------------------------------------------------------
 -----
 title
 -----
 Symbolic Z-matrix:
 Charge =  0 Multiplicity = 1

 SCF Done:  E(RHF) =  -92.8880547786     A.U. after   10 cycles
 Normal termination of Gaussian 16 at Sun Apr  6 08:15:55 2025.
 Gaussian 16:  ES64L-G16RevC.01  3-Jul-2019

 ----------------------------------------------------------------------
 #t hf aug-cc-pvdz iop(5/13=1,5/36=2,99/5=2) pseudo=read geom=check gue
 ss=(read,tcheck) scf=(maxcycle=1)
 ----------------------------------------------------------------------
 -----
 title
 -----
 Structure from the checkpoint file:  "hydrogen_cyanide.chk"
 Charge =  0 Multiplicity = 1

                         Standard orientation:
 ---------------------------------------------------------------------
 Center     Atomic      Atomic             Coordinates (Angstroms)
 Number     Number       Type             X           Y           Z
 ---------------------------------------------------------------------
      1          6           0        0.000000    0.000000   -0.496902
      2          7           0        0.000000    0.000000    0.649125
      3          1           0        0.000000    0.000000   -1.562463
 ---------------------------------------------------------------------

 SCF Done:  E(RHF) =  -93.3010322886     A.U. after    2 cycles

 The electronic state is 1-SG.
 Alpha  occ. eigenvalues --  -15.78628 -11.44607  -1.31715  -0.83172  -0.54862
 Alpha  occ. eigenvalues --   -0.47145  -0.47145
 Alpha virt. eigenvalues --    0.02887   0.09134   0.09925   0.09925   0.14667
 Alpha virt. eigenvalues --    0.17029   0.17029   0.18446   0.26716   0.26716
 Alpha virt. eigenvalues --    0.27850   0.33280   0.41624   0.41624   0.41857

 Mulliken charges:
               1
     1  C    0.709728
     2  N   -2.244050
     3  H    1.534322
 Sum of Mulliken charges =  -0.00000

 Dipole moment (field-independent basis, Debye):
    X=              0.0000    Y=             -0.0000    Z=             -2.7402  Tot=              2.7402

 Test job not archived.
 1\1\GINC-SE013\SP\RHF\Aug-CC-pVDZ\C1H1N1\OHZDE\06-Apr-2025\0\\#t hf au
 g-cc-pvdz iop(5/13=1,5/36=2,99/5=2) pseudo=read geom=check guess=(read
 ,tcheck) scf=(maxcycle=1)\\title\\0,1\C,0,0.,0.,-0.496902\N,0,0.,0.,0.
 649125\H,0,0.,0.,-1.562463\\Version=ES64L-G16RevC.01\State=1-SG\HF=-93
 .3010323\RMSD=7.029e-02\Dipole=0.,0.,-1.0780914\Quadrupole=-0.6301757,
 -0.6301757,1.2603515,0.,0.,0.\PG=C*V [C*(H1C1N1)]\\@

 Normal termination of Gaussian 16 at Sun Apr  6 08:16:32 2025.
