 Gaussian 16, Revision C.01,

 ----------------------------------------------------------------------
 #t hf aug-cc-pvdz symm=none int=(grid=ultrafine) guess=(read,tcheck) s
 table=(opt,rrhf)
 ----------------------------------------------------------------------
 -----
 title
 -----
 Symbolic Z-matrix:
 Charge =  0 Multiplicity = 1

 SCF Done:  E(RHF) =  -809.920288559     A.U. after   15 cycles
 Normal termination of Gaussian 16 at Sun Apr  6 08:17:42 2025.
 Gaussian 16:  ES64L-G16RevC.01  3-Jul-2019

 ----------------------------------------------------------------------
 #t hf aug-cc-pvdz iop(5/13=1,5/36=2,99/5=2) pseudo=read geom=check gue
 ss=(read,tcheck) scf=(maxcycle=1)
 ----------------------------------------------------------------------
 -----
 title
 -----
 Structure from the checkpoint file:  "imidazol-1-yloxymethanethioic_O-acid.chk"
 Charge =  0 Multiplicity = 1

                         Standard orientation:
 ---------------------------------------------------------------------
 Center     Atomic      Atomic             Coordinates (Angstroms)
 Number     Number       Type             X           Y           Z
 ---------------------------------------------------------------------
      1         16           0        2.996748    0.021824   -0.268596
      2          8           0        0.456110    0.082338   -0.793882
      3          8           0        0.927761   -0.148682    1.382040
      4          7           0       -0.867057    0.036647   -0.354945
      5          7           0       -2.862943    0.732728    0.190086
      6          6           0        1.424260   -0.020504    0.159117
      7          6           0       -1.640834    1.120155   -0.072639
      8          6           0       -1.634472   -1.100967   -0.292195
      9          6           0       -2.871350   -0.637105    0.057407
     10          1           0        1.677808   -0.212492    1.990373
     11          1           0       -1.254127    2.124562   -0.078045
     12          1           0       -1.230660   -2.075076   -0.495225
     13          1           0       -3.767578   -1.210522    0.219041
 ---------------------------------------------------------------------

 SCF Done:  E(RHF) =  -811.939834897     A.U. after    2 cycles

 The electronic state is 1-A.
 Alpha  occ. eigenvalues --  -75.68035 -21.18236 -21.18043 -15.84368 -15.73644
 Alpha  occ. eigenvalues --  -13.17404 -13.02095 -12.99437 -11.57366 -11.46672
 Alpha  occ. eigenvalues --  -11.45147 -11.39901  -8.02322  -1.96337  -1.80455
 Alpha  occ. eigenvalues --   -1.54757  -1.26145  -1.15562  -1.10571  -0.89625
 Alpha  occ. eigenvalues --   -0.84703  -0.81950  -0.76765  -0.68485  -0.63929
 Alpha  occ. eigenvalues --   -0.62527  -0.60263  -0.59674  -0.55666  -0.51393
 Alpha  occ. eigenvalues --   -0.46633  -0.43868  -0.38691  -0.37363  -0.32888
 Alpha  occ. eigenvalues --   -0.28131  -0.25480
 Alpha virt. eigenvalues --    0.02687   0.04803   0.05320   0.05791   0.06447
 Alpha virt. eigenvalues --    0.08508   0.09486   0.09822   0.11016   0.11337
 Alpha virt. eigenvalues --    0.11968   0.12830   0.13749   0.14074   0.15194

 Mulliken charges:
               1
     1  S    1.505473
     2  O   -3.146940
     3  O   -2.925053
     4  N   -0.156311
     5  N   -3.410663
     6  C    1.159601
     7  C    1.323570
     8  C   -0.239663
     9  C    0.413729
    10  H    1.216749
    11  H    1.739161
    12  H    1.235389
    13  H    1.284958
 Sum of Mulliken charges =  -0.00000

 Dipole moment (field-independent basis, Debye):
    X=              2.3706    Y=             -1.0034    Z=              0.2878  Tot=              2.5902

 Test job not archived.
 1\1\GINC-SE150\SP\RHF\Aug-CC-pVDZ\C4H4N2O2S1\OHZDE\06-Apr-2025\0\\#t h
 f aug-cc-pvdz iop(5/13=1,5/36=2,99/5=2) pseudo=read geom=check guess=(
 read,tcheck) scf=(maxcycle=1)\\title\\0,1\S,0,2.996748,0.021824,-0.268
 596\O,0,0.45611,0.082338,-0.793882\O,0,0.927761,-0.148682,1.38204\N,0,
 -0.867057,0.036647,-0.354945\N,0,-2.862943,0.732728,0.190086\C,0,1.424
 26,-0.020504,0.159117\C,0,-1.640834,1.120155,-0.072639\C,0,-1.634472,-
 1.100967,-0.292195\C,0,-2.87135,-0.637105,0.057407\H,0,1.677808,-0.212
 492,1.990373\H,0,-1.254127,2.124562,-0.078045\H,0,-1.23066,-2.075076,-

 Normal termination of Gaussian 16 at Sun Apr  6 08:19:06 2025.
