 Gaussian 16, Revision C.01,

 ----------------------------------------------------------------------
 #t hf aug-cc-pvdz symm=none int=(grid=ultrafine) guess=(read,tcheck) s
 table=(opt,rrhf)
 ----------------------------------------------------------------------
 -----
 title
 -----
 Symbolic Z-matrix:
 Charge =  0 Multiplicity = 1

 SCF Done:  E(RHF) =  -315.364938623     A.U. after   15 cycles
 Normal termination of Gaussian 16 at Sun Apr  6 08:16:04 2025.
 Gaussian 16:  ES64L-G16RevC.01  3-Jul-2019

 ----------------------------------------------------------------------
 #t hf aug-cc-pvdz iop(5/13=1,5/36=2,99/5=2) pseudo=read geom=check gue
 ss=(read,tcheck) scf=(maxcycle=1)
 ----------------------------------------------------------------------
 -----
 title
 -----
 Structure from the checkpoint file:  "iminomethylenemalononitrile.chk"
 Charge =  0 Multiplicity = 1

                         Standard orientation:
 ---------------------------------------------------------------------
 Center     Atomic      Atomic             Coordinates (Angstroms)
 Number     Number       Type             X           Y           Z
 ---------------------------------------------------------------------
      1          7           0       -2.466280   -0.000128   -0.115548
      2          7           0        1.326281   -2.243606    0.007368
      3          7           0        1.326031    2.243750    0.007368
      4          6           0        0.059128    0.000000   -0.004517
      5          6           0       -1.277855   -0.000069    0.009938
      6          6           0        0.760956   -1.239786    0.001005
      7          6           0        0.760823    1.239863    0.001005
      8          1           0       -3.120536   -0.000162    0.661103
 ---------------------------------------------------------------------

 SCF Done:  E(RHF) =  -316.740790304     A.U. after    2 cycles

 The electronic state is 1-A.
 Alpha  occ. eigenvalues --  -15.86632 -15.78842 -15.78816 -11.58193 -11.52980
 Alpha  occ. eigenvalues --  -11.47156 -11.46350  -1.46603  -1.36441  -1.31631
 Alpha  occ. eigenvalues --   -1.20391  -0.90196  -0.83244  -0.77658  -0.63293
 Alpha  occ. eigenvalues --   -0.56891  -0.56023  -0.54025  -0.52062  -0.48127
 Alpha  occ. eigenvalues --   -0.47890  -0.46365  -0.35242
 Alpha virt. eigenvalues --    0.01555   0.05181   0.08113   0.08692   0.09210
 Alpha virt. eigenvalues --    0.09724   0.10193   0.10944   0.11548   0.11810
 Alpha virt. eigenvalues --    0.12097   0.12281   0.14621   0.15213   0.16198

 Mulliken charges:
               1
     1  N   -3.053839
     2  N   -2.247091
     3  N   -2.247092
     4  C    1.952124
     5  C    2.455896
     6  C    1.157195
     7  C    1.157174
     8  H    0.825633
 Sum of Mulliken charges =  -0.00000

 Dipole moment (field-independent basis, Debye):
    X=             -5.1199    Y=             -0.0003    Z=              1.1741  Tot=              5.2528

 Test job not archived.
 1\1\GINC-SE155\SP\RHF\Aug-CC-pVDZ\C4H1N3\OHZDE\06-Apr-2025\0\\#t hf au
 g-cc-pvdz iop(5/13=1,5/36=2,99/5=2) pseudo=read geom=check guess=(read
 ,tcheck) scf=(maxcycle=1)\\title\\0,1\N,0,-2.46628,-0.000132,-0.115548
 \N,0,1.326285,-2.243604,0.007368\N,0,1.326027,2.243752,0.007368\C,0,0.
 059128,0.,-0.004517\C,0,-1.277855,-0.000071,0.009938\C,0,0.760958,-1.2
 39785,0.001005\C,0,0.760821,1.239864,0.001005\H,0,-3.120536,-0.000167,
 0.661103\\Version=ES64L-G16RevC.01\State=1-A\HF=-316.7407903\RMSD=6.32
 2e-01\Dipole=-2.0143228,-0.0001126,0.4619204\Quadrupole=5.4707445,-7.3

 Normal termination of Gaussian 16 at Sun Apr  6 08:16:33 2025.
