 Gaussian 16, Revision C.01,

 ----------------------------------------------------------------------
 #t hf aug-cc-pvdz symm=none int=(grid=ultrafine) guess=(read,tcheck) s
 table=(opt,rrhf)
 ----------------------------------------------------------------------
 -----
 title
 -----
 Symbolic Z-matrix:
 Charge =  0 Multiplicity = 1

 SCF Done:  E(RHF) =  -346.682765246     A.U. after   14 cycles
 Normal termination of Gaussian 16 at Sun Apr  6 08:17:54 2025.
 Gaussian 16:  ES64L-G16RevC.01  3-Jul-2019

 ----------------------------------------------------------------------
 #t hf aug-cc-pvdz iop(5/13=1,5/36=2,99/5=2) pseudo=read geom=check gue
 ss=(read,tcheck) scf=(maxcycle=1)
 ----------------------------------------------------------------------
 -----
 title
 -----
 Structure from the checkpoint file:  "indane.chk"
 Charge =  0 Multiplicity = 1

                         Standard orientation:
 ---------------------------------------------------------------------
 Center     Atomic      Atomic             Coordinates (Angstroms)
 Number     Number       Type             X           Y           Z
 ---------------------------------------------------------------------
      1          6           0       -0.045568   -2.249090    0.696137
      2          6           0       -0.045568   -2.249090   -0.696137
      3          6           0        0.004095   -1.048325    1.400520
      4          6           0        0.004095   -1.048325   -1.400520
      5          6           0        0.049674    0.148504    0.698241
      6          6           0        0.049674    0.148504   -0.698241
      7          6           0        0.125739    1.561338    1.227438
      8          6           0        0.125739    1.561338   -1.227438
      9          6           0       -0.258685    2.418849    0.000000
     10          1           0       -0.089794   -3.187131    1.233424
     11          1           0       -0.089794   -3.187131   -1.233424
     12          1           0        0.001095   -1.053757    2.483428
     13          1           0        0.001095   -1.053757   -2.483428
     14          1           0       -0.526446    1.733848    2.084324
     15          1           0        1.145985    1.785770    1.556006
     16          1           0        1.145985    1.785770   -1.556006
     17          1           0       -0.526446    1.733848   -2.084324
     18          1           0       -1.337645    2.583506    0.000000
     19          1           0        0.220799    3.396809    0.000000
 ---------------------------------------------------------------------

 SCF Done:  E(RHF) =  -348.389206779     A.U. after    2 cycles

 The electronic state is 1-A'.
 Alpha  occ. eigenvalues --  -11.50850 -11.44623 -11.43939 -11.42242 -11.40972
 Alpha  occ. eigenvalues --  -11.40413 -11.39450 -11.36665 -11.34901  -1.38888
 Alpha  occ. eigenvalues --   -1.21775  -1.10619  -1.03587  -1.00162  -0.87006
 Alpha  occ. eigenvalues --   -0.82606  -0.80960  -0.68782  -0.64691  -0.62659
 Alpha  occ. eigenvalues --   -0.61914  -0.55906  -0.55855  -0.52838  -0.50763
 Alpha  occ. eigenvalues --   -0.45983  -0.45940  -0.44888  -0.41730  -0.41110
 Alpha  occ. eigenvalues --   -0.31865  -0.30430
 Alpha virt. eigenvalues --    0.03735   0.04854   0.04896   0.05683   0.05880
 Alpha virt. eigenvalues --    0.06167   0.06610   0.06704   0.07162   0.07648
 Alpha virt. eigenvalues --    0.10856   0.12089   0.12160   0.13110   0.13200

 Mulliken charges:
               1
     1  C   -2.477470
     2  C   -2.477470
     3  C   -0.848456
     4  C   -0.848456
     5  C    3.682115
     6  C    3.682115
     7  C   -4.867383
     8  C   -4.867383
     9  C   -3.995815
    10  H    1.530673
    11  H    1.530673
    12  H    1.832187
    13  H    1.832187
    14  H    0.885034
    15  H    0.937164
    16  H    0.937164
    17  H    0.885034
    18  H    1.327969
    19  H    1.320117
 Sum of Mulliken charges =  -0.00000

 Dipole moment (field-independent basis, Debye):
    X=              0.0541    Y=              0.5703    Z=              0.0000  Tot=              0.5729

 Test job not archived.
 1\1\GINC-SE200\SP\RHF\Aug-CC-pVDZ\C9H10\OHZDE\06-Apr-2025\0\\#t hf aug
 -cc-pvdz iop(5/13=1,5/36=2,99/5=2) pseudo=read geom=check guess=(read,
 tcheck) scf=(maxcycle=1)\\title\\0,1\C,0,-0.045568,-2.24909,0.696137\C
 ,0,-0.045568,-2.24909,-0.696137\C,0,0.004095,-1.048325,1.40052\C,0,0.0
 04095,-1.048325,-1.40052\C,0,0.049674,0.148504,0.698241\C,0,0.049674,0
 .148504,-0.698241\C,0,0.125739,1.561338,1.227438\C,0,0.125739,1.561338
 ,-1.227438\C,0,-0.258685,2.418849,0.\H,0,-0.089794,-3.187131,1.233424\
 H,0,-0.089794,-3.187131,-1.233424\H,0,0.001095,-1.053757,2.483428\H,0,

 Normal termination of Gaussian 16 at Sun Apr  6 08:19:07 2025.
