 Gaussian 16, Revision C.01,

 ----------------------------------------------------------------------
 #t hf aug-cc-pvdz symm=none int=(grid=ultrafine) guess=(read,tcheck) s
 table=(opt,rrhf)
 ----------------------------------------------------------------------
 -----
 title
 -----
 Symbolic Z-matrix:
 Charge =  0 Multiplicity = 1

 SCF Done:  E(RHF) =  -683.479844843     A.U. after   11 cycles

 1\1\GINC-SE209\Stability\RHF\Aug-CC-pVDZ\C6H12O6\OHZDE\06-Apr-2025\0\\
 #t hf aug-cc-pvdz symm=none int=(grid=ultrafine) guess=(read,tcheck) s
 table=(opt,rrhf)\\title\\0,1\C,0,-1.325775,0.584643,0.23799\C,0,0.1551
 42,-1.44186,0.227032\C,0,1.169971,0.852886,0.241238\C,0,-0.155142,1.44
 186,-0.227032\C,0,-1.169971,-0.852886,-0.241238\C,0,1.325775,-0.584643
 ,-0.23799\O,0,-2.565352,1.060854,-0.274243\O,0,0.365045,-2.749548,-0.2
 93829\O,0,2.199913,1.693855,-0.266419\O,0,-0.365045,2.749548,0.293829\
 O,0,-2.199913,-1.693855,0.266419\O,0,2.565352,-1.060854,0.274243\H,0,-

 Normal termination of Gaussian 16 at Sun Apr  6 08:20:05 2025.
 Gaussian 16:  ES64L-G16RevC.01  3-Jul-2019

 ----------------------------------------------------------------------
 #t hf aug-cc-pvdz iop(5/13=1,5/36=2,99/5=2) pseudo=read geom=check gue
 ss=(read,tcheck) scf=(maxcycle=1)
 ----------------------------------------------------------------------
 -----
 title
 -----
 Structure from the checkpoint file:  "inositol.chk"
 Charge =  0 Multiplicity = 1

                         Standard orientation:
 ---------------------------------------------------------------------
 Center     Atomic      Atomic             Coordinates (Angstroms)
 Number     Number       Type             X           Y           Z
 ---------------------------------------------------------------------
      1          6           0       -1.325775    0.584643    0.237990
      2          6           0        0.155142   -1.441860    0.227032
      3          6           0        1.169971    0.852886    0.241238
      4          6           0       -0.155142    1.441860   -0.227032
      5          6           0       -1.169971   -0.852886   -0.241238
      6          6           0        1.325775   -0.584643   -0.237990
      7          8           0       -2.565352    1.060854   -0.274243
      8          8           0        0.365045   -2.749548   -0.293829
      9          8           0        2.199913    1.693855   -0.266419
     10          8           0       -0.365045    2.749548    0.293829
     11          8           0       -2.199913   -1.693855    0.266419
     12          8           0        2.565352   -1.060854    0.274243
     13          1           0       -1.353744    0.594834    1.334200
     14          1           0        0.153684   -1.479157    1.323029
     15          1           0        1.196484    0.861338    1.337560
     16          1           0       -0.153684    1.479157   -1.323029
     17          1           0       -1.196484   -0.861338   -1.337560
     18          1           0        1.353744   -0.594834   -1.334200
     19          1           0       -2.646403    1.991559   -0.037548
     20          1           0       -0.403701   -3.285449   -0.068670
     21          1           0        3.047455    1.296990   -0.036282
     22          1           0        0.403701    3.285449    0.068670
     23          1           0       -3.047455   -1.296990    0.036282
     24          1           0        2.646403   -1.991559    0.037548
 ---------------------------------------------------------------------

 SCF Done:  E(RHF) =  -686.437265943     A.U. after    2 cycles

 The electronic state is 1-AG.
 Alpha  occ. eigenvalues --  -21.08036 -21.07974 -21.07949 -21.07945 -21.07938
 Alpha  occ. eigenvalues --  -21.07934 -11.52115 -11.52106 -11.48474 -11.48470
 Alpha  occ. eigenvalues --  -11.48092 -11.39433  -1.80318  -1.74071  -1.74063
 Alpha  occ. eigenvalues --   -1.69551  -1.69547  -1.68486  -1.23215  -1.06614
 Alpha  occ. eigenvalues --   -1.06591  -0.88409  -0.88407  -0.83604  -0.72273
 Alpha  occ. eigenvalues --   -0.70485  -0.70468  -0.64502  -0.60220  -0.58450
 Alpha  occ. eigenvalues --   -0.58436  -0.56339  -0.56314  -0.54679  -0.54659
 Alpha  occ. eigenvalues --   -0.54282  -0.43563  -0.43489  -0.43484  -0.41422
 Alpha  occ. eigenvalues --   -0.40064  -0.40051  -0.34441  -0.34415  -0.32736
 Alpha  occ. eigenvalues --   -0.32721  -0.31913  -0.31899
 Alpha virt. eigenvalues --    0.04294   0.04868   0.05297   0.05302   0.05880
 Alpha virt. eigenvalues --    0.05880   0.06564   0.06567   0.06859   0.07351
 Alpha virt. eigenvalues --    0.08309   0.08312   0.12854   0.14311   0.14314

 Mulliken charges:
               1
     1  C    1.267332
     2  C    1.264676
     3  C    1.259977
     4  C    1.264676
     5  C    1.259977
     6  C    1.267332
     7  O   -3.578032
     8  O   -3.579293
     9  O   -3.577121
    10  O   -3.579293
    11  O   -3.577121
    12  O   -3.578032
    13  H    1.579599
    14  H    1.579082
    15  H    1.579723
    16  H    1.579082
    17  H    1.579723
    18  H    1.579599
    19  H    0.734468
    20  H    0.735082
    21  H    0.734506
    22  H    0.735082
    23  H    0.734506
    24  H    0.734468
 Sum of Mulliken charges =   0.00000

 Dipole moment (field-independent basis, Debye):
    X=             -0.0000    Y=             -0.0000    Z=             -0.0000  Tot=              0.0000

 Test job not archived.
 1\1\GINC-SE209\SP\RHF\Aug-CC-pVDZ\C6H12O6\OHZDE\06-Apr-2025\0\\#t hf a
 ug-cc-pvdz iop(5/13=1,5/36=2,99/5=2) pseudo=read geom=check guess=(rea
 d,tcheck) scf=(maxcycle=1)\\title\\0,1\C,0,-1.325775,0.584643,0.23799\
 C,0,0.155142,-1.44186,0.227032\C,0,1.169971,0.852886,0.241238\C,0,-0.1
 55142,1.44186,-0.227032\C,0,-1.169971,-0.852886,-0.241238\C,0,1.325775
 ,-0.584643,-0.23799\O,0,-2.565352,1.060854,-0.274243\O,0,0.365045,-2.7
 49548,-0.293829\O,0,2.199913,1.693855,-0.266419\O,0,-0.365045,2.749548
 ,0.293829\O,0,-2.199913,-1.693855,0.266419\O,0,2.565352,-1.060854,0.27

 Normal termination of Gaussian 16 at Sun Apr  6 08:20:56 2025.
