 Gaussian 16, Revision C.01,

 ----------------------------------------------------------------------
 #t hf aug-cc-pvdz symm=none int=(grid=ultrafine) guess=(read,tcheck) s
 table=(opt,rrhf)
 ----------------------------------------------------------------------
 -----
 title
 -----
 Symbolic Z-matrix:
 Charge =  0 Multiplicity = 1

 SCF Done:  E(RHF) =  -510.109095178     A.U. after   16 cycles
 Normal termination of Gaussian 16 at Sun Apr  6 08:18:10 2025.
 Gaussian 16:  ES64L-G16RevC.01  3-Jul-2019

 ----------------------------------------------------------------------
 #t hf aug-cc-pvdz iop(5/13=1,5/36=2,99/5=2) pseudo=read geom=check gue
 ss=(read,tcheck) scf=(maxcycle=1)
 ----------------------------------------------------------------------
 -----
 title
 -----
 Structure from the checkpoint file:  "isatin.chk"
 Charge =  0 Multiplicity = 1

                         Standard orientation:
 ---------------------------------------------------------------------
 Center     Atomic      Atomic             Coordinates (Angstroms)
 Number     Number       Type             X           Y           Z
 ---------------------------------------------------------------------
      1          8           0       -1.742007    1.965021   -0.000021
      2          6           0       -1.177229    0.903277   -0.000010
      3          6           0        0.255043    0.578698   -0.000007
      4          6           0        0.379731   -0.819241    0.000009
      5          6           0        1.623314   -1.425094    0.000016
      6          6           0        2.745582   -0.595433    0.000007
      7          6           0        2.634874    0.794760   -0.000010
      8          6           0        1.378592    1.391778   -0.000017
      9          7           0       -0.883171   -1.422253    0.000016
     10          6           0       -1.904802   -0.492965    0.000006
     11          8           0       -3.086643   -0.710872    0.000008
     12          1           0        1.729179   -2.501176    0.000029
     13          1           0        3.728266   -1.047628    0.000012
     14          1           0        3.527112    1.404141   -0.000017
     15          1           0        1.265488    2.467328   -0.000029
     16          1           0       -1.049284   -2.414768    0.000030
 ---------------------------------------------------------------------

 SCF Done:  E(RHF) =  -512.362824817     A.U. after    2 cycles

 The electronic state is 1-A.
 Alpha  occ. eigenvalues --  -21.08346 -21.06757 -15.80336 -11.55571 -11.54072
 Alpha  occ. eigenvalues --  -11.50655 -11.49709 -11.46441 -11.44748 -11.43298
 Alpha  occ. eigenvalues --  -11.40267  -1.75447  -1.70687  -1.50291  -1.32006
 Alpha  occ. eigenvalues --   -1.15896  -1.10673  -1.01800  -0.89959  -0.86662
 Alpha  occ. eigenvalues --   -0.79463  -0.73685  -0.70237  -0.63551  -0.63321
 Alpha  occ. eigenvalues --   -0.63152  -0.59984  -0.54493  -0.52257  -0.51868
 Alpha  occ. eigenvalues --   -0.50420  -0.48330  -0.47622  -0.40915  -0.35674
 Alpha  occ. eigenvalues --   -0.35366  -0.29305  -0.27265
 Alpha virt. eigenvalues --    0.02506   0.04210   0.04510   0.05891   0.06101
 Alpha virt. eigenvalues --    0.06566   0.08491   0.10039   0.10357   0.11074
 Alpha virt. eigenvalues --    0.11410   0.11683   0.12211   0.12314   0.13048

 Mulliken charges:
               1
     1  O   -3.941466
     2  C    2.706598
     3  C    2.123327
     4  C    3.032241
     5  C   -4.116210
     6  C   -1.973816
     7  C   -1.792099
     8  C    0.963119
     9  N   -4.189397
    10  C    3.628149
    11  O   -3.682778
    12  H    1.599344
    13  H    1.484774
    14  H    1.540827
    15  H    1.770218
    16  H    0.847167
 Sum of Mulliken charges =  -0.00000

 Dipole moment (field-independent basis, Debye):
    X=              3.1485    Y=             -1.6790    Z=              0.0000  Tot=              3.5682

 Test job not archived.
 1\1\GINC-SE212\SP\RHF\Aug-CC-pVDZ\C8H5N1O2\OHZDE\06-Apr-2025\0\\#t hf
 aug-cc-pvdz iop(5/13=1,5/36=2,99/5=2) pseudo=read geom=check guess=(re
 ad,tcheck) scf=(maxcycle=1)\\title\\0,1\O,0,-1.742007,1.965021,-0.0000
 21\C,0,-1.177229,0.903277,-0.00001\C,0,0.255043,0.578698,-0.000007\C,0
 ,0.379731,-0.819241,0.000009\C,0,1.623314,-1.425094,0.000016\C,0,2.745
 582,-0.595433,0.000007\C,0,2.634874,0.79476,-0.00001\C,0,1.378592,1.39
 1778,-0.000017\N,0,-0.883171,-1.422253,0.000016\C,0,-1.904802,-0.49296
 5,0.000006\O,0,-3.086643,-0.710872,0.000008\H,0,1.729179,-2.501176,0.0

 Normal termination of Gaussian 16 at Sun Apr  6 08:19:09 2025.
