 Gaussian 16, Revision C.01,

 ----------------------------------------------------------------------
 #t hf aug-cc-pvdz symm=none int=(grid=ultrafine) guess=(read,tcheck) s
 table=(opt,rrhf)
 ----------------------------------------------------------------------
 -----
 title
 -----
 Symbolic Z-matrix:
 Charge =  0 Multiplicity = 1

 SCF Done:  E(RHF) =  -383.994589723     A.U. after   13 cycles

 1\1\GINC-SE106\Stability\RHF\Aug-CC-pVDZ\C6H12O2\OHZDE\06-Apr-2025\0\\
 #t hf aug-cc-pvdz symm=none int=(grid=ultrafine) guess=(read,tcheck) s
 table=(opt,rrhf)\\title\\0,1\C,0,-1.888132,-0.186303,0.038084\C,0,-2.9
 56955,0.82444,-0.283481\C,0,1.958051,1.395183,0.513927\C,0,2.923162,-0
 .824646,-0.220717\C,0,0.456498,-0.579654,0.020652\C,0,1.743964,0.14488
 1,-0.342302\O,0,-2.082486,-1.286641,0.491535\O,0,-0.661558,0.29741,-0.
 245338\H,0,-2.889982,1.121863,-1.329676\H,0,-2.812725,1.721105,0.31952
 3\H,0,-3.933425,0.39682,-0.079568\H,0,2.870252,1.915116,0.218046\H,0,2

 Normal termination of Gaussian 16 at Sun Apr  6 08:17:40 2025.
 Gaussian 16:  ES64L-G16RevC.01  3-Jul-2019

 ----------------------------------------------------------------------
 #t hf aug-cc-pvdz iop(5/13=1,5/36=2,99/5=2) pseudo=read geom=check gue
 ss=(read,tcheck) scf=(maxcycle=1)
 ----------------------------------------------------------------------
 -----
 title
 -----
 Structure from the checkpoint file:  "isobutyl_acetate.chk"
 Charge =  0 Multiplicity = 1

                         Standard orientation:
 ---------------------------------------------------------------------
 Center     Atomic      Atomic             Coordinates (Angstroms)
 Number     Number       Type             X           Y           Z
 ---------------------------------------------------------------------
      1          6           0       -1.888132   -0.186303    0.038084
      2          6           0       -2.956955    0.824440   -0.283481
      3          6           0        1.958051    1.395183    0.513927
      4          6           0        2.923162   -0.824646   -0.220717
      5          6           0        0.456498   -0.579654    0.020652
      6          6           0        1.743964    0.144881   -0.342302
      7          8           0       -2.082486   -1.286641    0.491535
      8          8           0       -0.661558    0.297410   -0.245338
      9          1           0       -2.889982    1.121863   -1.329676
     10          1           0       -2.812725    1.721105    0.319523
     11          1           0       -3.933425    0.396820   -0.079568
     12          1           0        2.870252    1.915116    0.218046
     13          1           0        2.055108    1.129449    1.569732
     14          1           0        1.126417    2.091889    0.417111
     15          1           0        3.854481   -0.335170   -0.506854
     16          1           0        2.793952   -1.698388   -0.861379
     17          1           0        3.038067   -1.176866    0.807098
     18          1           0        0.330891   -1.489124   -0.567547
     19          1           0        0.440158   -0.859686    1.075856
     20          1           0        1.659630    0.453440   -1.388885
 ---------------------------------------------------------------------

 SCF Done:  E(RHF) =  -385.785599977     A.U. after    2 cycles

 The electronic state is 1-A.
 Alpha  occ. eigenvalues --  -21.08207 -21.04322 -11.51845 -11.45205 -11.40926
 Alpha  occ. eigenvalues --  -11.39167 -11.38532 -11.35485  -1.83775  -1.65608
 Alpha  occ. eigenvalues --   -1.24755  -1.11029  -1.00541  -0.98571  -0.82334
 Alpha  occ. eigenvalues --   -0.75891  -0.67113  -0.64932  -0.61918  -0.60763
 Alpha  occ. eigenvalues --   -0.58309  -0.57324  -0.54966  -0.53650  -0.51809
 Alpha  occ. eigenvalues --   -0.47706  -0.46266  -0.44504  -0.43517  -0.40652
 Alpha  occ. eigenvalues --   -0.31882  -0.29048
 Alpha virt. eigenvalues --    0.03671   0.04833   0.04939   0.05447   0.05773
 Alpha virt. eigenvalues --    0.05906   0.06230   0.06860   0.07220   0.07793
 Alpha virt. eigenvalues --    0.08546   0.08913   0.11135   0.12699   0.13330

 Mulliken charges:
               1
     1  C    5.514135
     2  C   -4.812676
     3  C   -3.822670
     4  C   -3.802120
     5  C   -1.016012
     6  C   -2.542503
     7  O   -3.068721
     8  O   -3.370748
     9  H    1.333258
    10  H    1.306301
    11  H    1.246848
    12  H    1.231980
    13  H    1.330780
    14  H    1.427713
    15  H    1.234270
    16  H    1.264833
    17  H    1.333691
    18  H    1.671013
    19  H    1.716763
    20  H    1.823865
 Sum of Mulliken charges =  -0.00000

 Dipole moment (field-independent basis, Debye):
    X=              0.9657    Y=              1.1840    Z=             -0.6645  Tot=              1.6661

 Test job not archived.
 1\1\GINC-SE106\SP\RHF\Aug-CC-pVDZ\C6H12O2\OHZDE\06-Apr-2025\0\\#t hf a
 ug-cc-pvdz iop(5/13=1,5/36=2,99/5=2) pseudo=read geom=check guess=(rea
 d,tcheck) scf=(maxcycle=1)\\title\\0,1\C,0,-1.888132,-0.186303,0.03808
 4\C,0,-2.956955,0.82444,-0.283481\C,0,1.958051,1.395183,0.513927\C,0,2
 .923162,-0.824646,-0.220717\C,0,0.456498,-0.579654,0.020652\C,0,1.7439
 64,0.144881,-0.342302\O,0,-2.082486,-1.286641,0.491535\O,0,-0.661558,0
 .29741,-0.245338\H,0,-2.889982,1.121863,-1.329676\H,0,-2.812725,1.7211
 05,0.319523\H,0,-3.933425,0.39682,-0.079568\H,0,2.870252,1.915116,0.21

 Normal termination of Gaussian 16 at Sun Apr  6 08:19:09 2025.
