 Gaussian 16, Revision C.01,

 ----------------------------------------------------------------------
 #t hf aug-cc-pvdz symm=none int=(grid=ultrafine) guess=(read,tcheck) s
 table=(opt,rrhf)
 ----------------------------------------------------------------------
 -----
 title
 -----
 Symbolic Z-matrix:
 Charge =  0 Multiplicity = 1

 SCF Done:  E(RHF) =  -386.882463892     A.U. after   14 cycles
 Normal termination of Gaussian 16 at Sun Apr  6 08:20:46 2025.
 Gaussian 16:  ES64L-G16RevC.01  3-Jul-2019

 ----------------------------------------------------------------------
 #t hf aug-cc-pvdz iop(5/13=1,5/36=2,99/5=2) pseudo=read geom=check gue
 ss=(read,tcheck) scf=(maxcycle=1)
 ----------------------------------------------------------------------
 -----
 title
 -----
 Structure from the checkpoint file:  "isobutylbenzene.chk"
 Charge =  0 Multiplicity = 1

                         Standard orientation:
 ---------------------------------------------------------------------
 Center     Atomic      Atomic             Coordinates (Angstroms)
 Number     Number       Type             X           Y           Z
 ---------------------------------------------------------------------
      1          6           0        1.333873    2.598690   -0.000000
      2          6           0        0.875686    2.067268    1.199941
      3          6           0        0.875686    2.067268   -1.199941
      4          6           0       -0.026619    1.009896    1.196493
      5          6           0       -0.026619    1.009896   -1.196493
      6          6           0       -0.488807    0.456180    0.000000
      7          6           0       -0.026619   -2.412117   -1.261997
      8          6           0       -0.026619   -2.412117    1.261997
      9          6           0       -1.461521   -0.699761    0.000000
     10          6           0       -0.842543   -2.122471    0.000000
     11          1           0        2.032977    3.424064   -0.000000
     12          1           0        1.216030    2.479956    2.140563
     13          1           0        1.216030    2.479956   -2.140563
     14          1           0       -0.383900    0.613202    2.138360
     15          1           0       -0.383900    0.613202   -2.138360
     16          1           0        0.854188   -1.771177   -1.323883
     17          1           0       -0.618707   -2.255130   -2.165763
     18          1           0        0.317444   -3.447758   -1.266811
     19          1           0        0.317444   -3.447758    1.266811
     20          1           0        0.854188   -1.771177    1.323883
     21          1           0       -0.618707   -2.255130    2.165763
     22          1           0       -2.110211   -0.616300    0.875339
     23          1           0       -2.110211   -0.616300   -0.875339
     24          1           0       -1.698056   -2.806051    0.000000
 ---------------------------------------------------------------------

 SCF Done:  E(RHF) =  -388.829790310     A.U. after    2 cycles

 The electronic state is 1-A'.
 Alpha  occ. eigenvalues --  -11.51410 -11.44521 -11.42947 -11.42376 -11.40197
 Alpha  occ. eigenvalues --  -11.39875 -11.39803 -11.37911 -11.35596 -11.34392
 Alpha  occ. eigenvalues --   -1.35552  -1.24003  -1.10741  -1.08534  -0.99717
 Alpha  occ. eigenvalues --   -0.98466  -0.85757  -0.84648  -0.78783  -0.69835
 Alpha  occ. eigenvalues --   -0.64972  -0.62821  -0.61686  -0.59037  -0.57297
 Alpha  occ. eigenvalues --   -0.55056  -0.54033  -0.52575  -0.50271  -0.50144
 Alpha  occ. eigenvalues --   -0.47026  -0.43560  -0.43361  -0.42599  -0.40402
 Alpha  occ. eigenvalues --   -0.32405  -0.30950
 Alpha virt. eigenvalues --    0.03621   0.04584   0.04901   0.05289   0.05461
 Alpha virt. eigenvalues --    0.05989   0.06089   0.06536   0.06572   0.07418
 Alpha virt. eigenvalues --    0.08141   0.08893   0.08972   0.09341   0.11200

 Mulliken charges:
               1
     1  C   -3.281624
     2  C   -1.467778
     3  C   -1.467778
     4  C   -2.594300
     5  C   -2.594300
     6  C    5.080832
     7  C   -4.822890
     8  C   -4.822890
     9  C   -4.794236
    10  C    0.542322
    11  H    1.541248
    12  H    1.518212
    13  H    1.518212
    14  H    2.002836
    15  H    2.002836
    16  H    1.524451
    17  H    1.271742
    18  H    1.125291
    19  H    1.125291
    20  H    1.524451
    21  H    1.271742
    22  H    1.103988
    23  H    1.103988
    24  H    1.588355
 Sum of Mulliken charges =  -0.00000

 Dipole moment (field-independent basis, Debye):
    X=             -0.1975    Y=             -0.2994    Z=              0.0000  Tot=              0.3587

 Test job not archived.
 1\1\GINC-SE146\SP\RHF\Aug-CC-pVDZ\C10H14\OHZDE\06-Apr-2025\0\\#t hf au
 g-cc-pvdz iop(5/13=1,5/36=2,99/5=2) pseudo=read geom=check guess=(read
 ,tcheck) scf=(maxcycle=1)\\title\\0,1\C,0,1.333873,2.59869,0.\C,0,0.87
 5686,2.067268,1.199941\C,0,0.875686,2.067268,-1.199941\C,0,-0.026619,1
 .009896,1.196493\C,0,-0.026619,1.009896,-1.196493\C,0,-0.488807,0.4561
 8,0.\C,0,-0.026619,-2.412117,-1.261997\C,0,-0.026619,-2.412117,1.26199
 7\C,0,-1.461521,-0.699761,0.\C,0,-0.842543,-2.122471,0.\H,0,2.032977,3
 .424064,0.\H,0,1.21603,2.479956,2.140563\H,0,1.21603,2.479956,-2.14056

 Normal termination of Gaussian 16 at Sun Apr  6 08:21:58 2025.
