 Gaussian 16, Revision C.01,

 ----------------------------------------------------------------------
 #t hf aug-cc-pvdz symm=none int=(grid=ultrafine) guess=(read,tcheck) s
 table=(opt,rrhf)
 ----------------------------------------------------------------------
 -----
 title
 -----
 Symbolic Z-matrix:
 Charge =  0 Multiplicity = 1

 SCF Done:  E(RHF) =  -157.315898179     A.U. after   11 cycles
 Normal termination of Gaussian 16 at Sun Apr  6 08:16:06 2025.
 Gaussian 16:  ES64L-G16RevC.01  3-Jul-2019

 ----------------------------------------------------------------------
 #t hf aug-cc-pvdz iop(5/13=1,5/36=2,99/5=2) pseudo=read geom=check gue
 ss=(read,tcheck) scf=(maxcycle=1)
 ----------------------------------------------------------------------
 -----
 title
 -----
 Structure from the checkpoint file:  "isobutane.chk"
 Charge =  0 Multiplicity = 1

                         Standard orientation:
 ---------------------------------------------------------------------
 Center     Atomic      Atomic             Coordinates (Angstroms)
 Number     Number       Type             X           Y           Z
 ---------------------------------------------------------------------
      1          6           0        0.312513    0.199944    0.000000
      2          6           0       -0.866179    1.176773    0.000000
      3          6           0        0.312513   -0.665531    1.262722
      4          6           0        0.312513   -0.665531   -1.262722
      5          1           0        1.170848   -1.339419    1.282986
      6          1           0        1.170848   -1.339419   -1.282986
      7          1           0       -0.850137    1.819393    0.882076
      8          1           0       -0.850137    1.819393   -0.882076
      9          1           0        0.347471   -0.052476    2.165062
     10          1           0       -0.591262   -1.278366    1.313214
     11          1           0        0.347471   -0.052476   -2.165062
     12          1           0       -1.817087    0.637605    0.000000
     13          1           0       -0.591262   -1.278366   -1.313214
     14          1           0        1.235091    0.790202    0.000000
 ---------------------------------------------------------------------

 SCF Done:  E(RHF) =  -158.160698885     A.U. after    2 cycles

 The electronic state is 1-A'.
 Alpha  occ. eigenvalues --  -11.39996 -11.37500 -11.37500 -11.33561  -1.24658
 Alpha  occ. eigenvalues --   -0.99374  -0.99374  -0.79989  -0.63516  -0.58751
 Alpha  occ. eigenvalues --   -0.58750  -0.52780  -0.52780  -0.50409  -0.44030
 Alpha  occ. eigenvalues --   -0.42699  -0.42699
 Alpha virt. eigenvalues --    0.03912   0.05963   0.05963   0.06193   0.06193
 Alpha virt. eigenvalues --    0.06202   0.06375   0.07013   0.07013   0.09277
 Alpha virt. eigenvalues --    0.12278   0.14065   0.14065   0.15794   0.16040

 Mulliken charges:
               1
     1  C   -2.177117
     2  C   -3.669772
     3  C   -3.669775
     4  C   -3.669775
     5  H    1.260170
     6  H    1.260170
     7  H    1.260170
     8  H    1.260170
     9  H    1.260170
    10  H    1.322136
    11  H    1.260170
    12  H    1.322136
    13  H    1.322136
    14  H    1.659010
 Sum of Mulliken charges =   0.00000

 Dipole moment (field-independent basis, Debye):
    X=              0.1823    Y=              0.1166    Z=              0.0000  Tot=              0.2164

 Test job not archived.
 1\1\GINC-SE222\SP\RHF\Aug-CC-pVDZ\C4H10\OHZDE\06-Apr-2025\0\\#t hf aug
 -cc-pvdz iop(5/13=1,5/36=2,99/5=2) pseudo=read geom=check guess=(read,
 tcheck) scf=(maxcycle=1)\\title\\0,1\C,0,0.,0.,0.371001\C,0,0.,1.45806
 5,-0.095429\C,0,-1.262722,-0.729033,-0.095429\C,0,1.262722,-0.729033,-
 0.095429\H,0,-1.282986,-1.759266,0.264412\H,0,1.282986,-1.759266,0.264
 412\H,0,-0.882076,1.990731,0.264412\H,0,0.882076,1.990731,0.264412\H,0
 ,-2.165062,-0.231466,0.264412\H,0,-1.313214,-0.758184,-1.187\H,0,2.165
 062,-0.231466,0.264412\H,0,0.,1.516369,-1.187\H,0,1.313214,-0.758184,-

 Normal termination of Gaussian 16 at Sun Apr  6 08:16:33 2025.
