 Gaussian 16, Revision C.01,

 ----------------------------------------------------------------------
 #t hf aug-cc-pvdz symm=none int=(grid=ultrafine) guess=(read,tcheck) s
 table=(opt,rrhf)
 ----------------------------------------------------------------------
 -----
 title
 -----
 Symbolic Z-matrix:
 Charge =  0 Multiplicity = 1

 SCF Done:  E(RHF) =  -344.943600618     A.U. after   13 cycles

 1\1\GINC-SE107\Stability\RHF\Aug-CC-pVDZ\C5H10O2\OHZDE\06-Apr-2025\0\\
 #t hf aug-cc-pvdz symm=none int=(grid=ultrafine) guess=(read,tcheck) s
 table=(opt,rrhf)\\title\\0,1\C,0,-2.290734,0.312473,-0.152529\C,0,1.73
 0575,1.318317,0.376938\C,0,2.34948,-1.102336,-0.024284\C,0,-0.050404,-
 0.444296,0.035206\C,0,1.350871,0.017165,-0.333148\O,0,-2.73083,-0.6524
 19,0.410787\O,0,-1.002022,0.556886,-0.408491\H,0,-2.898837,1.139165,-0
 .541138\H,0,2.72614,1.646204,0.075225\H,0,1.741116,1.179254,1.460987\H
 ,0,1.028303,2.11826,0.146337\H,0,3.358716,-0.805723,-0.310746\H,0,2.10

 Normal termination of Gaussian 16 at Sun Apr  6 08:17:11 2025.
 Gaussian 16:  ES64L-G16RevC.01  3-Jul-2019

 ----------------------------------------------------------------------
 #t hf aug-cc-pvdz iop(5/13=1,5/36=2,99/5=2) pseudo=read geom=check gue
 ss=(read,tcheck) scf=(maxcycle=1)
 ----------------------------------------------------------------------
 -----
 title
 -----
 Structure from the checkpoint file:  "isobutyl_formate.chk"
 Charge =  0 Multiplicity = 1

                         Standard orientation:
 ---------------------------------------------------------------------
 Center     Atomic      Atomic             Coordinates (Angstroms)
 Number     Number       Type             X           Y           Z
 ---------------------------------------------------------------------
      1          6           0       -2.290734    0.312473   -0.152529
      2          6           0        1.730575    1.318317    0.376938
      3          6           0        2.349480   -1.102336   -0.024284
      4          6           0       -0.050404   -0.444296    0.035206
      5          6           0        1.350871    0.017165   -0.333148
      6          8           0       -2.730830   -0.652419    0.410787
      7          8           0       -1.002022    0.556886   -0.408491
      8          1           0       -2.898837    1.139165   -0.541138
      9          1           0        2.726140    1.646204    0.075225
     10          1           0        1.741116    1.179254    1.460987
     11          1           0        1.028303    2.118260    0.146337
     12          1           0        3.358716   -0.805723   -0.310746
     13          1           0        2.105762   -2.020077   -0.561819
     14          1           0        2.364512   -1.333019    1.043503
     15          1           0       -0.300747   -1.390490   -0.444761
     16          1           0       -0.160689   -0.574017    1.113477
     17          1           0        1.359807    0.196764   -1.412535
 ---------------------------------------------------------------------

 SCF Done:  E(RHF) =  -346.530184157     A.U. after    2 cycles

 The electronic state is 1-A.
 Alpha  occ. eigenvalues --  -21.09517 -21.05750 -11.50588 -11.45590 -11.41267
 Alpha  occ. eigenvalues --  -11.38810 -11.35728  -1.84229  -1.66541  -1.25028
 Alpha  occ. eigenvalues --   -1.01302  -1.00756  -0.85080  -0.80660  -0.68504
 Alpha  occ. eigenvalues --   -0.67115  -0.61096  -0.59678  -0.56958  -0.54414
 Alpha  occ. eigenvalues --   -0.53565  -0.50986  -0.46957  -0.45314  -0.44594
 Alpha  occ. eigenvalues --   -0.41513  -0.32402  -0.30764
 Alpha virt. eigenvalues --    0.03741   0.05088   0.05344   0.05544   0.05763
 Alpha virt. eigenvalues --    0.06016   0.06465   0.07184   0.07807   0.08656
 Alpha virt. eigenvalues --    0.11239   0.11967   0.12851   0.13361   0.14163

 Mulliken charges:
               1
     1  C    2.258104
     2  C   -3.748631
     3  C   -3.732601
     4  C   -1.302865
     5  C   -2.399992
     6  O   -2.512360
     7  O   -2.992917
     8  H    1.710786
     9  H    1.242089
    10  H    1.318498
    11  H    1.346591
    12  H    1.238466
    13  H    1.252177
    14  H    1.316427
    15  H    1.608398
    16  H    1.657481
    17  H    1.740348
 Sum of Mulliken charges =   0.00000

 Dipole moment (field-independent basis, Debye):
    X=              1.6449    Y=              0.5503    Z=             -0.5687  Tot=              1.8253

 Test job not archived.
 1\1\GINC-SE107\SP\RHF\Aug-CC-pVDZ\C5H10O2\OHZDE\06-Apr-2025\0\\#t hf a
 ug-cc-pvdz iop(5/13=1,5/36=2,99/5=2) pseudo=read geom=check guess=(rea
 d,tcheck) scf=(maxcycle=1)\\title\\0,1\C,0,-2.290734,0.312473,-0.15252
 9\C,0,1.730575,1.318317,0.376938\C,0,2.34948,-1.102336,-0.024284\C,0,-
 0.050404,-0.444296,0.035206\C,0,1.350871,0.017165,-0.333148\O,0,-2.730
 83,-0.652419,0.410787\O,0,-1.002022,0.556886,-0.408491\H,0,-2.898837,1
 .139165,-0.541138\H,0,2.72614,1.646204,0.075225\H,0,1.741116,1.179254,
 1.460987\H,0,1.028303,2.11826,0.146337\H,0,3.358716,-0.805723,-0.31074

 Normal termination of Gaussian 16 at Sun Apr  6 08:17:29 2025.
