 Gaussian 16, Revision C.01,

 ----------------------------------------------------------------------
 #t hf aug-cc-pvdz symm=none int=(grid=ultrafine) guess=(read,tcheck) s
 table=(opt,rrhf)
 ----------------------------------------------------------------------
 -----
 title
 -----
 Symbolic Z-matrix:
 Charge =  0 Multiplicity = 1

 SCF Done:  E(RHF) =  -167.791235023     A.U. after   13 cycles
 Normal termination of Gaussian 16 at Sun Apr  6 08:17:38 2025.
 Gaussian 16:  ES64L-G16RevC.01  3-Jul-2019

 ----------------------------------------------------------------------
 #t hf aug-cc-pvdz iop(5/13=1,5/36=2,99/5=2) pseudo=read geom=check gue
 ss=(read,tcheck) scf=(maxcycle=1)
 ----------------------------------------------------------------------
 -----
 title
 -----
 Structure from the checkpoint file:  "isocyanic_acid.chk"
 Charge =  0 Multiplicity = 1

                         Standard orientation:
 ---------------------------------------------------------------------
 Center     Atomic      Atomic             Coordinates (Angstroms)
 Number     Number       Type             X           Y           Z
 ---------------------------------------------------------------------
      1          1           0        1.358384   -1.380415    0.000000
      2          7           0        0.395114   -1.094786    0.000000
      3          6           0        0.000000    0.049280    0.000000
      4          8           0       -0.515523    1.093530    0.000000
 ---------------------------------------------------------------------

 SCF Done:  E(RHF) =  -168.489354545     A.U. after    2 cycles

 The electronic state is 1-A'.
 Alpha  occ. eigenvalues --  -21.13317 -15.78791 -11.57847  -1.77876  -1.36428
 Alpha  occ. eigenvalues --   -0.80260  -0.63029  -0.59911  -0.58544  -0.39419
 Alpha  occ. eigenvalues --   -0.35324
 Alpha virt. eigenvalues --    0.03248   0.08544   0.10643   0.10865   0.11925
 Alpha virt. eigenvalues --    0.16737   0.18008   0.18367   0.18500   0.22306
 Alpha virt. eigenvalues --    0.25093   0.27546   0.30048   0.32287   0.33737

 Mulliken charges:
               1
     1  H    0.806021
     2  N   -2.444825
     3  C    3.699703
     4  O   -2.060898
 Sum of Mulliken charges =  -0.00000

 Dipole moment (field-independent basis, Debye):
    X=              1.1215    Y=              0.5996    Z=              0.0000  Tot=              1.2717

 Test job not archived.
 1\1\GINC-SE009\SP\RHF\Aug-CC-pVDZ\C1H1N1O1\OHZDE\06-Apr-2025\0\\#t hf
 aug-cc-pvdz iop(5/13=1,5/36=2,99/5=2) pseudo=read geom=check guess=(re
 ad,tcheck) scf=(maxcycle=1)\\title\\0,1\H,0,1.35838,-1.380419,0.\N,0,0
 .395111,-1.094787,0.\C,0,0.,0.04928,0.\O,0,-0.51552,1.093531,0.\\Versi
 on=ES64L-G16RevC.01\State=1-A'\HF=-168.4893545\RMSD=6.117e-02\Dipole=0
 .4412443,0.2358837,0.\Quadrupole=1.8074861,-1.2367648,-0.5707212,-1.22
 12012,0.,0.\PG=CS [SG(C1H1N1O1)]\\@

 Normal termination of Gaussian 16 at Sun Apr  6 08:17:39 2025.
