 Gaussian 16, Revision C.01,

 ----------------------------------------------------------------------
 #t hf aug-cc-pvdz symm=none int=(grid=ultrafine) guess=(read,tcheck) s
 table=(opt,rrhf)
 ----------------------------------------------------------------------
 -----
 title
 -----
 Symbolic Z-matrix:
 Charge =  0 Multiplicity = 1

 SCF Done:  E(RHF) =  -809.998880380     A.U. after   13 cycles
 Normal termination of Gaussian 16 at Sun Apr  6 08:16:40 2025.
 Gaussian 16:  ES64L-G16RevC.01  3-Jul-2019

 ----------------------------------------------------------------------
 #t hf aug-cc-pvdz iop(5/13=1,5/36=2,99/5=2) pseudo=read geom=check gue
 ss=(read,tcheck) scf=(maxcycle=1)
 ----------------------------------------------------------------------
 -----
 title
 -----
 Structure from the checkpoint file:  "isocyanatoisocyanatomethylsulfanylmethane.chk"
 Charge =  0 Multiplicity = 1

                         Standard orientation:
 ---------------------------------------------------------------------
 Center     Atomic      Atomic             Coordinates (Angstroms)
 Number     Number       Type             X           Y           Z
 ---------------------------------------------------------------------
      1         16           0       -0.000005   -0.180949   -0.000031
      2          8           0       -4.161913   -1.053413    0.440220
      3          8           0        4.161949   -1.053366   -0.440227
      4          7           0       -2.574769    0.356348   -0.604807
      5          7           0        2.574743    0.356296    0.604841
      6          6           0       -1.346924    1.035946   -0.351650
      7          6           0        1.346915    1.035919    0.351674
      8          6           0       -3.340117   -0.359645   -0.014871
      9          6           0        3.340125   -0.359642    0.014882
     10          1           0       -1.444429    1.712184    0.498745
     11          1           0       -1.081666    1.610562   -1.235849
     12          1           0        1.081634    1.610502    1.235889
     13          1           0        1.444453    1.712191   -0.498690
 ---------------------------------------------------------------------

 SCF Done:  E(RHF) =  -811.989957905     A.U. after    2 cycles

 The electronic state is 1-A.
 Alpha  occ. eigenvalues --  -75.70678 -21.12983 -21.12982 -15.78314 -15.78301
 Alpha  occ. eigenvalues --  -13.13906 -13.10891 -13.04086 -11.59497 -11.59326
 Alpha  occ. eigenvalues --  -11.47590 -11.47008  -8.04718  -1.77872  -1.77492
 Alpha  occ. eigenvalues --   -1.44893  -1.42383  -1.19875  -1.06170  -0.95464
 Alpha  occ. eigenvalues --   -0.74929  -0.72257  -0.68852  -0.67236  -0.65408
 Alpha  occ. eigenvalues --   -0.62602  -0.61188  -0.60620  -0.57302  -0.56146
 Alpha  occ. eigenvalues --   -0.52435  -0.43493  -0.37010  -0.36624  -0.34206
 Alpha  occ. eigenvalues --   -0.31620  -0.25771
 Alpha virt. eigenvalues --    0.02201   0.03730   0.04537   0.06168   0.07172
 Alpha virt. eigenvalues --    0.08712   0.09488   0.10011   0.10063   0.10844
 Alpha virt. eigenvalues --    0.11284   0.11949   0.12627   0.13428   0.13441

 Mulliken charges:
               1
     1  S    1.352859
     2  O   -2.501888
     3  O   -2.501893
     4  N   -2.320987
     5  N   -2.320979
     6  C   -2.669651
     7  C   -2.669667
     8  C    3.716247
     9  C    3.716268
    10  H    1.563380
    11  H    1.536463
    12  H    1.536456
    13  H    1.563393
 Sum of Mulliken charges =  -0.00000

 Dipole moment (field-independent basis, Debye):
    X=              0.0001    Y=              0.2082    Z=             -0.0000  Tot=              0.2082

 Test job not archived.
 1\1\GINC-SE042\SP\RHF\Aug-CC-pVDZ\C4H4N2O2S1\OHZDE\06-Apr-2025\0\\#t h
 f aug-cc-pvdz iop(5/13=1,5/36=2,99/5=2) pseudo=read geom=check guess=(
 read,tcheck) scf=(maxcycle=1)\\title\\0,1\S,0,0.000005,0.180949,-0.000
 031\O,0,4.161913,1.053413,0.44022\O,0,-4.161949,1.053366,-0.440227\N,0
 ,2.574769,-0.356348,-0.604807\N,0,-2.574743,-0.356296,0.604841\C,0,1.3
 46924,-1.035946,-0.35165\C,0,-1.346915,-1.035919,0.351674\C,0,3.340117
 ,0.359645,-0.014871\C,0,-3.340125,0.359642,0.014882\H,0,1.444429,-1.71
 2184,0.498745\H,0,1.081666,-1.610562,-1.235849\H,0,-1.081634,-1.610502

 Normal termination of Gaussian 16 at Sun Apr  6 08:16:47 2025.
