 Gaussian 16, Revision C.01,

 ----------------------------------------------------------------------
 #t hf aug-cc-pvdz symm=none int=(grid=ultrafine) guess=(read,tcheck) s
 table=(opt,rrhf)
 ----------------------------------------------------------------------
 -----
 title
 -----
 Symbolic Z-matrix:
 Charge =  0 Multiplicity = 1

 SCF Done:  E(RHF) =  -604.351046596     A.U. after   14 cycles
 Normal termination of Gaussian 16 at Sun Apr  6 08:16:42 2025.
 Gaussian 16:  ES64L-G16RevC.01  3-Jul-2019

 ----------------------------------------------------------------------
 #t hf aug-cc-pvdz iop(5/13=1,5/36=2,99/5=2) pseudo=read geom=check gue
 ss=(read,tcheck) scf=(maxcycle=1)
 ----------------------------------------------------------------------
 -----
 title
 -----
 Structure from the checkpoint file:  "isocyanatomethanethiol.chk"
 Charge =  0 Multiplicity = 1

                         Standard orientation:
 ---------------------------------------------------------------------
 Center     Atomic      Atomic             Coordinates (Angstroms)
 Number     Number       Type             X           Y           Z
 ---------------------------------------------------------------------
      1         16           0       -1.706782   -0.543256   -0.058637
      2          8           0        2.540354   -0.659034   -0.086094
      3          7           0        0.706588    0.801429    0.239004
      4          6           0       -0.664935    0.969752   -0.139339
      5          6           0        1.599379    0.023801    0.031598
      6          1           0       -1.726078   -0.641935    1.283273
      7          1           0       -1.104325    1.734549    0.492248
      8          1           0       -0.736693    1.300429   -1.175164
 ---------------------------------------------------------------------

 SCF Done:  E(RHF) =  -605.463203908     A.U. after    2 cycles

 The electronic state is 1-A.
 Alpha  occ. eigenvalues --  -75.70650 -21.12294 -15.77314 -13.13926 -13.09963
 Alpha  occ. eigenvalues --  -13.03784 -11.58400 -11.46577  -8.04542  -1.76985
 Alpha  occ. eigenvalues --   -1.42443  -1.17307  -0.98703  -0.72675  -0.67529
 Alpha  occ. eigenvalues --   -0.62870  -0.60663  -0.56509  -0.51851  -0.45176
 Alpha  occ. eigenvalues --   -0.35421  -0.32673  -0.25926
 Alpha virt. eigenvalues --    0.02316   0.04101   0.05340   0.08114   0.09554
 Alpha virt. eigenvalues --    0.10123   0.11347   0.11689   0.12139   0.13313
 Alpha virt. eigenvalues --    0.15039   0.15454   0.16185   0.17902   0.18911

 Mulliken charges:
               1
     1  S   -0.238995
     2  O   -2.441596
     3  N   -2.100840
     4  C   -3.122116
     5  C    3.901274
     6  H    1.032007
     7  H    1.425606
     8  H    1.544660
 Sum of Mulliken charges =  -0.00000

 Dipole moment (field-independent basis, Debye):
    X=             -1.2610    Y=             -0.3697    Z=             -1.3809  Tot=              1.9062

 Test job not archived.
 1\1\GINC-SE106\SP\RHF\Aug-CC-pVDZ\C2H3N1O1S1\OHZDE\06-Apr-2025\0\\#t h
 f aug-cc-pvdz iop(5/13=1,5/36=2,99/5=2) pseudo=read geom=check guess=(
 read,tcheck) scf=(maxcycle=1)\\title\\0,1\S,0,-1.706782,-0.543256,-0.0
 58637\O,0,2.540354,-0.659034,-0.086094\N,0,0.706588,0.801429,0.239004\
 C,0,-0.664935,0.969752,-0.139339\C,0,1.599379,0.023801,0.031598\H,0,-1
 .726078,-0.641935,1.283273\H,0,-1.104325,1.734549,0.492248\H,0,-0.7366
 93,1.300429,-1.175164\\Version=ES64L-G16RevC.01\State=1-A\HF=-605.4632
 039\RMSD=8.760e-02\Dipole=-0.4961131,-0.1454455,-0.5433019\Quadrupole=

 Normal termination of Gaussian 16 at Sun Apr  6 08:16:47 2025.
