 Gaussian 16, Revision C.01,

 ----------------------------------------------------------------------
 #t hf aug-cc-pvdz symm=none int=(grid=ultrafine) guess=(read,tcheck) s
 table=(opt,rrhf)
 ----------------------------------------------------------------------
 -----
 title
 -----
 Symbolic Z-matrix:
 Charge =  0 Multiplicity = 1

 SCF Done:  E(RHF) =  -642.178814046     A.U. after   16 cycles
 Normal termination of Gaussian 16 at Sun Apr  6 08:16:46 2025.
 Gaussian 16:  ES64L-G16RevC.01  3-Jul-2019

 ----------------------------------------------------------------------
 #t hf aug-cc-pvdz iop(5/13=1,5/36=2,99/5=2) pseudo=read geom=check gue
 ss=(read,tcheck) scf=(maxcycle=1)
 ----------------------------------------------------------------------
 -----
 title
 -----
 Structure from the checkpoint file:  "isocyanatosulfanylethene.chk"
 Charge =  0 Multiplicity = 1

                         Standard orientation:
 ---------------------------------------------------------------------
 Center     Atomic      Atomic             Coordinates (Angstroms)
 Number     Number       Type             X           Y           Z
 ---------------------------------------------------------------------
      1         16           0        0.457966    0.685420   -0.130775
      2          8           0       -3.222564   -0.127058    0.122495
      3          7           0       -0.866252   -0.384315    0.004694
      4          6           0       -2.057415   -0.194178    0.059640
      5          6           0        1.757292   -0.498441   -0.193213
      6          6           0        2.970929   -0.238236    0.278239
      7          1           0        1.512657   -1.411103   -0.721146
      8          1           0        3.781289   -0.934480    0.113673
      9          1           0        3.198043    0.670651    0.819051
 ---------------------------------------------------------------------

 SCF Done:  E(RHF) =  -643.469597591     A.U. after    2 cycles

 The electronic state is 1-A.
 Alpha  occ. eigenvalues --  -75.75009 -21.12987 -15.78401 -13.20296 -13.16646
 Alpha  occ. eigenvalues --  -13.06987 -11.58572 -11.44571 -11.40341  -8.09017
 Alpha  occ. eigenvalues --   -1.77487  -1.43191  -1.22067  -1.05977  -0.82857
 Alpha  occ. eigenvalues --   -0.72038  -0.64841  -0.61908  -0.61421  -0.58881
 Alpha  occ. eigenvalues --   -0.57178  -0.45392  -0.43731  -0.38618  -0.35060
 Alpha  occ. eigenvalues --   -0.22117
 Alpha virt. eigenvalues --    0.02851   0.05003   0.05479   0.06353   0.08234
 Alpha virt. eigenvalues --    0.09304   0.10502   0.11387   0.11828   0.12189
 Alpha virt. eigenvalues --    0.13434   0.14235   0.14683   0.16462   0.17245

 Mulliken charges:
               1
     1  S    1.631105
     2  O   -2.509880
     3  N   -2.154579
     4  C    3.610413
     5  C   -1.974538
     6  C   -2.643293
     7  H    1.227007
     8  H    1.321195
     9  H    1.492571
 Sum of Mulliken charges =  -0.00000

 Dipole moment (field-independent basis, Debye):
    X=              0.6565    Y=              1.2911    Z=             -0.0917  Tot=              1.4514

 Test job not archived.
 1\1\GINC-SE146\SP\RHF\Aug-CC-pVDZ\C3H3N1O1S1\OHZDE\06-Apr-2025\0\\#t h
 f aug-cc-pvdz iop(5/13=1,5/36=2,99/5=2) pseudo=read geom=check guess=(
 read,tcheck) scf=(maxcycle=1)\\title\\0,1\S,0,0.457966,0.68542,-0.1307
 75\O,0,-3.222564,-0.127058,0.122495\N,0,-0.866252,-0.384315,0.004694\C
 ,0,-2.057415,-0.194178,0.05964\C,0,1.757292,-0.498441,-0.193213\C,0,2.
 970929,-0.238236,0.278239\H,0,1.512657,-1.411103,-0.721146\H,0,3.78128
 9,-0.93448,0.113673\H,0,3.198043,0.670651,0.819051\\Version=ES64L-G16R
 evC.01\State=1-A\HF=-643.4695976\RMSD=2.769e-01\Dipole=0.2583029,0.507

 Normal termination of Gaussian 16 at Sun Apr  6 08:16:49 2025.
