 Gaussian 16, Revision C.01,

 ----------------------------------------------------------------------
 #t hf aug-cc-pvdz symm=none int=(grid=ultrafine) guess=(read,tcheck) s
 table=(opt,rrhf)
 ----------------------------------------------------------------------
 -----
 title
 -----
 Symbolic Z-matrix:
 Charge =  0 Multiplicity = 1

 SCF Done:  E(RHF) =  -1146.42345834     A.U. after   12 cycles
 Normal termination of Gaussian 16 at Sun Apr  6 08:17:56 2025.
 Gaussian 16:  ES64L-G16RevC.01  3-Jul-2019

 ----------------------------------------------------------------------
 #t hf aug-cc-pvdz iop(5/13=1,5/36=2,99/5=2) pseudo=read geom=check gue
 ss=(read,tcheck) scf=(maxcycle=1)
 ----------------------------------------------------------------------
 -----
 title
 -----
 Structure from the checkpoint file:  "isoflurane.chk"
 Charge =  0 Multiplicity = 1

                         Standard orientation:
 ---------------------------------------------------------------------
 Center     Atomic      Atomic             Coordinates (Angstroms)
 Number     Number       Type             X           Y           Z
 ---------------------------------------------------------------------
      1          6           0       -0.218615    0.231720   -0.334249
      2          6           0        2.099372    0.063633    0.050519
      3          6           0       -1.485571   -0.576666   -0.009374
      4          8           0        0.817838   -0.322832    0.399628
      5          9           0        2.373326   -0.321108   -1.226533
      6          9           0        2.924768   -0.591330    0.873399
      7          9           0       -1.301155   -1.854169   -0.377515
      8          9           0       -2.528100   -0.095040   -0.699597
      9          9           0       -1.784593   -0.552251    1.290062
     10         17           0       -0.487352    1.980503    0.064712
     11          1           0       -0.042858    0.187772   -1.406517
     12          1           0        2.255795    1.139294    0.129683
 ---------------------------------------------------------------------

 SCF Done:  E(RHF) =  -1149.15802096     A.U. after    2 cycles

 The electronic state is 1-A.
 Alpha  occ. eigenvalues --  -99.92422 -29.33210 -29.33059 -29.32993 -29.31981
 Alpha  occ. eigenvalues --  -29.31644 -21.13544 -11.63769 -11.57931 -11.53547
 Alpha  occ. eigenvalues --  -10.49736  -9.69659  -9.68960  -9.68811  -1.89780
 Alpha  occ. eigenvalues --   -1.46344  -1.34284  -1.26488  -1.03677  -0.92213
 Alpha  occ. eigenvalues --   -0.91405  -0.88175  -0.82180  -0.76740  -0.73321
 Alpha  occ. eigenvalues --   -0.67490  -0.57142  -0.55061  -0.50791  -0.48748
 Alpha  occ. eigenvalues --   -0.46785  -0.45740  -0.45208  -0.42752  -0.40542
 Alpha  occ. eigenvalues --   -0.38761  -0.37836  -0.35471  -0.33238  -0.31129
 Alpha  occ. eigenvalues --   -0.30798  -0.27686  -0.27292  -0.24936  -0.23267
 Alpha virt. eigenvalues --    0.04375   0.05651   0.06603   0.09814   0.10543
 Alpha virt. eigenvalues --    0.10939   0.11571   0.11908   0.13109   0.13602
 Alpha virt. eigenvalues --    0.14618   0.15346   0.15659   0.16866   0.17799

 Mulliken charges:
               1
     1  C   -2.503870
     2  C   -0.911154
     3  C    0.528503
     4  O   -2.364799
     5  F    0.305904
     6  F    0.428094
     7  F    0.424728
     8  F    0.442241
     9  F    0.342833
    10  Cl   0.050876
    11  H    1.852137
    12  H    1.404506
 Sum of Mulliken charges =   0.00000

 Dipole moment (field-independent basis, Debye):
    X=              0.7944    Y=             -3.8377    Z=             -0.5122  Tot=              3.9524

 Test job not archived.
 1\1\GINC-SE023\SP\RHF\Aug-CC-pVDZ\C3H2Cl1F5O1\OHZDE\06-Apr-2025\0\\#t
 hf aug-cc-pvdz iop(5/13=1,5/36=2,99/5=2) pseudo=read geom=check guess=
 (read,tcheck) scf=(maxcycle=1)\\title\\0,1\C,0,-0.218615,0.23172,-0.33
 4249\C,0,2.099372,0.063633,0.050519\C,0,-1.485571,-0.576666,-0.009374\
 O,0,0.817838,-0.322832,0.399628\F,0,2.373326,-0.321108,-1.226533\F,0,2
 .924768,-0.59133,0.873399\F,0,-1.301155,-1.854169,-0.377515\F,0,-2.528
 1,-0.09504,-0.699597\F,0,-1.784593,-0.552251,1.290062\Cl,0,-0.487352,1
 .980503,0.064712\H,0,-0.042858,0.187772,-1.406517\H,0,2.255795,1.13929

 Normal termination of Gaussian 16 at Sun Apr  6 08:19:08 2025.
