 Gaussian 16, Revision C.01,

 ----------------------------------------------------------------------
 #t hf aug-cc-pvdz symm=none int=(grid=ultrafine) guess=(read,tcheck) s
 table=(opt,rrhf)
 ----------------------------------------------------------------------
 -----
 title
 -----
 Symbolic Z-matrix:
 Charge =  0 Multiplicity = 1

 SCF Done:  E(RHF) =  -439.030430145     A.U. after   14 cycles
 Normal termination of Gaussian 16 at Sun Apr  6 08:19:33 2025.
 Gaussian 16:  ES64L-G16RevC.01  3-Jul-2019

 ----------------------------------------------------------------------
 #t hf aug-cc-pvdz iop(5/13=1,5/36=2,99/5=2) pseudo=read geom=check gue
 ss=(read,tcheck) scf=(maxcycle=1)
 ----------------------------------------------------------------------
 -----
 title
 -----
 Structure from the checkpoint file:  "isoleucine.chk"
 Charge =  0 Multiplicity = 1

                         Standard orientation:
 ---------------------------------------------------------------------
 Center     Atomic      Atomic             Coordinates (Angstroms)
 Number     Number       Type             X           Y           Z
 ---------------------------------------------------------------------
      1          7           0       -0.597265    1.880669   -0.121090
      2          6           0       -0.495562    0.459188   -0.493741
      3          6           0       -1.805491   -0.236189   -0.085662
      4          8           0       -2.217442   -1.236297   -0.608791
      5          8           0       -2.449652    0.365789    0.927683
      6          1           0       -1.968150    1.206422    1.080701
      7          6           0        0.740774   -0.181501    0.194975
      8          6           0        2.036361    0.322896   -0.473170
      9          6           0        0.692385   -1.712042    0.209785
     10          6           0        3.305554    0.081041    0.344256
     11          1           0       -0.402470    0.308887   -1.572904
     12          1           0        0.731995    0.170577    1.233213
     13          1           0        2.129419   -0.159520   -1.450886
     14          1           0        1.964888    1.394467   -0.677881
     15          1           0        1.596770   -2.114151    0.664101
     16          1           0       -0.156498   -2.089792    0.775213
     17          1           0        0.613261   -2.111699   -0.802100
     18          1           0        4.176666    0.493046   -0.166281
     19          1           0        3.239861    0.558480    1.324121
     20          1           0        3.494746   -0.979801    0.504685
     21          1           0        0.309205    2.294943    0.044674
     22          1           0       -1.056201    2.427172   -0.838822
 ---------------------------------------------------------------------

 SCF Done:  E(RHF) =  -441.087250271     A.U. after    2 cycles

 The electronic state is 1-A.
 Alpha  occ. eigenvalues --  -21.10105 -21.03658 -15.76430 -11.52312 -11.47645
 Alpha  occ. eigenvalues --  -11.44172 -11.41178 -11.38242 -11.36233  -1.81117
 Alpha  occ. eigenvalues --   -1.64448  -1.38973  -1.24007  -1.10024  -1.01240
 Alpha  occ. eigenvalues --   -0.93927  -0.83592  -0.76975  -0.70667  -0.69490
 Alpha  occ. eigenvalues --   -0.64595  -0.63291  -0.61029  -0.58168  -0.55792
 Alpha  occ. eigenvalues --   -0.52311  -0.51422  -0.50703  -0.49740  -0.46750
 Alpha  occ. eigenvalues --   -0.45614  -0.43530  -0.42403  -0.39195  -0.32113
 Alpha  occ. eigenvalues --   -0.27789
 Alpha virt. eigenvalues --    0.03471   0.03947   0.04676   0.04927   0.05321
 Alpha virt. eigenvalues --    0.05635   0.06215   0.06894   0.07457   0.08254
 Alpha virt. eigenvalues --    0.08773   0.09287   0.09981   0.11048   0.12306

 Mulliken charges:
               1
     1  N   -2.814480
     2  C   -1.610398
     3  C    7.319484
     4  O   -3.474150
     5  O   -3.418357
     6  H    1.091320
     7  C    0.159689
     8  C   -3.598536
     9  C   -4.563116
    10  C   -4.139545
    11  H    1.640032
    12  H    1.871119
    13  H    1.333630
    14  H    1.471759
    15  H    1.200748
    16  H    1.229855
    17  H    1.309852
    18  H    1.076242
    19  H    1.266306
    20  H    1.430718
    21  H    0.619048
    22  H    0.598780
 Sum of Mulliken charges =   0.00000

 Dipole moment (field-independent basis, Debye):
    X=              2.6300    Y=              2.3007    Z=             -0.2622  Tot=              3.5041

 Test job not archived.
 1\1\GINC-SE038\SP\RHF\Aug-CC-pVDZ\C6H13N1O2\OHZDE\06-Apr-2025\0\\#t hf
  aug-cc-pvdz iop(5/13=1,5/36=2,99/5=2) pseudo=read geom=check guess=(r
 ead,tcheck) scf=(maxcycle=1)\\title\\0,1\N,0,-0.597265,1.880669,-0.121
 09\C,0,-0.495562,0.459188,-0.493741\C,0,-1.805491,-0.236189,-0.085662\
 O,0,-2.217442,-1.236297,-0.608791\O,0,-2.449652,0.365789,0.927683\H,0,
 -1.96815,1.206422,1.080701\C,0,0.740774,-0.181501,0.194975\C,0,2.03636
 1,0.322896,-0.47317\C,0,0.692385,-1.712042,0.209785\C,0,3.305554,0.081
 041,0.344256\H,0,-0.40247,0.308887,-1.572904\H,0,0.731995,0.170577,1.2

 Normal termination of Gaussian 16 at Sun Apr  6 08:20:57 2025.
