 Gaussian 16, Revision C.01,

 ----------------------------------------------------------------------
 #t hf aug-cc-pvdz symm=none int=(grid=ultrafine) guess=(read,tcheck) s
 table=(opt,rrhf)
 ----------------------------------------------------------------------
 -----
 title
 -----
 Symbolic Z-matrix:
 Charge =  0 Multiplicity = 1

 SCF Done:  E(RHF) =  -321.791211906     A.U. after   15 cycles
 Normal termination of Gaussian 16 at Sun Apr  6 08:17:48 2025.
 Gaussian 16:  ES64L-G16RevC.01  3-Jul-2019

 ----------------------------------------------------------------------
 #t hf aug-cc-pvdz iop(5/13=1,5/36=2,99/5=2) pseudo=read geom=check gue
 ss=(read,tcheck) scf=(maxcycle=1)
 ----------------------------------------------------------------------
 -----
 title
 -----
 Structure from the checkpoint file:  "isopropyl_nitrite.chk"
 Charge =  0 Multiplicity = 1

                         Standard orientation:
 ---------------------------------------------------------------------
 Center     Atomic      Atomic             Coordinates (Angstroms)
 Number     Number       Type             X           Y           Z
 ---------------------------------------------------------------------
      1          1           0        1.230807   -0.798909   -0.000000
      2          6           0        0.140652   -0.856817   -0.000000
      3          1           0        0.007049   -2.562492    1.308766
      4          1           0       -1.436380   -1.541527    1.309424
      5          1           0        0.023820   -1.009617    2.153756
      6          6           0       -0.346546   -1.531370    1.272020
      7          1           0        0.007049   -2.562492   -1.308766
      8          1           0        0.023820   -1.009617   -2.153756
      9          1           0       -1.436380   -1.541527   -1.309424
     10          6           0       -0.346546   -1.531370   -1.272020
     11          8           0       -0.346546    0.512894    0.000000
     12          8           0        0.328520    2.544021    0.000000
     13          7           0        0.719868    1.441172    0.000000
 ---------------------------------------------------------------------

 SCF Done:  E(RHF) =  -323.236914067     A.U. after    2 cycles

 The electronic state is 1-A'.
 Alpha  occ. eigenvalues --  -21.14482 -21.08947 -15.92817 -11.46275 -11.40018
 Alpha  occ. eigenvalues --  -11.36841  -1.96861  -1.72565  -1.19410  -1.02454
 Alpha  occ. eigenvalues --   -0.95748  -0.84656  -0.68144  -0.65343  -0.62141
 Alpha  occ. eigenvalues --   -0.58721  -0.57057  -0.56358  -0.55007  -0.48890
 Alpha  occ. eigenvalues --   -0.47688  -0.41307  -0.32663  -0.29372
 Alpha virt. eigenvalues --    0.03699   0.05564   0.05677   0.05848   0.06151
 Alpha virt. eigenvalues --    0.06569   0.07098   0.10994   0.12166   0.12633
 Alpha virt. eigenvalues --    0.13522   0.14664   0.15152   0.15871   0.16158

 Mulliken charges:
               1
     1  H    1.791362
     2  C   -0.160023
     3  H    1.234203
     4  H    1.235759
     5  H    1.268687
     6  C   -3.525761
     7  H    1.234203
     8  H    1.268687
     9  H    1.235759
    10  C   -3.525761
    11  O   -2.774771
    12  O   -2.061108
    13  N    2.778763
 Sum of Mulliken charges =  -0.00000

 Dipole moment (field-independent basis, Debye):
    X=             -0.4666    Y=             -1.4624    Z=              0.0000  Tot=              1.5351

 Test job not archived.
 1\1\GINC-SE155\SP\RHF\Aug-CC-pVDZ\C3H7N1O2\OHZDE\06-Apr-2025\0\\#t hf
 aug-cc-pvdz iop(5/13=1,5/36=2,99/5=2) pseudo=read geom=check guess=(re
 ad,tcheck) scf=(maxcycle=1)\\title\\0,1\H,0,1.230807,-0.798909,0.\C,0,
 0.140652,-0.856817,0.\H,0,0.007049,-2.562492,1.308766\H,0,-1.43638,-1.
 541527,1.309424\H,0,0.02382,-1.009617,2.153756\C,0,-0.346546,-1.53137,
 1.27202\H,0,0.007049,-2.562492,-1.308766\H,0,0.02382,-1.009617,-2.1537
 56\H,0,-1.43638,-1.541527,-1.309424\C,0,-0.346546,-1.53137,-1.27202\O,
 0,-0.346546,0.512894,0.\O,0,0.32852,2.544021,0.\N,0,0.719868,1.441172,

 Normal termination of Gaussian 16 at Sun Apr  6 08:19:04 2025.
