 Gaussian 16, Revision C.01,

 ----------------------------------------------------------------------
 #t hf aug-cc-pvdz symm=none int=(grid=ultrafine) guess=(read,tcheck) s
 table=(opt,rrhf)
 ----------------------------------------------------------------------
 -----
 title
 -----
 Symbolic Z-matrix:
 Charge =  0 Multiplicity = 1

 SCF Done:  E(RHF) =  -346.658761193     A.U. after   15 cycles
 Normal termination of Gaussian 16 at Sun Apr  6 08:18:57 2025.
 Gaussian 16:  ES64L-G16RevC.01  3-Jul-2019

 ----------------------------------------------------------------------
 #t hf aug-cc-pvdz iop(5/13=1,5/36=2,99/5=2) pseudo=read geom=check gue
 ss=(read,tcheck) scf=(maxcycle=1)
 ----------------------------------------------------------------------
 -----
 title
 -----
 Structure from the checkpoint file:  "isopropenylbenzene.chk"
 Charge =  0 Multiplicity = 1

                         Standard orientation:
 ---------------------------------------------------------------------
 Center     Atomic      Atomic             Coordinates (Angstroms)
 Number     Number       Type             X           Y           Z
 ---------------------------------------------------------------------
      1          6           0       -2.607951   -0.070177   -0.002533
      2          6           0       -1.956385    1.138080    0.223390
      3          6           0       -1.855508   -1.217102   -0.220271
      4          6           0       -0.570564    1.197284    0.222786
      5          6           0       -0.467158   -1.156536   -0.216683
      6          6           0        0.205539    0.053889   -0.010474
      7          6           0        2.337269    1.223085   -0.419484
      8          6           0        1.689055    0.121675   -0.030681
      9          6           0        2.453037   -1.107640    0.391878
     10          1           0       -3.688478   -0.117438    0.001289
     11          1           0       -2.529999    2.035788    0.412585
     12          1           0       -2.348629   -2.164590   -0.392684
     13          1           0       -0.080152    2.138271    0.429309
     14          1           0        0.095144   -2.062538   -0.391815
     15          1           0        3.417985    1.266340   -0.413429
     16          1           0        1.818583    2.103555   -0.771554
     17          1           0        2.308302   -1.930951   -0.311139
     18          1           0        2.122756   -1.463201    1.369923
     19          1           0        3.520478   -0.900594    0.439945
 ---------------------------------------------------------------------

 SCF Done:  E(RHF) =  -348.362686212     A.U. after    2 cycles

 The electronic state is 1-A.
 Alpha  occ. eigenvalues --  -11.51441 -11.44476 -11.42969 -11.41934 -11.40477
 Alpha  occ. eigenvalues --  -11.40318 -11.38530 -11.37815 -11.35767  -1.36251
 Alpha  occ. eigenvalues --   -1.21262  -1.09158  -1.06918  -0.99511  -0.87777
 Alpha  occ. eigenvalues --   -0.85793  -0.76742  -0.70729  -0.64409  -0.61737
 Alpha  occ. eigenvalues --   -0.59745  -0.58065  -0.57240  -0.53651  -0.51517
 Alpha  occ. eigenvalues --   -0.50153  -0.48681  -0.43794  -0.42198  -0.37629
 Alpha  occ. eigenvalues --   -0.32835  -0.29405
 Alpha virt. eigenvalues --    0.03335   0.04866   0.05031   0.05728   0.06076
 Alpha virt. eigenvalues --    0.06242   0.06915   0.07161   0.07489   0.08915
 Alpha virt. eigenvalues --    0.09248   0.10981   0.11336   0.12225   0.12971

 Mulliken charges:
               1
     1  C   -3.261335
     2  C   -3.020388
     3  C   -2.980221
     4  C   -1.511560
     5  C   -1.475788
     6  C    5.852054
     7  C   -5.168273
     8  C    1.846540
     9  C   -5.248242
    10  H    1.532029
    11  H    1.473797
    12  H    1.469662
    13  H    1.836378
    14  H    1.843959
    15  H    1.593768
    16  H    1.614383
    17  H    1.078671
    18  H    1.269519
    19  H    1.255048
 Sum of Mulliken charges =   0.00000

 Dipole moment (field-independent basis, Debye):
    X=             -0.1141    Y=             -0.2649    Z=              0.0906  Tot=              0.3023

 Test job not archived.
 1\1\GINC-SE106\SP\RHF\Aug-CC-pVDZ\C9H10\OHZDE\06-Apr-2025\0\\#t hf aug
 -cc-pvdz iop(5/13=1,5/36=2,99/5=2) pseudo=read geom=check guess=(read,
 tcheck) scf=(maxcycle=1)\\title\\0,1\C,0,-2.607951,-0.070177,-0.002533
 \C,0,-1.956385,1.13808,0.22339\C,0,-1.855508,-1.217102,-0.220271\C,0,-
 0.570564,1.197284,0.222786\C,0,-0.467158,-1.156536,-0.216683\C,0,0.205
 539,0.053889,-0.010474\C,0,2.337269,1.223085,-0.419484\C,0,1.689055,0.
 121675,-0.030681\C,0,2.453037,-1.10764,0.391878\H,0,-3.688478,-0.11743
 8,0.001289\H,0,-2.529999,2.035788,0.412585\H,0,-2.348629,-2.16459,-0.3

 Normal termination of Gaussian 16 at Sun Apr  6 08:19:10 2025.
