 Gaussian 16, Revision C.01,

 ----------------------------------------------------------------------
 #t hf aug-cc-pvdz symm=none int=(grid=ultrafine) guess=(read,tcheck) s
 table=(opt,rrhf)
 ----------------------------------------------------------------------
 -----
 title
 -----
 Symbolic Z-matrix:
 Charge =  0 Multiplicity = 1

 SCF Done:  E(RHF) =  -234.190708457     A.U. after   12 cycles
 Normal termination of Gaussian 16 at Sun Apr  6 08:18:15 2025.
 Gaussian 16:  ES64L-G16RevC.01  3-Jul-2019

 ----------------------------------------------------------------------
 #t hf aug-cc-pvdz iop(5/13=1,5/36=2,99/5=2) pseudo=read geom=check gue
 ss=(read,tcheck) scf=(maxcycle=1)
 ----------------------------------------------------------------------
 -----
 title
 -----
 Structure from the checkpoint file:  "isopropylcyclopropane.chk"
 Charge =  0 Multiplicity = 1

                         Standard orientation:
 ---------------------------------------------------------------------
 Center     Atomic      Atomic             Coordinates (Angstroms)
 Number     Number       Type             X           Y           Z
 ---------------------------------------------------------------------
      1          6           0        0.467629    0.583634   -0.000000
      2          6           0       -0.031191    1.784928    0.753865
      3          6           0       -0.031191    1.784928   -0.753865
      4          6           0       -0.315789   -0.714728    0.000000
      5          6           0       -0.031191   -1.532744    1.263884
      6          6           0       -0.031191   -1.532744   -1.263884
      7          1           0        1.544280    0.445861    0.000000
      8          1           0       -0.986654    1.703209   -1.255077
      9          1           0        0.685059    2.411395    1.266643
     10          1           0        0.685059    2.411395   -1.266643
     11          1           0       -0.986654    1.703209    1.255077
     12          1           0       -0.623644   -2.449214    1.283788
     13          1           0       -0.623644   -2.449214   -1.283788
     14          1           0       -0.260425   -0.962286   -2.164879
     15          1           0       -0.260425   -0.962286    2.164879
     16          1           0        1.022414   -1.819061   -1.310538
     17          1           0        1.022414   -1.819061    1.310538
     18          1           0       -1.380233   -0.453598   -0.000000
 ---------------------------------------------------------------------

 SCF Done:  E(RHF) =  -235.410895671     A.U. after    2 cycles

 The electronic state is 1-A'.
 Alpha  occ. eigenvalues --  -11.42860 -11.41680 -11.39158 -11.37593 -11.35809
 Alpha  occ. eigenvalues --  -11.34214  -1.33063  -1.16906  -0.99418  -0.88836
 Alpha  occ. eigenvalues --   -0.85496  -0.78741  -0.66477  -0.63706  -0.59289
 Alpha  occ. eigenvalues --   -0.55728  -0.55057  -0.52652  -0.50028  -0.46048
 Alpha  occ. eigenvalues --   -0.45758  -0.43260  -0.37384  -0.36475
 Alpha virt. eigenvalues --    0.04417   0.05328   0.05364   0.05673   0.05807
 Alpha virt. eigenvalues --    0.05824   0.05953   0.06560   0.06715   0.08514
 Alpha virt. eigenvalues --    0.08847   0.09146   0.12704   0.13095   0.14060

 Mulliken charges:
               1
     1  C    0.811071
     2  C   -2.794679
     3  C   -2.794679
     4  C   -2.893202
     5  C   -4.119013
     6  C   -4.119013
     7  H    1.395917
     8  H    1.376058
     9  H    1.246924
    10  H    1.246924
    11  H    1.376058
    12  H    1.204961
    13  H    1.204961
    14  H    1.309569
    15  H    1.309569
    16  H    1.315340
    17  H    1.315340
    18  H    1.607892
 Sum of Mulliken charges =  -0.00000

 Dipole moment (field-independent basis, Debye):
    X=             -0.0277    Y=              0.0603    Z=              0.0000  Tot=              0.0664

 Test job not archived.
 1\1\GINC-SE208\SP\RHF\Aug-CC-pVDZ\C6H12\OHZDE\06-Apr-2025\0\\#t hf aug
 -cc-pvdz iop(5/13=1,5/36=2,99/5=2) pseudo=read geom=check guess=(read,
 tcheck) scf=(maxcycle=1)\\title\\0,1\C,0,0.467629,0.583634,0.\C,0,-0.0
 31191,1.784928,0.753865\C,0,-0.031191,1.784928,-0.753865\C,0,-0.315789
 ,-0.714728,0.\C,0,-0.031191,-1.532744,1.263884\C,0,-0.031191,-1.532744
 ,-1.263884\H,0,1.54428,0.445861,0.\H,0,-0.986654,1.703209,-1.255077\H,
 0,0.685059,2.411395,1.266643\H,0,0.685059,2.411395,-1.266643\H,0,-0.98
 6654,1.703209,1.255077\H,0,-0.623644,-2.449214,1.283788\H,0,-0.623644,

 Normal termination of Gaussian 16 at Sun Apr  6 08:19:04 2025.
