 Gaussian 16, Revision C.01,

 ----------------------------------------------------------------------
 #t hf aug-cc-pvdz symm=none int=(grid=ultrafine) guess=(read,tcheck) s
 table=(opt,rrhf)
 ----------------------------------------------------------------------
 -----
 title
 -----
 Symbolic Z-matrix:
 Charge =  0 Multiplicity = 1

 SCF Done:  E(RHF) =  -305.908222856     A.U. after   14 cycles
 Normal termination of Gaussian 16 at Sun Apr  6 08:17:53 2025.
 Gaussian 16:  ES64L-G16RevC.01  3-Jul-2019

 ----------------------------------------------------------------------
 #t hf aug-cc-pvdz iop(5/13=1,5/36=2,99/5=2) pseudo=read geom=check gue
 ss=(read,tcheck) scf=(maxcycle=1)
 ----------------------------------------------------------------------
 -----
 title
 -----
 Structure from the checkpoint file:  "isopropyl_formate.chk"
 Charge =  0 Multiplicity = 1

                         Standard orientation:
 ---------------------------------------------------------------------
 Center     Atomic      Atomic             Coordinates (Angstroms)
 Number     Number       Type             X           Y           Z
 ---------------------------------------------------------------------
      1          6           0        1.617743   -0.394675    0.283252
      2          6           0       -1.893251   -0.863530   -0.252957
      3          6           0       -0.944016    1.436162    0.264110
      4          6           0       -0.675794    0.040279   -0.273129
      5          8           0        2.051181    0.295615   -0.599753
      6          8           0        0.330551   -0.615131    0.565758
      7          1           0        2.240430   -0.955104    0.992486
      8          1           0       -2.678480   -0.440562   -0.880088
      9          1           0       -1.648581   -1.854994   -0.632319
     10          1           0       -2.282128   -0.967445    0.760564
     11          1           0       -1.698111    1.930159   -0.349869
     12          1           0       -0.039874    2.042006    0.242524
     13          1           0       -1.314363    1.388173    1.289063
     14          1           0       -0.260844    0.104471   -1.278058
 ---------------------------------------------------------------------

 SCF Done:  E(RHF) =  -307.293265300     A.U. after    2 cycles

 The electronic state is 1-A.
 Alpha  occ. eigenvalues --  -21.09054 -21.05521 -11.50507 -11.45759 -11.39952
 Alpha  occ. eigenvalues --  -11.36549  -1.83852  -1.66557  -1.19463  -1.02137
 Alpha  occ. eigenvalues --   -0.90323  -0.79547  -0.70426  -0.62251  -0.60712
 Alpha  occ. eigenvalues --   -0.58083  -0.54958  -0.52945  -0.52175  -0.47809
 Alpha  occ. eigenvalues --   -0.47315  -0.40595  -0.31962  -0.30621
 Alpha virt. eigenvalues --    0.03721   0.05272   0.05713   0.05762   0.05900
 Alpha virt. eigenvalues --    0.06415   0.07032   0.07704   0.10669   0.11593
 Alpha virt. eigenvalues --    0.12195   0.14241   0.14867   0.15510   0.15731

 Mulliken charges:
               1
     1  C    2.367491
     2  C   -3.635578
     3  C   -3.521699
     4  C   -0.518439
     5  O   -2.520374
     6  O   -3.129211
     7  H    1.663516
     8  H    1.179097
     9  H    1.282769
    10  H    1.223933
    11  H    1.204695
    12  H    1.236993
    13  H    1.311901
    14  H    1.854906
 Sum of Mulliken charges =  -0.00000

 Dipole moment (field-independent basis, Debye):
    X=             -1.5245    Y=             -0.3204    Z=              0.3611  Tot=              1.5991

 Test job not archived.
 1\1\GINC-SE136\SP\RHF\Aug-CC-pVDZ\C4H8O2\OHZDE\06-Apr-2025\0\\#t hf au
 g-cc-pvdz iop(5/13=1,5/36=2,99/5=2) pseudo=read geom=check guess=(read
 ,tcheck) scf=(maxcycle=1)\\title\\0,1\C,0,1.617743,-0.394675,0.283252\
 C,0,-1.893251,-0.86353,-0.252957\C,0,-0.944016,1.436162,0.26411\C,0,-0
 .675794,0.040279,-0.273129\O,0,2.051181,0.295615,-0.599753\O,0,0.33055
 1,-0.615131,0.565758\H,0,2.24043,-0.955104,0.992486\H,0,-2.67848,-0.44
 0562,-0.880088\H,0,-1.648581,-1.854994,-0.632319\H,0,-2.282128,-0.9674
 45,0.760564\H,0,-1.698111,1.930159,-0.349869\H,0,-0.039874,2.042006,0.

 Normal termination of Gaussian 16 at Sun Apr  6 08:19:04 2025.
