 Gaussian 16, Revision C.01,

 ----------------------------------------------------------------------
 #t hf aug-cc-pvdz symm=none int=(grid=ultrafine) guess=(read,tcheck) s
 table=(opt,rrhf)
 ----------------------------------------------------------------------
 -----
 title
 -----
 Symbolic Z-matrix:
 Charge =  0 Multiplicity = 1

 SCF Done:  E(RHF) =  -344.959103048     A.U. after   13 cycles

 1\1\GINC-SE108\Stability\RHF\Aug-CC-pVDZ\C5H10O2\OHZDE\06-Apr-2025\0\\
 #t hf aug-cc-pvdz symm=none int=(grid=ultrafine) guess=(read,tcheck) s
 table=(opt,rrhf)\\title\\0,1\C,0,1.268727,0.080167,-0.135548\C,0,2.457
 391,-0.631709,0.455479\C,0,-2.121048,-1.091773,-0.335245\C,0,-1.578136
 ,1.16503,0.695009\C,0,-1.134427,0.057348,-0.246875\O,0,1.327987,1.0537
 24,-0.845937\O,0,0.117817,-0.516965,0.234551\H,0,2.448277,-1.682083,0.
 165657\H,0,2.406702,-0.594627,1.543829\H,0,3.371738,-0.157764,0.112852
 \H,0,-3.078523,-0.731193,-0.712382\H,0,-1.756978,-1.866034,-1.009806\H

 Normal termination of Gaussian 16 at Sun Apr  6 08:19:01 2025.
 Gaussian 16:  ES64L-G16RevC.01  3-Jul-2019

 ----------------------------------------------------------------------
 #t hf aug-cc-pvdz iop(5/13=1,5/36=2,99/5=2) pseudo=read geom=check gue
 ss=(read,tcheck) scf=(maxcycle=1)
 ----------------------------------------------------------------------
 -----
 title
 -----
 Structure from the checkpoint file:  "isopropyl_acetate.chk"
 Charge =  0 Multiplicity = 1

                         Standard orientation:
 ---------------------------------------------------------------------
 Center     Atomic      Atomic             Coordinates (Angstroms)
 Number     Number       Type             X           Y           Z
 ---------------------------------------------------------------------
      1          6           0        1.268727    0.080167   -0.135548
      2          6           0        2.457391   -0.631709    0.455479
      3          6           0       -2.121048   -1.091773   -0.335245
      4          6           0       -1.578136    1.165030    0.695009
      5          6           0       -1.134427    0.057348   -0.246875
      6          8           0        1.327987    1.053724   -0.845937
      7          8           0        0.117817   -0.516965    0.234551
      8          1           0        2.448277   -1.682083    0.165657
      9          1           0        2.406702   -0.594627    1.543829
     10          1           0        3.371738   -0.157764    0.112852
     11          1           0       -3.078523   -0.731193   -0.712382
     12          1           0       -1.756978   -1.866034   -1.009806
     13          1           0       -2.285710   -1.538625    0.646050
     14          1           0       -2.518095    1.595146    0.346575
     15          1           0       -0.836390    1.960880    0.734621
     16          1           0       -1.733027    0.773621    1.701565
     17          1           0       -0.939471    0.472232   -1.234796
 ---------------------------------------------------------------------

 SCF Done:  E(RHF) =  -346.548535509     A.U. after    2 cycles

 The electronic state is 1-A.
 Alpha  occ. eigenvalues --  -21.07769 -21.04136 -11.51901 -11.45189 -11.39603
 Alpha  occ. eigenvalues --  -11.39019 -11.36103  -1.83434  -1.65674  -1.19553
 Alpha  occ. eigenvalues --   -1.09442  -1.01642  -0.86366  -0.75196  -0.67206
 Alpha  occ. eigenvalues --   -0.62594  -0.61256  -0.59153  -0.57374  -0.55984
 Alpha  occ. eigenvalues --   -0.54409  -0.50333  -0.49625  -0.46671  -0.45404
 Alpha  occ. eigenvalues --   -0.39693  -0.31395  -0.28983
 Alpha virt. eigenvalues --    0.03552   0.05088   0.05235   0.05659   0.05859
 Alpha virt. eigenvalues --    0.06008   0.06651   0.07426   0.07473   0.08742
 Alpha virt. eigenvalues --    0.10714   0.12202   0.13073   0.14211   0.14576

 Mulliken charges:
               1
     1  C    5.809275
     2  C   -4.633851
     3  C   -3.748449
     4  C   -3.837839
     5  C   -0.156248
     6  O   -3.125982
     7  O   -3.662103
     8  H    1.295710
     9  H    1.311923
    10  H    1.252409
    11  H    1.183900
    12  H    1.317173
    13  H    1.273014
    14  H    1.204073
    15  H    1.266563
    16  H    1.335219
    17  H    1.915213
 Sum of Mulliken charges =   0.00000

 Dipole moment (field-independent basis, Debye):
    X=             -0.7786    Y=             -0.9789    Z=              0.6177  Tot=              1.3950

 Test job not archived.
 1\1\GINC-SE108\SP\RHF\Aug-CC-pVDZ\C5H10O2\OHZDE\06-Apr-2025\0\\#t hf a
 ug-cc-pvdz iop(5/13=1,5/36=2,99/5=2) pseudo=read geom=check guess=(rea
 d,tcheck) scf=(maxcycle=1)\\title\\0,1\C,0,1.268727,0.080167,-0.135548
 \C,0,2.457391,-0.631709,0.455479\C,0,-2.121048,-1.091773,-0.335245\C,0
 ,-1.578136,1.16503,0.695009\C,0,-1.134427,0.057348,-0.246875\O,0,1.327
 987,1.053724,-0.845937\O,0,0.117817,-0.516965,0.234551\H,0,2.448277,-1
 .682083,0.165657\H,0,2.406702,-0.594627,1.543829\H,0,3.371738,-0.15776
 4,0.112852\H,0,-3.078523,-0.731193,-0.712382\H,0,-1.756978,-1.866034,-

 Normal termination of Gaussian 16 at Sun Apr  6 08:19:08 2025.
