 Gaussian 16, Revision C.01,

 ----------------------------------------------------------------------
 #t hf aug-cc-pvdz symm=none int=(grid=ultrafine) guess=(read,tcheck) s
 table=(opt,rrhf)
 ----------------------------------------------------------------------
 -----
 title
 -----
 Symbolic Z-matrix:
 Charge =  0 Multiplicity = 1

 SCF Done:  E(RHF) =  -396.609586974     A.U. after   15 cycles
 Normal termination of Gaussian 16 at Sun Apr  6 08:17:57 2025.
 Gaussian 16:  ES64L-G16RevC.01  3-Jul-2019

 ----------------------------------------------------------------------
 #t hf aug-cc-pvdz iop(5/13=1,5/36=2,99/5=2) pseudo=read geom=check gue
 ss=(read,tcheck) scf=(maxcycle=1)
 ----------------------------------------------------------------------
 -----
 title
 -----
 Structure from the checkpoint file:  "isopropyl_nitrate.chk"
 Charge =  0 Multiplicity = 1

                         Standard orientation:
 ---------------------------------------------------------------------
 Center     Atomic      Atomic             Coordinates (Angstroms)
 Number     Number       Type             X           Y           Z
 ---------------------------------------------------------------------
      1          7           0        1.373307   -0.063009    0.041264
      2          8           0        1.396548    0.879733    0.795043
      3          8           0        2.285464   -0.632107   -0.489189
      4          8           0        0.119309   -0.621395   -0.286499
      5          6           0       -1.052332    0.063916    0.267361
      6          6           0       -1.394970    1.283353   -0.571030
      7          6           0       -2.136583   -0.999878    0.268157
      8          1           0       -0.806612    0.356435    1.286240
      9          1           0       -0.581577    2.006220   -0.570003
     10          1           0       -1.610830    0.992297   -1.599382
     11          1           0       -2.278986    1.772046   -0.159761
     12          1           0       -1.843059   -1.856641    0.872465
     13          1           0       -3.052372   -0.580247    0.684532
     14          1           0       -2.346969   -1.343252   -0.744705
 ---------------------------------------------------------------------

 SCF Done:  E(RHF) =  -398.363219066     A.U. after    2 cycles

 The electronic state is 1-A.
 Alpha  occ. eigenvalues --  -21.13014 -21.11827 -21.11609 -16.05348 -11.47711
 Alpha  occ. eigenvalues --  -11.41351 -11.38018  -2.08171  -1.76105  -1.73257
 Alpha  occ. eigenvalues --   -1.21218  -1.03650  -0.94831  -0.83437  -0.74490
 Alpha  occ. eigenvalues --   -0.72235  -0.66736  -0.63952  -0.60020  -0.58394
 Alpha  occ. eigenvalues --   -0.56210  -0.51232  -0.50109  -0.45611  -0.37357
 Alpha  occ. eigenvalues --   -0.36299  -0.33650  -0.32114
 Alpha virt. eigenvalues --    0.03422   0.05193   0.05360   0.05732   0.05860
 Alpha virt. eigenvalues --    0.06587   0.07203   0.11216   0.11997   0.13374
 Alpha virt. eigenvalues --    0.13961   0.14610   0.14934   0.15432   0.16073

 Mulliken charges:
               1
     1  N    6.566059
     2  O   -2.695744
     3  O   -2.799093
     4  O   -3.098654
     5  C   -0.422462
     6  C   -3.543889
     7  C   -3.636594
     8  H    2.030389
     9  H    1.295333
    10  H    1.307260
    11  H    1.227891
    12  H    1.334408
    13  H    1.187970
    14  H    1.247125
 Sum of Mulliken charges =   0.00000

 Dipole moment (field-independent basis, Debye):
    X=             -2.7608    Y=             -0.0319    Z=              0.1716  Tot=              2.7663

 Test job not archived.
 1\1\GINC-SE146\SP\RHF\Aug-CC-pVDZ\C3H7N1O3\OHZDE\06-Apr-2025\0\\#t hf
 aug-cc-pvdz iop(5/13=1,5/36=2,99/5=2) pseudo=read geom=check guess=(re
 ad,tcheck) scf=(maxcycle=1)\\title\\0,1\N,0,1.373307,-0.063009,0.04126
 4\O,0,1.396548,0.879733,0.795043\O,0,2.285464,-0.632107,-0.489189\O,0,
 0.119309,-0.621395,-0.286499\C,0,-1.052332,0.063916,0.267361\C,0,-1.39
 497,1.283353,-0.57103\C,0,-2.136583,-0.999878,0.268157\H,0,-0.806612,0
 .356435,1.28624\H,0,-0.581577,2.00622,-0.570003\H,0,-1.61083,0.992297,
 -1.599382\H,0,-2.278986,1.772046,-0.159761\H,0,-1.843059,-1.856641,0.8

 Normal termination of Gaussian 16 at Sun Apr  6 08:19:05 2025.
