 Gaussian 16, Revision C.01,

 ----------------------------------------------------------------------
 #t hf aug-cc-pvdz symm=none int=(grid=ultrafine) guess=(read,tcheck) s
 table=(opt,rrhf)
 ----------------------------------------------------------------------
 -----
 title
 -----
 Symbolic Z-matrix:
 Charge =  0 Multiplicity = 1

 SCF Done:  E(RHF) =  -347.844933814     A.U. after   14 cycles
 Normal termination of Gaussian 16 at Sun Apr  6 08:19:08 2025.
 Gaussian 16:  ES64L-G16RevC.01  3-Jul-2019

 ----------------------------------------------------------------------
 #t hf aug-cc-pvdz iop(5/13=1,5/36=2,99/5=2) pseudo=read geom=check gue
 ss=(read,tcheck) scf=(maxcycle=1)
 ----------------------------------------------------------------------
 -----
 title
 -----
 Structure from the checkpoint file:  "isopropylbenzene.chk"
 Charge =  0 Multiplicity = 1

                         Standard orientation:
 ---------------------------------------------------------------------
 Center     Atomic      Atomic             Coordinates (Angstroms)
 Number     Number       Type             X           Y           Z
 ---------------------------------------------------------------------
      1          6           0       -0.601226   -2.584627    0.000000
      2          6           0        0.748982   -2.260917    0.000000
      3          6           0       -1.547135   -1.565096    0.000000
      4          6           0        1.146365   -0.928060    0.000000
      5          6           0       -1.144028   -0.236286    0.000000
      6          6           0        0.210818    0.106161    0.000000
      7          6           0        0.210818    2.299507    1.265971
      8          6           0        0.210818    2.299507   -1.265971
      9          6           0        0.662737    1.556271    0.000000
     10          1           0       -0.915190   -3.619865    0.000000
     11          1           0        1.495397   -3.044499    0.000000
     12          1           0       -2.602280   -1.805893    0.000000
     13          1           0        2.202394   -0.686488    0.000000
     14          1           0       -1.896202    0.542418    0.000000
     15          1           0       -0.877383    2.362280    1.320609
     16          1           0        0.602440    3.318326    1.273546
     17          1           0        0.560437    1.794019    2.166585
     18          1           0        0.560437    1.794019   -2.166585
     19          1           0        0.602440    3.318326   -1.273546
     20          1           0       -0.877383    2.362280   -1.320609
     21          1           0        1.755995    1.546317    0.000000
 ---------------------------------------------------------------------

 SCF Done:  E(RHF) =  -349.586136354     A.U. after    2 cycles

 The electronic state is 1-A'.
 Alpha  occ. eigenvalues --  -11.51474 -11.44615 -11.42560 -11.41164 -11.39959
 Alpha  occ. eigenvalues --  -11.39851 -11.38135 -11.37004 -11.35153  -1.35873
 Alpha  occ. eigenvalues --   -1.21376  -1.08582  -1.06455  -1.00030  -0.88584
 Alpha  occ. eigenvalues --   -0.85714  -0.79937  -0.70265  -0.65009  -0.62307
 Alpha  occ. eigenvalues --   -0.59410  -0.57257  -0.56458  -0.54959  -0.53483
 Alpha  occ. eigenvalues --   -0.50466  -0.49683  -0.46458  -0.44649  -0.42749
 Alpha  occ. eigenvalues --   -0.40234  -0.32443  -0.31252
 Alpha virt. eigenvalues --    0.03561   0.04678   0.05153   0.05732   0.05827
 Alpha virt. eigenvalues --    0.06057   0.06515   0.06613   0.06854   0.07570
 Alpha virt. eigenvalues --    0.08179   0.09773   0.11405   0.12054   0.12273

 Mulliken charges:
               1
     1  C   -3.344743
     2  C   -1.385137
     3  C   -1.981071
     4  C   -3.372094
     5  C   -2.462792
     6  C    6.592226
     7  C   -4.287067
     8  C   -4.287067
     9  C   -2.866379
    10  H    1.568055
    11  H    1.495227
    12  H    1.485637
    13  H    1.688106
    14  H    1.996776
    15  H    1.384700
    16  H    1.237440
    17  H    1.272210
    18  H    1.272210
    19  H    1.237440
    20  H    1.384700
    21  H    1.371623
 Sum of Mulliken charges =  -0.00000

 Dipole moment (field-independent basis, Debye):
    X=              0.1427    Y=              0.1880    Z=             -0.0000  Tot=              0.2360

 Test job not archived.
 1\1\GINC-SE165\SP\RHF\Aug-CC-pVDZ\C9H12\OHZDE\06-Apr-2025\0\\#t hf aug
 -cc-pvdz iop(5/13=1,5/36=2,99/5=2) pseudo=read geom=check guess=(read,
 tcheck) scf=(maxcycle=1)\\title\\0,1\C,0,-0.601226,-2.584627,0.\C,0,0.
 748982,-2.260917,0.\C,0,-1.547135,-1.565096,0.\C,0,1.146365,-0.92806,0
 .\C,0,-1.144028,-0.236286,0.\C,0,0.210818,0.106161,0.\C,0,0.210818,2.2
 99507,1.265971\C,0,0.210818,2.299507,-1.265971\C,0,0.662737,1.556271,0
 .\H,0,-0.91519,-3.619865,0.\H,0,1.495397,-3.044499,0.\H,0,-2.60228,-1.
 805893,0.\H,0,2.202394,-0.686488,0.\H,0,-1.896202,0.542418,0.\H,0,-0.8

 Normal termination of Gaussian 16 at Sun Apr  6 08:19:22 2025.
