 Gaussian 16, Revision C.01,

 ----------------------------------------------------------------------
 #t hf aug-cc-pvdz symm=none int=(grid=ultrafine) guess=(read,tcheck) s
 table=(opt,rrhf)
 ----------------------------------------------------------------------
 -----
 title
 -----
 Symbolic Z-matrix:
 Charge =  0 Multiplicity = 1

 SCF Done:  E(RHF) =  -399.390820874     A.U. after   16 cycles
 Normal termination of Gaussian 16 at Sun Apr  6 08:20:45 2025.
 Gaussian 16:  ES64L-G16RevC.01  3-Jul-2019

 ----------------------------------------------------------------------
 #t hf aug-cc-pvdz iop(5/13=1,5/36=2,99/5=2) pseudo=read geom=check gue
 ss=(read,tcheck) scf=(maxcycle=1)
 ----------------------------------------------------------------------
 -----
 title
 -----
 Structure from the checkpoint file:  "isoquinoline.chk"
 Charge =  0 Multiplicity = 1

                         Standard orientation:
 ---------------------------------------------------------------------
 Center     Atomic      Atomic             Coordinates (Angstroms)
 Number     Number       Type             X           Y           Z
 ---------------------------------------------------------------------
      1          7           0       -2.411694    0.770500   -0.000000
      2          6           0       -1.247199    1.371403   -0.000000
      3          6           0        0.000000    0.696957    0.000000
      4          6           0       -0.018996   -0.725328   -0.000000
      5          6           0       -1.285073   -1.354625   -0.000000
      6          6           0       -2.419419   -0.587737   -0.000000
      7          6           0        1.211455   -1.424550    0.000000
      8          6           0        2.397856   -0.737303    0.000000
      9          6           0        2.414486    0.675356    0.000000
     10          6           0        1.238322    1.379037    0.000000
     11          1           0       -1.255568    2.457887   -0.000000
     12          1           0       -1.354484   -2.434581   -0.000000
     13          1           0       -3.398779   -1.049785   -0.000000
     14          1           0        1.202991   -2.506847    0.000000
     15          1           0        3.334572   -1.278500    0.000000
     16          1           0        3.361605    1.197408    0.000000
     17          1           0        1.242936    2.461653    0.000000
 ---------------------------------------------------------------------

 SCF Done:  E(RHF) =  -401.275418605     A.U. after    2 cycles

 The electronic state is 1-A'.
 Alpha  occ. eigenvalues --  -15.73669 -11.52177 -11.47572 -11.45078 -11.44488
 Alpha  occ. eigenvalues --  -11.44182 -11.42573 -11.42353 -11.40641 -11.37567
 Alpha  occ. eigenvalues --   -1.46406  -1.31948  -1.16767  -1.12767  -1.06943
 Alpha  occ. eigenvalues --   -0.92299  -0.89294  -0.86452  -0.73475  -0.71528
 Alpha  occ. eigenvalues --   -0.67318  -0.64059  -0.59821  -0.58413  -0.56077
 Alpha  occ. eigenvalues --   -0.54909  -0.52580  -0.48104  -0.47592  -0.43738
 Alpha  occ. eigenvalues --   -0.39663  -0.35292  -0.33782  -0.29000
 Alpha virt. eigenvalues --    0.03107   0.04619   0.04858   0.05884   0.06280
 Alpha virt. eigenvalues --    0.07031   0.07636   0.08578   0.09270   0.09891
 Alpha virt. eigenvalues --    0.10833   0.11374   0.11661   0.12221   0.13199

 Mulliken charges:
               1
     1  N   -4.004457
     2  C   -2.556567
     3  C    3.847856
     4  C    5.504137
     5  C   -3.414202
     6  C   -1.724843
     7  C   -1.350203
     8  C   -3.225315
     9  C   -3.311721
    10  C   -0.623746
    11  H    1.441980
    12  H    1.496048
    13  H    1.451423
    14  H    1.752804
    15  H    1.469988
    16  H    1.496831
    17  H    1.749986
 Sum of Mulliken charges =  -0.00000

 Dipole moment (field-independent basis, Debye):
    X=              2.0542    Y=             -0.7635    Z=              0.0000  Tot=              2.1915

 Test job not archived.
 1\1\GINC-SE013\SP\RHF\Aug-CC-pVDZ\C9H7N1\OHZDE\06-Apr-2025\0\\#t hf au
 g-cc-pvdz iop(5/13=1,5/36=2,99/5=2) pseudo=read geom=check guess=(read
 ,tcheck) scf=(maxcycle=1)\\title\\0,1\N,0,-2.411694,0.7705,0.\C,0,-1.2
 47199,1.371403,0.\C,0,0.,0.696957,0.\C,0,-0.018996,-0.725328,0.\C,0,-1
 .285073,-1.354625,0.\C,0,-2.419419,-0.587737,0.\C,0,1.211455,-1.42455,
 0.\C,0,2.397856,-0.737303,0.\C,0,2.414486,0.675356,0.\C,0,1.238322,1.3
 79037,0.\H,0,-1.255568,2.457887,0.\H,0,-1.354484,-2.434581,0.\H,0,-3.3
 98779,-1.049786,0.\H,0,1.202991,-2.506847,0.\H,0,3.334572,-1.2785,0.\H

 Normal termination of Gaussian 16 at Sun Apr  6 08:20:58 2025.
