 Gaussian 16, Revision C.01,

 ----------------------------------------------------------------------
 #t hf aug-cc-pvdz symm=none int=(grid=ultrafine) guess=(read,tcheck) s
 table=(opt,rrhf)
 ----------------------------------------------------------------------
 -----
 title
 -----
 Symbolic Z-matrix:
 Charge =  0 Multiplicity = 1

 SCF Done:  E(RHF) =  -567.322866073     A.U. after   15 cycles
 Normal termination of Gaussian 16 at Sun Apr  6 08:17:34 2025.
 Gaussian 16:  ES64L-G16RevC.01  3-Jul-2019

 ----------------------------------------------------------------------
 #t hf aug-cc-pvdz iop(5/13=1,5/36=2,99/5=2) pseudo=read geom=check gue
 ss=(read,tcheck) scf=(maxcycle=1)
 ----------------------------------------------------------------------
 -----
 title
 -----
 Structure from the checkpoint file:  "isothiazole.chk"
 Charge =  0 Multiplicity = 1

                         Standard orientation:
 ---------------------------------------------------------------------
 Center     Atomic      Atomic             Coordinates (Angstroms)
 Number     Number       Type             X           Y           Z
 ---------------------------------------------------------------------
      1          6           0        0.654473   -1.275757    0.000000
      2          6           0       -0.759568   -1.159013    0.000000
      3          6           0        1.232534   -0.038075    0.000000
      4          7           0       -1.256067    0.058336    0.000000
      5         16           0        0.000000    1.151175    0.000000
      6          1           0        1.194557   -2.209548    0.000000
      7          1           0       -1.446653   -1.995169    0.000000
      8          1           0        2.279932    0.214642    0.000000
 ---------------------------------------------------------------------

 SCF Done:  E(RHF) =  -568.341417409     A.U. after    2 cycles

 The electronic state is 1-A'.
 Alpha  occ. eigenvalues --  -75.73176 -15.75617 -13.20596 -13.17526 -13.04525
 Alpha  occ. eigenvalues --  -11.46573 -11.44424 -11.39286  -8.07746  -1.48103
 Alpha  occ. eigenvalues --   -1.15385  -1.10601  -0.83230  -0.79500  -0.72204
 Alpha  occ. eigenvalues --   -0.55692  -0.54839  -0.52482  -0.40919  -0.38763
 Alpha  occ. eigenvalues --   -0.36486  -0.27662
 Alpha virt. eigenvalues --    0.02825   0.04705   0.05642   0.07577   0.09592
 Alpha virt. eigenvalues --    0.09769   0.11500   0.12651   0.12912   0.14079
 Alpha virt. eigenvalues --    0.14497   0.14868   0.15243   0.15346   0.17129

 Mulliken charges:
               1
     1  C   -0.767730
     2  C   -0.200487
     3  C   -2.291106
     4  N   -3.038556
     5  S    2.196399
     6  H    1.319987
     7  H    1.452268
     8  H    1.329225
 Sum of Mulliken charges =   0.00000

 Dipole moment (field-independent basis, Debye):
    X=              1.6178    Y=              1.3196    Z=              0.0000  Tot=              2.0877

 Test job not archived.
 1\1\GINC-SE013\SP\RHF\Aug-CC-pVDZ\C3H3N1S1\OHZDE\06-Apr-2025\0\\#t hf
 aug-cc-pvdz iop(5/13=1,5/36=2,99/5=2) pseudo=read geom=check guess=(re
 ad,tcheck) scf=(maxcycle=1)\\title\\0,1\C,0,0.654473,-1.275757,0.\C,0,
 -0.759568,-1.159013,0.\C,0,1.232534,-0.038075,0.\N,0,-1.256067,0.05833
 6,0.\S,0,0.,1.151175,0.\H,0,1.194557,-2.209548,0.\H,0,-1.446653,-1.995
 169,0.\H,0,2.279932,0.214642,0.\\Version=ES64L-G16RevC.01\State=1-A'\H
 F=-568.3414174\RMSD=8.473e-01\Dipole=0.6364804,0.5191664,0.\Quadrupole
 =-0.7201399,3.8703028,-3.1501629,0.9576887,0.,0.\PG=CS [SG(C3H3N1S1)]\

 Normal termination of Gaussian 16 at Sun Apr  6 08:17:40 2025.
