 Gaussian 16, Revision C.01,

 ----------------------------------------------------------------------
 #t hf aug-cc-pvdz symm=none int=(grid=ultrafine) guess=(read,tcheck) s
 table=(opt,rrhf)
 ----------------------------------------------------------------------
 -----
 title
 -----
 Symbolic Z-matrix:
 Charge =  0 Multiplicity = 1

 SCF Done:  E(RHF) =  -621.194693441     A.U. after   15 cycles
 Normal termination of Gaussian 16 at Sun Apr  6 08:17:35 2025.
 Gaussian 16:  ES64L-G16RevC.01  3-Jul-2019

 ----------------------------------------------------------------------
 #t hf aug-cc-pvdz iop(5/13=1,5/36=2,99/5=2) pseudo=read geom=check gue
 ss=(read,tcheck) scf=(maxcycle=1)
 ----------------------------------------------------------------------
 -----
 title
 -----
 Structure from the checkpoint file:  "isothiocyanatoacetonitrile.chk"
 Charge =  0 Multiplicity = 1

                         Standard orientation:
 ---------------------------------------------------------------------
 Center     Atomic      Atomic             Coordinates (Angstroms)
 Number     Number       Type             X           Y           Z
 ---------------------------------------------------------------------
      1         16           0        2.278497   -0.427178   -0.000076
      2          7           0       -0.046708    1.072004   -0.000069
      3          7           0       -2.433025   -1.423286   -0.000046
      4          6           0       -1.477822    1.012116    0.000203
      5          6           0       -2.013110   -0.354003    0.000063
      6          6           0        0.927544    0.377873   -0.000052
      7          1           0       -1.858915    1.539109   -0.876755
      8          1           0       -1.858578    1.538797    0.877498
 ---------------------------------------------------------------------

 SCF Done:  E(RHF) =  -622.413129520     A.U. after    2 cycles

 The electronic state is 1-A.
 Alpha  occ. eigenvalues --  -75.70851 -15.80682 -15.78702 -13.23472 -13.02303
 Alpha  occ. eigenvalues --  -13.02121 -11.55621 -11.52507 -11.45284  -8.05147
 Alpha  occ. eigenvalues --   -1.47476  -1.32643  -1.20123  -1.09845  -0.80382
 Alpha  occ. eigenvalues --   -0.72252  -0.70125  -0.58831  -0.55596  -0.53786
 Alpha  occ. eigenvalues --   -0.51851  -0.46814  -0.45959  -0.29440  -0.27078
 Alpha virt. eigenvalues --    0.01638   0.05410   0.05631   0.07652   0.08003
 Alpha virt. eigenvalues --    0.08897   0.11027   0.11400   0.11623   0.11638
 Alpha virt. eigenvalues --    0.12550   0.13401   0.13917   0.16132   0.17369

 Mulliken charges:
               1
     1  S    1.596633
     2  N   -2.935211
     3  N   -2.418729
     4  C   -2.481154
     5  C    2.515230
     6  C    0.705378
     7  H    1.508913
     8  H    1.508940
 Sum of Mulliken charges =  -0.00000

 Dipole moment (field-independent basis, Debye):
    X=              2.2640    Y=              1.1217    Z=              0.0005  Tot=              2.5267

 Test job not archived.
 1\1\GINC-SE041\SP\RHF\Aug-CC-pVDZ\C3H2N2S1\OHZDE\06-Apr-2025\0\\#t hf
 aug-cc-pvdz iop(5/13=1,5/36=2,99/5=2) pseudo=read geom=check guess=(re
 ad,tcheck) scf=(maxcycle=1)\\title\\0,1\S,0,2.278497,-0.427178,-0.0000
 76\N,0,-0.046708,1.072004,-0.000069\N,0,-2.433025,-1.423286,-0.000046\
 C,0,-1.477822,1.012116,0.000203\C,0,-2.01311,-0.354003,0.000063\C,0,0.
 927544,0.377873,-0.000052\H,0,-1.858915,1.539109,-0.876755\H,0,-1.8585
 78,1.538797,0.877498\\Version=ES64L-G16RevC.01\State=1-A\HF=-622.41312
 95\RMSD=2.196e-01\Dipole=0.8907437,0.4412988,0.0002157\Quadrupole=4.45

 Normal termination of Gaussian 16 at Sun Apr  6 08:17:41 2025.
