 Gaussian 16, Revision C.01,

 ----------------------------------------------------------------------
 #t hf aug-cc-pvdz symm=none int=(grid=ultrafine) guess=(read,tcheck) s
 table=(opt,rrhf)
 ----------------------------------------------------------------------
 -----
 title
 -----
 Symbolic Z-matrix:
 Charge =  0 Multiplicity = 1

 SCF Done:  E(RHF) =  -604.335378104     A.U. after   15 cycles
 Normal termination of Gaussian 16 at Sun Apr  6 08:17:34 2025.
 Gaussian 16:  ES64L-G16RevC.01  3-Jul-2019

 ----------------------------------------------------------------------
 #t hf aug-cc-pvdz iop(5/13=1,5/36=2,99/5=2) pseudo=read geom=check gue
 ss=(read,tcheck) scf=(maxcycle=1)
 ----------------------------------------------------------------------
 -----
 title
 -----
 Structure from the checkpoint file:  "isothiocyanatomethanol.chk"
 Charge =  0 Multiplicity = 1

                         Standard orientation:
 ---------------------------------------------------------------------
 Center     Atomic      Atomic             Coordinates (Angstroms)
 Number     Number       Type             X           Y           Z
 ---------------------------------------------------------------------
      1         16           0        2.147620    0.209811    0.031553
      2          8           0       -2.177251    0.884502    0.079532
      3          7           0       -0.449502   -0.736185   -0.147699
      4          6           0        0.650412   -0.289749   -0.045393
      5          6           0       -1.845506   -0.478904    0.091503
      6          1           0       -2.115777    1.223264   -0.819967
      7          1           0       -2.414295   -1.043253   -0.649351
      8          1           0       -2.096761   -0.847779    1.085447
 ---------------------------------------------------------------------

 SCF Done:  E(RHF) =  -605.461415853     A.U. after    2 cycles

 The electronic state is 1-A.
 Alpha  occ. eigenvalues --  -75.69051 -21.10552 -15.78566 -13.21224 -13.00382
 Alpha  occ. eigenvalues --  -13.00309 -11.53885 -11.47989  -8.03331  -1.75566
 Alpha  occ. eigenvalues --   -1.41830  -1.16592  -1.01681  -0.74491  -0.70057
 Alpha  occ. eigenvalues --   -0.63421  -0.56799  -0.53036  -0.51213  -0.45017
 Alpha  occ. eigenvalues --   -0.37067  -0.26800  -0.25555
 Alpha virt. eigenvalues --    0.02589   0.05463   0.05565   0.06310   0.08621
 Alpha virt. eigenvalues --    0.10524   0.10793   0.12263   0.12612   0.13560
 Alpha virt. eigenvalues --    0.14270   0.14625   0.16918   0.19511   0.19859

 Mulliken charges:
               1
     1  S    1.415445
     2  O   -2.381755
     3  N   -2.970763
     4  C    0.798819
     5  C   -0.610889
     6  H    0.763296
     7  H    1.442530
     8  H    1.543317
 Sum of Mulliken charges =   0.00000

 Dipole moment (field-independent basis, Debye):
    X=              0.3708    Y=              0.8243    Z=             -0.1952  Tot=              0.9247

 Test job not archived.
 1\1\GINC-SE042\SP\RHF\Aug-CC-pVDZ\C2H3N1O1S1\OHZDE\06-Apr-2025\0\\#t h
 f aug-cc-pvdz iop(5/13=1,5/36=2,99/5=2) pseudo=read geom=check guess=(
 read,tcheck) scf=(maxcycle=1)\\title\\0,1\S,0,2.14762,0.209811,0.03155
 3\O,0,-2.177251,0.884502,0.079532\N,0,-0.449502,-0.736185,-0.147699\C,
 0,0.650412,-0.289749,-0.045393\C,0,-1.845506,-0.478904,0.091503\H,0,-2
 .115777,1.223264,-0.819967\H,0,-2.414295,-1.043253,-0.649351\H,0,-2.09
 6761,-0.847779,1.085447\\Version=ES64L-G16RevC.01\State=1-A\HF=-605.46
 14159\RMSD=1.355e-01\Dipole=0.1458762,0.3242978,-0.0767924\Quadrupole=

 Normal termination of Gaussian 16 at Sun Apr  6 08:17:41 2025.
