 Gaussian 16, Revision C.01,

 ----------------------------------------------------------------------
 #t hf aug-cc-pvdz symm=none int=(grid=ultrafine) guess=(read,tcheck) s
 table=(opt,rrhf)
 ----------------------------------------------------------------------
 -----
 title
 -----
 Symbolic Z-matrix:
 Charge =  0 Multiplicity = 1

 SCF Done:  E(RHF) =  -244.620940629     A.U. after   15 cycles
 Normal termination of Gaussian 16 at Sun Apr  6 08:17:33 2025.
 Gaussian 16:  ES64L-G16RevC.01  3-Jul-2019

 ----------------------------------------------------------------------
 #t hf aug-cc-pvdz iop(5/13=1,5/36=2,99/5=2) pseudo=read geom=check gue
 ss=(read,tcheck) scf=(maxcycle=1)
 ----------------------------------------------------------------------
 -----
 title
 -----
 Structure from the checkpoint file:  "isoxazole.chk"
 Charge =  0 Multiplicity = 1

                         Standard orientation:
 ---------------------------------------------------------------------
 Center     Atomic      Atomic             Coordinates (Angstroms)
 Number     Number       Type             X           Y           Z
 ---------------------------------------------------------------------
      1          6           0        1.121838    0.366816    0.000000
      2          6           0        0.615592   -0.959856    0.000000
      3          6           0       -0.000000    1.124633    0.000000
      4          7           0       -0.689000   -0.992693    0.000000
      5          8           0       -1.091411    0.346235    0.000000
      6          1           0        2.145312    0.693430    0.000000
      7          1           0        1.160098   -1.890521    0.000000
      8          1           0       -0.175703    2.186501    0.000000
 ---------------------------------------------------------------------

 SCF Done:  E(RHF) =  -245.709574567     A.U. after    2 cycles

 The electronic state is 1-A'.
 Alpha  occ. eigenvalues --  -21.12826 -15.78015 -11.47636 -11.45630 -11.39522
 Alpha  occ. eigenvalues --   -1.89655  -1.28115  -1.15661  -0.84149  -0.82503
 Alpha  occ. eigenvalues --   -0.75152  -0.60579  -0.56093  -0.55549  -0.44439
 Alpha  occ. eigenvalues --   -0.42513  -0.37061  -0.34320
 Alpha virt. eigenvalues --    0.03193   0.05026   0.05289   0.10183   0.10488
 Alpha virt. eigenvalues --    0.11028   0.11924   0.12083   0.13474   0.13858
 Alpha virt. eigenvalues --    0.14429   0.15415   0.16145   0.19072   0.19717

 Mulliken charges:
               1
     1  C   -1.157760
     2  C    0.389095
     3  C    0.613728
     4  N   -0.945750
     5  O   -2.739963
     6  H    1.108056
     7  H    1.369807
     8  H    1.362787
 Sum of Mulliken charges =   0.00000

 Dipole moment (field-independent basis, Debye):
    X=              1.5566    Y=              1.4359    Z=              0.0000  Tot=              2.1178

 Test job not archived.
 1\1\GINC-SE049\SP\RHF\Aug-CC-pVDZ\C3H3N1O1\OHZDE\06-Apr-2025\0\\#t hf
 aug-cc-pvdz iop(5/13=1,5/36=2,99/5=2) pseudo=read geom=check guess=(re
 ad,tcheck) scf=(maxcycle=1)\\title\\0,1\C,0,1.121838,0.366816,0.\C,0,0
 .615592,-0.959856,0.\C,0,0.,1.124633,0.\N,0,-0.689,-0.992693,0.\O,0,-1
 .091411,0.346235,0.\H,0,2.145312,0.69343,0.\H,0,1.160098,-1.890521,0.\
 H,0,-0.175703,2.186501,0.\\Version=ES64L-G16RevC.01\State=1-A'\HF=-245
 .7095746\RMSD=8.182e-01\Dipole=0.6124217,0.564931,0.\Quadrupole=0.0227
 881,1.8485676,-1.8713558,-2.0336686,0.,0.\PG=CS [SG(C3H3N1O1)]\\@

 Normal termination of Gaussian 16 at Sun Apr  6 08:19:03 2025.
