 Gaussian 16, Revision C.01,

 ----------------------------------------------------------------------
 #t hf aug-cc-pvdz symm=none int=(grid=ultrafine) guess=(read,tcheck) s
 table=(opt,rrhf)
 ----------------------------------------------------------------------
 -----
 title
 -----
 Symbolic Z-matrix:
 Charge =  0 Multiplicity = 1

 SCF Done:  E(RHF) =  -151.748452924     A.U. after   12 cycles
 Normal termination of Gaussian 16 at Sun Apr  6 08:17:38 2025.
 Gaussian 16:  ES64L-G16RevC.01  3-Jul-2019

 ----------------------------------------------------------------------
 #t hf aug-cc-pvdz iop(5/13=1,5/36=2,99/5=2) pseudo=read geom=check gue
 ss=(read,tcheck) scf=(maxcycle=1)
 ----------------------------------------------------------------------
 -----
 title
 -----
 Structure from the checkpoint file:  "ketene.chk"
 Charge =  0 Multiplicity = 1

                         Standard orientation:
 ---------------------------------------------------------------------
 Center     Atomic      Atomic             Coordinates (Angstroms)
 Number     Number       Type             X           Y           Z
 ---------------------------------------------------------------------
      1          6           0        0.000000   -0.000000   -1.205838
      2          6           0        0.000000    0.000000    0.102176
      3          8           0        0.000000    0.000000    1.262386
      4          1           0        0.000000    0.937241   -1.738559
      5          1           0       -0.000000   -0.937241   -1.738559
 ---------------------------------------------------------------------

 SCF Done:  E(RHF) =  -152.403332098     A.U. after    2 cycles

 The electronic state is 1-A1.
 Alpha  occ. eigenvalues --  -21.13959 -11.54646 -11.39828  -1.77421  -1.12676
 Alpha  occ. eigenvalues --   -0.73057  -0.64099  -0.58953  -0.56149  -0.47456
 Alpha  occ. eigenvalues --   -0.29563
 Alpha virt. eigenvalues --    0.02933   0.05818   0.08280   0.11873   0.12417
 Alpha virt. eigenvalues --    0.12419   0.13220   0.13298   0.15602   0.18985
 Alpha virt. eigenvalues --    0.21163   0.22474   0.24250   0.28418   0.31147

 Mulliken charges:
               1
     1  C   -2.082953
     2  C    1.817509
     3  O   -2.318464
     4  H    1.291954
     5  H    1.291954
 Sum of Mulliken charges =  -0.00000

 Dipole moment (field-independent basis, Debye):
    X=             -0.0000    Y=              0.0000    Z=              0.2844  Tot=              0.2844

 Test job not archived.
 1\1\GINC-SE050\SP\RHF\Aug-CC-pVDZ\C2H2O1\OHZDE\06-Apr-2025\0\\#t hf au
 g-cc-pvdz iop(5/13=1,5/36=2,99/5=2) pseudo=read geom=check guess=(read
 ,tcheck) scf=(maxcycle=1)\\title\\0,1\C,0,0.,0.,-1.205838\C,0,0.,0.,0.
 102176\O,0,0.,0.,1.262386\H,0,0.,0.937241,-1.738559\H,0,0.,-0.937241,-
 1.738559\\Version=ES64L-G16RevC.01\State=1-A1\HF=-152.4033321\RMSD=2.6
 09e-01\Dipole=0.,0.,0.1118881\Quadrupole=-1.6676031,1.382496,0.2851072
 ,0.,0.,0.\PG=C02V [C2(C1C1O1),SGV(H2)]\\@

 Normal termination of Gaussian 16 at Sun Apr  6 08:17:40 2025.
