 Gaussian 16, Revision C.01,

 ----------------------------------------------------------------------
 #t hf aug-cc-pvdz symm=none int=(grid=ultrafine) guess=(read,tcheck) s
 table=(opt,rrhf)
 ----------------------------------------------------------------------
 -----
 title
 -----
 Symbolic Z-matrix:
 Charge =  0 Multiplicity = 1

 SCF Done:  E(RHF) =  -439.035099220     A.U. after   14 cycles
 Normal termination of Gaussian 16 at Sun Apr  6 08:19:34 2025.
 Gaussian 16:  ES64L-G16RevC.01  3-Jul-2019

 ----------------------------------------------------------------------
 #t hf aug-cc-pvdz iop(5/13=1,5/36=2,99/5=2) pseudo=read geom=check gue
 ss=(read,tcheck) scf=(maxcycle=1)
 ----------------------------------------------------------------------
 -----
 title
 -----
 Structure from the checkpoint file:  "leucine.chk"
 Charge =  0 Multiplicity = 1

                         Standard orientation:
 ---------------------------------------------------------------------
 Center     Atomic      Atomic             Coordinates (Angstroms)
 Number     Number       Type             X           Y           Z
 ---------------------------------------------------------------------
      1          7           0        0.889792    1.733167   -0.084168
      2          6           0        0.653062    0.324866    0.279326
      3          6           0        1.942908   -0.495104    0.057054
      4          8           0        1.987940   -1.690661    0.174653
      5          8           0        3.015494    0.245946   -0.248211
      6          1           0        2.687089    1.172239   -0.274368
      7          6           0       -0.530559   -0.332551   -0.440004
      8          6           0       -1.916908    0.221973   -0.078321
      9          6           0       -2.973038   -0.350115   -1.029174
     10          6           0       -2.296085   -0.059131    1.378824
     11          1           0        0.489109    0.281675    1.357974
     12          1           0       -0.369734   -0.225663   -1.518607
     13          1           0       -0.496406   -1.403150   -0.233024
     14          1           0       -1.902453    1.308771   -0.219438
     15          1           0       -3.962107    0.053227   -0.807413
     16          1           0       -2.741372   -0.116292   -2.069654
     17          1           0       -3.029551   -1.437289   -0.938398
     18          1           0       -3.288045    0.335699    1.602720
     19          1           0       -2.313437   -1.133743    1.574081
     20          1           0       -1.600962    0.393952    2.087128
     21          1           0        0.485395    1.959508   -0.984328
     22          1           0        0.510182    2.376995    0.594739
 ---------------------------------------------------------------------

 SCF Done:  E(RHF) =  -441.090094124     A.U. after    2 cycles

 The electronic state is 1-A.
 Alpha  occ. eigenvalues --  -21.09965 -21.03497 -15.76753 -11.52427 -11.47336
 Alpha  occ. eigenvalues --  -11.43341 -11.40494 -11.39289 -11.36017  -1.81111
 Alpha  occ. eigenvalues --   -1.64300  -1.38529  -1.25416  -1.08707  -1.01139
 Alpha  occ. eigenvalues --   -0.95477  -0.82066  -0.77089  -0.72283  -0.69061
 Alpha  occ. eigenvalues --   -0.63945  -0.63265  -0.60861  -0.57295  -0.55461
 Alpha  occ. eigenvalues --   -0.54348  -0.53287  -0.49514  -0.49291  -0.47422
 Alpha  occ. eigenvalues --   -0.45771  -0.44096  -0.40904  -0.39417  -0.31961
 Alpha  occ. eigenvalues --   -0.27726
 Alpha virt. eigenvalues --    0.03289   0.04082   0.04253   0.04831   0.05251
 Alpha virt. eigenvalues --    0.05584   0.06414   0.06638   0.07304   0.08071
 Alpha virt. eigenvalues --    0.08513   0.09341   0.09796   0.11472   0.12360

 Mulliken charges:
               1
     1  N   -2.597252
     2  C   -1.920803
     3  C    6.512251
     4  O   -3.366680
     5  O   -3.241767
     6  H    1.104789
     7  C   -2.313886
     8  C   -1.159302
     9  C   -4.297711
    10  C   -4.304702
    11  H    1.987809
    12  H    1.524087
    13  H    1.576719
    14  H    1.850932
    15  H    1.152973
    16  H    1.268008
    17  H    1.341943
    18  H    1.272392
    19  H    1.274961
    20  H    1.292896
    21  H    0.551531
    22  H    0.490811
 Sum of Mulliken charges =   0.00000

 Dipole moment (field-independent basis, Debye):
    X=             -2.5524    Y=              2.8933    Z=             -0.0326  Tot=              3.8583

 Test job not archived.
 1\1\GINC-SE222\SP\RHF\Aug-CC-pVDZ\C6H13N1O2\OHZDE\06-Apr-2025\0\\#t hf
  aug-cc-pvdz iop(5/13=1,5/36=2,99/5=2) pseudo=read geom=check guess=(r
 ead,tcheck) scf=(maxcycle=1)\\title\\0,1\N,0,0.889792,1.733167,-0.0841
 68\C,0,0.653062,0.324866,0.279326\C,0,1.942908,-0.495104,0.057054\O,0,
 1.98794,-1.690661,0.174653\O,0,3.015494,0.245946,-0.248211\H,0,2.68708
 9,1.172239,-0.274368\C,0,-0.530559,-0.332551,-0.440004\C,0,-1.916908,0
 .221973,-0.078321\C,0,-2.973038,-0.350115,-1.029174\C,0,-2.296085,-0.0
 59131,1.378824\H,0,0.489109,0.281675,1.357974\H,0,-0.369734,-0.225663,

 Normal termination of Gaussian 16 at Sun Apr  6 08:20:56 2025.
