 Gaussian 16, Revision C.01,

 ----------------------------------------------------------------------
 #t hf aug-cc-pvdz symm=none int=(grid=ultrafine) guess=(read,tcheck) s
 table=(opt,rrhf)
 ----------------------------------------------------------------------
 -----
 title
 -----
 Symbolic Z-matrix:
 Charge =  0 Multiplicity = 1

 SCF Done:  E(RHF) =  -494.071349021     A.U. after   14 cycles
 Normal termination of Gaussian 16 at Sun Apr  6 08:20:59 2025.
 Gaussian 16:  ES64L-G16RevC.01  3-Jul-2019

 ----------------------------------------------------------------------
 #t hf aug-cc-pvdz iop(5/13=1,5/36=2,99/5=2) pseudo=read geom=check gue
 ss=(read,tcheck) scf=(maxcycle=1)
 ----------------------------------------------------------------------
 -----
 title
 -----
 Structure from the checkpoint file:  "lysine.chk"
 Charge =  0 Multiplicity = 1

                         Standard orientation:
 ---------------------------------------------------------------------
 Center     Atomic      Atomic             Coordinates (Angstroms)
 Number     Number       Type             X           Y           Z
 ---------------------------------------------------------------------
      1          7           0        1.748606    1.711717   -0.110623
      2          6           0        1.505536    0.334496    0.352601
      3          6           0        2.743343   -0.539294    0.053037
      4          8           0        2.755177   -1.732408    0.197432
      5          8           0        3.816383    0.153863   -0.349539
      6          1           0        3.520520    1.090385   -0.381692
      7          6           0        0.229447   -0.318859   -0.188199
      8          6           0       -1.059289    0.316065    0.333331
      9          6           0       -2.318639   -0.348453   -0.223242
     10          6           0       -3.608418    0.279792    0.294578
     11          7           0       -4.779870   -0.416009   -0.243436
     12          1           0        1.447816    0.361100    1.444428
     13          1           0        0.251892   -0.273372   -1.283075
     14          1           0        0.258775   -1.376399    0.073343
     15          1           0       -1.070260    0.251414    1.426664
     16          1           0       -1.077545    1.383378    0.090243
     17          1           0       -2.306561   -0.289099   -1.317231
     18          1           0       -2.322972   -1.411934    0.025905
     19          1           0       -3.642216    0.188063    1.382961
     20          1           0       -3.599403    1.356577    0.069884
     21          1           0       -5.636961   -0.050753    0.151625
     22          1           0       -4.841888   -0.299571   -1.247876
     23          1           0        1.314168    1.882851   -1.009374
     24          1           0        1.399106    2.403285    0.536824
 ---------------------------------------------------------------------

 SCF Done:  E(RHF) =  -496.374804640     A.U. after    2 cycles

 The electronic state is 1-A.
 Alpha  occ. eigenvalues --  -21.10040 -21.03589 -15.76791 -15.73151 -11.52328
 Alpha  occ. eigenvalues --  -11.47014 -11.43856 -11.42826 -11.39661 -11.36087
 Alpha  occ. eigenvalues --   -1.81176  -1.64374  -1.38767  -1.34221  -1.20985
 Alpha  occ. eigenvalues --   -1.09002  -0.99129  -0.89281  -0.84277  -0.77093
 Alpha  occ. eigenvalues --   -0.72301  -0.69113  -0.66793  -0.65066  -0.62166
 Alpha  occ. eigenvalues --   -0.60144  -0.58875  -0.56312  -0.52584  -0.51042
 Alpha  occ. eigenvalues --   -0.49859  -0.48721  -0.47110  -0.46757  -0.46514
 Alpha  occ. eigenvalues --   -0.40529  -0.39346  -0.35369  -0.32060  -0.27785
 Alpha virt. eigenvalues --    0.03385   0.03977   0.04307   0.04583   0.05165
 Alpha virt. eigenvalues --    0.05383   0.06442   0.06532   0.06809   0.07596
 Alpha virt. eigenvalues --    0.08805   0.09293   0.09699   0.10148   0.11028

 Mulliken charges:
               1
     1  N   -2.593636
     2  C   -1.964790
     3  C    6.375336
     4  O   -3.338895
     5  O   -3.225105
     6  H    1.119258
     7  C   -2.037384
     8  C   -2.427667
     9  C   -2.822457
    10  C   -2.756604
    11  N   -2.515665
    12  H    1.872738
    13  H    1.474605
    14  H    1.583956
    15  H    1.477690
    16  H    1.619090
    17  H    1.476097
    18  H    1.453883
    19  H    1.487967
    20  H    1.455538
    21  H    0.582145
    22  H    0.616220
    23  H    0.578768
    24  H    0.508910
 Sum of Mulliken charges =  -0.00000

 Dipole moment (field-independent basis, Debye):
    X=             -2.6762    Y=              3.7081    Z=             -0.2169  Tot=              4.5781

 Test job not archived.
 1\1\GINC-SE223\SP\RHF\Aug-CC-pVDZ\C6H14N2O2\OHZDE\06-Apr-2025\0\\#t hf
  aug-cc-pvdz iop(5/13=1,5/36=2,99/5=2) pseudo=read geom=check guess=(r
 ead,tcheck) scf=(maxcycle=1)\\title\\0,1\N,0,1.748606,1.711717,-0.1106
 23\C,0,1.505536,0.334496,0.352601\C,0,2.743343,-0.539294,0.053037\O,0,
 2.755177,-1.732408,0.197432\O,0,3.816383,0.153863,-0.349539\H,0,3.5205
 2,1.090385,-0.381692\C,0,0.229447,-0.318859,-0.188199\C,0,-1.059289,0.
 316065,0.333331\C,0,-2.318639,-0.348453,-0.223242\C,0,-3.608418,0.2797
 92,0.294578\N,0,-4.77987,-0.416009,-0.243436\H,0,1.447816,0.3611,1.444

 Normal termination of Gaussian 16 at Sun Apr  6 08:21:53 2025.
