 Gaussian 16, Revision C.01,

 ----------------------------------------------------------------------
 #t hf aug-cc-pvdz symm=none int=(grid=ultrafine) guess=(read,tcheck) s
 table=(opt,rrhf)
 ----------------------------------------------------------------------
 -----
 title
 -----
 Symbolic Z-matrix:
 Charge =  0 Multiplicity = 1

 SCF Done:  E(RHF) =  -344.642938276     A.U. after   15 cycles
 Normal termination of Gaussian 16 at Sun Apr  6 08:18:14 2025.
 Gaussian 16:  ES64L-G16RevC.01  3-Jul-2019

 ----------------------------------------------------------------------
 #t hf aug-cc-pvdz iop(5/13=1,5/36=2,99/5=2) pseudo=read geom=check gue
 ss=(read,tcheck) scf=(maxcycle=1)
 ----------------------------------------------------------------------
 -----
 title
 -----
 Structure from the checkpoint file:  "m-cresol.chk"
 Charge =  0 Multiplicity = 1

                         Standard orientation:
 ---------------------------------------------------------------------
 Center     Atomic      Atomic             Coordinates (Angstroms)
 Number     Number       Type             X           Y           Z
 ---------------------------------------------------------------------
      1          6           0        0.151273    1.784647    0.002216
      2          6           0       -1.096568    1.176867   -0.008450
      3          6           0        1.312680    1.021029    0.007796
      4          6           0       -0.038671   -0.979205   -0.009708
      5          6           0       -1.203017   -0.216446   -0.011775
      6          6           0        1.211066   -0.366488    0.000942
      7          6           0       -2.552960   -0.884863    0.009391
      8          8           0        2.309364   -1.184166    0.000798
      9          1           0        0.225667    2.863983    0.002825
     10          1           0       -1.992065    1.784194   -0.016938
     11          1           0        2.285648    1.497705    0.012651
     12          1           0       -0.084931   -2.060188   -0.018605
     13          1           0       -2.509721   -1.885386   -0.419767
     14          1           0       -2.922457   -0.982907    1.033294
     15          1           0       -3.290088   -0.306426   -0.547493
     16          1           0        3.110211   -0.650896    0.005175
 ---------------------------------------------------------------------

 SCF Done:  E(RHF) =  -346.261177634     A.U. after    2 cycles

 The electronic state is 1-A.
 Alpha  occ. eigenvalues --  -21.10054 -11.51711 -11.45549 -11.43076 -11.40446
 Alpha  occ. eigenvalues --  -11.39969 -11.38445 -11.35634  -1.75379  -1.33112
 Alpha  occ. eigenvalues --   -1.13937  -1.07112  -0.99698  -0.85797  -0.83321
 Alpha  occ. eigenvalues --   -0.69982  -0.65554  -0.61703  -0.59147  -0.57736
 Alpha  occ. eigenvalues --   -0.55286  -0.53431  -0.52527  -0.47122  -0.43925
 Alpha  occ. eigenvalues --   -0.41811  -0.41279  -0.32351  -0.26794
 Alpha virt. eigenvalues --    0.03328   0.04794   0.05180   0.05716   0.06466
 Alpha virt. eigenvalues --    0.06767   0.07418   0.08233   0.09570   0.11662
 Alpha virt. eigenvalues --    0.12233   0.12658   0.13494   0.13621   0.14211

 Mulliken charges:
               1
     1  C   -0.604469
     2  C   -2.381200
     3  C   -5.305017
     4  C   -2.388471
     5  C    3.932832
     6  C    5.646900
     7  C   -5.589874
     8  O   -4.489191
     9  H    1.440161
    10  H    1.797171
    11  H    1.663597
    12  H    1.899578
    13  H    1.151147
    14  H    1.127685
    15  H    1.096845
    16  H    1.002306
 Sum of Mulliken charges =  -0.00000

 Dipole moment (field-independent basis, Debye):
    X=              0.3555    Y=              0.1948    Z=              0.0349  Tot=              0.4069

 Test job not archived.
 1\1\GINC-SE046\SP\RHF\Aug-CC-pVDZ\C7H8O1\OHZDE\06-Apr-2025\0\\#t hf au
 g-cc-pvdz iop(5/13=1,5/36=2,99/5=2) pseudo=read geom=check guess=(read
 ,tcheck) scf=(maxcycle=1)\\title\\0,1\C,0,0.151273,1.784647,0.002216\C
 ,0,-1.096568,1.176867,-0.00845\C,0,1.31268,1.021029,0.007796\C,0,-0.03
 8671,-0.979205,-0.009708\C,0,-1.203017,-0.216446,-0.011775\C,0,1.21106
 6,-0.366488,0.000942\C,0,-2.55296,-0.884863,0.009391\O,0,2.309364,-1.1
 84166,0.000798\H,0,0.225667,2.863983,0.002825\H,0,-1.992065,1.784194,-
 0.016938\H,0,2.285648,1.497705,0.012651\H,0,-0.084931,-2.060188,-0.018

 Normal termination of Gaussian 16 at Sun Apr  6 08:19:06 2025.
