 Gaussian 16, Revision C.01,

 ----------------------------------------------------------------------
 #t hf aug-cc-pvdz symm=none int=(grid=ultrafine) guess=(read,tcheck) s
 table=(opt,rrhf)
 ----------------------------------------------------------------------
 -----
 title
 -----
 Symbolic Z-matrix:
 Charge =  0 Multiplicity = 1

 SCF Done:  E(RHF) =  -428.456162971     A.U. after   14 cycles
 Normal termination of Gaussian 16 at Sun Apr  6 08:17:46 2025.
 Gaussian 16:  ES64L-G16RevC.01  3-Jul-2019

 ----------------------------------------------------------------------
 #t hf aug-cc-pvdz iop(5/13=1,5/36=2,99/5=2) pseudo=read geom=check gue
 ss=(read,tcheck) scf=(maxcycle=1)
 ----------------------------------------------------------------------
 -----
 title
 -----
 Structure from the checkpoint file:  "m-difluorobenzene.chk"
 Charge =  0 Multiplicity = 1

                         Standard orientation:
 ---------------------------------------------------------------------
 Center     Atomic      Atomic             Coordinates (Angstroms)
 Number     Number       Type             X           Y           Z
 ---------------------------------------------------------------------
      1          6           0        0.000000   -0.000000    1.764506
      2          6           0        0.000000    1.210426    1.080320
      3          6           0       -0.000000   -1.210426    1.080320
      4          6           0       -0.000000    0.000000   -1.026563
      5          6           0        0.000000    1.180185   -0.303243
      6          6           0       -0.000000   -1.180185   -0.303243
      7          9           0        0.000000    2.345713   -0.982604
      8          9           0       -0.000000   -2.345713   -0.982604
      9          1           0        0.000000   -0.000000    2.845406
     10          1           0        0.000000    2.158300    1.597384
     11          1           0       -0.000000   -2.158300    1.597384
     12          1           0       -0.000000    0.000000   -2.105879
 ---------------------------------------------------------------------

 SCF Done:  E(RHF) =  -430.216749690     A.U. after    2 cycles

 The electronic state is 1-A1.
 Alpha  occ. eigenvalues --  -29.29450 -29.29429 -11.55276 -11.50666 -11.46462
 Alpha  occ. eigenvalues --  -11.42490 -11.42309 -11.39708  -1.40490  -1.19697
 Alpha  occ. eigenvalues --   -1.14819  -0.95029  -0.94489  -0.81767  -0.71140
 Alpha  occ. eigenvalues --   -0.67331  -0.64340  -0.62244  -0.58242  -0.51222
 Alpha  occ. eigenvalues --   -0.51017  -0.47453  -0.40990  -0.39500  -0.38423
 Alpha  occ. eigenvalues --   -0.29852  -0.26353  -0.26305  -0.23441
 Alpha virt. eigenvalues --    0.03603   0.05335   0.05606   0.06329   0.10664
 Alpha virt. eigenvalues --    0.10927   0.11028   0.11765   0.11981   0.13115
 Alpha virt. eigenvalues --    0.13547   0.14046   0.14261   0.14832   0.14845

 Mulliken charges:
               1
     1  C    0.648263
     2  C   -5.045302
     3  C   -5.045302
     4  C   -6.125905
     5  C    3.880590
     6  C    3.880590
     7  F    0.716017
     8  F    0.716017
     9  H    1.446748
    10  H    1.606599
    11  H    1.606599
    12  H    1.715088
 Sum of Mulliken charges =  -0.00000

 Dipole moment (field-independent basis, Debye):
    X=             -0.0000    Y=             -0.0000    Z=             -1.6993  Tot=              1.6993

 Test job not archived.
 1\1\GINC-SE047\SP\RHF\Aug-CC-pVDZ\C6H4F2\OHZDE\06-Apr-2025\0\\#t hf au
 g-cc-pvdz iop(5/13=1,5/36=2,99/5=2) pseudo=read geom=check guess=(read
 ,tcheck) scf=(maxcycle=1)\\title\\0,1\C,0,0.,0.,1.764506\C,0,0.,1.2104
 26,1.08032\C,0,0.,-1.210426,1.08032\C,0,0.,0.,-1.026563\C,0,0.,1.18018
 5,-0.303243\C,0,0.,-1.180185,-0.303243\F,0,0.,2.345713,-0.982604\F,0,0
 .,-2.345713,-0.982604\H,0,0.,0.,2.845406\H,0,0.,2.1583,1.597384\H,0,0.
 ,-2.1583,1.597384\H,0,0.,0.,-2.105879\\Version=ES64L-G16RevC.01\State=
 1-A1\HF=-430.2167497\RMSD=1.644e+00\Dipole=0.,0.,-0.668547\Quadrupole=

 Normal termination of Gaussian 16 at Sun Apr  6 08:19:04 2025.
