 Gaussian 16, Revision C.01,

 ----------------------------------------------------------------------
 #t hf aug-cc-pvdz symm=none int=(grid=ultrafine) guess=(read,tcheck) s
 table=(opt,rrhf)
 ----------------------------------------------------------------------
 -----
 title
 -----
 Symbolic Z-matrix:
 Charge =  0 Multiplicity = 1

 SCF Done:  E(RHF) =  -1148.57143410     A.U. after   14 cycles

 1\1\GINC-SE047\Stability\RHF\Aug-CC-pVDZ\C6H4Cl2\OHZDE\06-Apr-2025\0\\
 #t hf aug-cc-pvdz symm=none int=(grid=ultrafine) guess=(read,tcheck) s
 table=(opt,rrhf)\\title\\0,1\C,0,0.,0.,2.071388\C,0,0.,1.208808,1.3869
 57\C,0,0.,-1.208808,1.386957\C,0,0.,0.,-0.713068\C,0,0.,1.19142,-0.000
 84\C,0,0.,-1.19142,-0.00084\Cl,0,0.,2.703797,-0.881717\Cl,0,0.,-2.7037
 97,-0.881717\H,0,0.,0.,3.152761\H,0,0.,2.149253,1.916981\H,0,0.,-2.149
 253,1.916981\H,0,0.,0.,-1.791679\\Version=ES64L-G16RevC.01\HF=-1148.57
 14341\RMSD=9.707e-09\Dipole=0.,0.,0.7559127\Quadrupole=-2.667563,-2.32

 Normal termination of Gaussian 16 at Sun Apr  6 08:17:50 2025.
 Gaussian 16:  ES64L-G16RevC.01  3-Jul-2019

 ----------------------------------------------------------------------
 #t hf aug-cc-pvdz iop(5/13=1,5/36=2,99/5=2) pseudo=read geom=check gue
 ss=(read,tcheck) scf=(maxcycle=1)
 ----------------------------------------------------------------------
 -----
 title
 -----
 Structure from the checkpoint file:  "m-dichlorobenzene.chk"
 Charge =  0 Multiplicity = 1

                         Standard orientation:
 ---------------------------------------------------------------------
 Center     Atomic      Atomic             Coordinates (Angstroms)
 Number     Number       Type             X           Y           Z
 ---------------------------------------------------------------------
      1          6           0        0.000000   -0.000000    2.071388
      2          6           0        0.000000    1.208808    1.386957
      3          6           0       -0.000000   -1.208808    1.386957
      4          6           0       -0.000000    0.000000   -0.713068
      5          6           0        0.000000    1.191420   -0.000840
      6          6           0       -0.000000   -1.191420   -0.000840
      7         17           0        0.000000    2.703797   -0.881717
      8         17           0       -0.000000   -2.703797   -0.881717
      9          1           0        0.000000   -0.000000    3.152761
     10          1           0        0.000000    2.149253    1.916981
     11          1           0       -0.000000   -2.149253    1.916981
     12          1           0       -0.000000    0.000000   -1.791679
 ---------------------------------------------------------------------

 SCF Done:  E(RHF) =  -1150.15800790     A.U. after    2 cycles

 The electronic state is 1-A1.
 Alpha  occ. eigenvalues --  -99.90415 -99.90405 -11.53482 -11.48154 -11.46752
 Alpha  occ. eigenvalues --  -11.44581 -11.44238 -11.39900 -10.47782 -10.47771
 Alpha  occ. eigenvalues --   -9.67807  -9.67775  -9.66921  -9.66874  -9.66732
 Alpha  occ. eigenvalues --   -9.66717  -1.43918  -1.34897  -1.26404  -1.11504
 Alpha  occ. eigenvalues --   -1.09268  -0.89997  -0.88068  -0.74443  -0.69008
 Alpha  occ. eigenvalues --   -0.64749  -0.61733  -0.61546  -0.59828  -0.56349
 Alpha  occ. eigenvalues --   -0.54493  -0.50494  -0.49009  -0.48473  -0.47671
 Alpha  occ. eigenvalues --   -0.35654  -0.34986
 Alpha virt. eigenvalues --    0.02847   0.04932   0.05517   0.06110   0.06922
 Alpha virt. eigenvalues --    0.07767   0.08438   0.09513   0.10783   0.11596
 Alpha virt. eigenvalues --    0.11968   0.12404   0.12788   0.13179   0.14026

 Mulliken charges:
               1
     1  C    0.389173
     2  C   -1.964925
     3  C   -1.964925
     4  C    0.526968
     5  C   -1.015209
     6  C   -1.015209
     7  Cl  -0.800878
     8  Cl  -0.800878
     9  H    1.474594
    10  H    1.694323
    11  H    1.694323
    12  H    1.782644
 Sum of Mulliken charges =  -0.00000

 Dipole moment (field-independent basis, Debye):
    X=              0.0000    Y=              0.0000    Z=              2.3227  Tot=              2.3227

 Test job not archived.
 1\1\GINC-SE047\SP\RHF\Aug-CC-pVDZ\C6H4Cl2\OHZDE\06-Apr-2025\0\\#t hf a
 ug-cc-pvdz iop(5/13=1,5/36=2,99/5=2) pseudo=read geom=check guess=(rea
 d,tcheck) scf=(maxcycle=1)\\title\\0,1\C,0,0.,0.,2.071388\C,0,0.,1.208
 808,1.386957\C,0,0.,-1.208808,1.386957\C,0,0.,0.,-0.713068\C,0,0.,1.19
 142,-0.00084\C,0,0.,-1.19142,-0.00084\Cl,0,0.,2.703797,-0.881717\Cl,0,
 0.,-2.703797,-0.881717\H,0,0.,0.,3.152761\H,0,0.,2.149253,1.916981\H,0
 ,0.,-2.149253,1.916981\H,0,0.,0.,-1.791679\\Version=ES64L-G16RevC.01\S
 tate=1-A1\HF=-1150.1580079\RMSD=2.321e+00\Dipole=0.,0.,0.9138108\Quadr

 Normal termination of Gaussian 16 at Sun Apr  6 08:19:05 2025.
