 Gaussian 16, Revision C.01,

 ----------------------------------------------------------------------
 #t hf aug-cc-pvdz symm=none int=(grid=ultrafine) guess=(read,tcheck) s
 table=(opt,rrhf)
 ----------------------------------------------------------------------
 -----
 title
 -----
 Symbolic Z-matrix:
 Charge =  0 Multiplicity = 1

 SCF Done:  E(RHF) =  -509.104880007     A.U. after   16 cycles
 Normal termination of Gaussian 16 at Sun Apr  6 08:18:42 2025.
 Gaussian 16:  ES64L-G16RevC.01  3-Jul-2019

 ----------------------------------------------------------------------
 #t hf aug-cc-pvdz iop(5/13=1,5/36=2,99/5=2) pseudo=read geom=check gue
 ss=(read,tcheck) scf=(maxcycle=1)
 ----------------------------------------------------------------------
 -----
 title
 -----
 Structure from the checkpoint file:  "m-nitrophenol.chk"
 Charge =  0 Multiplicity = 1

                         Standard orientation:
 ---------------------------------------------------------------------
 Center     Atomic      Atomic             Coordinates (Angstroms)
 Number     Number       Type             X           Y           Z
 ---------------------------------------------------------------------
      1          6           0        2.017694   -0.664820   -0.000000
      2          6           0        1.387653    0.571113   -0.000000
      3          6           0        1.276765   -1.840590   -0.000000
      4          6           0       -0.768595   -0.561020    0.000000
      5          6           0       -0.000000    0.590564    0.000000
      6          6           0       -0.116518   -1.789441   -0.000000
      7          7           0       -0.695089    1.896684    0.000000
      8          8           0       -0.004531    2.904797    0.000000
      9          8           0       -1.916677    1.890567    0.000000
     10          8           0       -0.896580   -2.906357   -0.000000
     11          1           0        3.097332   -0.716013   -0.000000
     12          1           0        1.940706    1.495858   -0.000000
     13          1           0        1.780941   -2.799344   -0.000000
     14          1           0       -1.845347   -0.507183    0.000000
     15          1           0       -0.347695   -3.696993   -0.000000
 ---------------------------------------------------------------------

 SCF Done:  E(RHF) =  -511.337539905     A.U. after    2 cycles

 The electronic state is 1-A'.
 Alpha  occ. eigenvalues --  -21.12702 -21.09518 -21.09409 -16.00093 -11.55730
 Alpha  occ. eigenvalues --  -11.49932 -11.47337 -11.44978 -11.44595 -11.40756
 Alpha  occ. eigenvalues --   -2.00103  -1.78274  -1.69164  -1.36569  -1.18043
 Alpha  occ. eigenvalues --   -1.11381  -1.01068  -0.89630  -0.84158  -0.75300
 Alpha  occ. eigenvalues --   -0.70422  -0.67821  -0.66823  -0.64327  -0.62371
 Alpha  occ. eigenvalues --   -0.59164  -0.56615  -0.52186  -0.51447  -0.45816
 Alpha  occ. eigenvalues --   -0.44533  -0.36988  -0.35886  -0.31747  -0.31150
 Alpha  occ. eigenvalues --   -0.29543
 Alpha virt. eigenvalues --    0.02679   0.04145   0.04971   0.06268   0.06919
 Alpha virt. eigenvalues --    0.07273   0.09578   0.11011   0.11287   0.12393
 Alpha virt. eigenvalues --    0.12762   0.12970   0.13353   0.13783   0.13843

 Mulliken charges:
               1
     1  C    0.659914
     2  C   -3.282056
     3  C   -5.700597
     4  C   -3.482969
     5  C    3.755592
     6  C    7.462333
     7  N    3.426095
     8  O   -3.084781
     9  O   -2.988502
    10  O   -4.609976
    11  H    1.447055
    12  H    1.783661
    13  H    1.682019
    14  H    1.870029
    15  H    1.062182
 Sum of Mulliken charges =   0.00000

 Dipole moment (field-independent basis, Debye):
    X=              1.7971    Y=             -3.6617    Z=             -0.0000  Tot=              4.0789

 Test job not archived.
 1\1\GINC-SE085\SP\RHF\Aug-CC-pVDZ\C6H5N1O3\OHZDE\06-Apr-2025\0\\#t hf
 aug-cc-pvdz iop(5/13=1,5/36=2,99/5=2) pseudo=read geom=check guess=(re
 ad,tcheck) scf=(maxcycle=1)\\title\\0,1\C,0,2.017694,-0.66482,0.\C,0,1
 .387653,0.571113,0.\C,0,1.276764,-1.84059,0.\C,0,-0.768595,-0.56102,0.
 \C,0,0.,0.590564,0.\C,0,-0.116519,-1.789441,0.\N,0,-0.695089,1.896684,
 0.\O,0,-0.00453,2.904797,0.\O,0,-1.916677,1.890568,0.\O,0,-0.896581,-2
 .906357,0.\H,0,3.097332,-0.716014,0.\H,0,1.940706,1.495858,0.\H,0,1.78
 094,-2.799344,0.\H,0,-1.845347,-0.507182,0.\H,0,-0.347696,-3.696993,0.

 Normal termination of Gaussian 16 at Sun Apr  6 08:19:07 2025.
