 Gaussian 16, Revision C.01,

 ----------------------------------------------------------------------
 #t hf aug-cc-pvdz symm=none int=(grid=ultrafine) guess=(read,tcheck) s
 table=(opt,rrhf)
 ----------------------------------------------------------------------
 -----
 title
 -----
 Symbolic Z-matrix:
 Charge =  0 Multiplicity = 1

 SCF Done:  E(RHF) =  -308.809451072     A.U. after   15 cycles
 Normal termination of Gaussian 16 at Sun Apr  6 08:19:17 2025.
 Gaussian 16:  ES64L-G16RevC.01  3-Jul-2019

 ----------------------------------------------------------------------
 #t hf aug-cc-pvdz iop(5/13=1,5/36=2,99/5=2) pseudo=read geom=check gue
 ss=(read,tcheck) scf=(maxcycle=1)
 ----------------------------------------------------------------------
 -----
 title
 -----
 Structure from the checkpoint file:  "m-xylene.chk"
 Charge =  0 Multiplicity = 1

                         Standard orientation:
 ---------------------------------------------------------------------
 Center     Atomic      Atomic             Coordinates (Angstroms)
 Number     Number       Type             X           Y           Z
 ---------------------------------------------------------------------
      1          6           0       -0.006539    1.816315    0.000770
      2          6           0       -1.206885    1.122732    0.003227
      3          6           0        1.203615    1.128282   -0.003363
      4          6           0        0.003201   -0.944349   -0.003037
      5          6           0       -1.217101   -0.275020    0.000767
      6          6           0        1.224038   -0.263414   -0.004087
      7          6           0       -2.520205   -1.031510   -0.000034
      8          6           0        2.523101   -1.026861    0.003313
      9          1           0       -0.009355    2.898503    0.000809
     10          1           0       -2.143779    1.666030    0.005352
     11          1           0        2.135935    1.678679   -0.006919
     12          1           0        0.006865   -2.028704   -0.006327
     13          1           0       -2.355320   -2.108183    0.003671
     14          1           0       -3.122522   -0.782103    0.875925
     15          1           0       -3.118135   -0.787666   -0.880617
     16          1           0        2.555129   -1.763345   -0.801592
     17          1           0        3.375896   -0.360048   -0.117283
     18          1           0        2.655935   -1.570209    0.941651
 ---------------------------------------------------------------------

 SCF Done:  E(RHF) =  -310.340899747     A.U. after    2 cycles

 The electronic state is 1-A.
 Alpha  occ. eigenvalues --  -11.49655 -11.43773 -11.42342 -11.40724 -11.40004
 Alpha  occ. eigenvalues --  -11.38363 -11.38229 -11.34794  -1.35489  -1.16139
 Alpha  occ. eigenvalues --   -1.11301  -0.99994  -0.98120  -0.84504  -0.80715
 Alpha  occ. eigenvalues --   -0.69041  -0.62136  -0.61006  -0.57823  -0.56425
 Alpha  occ. eigenvalues --   -0.55794  -0.54492  -0.53752  -0.48830  -0.46962
 Alpha  occ. eigenvalues --   -0.42448  -0.41932  -0.31701  -0.30688
 Alpha virt. eigenvalues --    0.03459   0.04712   0.04990   0.05822   0.06031
 Alpha virt. eigenvalues --    0.06376   0.07088   0.07275   0.07339   0.09497
 Alpha virt. eigenvalues --    0.09876   0.11522   0.12467   0.12619   0.13112

 Mulliken charges:
               1
     1  C   -1.562410
     2  C   -3.203905
     3  C   -3.026771
     4  C   -1.520683
     5  C    3.104283
     6  C    3.367711
     7  C   -5.487865
     8  C   -5.393383
     9  H    1.467702
    10  H    1.805922
    11  H    1.775594
    12  H    1.939458
    13  H    1.331553
    14  H    1.038317
    15  H    1.045198
    16  H    1.024668
    17  H    1.268537
    18  H    1.026075
 Sum of Mulliken charges =  -0.00000

 Dipole moment (field-independent basis, Debye):
    X=             -0.0434    Y=             -0.2352    Z=              0.0108  Tot=              0.2394

 Test job not archived.
 1\1\GINC-SE084\SP\RHF\Aug-CC-pVDZ\C8H10\OHZDE\06-Apr-2025\0\\#t hf aug
 -cc-pvdz iop(5/13=1,5/36=2,99/5=2) pseudo=read geom=check guess=(read,
 tcheck) scf=(maxcycle=1)\\title\\0,1\C,0,-0.006539,1.816315,0.00077\C,
 0,-1.206885,1.122732,0.003227\C,0,1.203615,1.128282,-0.003363\C,0,0.00
 3201,-0.944349,-0.003037\C,0,-1.217101,-0.27502,0.000767\C,0,1.224038,
 -0.263414,-0.004087\C,0,-2.520205,-1.03151,-0.000034\C,0,2.523101,-1.0
 26861,0.003313\H,0,-0.009355,2.898503,0.000809\H,0,-2.143779,1.66603,0
 .005352\H,0,2.135935,1.678679,-0.006919\H,0,0.006865,-2.028704,-0.0063

 Normal termination of Gaussian 16 at Sun Apr  6 08:20:52 2025.
