 Gaussian 16, Revision C.01,

 ----------------------------------------------------------------------
 #t hf aug-cc-pvdz symm=none int=(grid=ultrafine) guess=(read,tcheck) s
 table=(opt,rrhf)
 ----------------------------------------------------------------------
 -----
 title
 -----
 Symbolic Z-matrix:
 Charge =  0 Multiplicity = 1

 SCF Done:  E(RHF) =  -377.281578226     A.U. after   13 cycles
 Normal termination of Gaussian 16 at Sun Apr  6 08:17:38 2025.
 Gaussian 16:  ES64L-G16RevC.01  3-Jul-2019

 ----------------------------------------------------------------------
 #t hf aug-cc-pvdz iop(5/13=1,5/36=2,99/5=2) pseudo=read geom=check gue
 ss=(read,tcheck) scf=(maxcycle=1)
 ----------------------------------------------------------------------
 -----
 title
 -----
 Structure from the checkpoint file:  "maleic_anydride.chk"
 Charge =  0 Multiplicity = 1

                         Standard orientation:
 ---------------------------------------------------------------------
 Center     Atomic      Atomic             Coordinates (Angstroms)
 Number     Number       Type             X           Y           Z
 ---------------------------------------------------------------------
      1          8           0        0.000000    2.236047    0.597444
      2          6           0        0.000000    1.129930    0.158173
      3          8           0        0.000000   -0.000000    0.969792
      4          6           0       -0.000000   -1.129930    0.158173
      5          8           0       -0.000000   -2.236047    0.597444
      6          6           0        0.000000   -0.664242   -1.254113
      7          6           0        0.000000    0.664242   -1.254113
      8          1           0        0.000000   -1.352815   -2.083086
      9          1           0        0.000000    1.352815   -2.083086
 ---------------------------------------------------------------------

 SCF Done:  E(RHF) =  -378.850517293     A.U. after    2 cycles

 The electronic state is 1-A1.
 Alpha  occ. eigenvalues --  -21.13612 -21.09807 -21.09791 -11.57802 -11.55511
 Alpha  occ. eigenvalues --  -11.51216 -11.45340  -1.91214  -1.75588  -1.68230
 Alpha  occ. eigenvalues --   -1.26728  -1.00090  -0.84116  -0.83686  -0.69483
 Alpha  occ. eigenvalues --   -0.64886  -0.62405  -0.57748  -0.52902  -0.51352
 Alpha  occ. eigenvalues --   -0.50450  -0.42197  -0.35660  -0.34845  -0.31228
 Alpha virt. eigenvalues --    0.02358   0.04566   0.05228   0.08431   0.09684
 Alpha virt. eigenvalues --    0.10472   0.10855   0.11602   0.11757   0.11973
 Alpha virt. eigenvalues --    0.13290   0.13580   0.14126   0.14423   0.15796

 Mulliken charges:
               1
     1  O   -3.171239
     2  C    4.532881
     3  O   -2.844782
     4  C    4.532881
     5  O   -3.171239
     6  C   -1.226025
     7  C   -1.226025
     8  H    1.286773
     9  H    1.286773
 Sum of Mulliken charges =   0.00000

 Dipole moment (field-independent basis, Debye):
    X=              0.0000    Y=             -0.0000    Z=             -2.4594  Tot=              2.4594

 Test job not archived.
 1\1\GINC-SE084\SP\RHF\Aug-CC-pVDZ\C4H2O3\OHZDE\06-Apr-2025\0\\#t hf au
 g-cc-pvdz iop(5/13=1,5/36=2,99/5=2) pseudo=read geom=check guess=(read
 ,tcheck) scf=(maxcycle=1)\\title\\0,1\O,0,0.,2.236047,0.597444\C,0,0.,
 1.12993,0.158173\O,0,0.,0.,0.969792\C,0,0.,-1.12993,0.158173\O,0,0.,-2
 .236047,0.597444\C,0,0.,-0.664242,-1.254113\C,0,0.,0.664242,-1.254113\
 H,0,0.,-1.352815,-2.083086\H,0,0.,1.352815,-2.083086\\Version=ES64L-G1
 6RevC.01\State=1-A1\HF=-378.8505173\RMSD=1.105e+00\Dipole=0.,0.,-0.967
 6094\Quadrupole=0.7533988,-2.8550033,2.1016044,0.,0.,0.\PG=C02V [C2(O1

 Normal termination of Gaussian 16 at Sun Apr  6 08:17:41 2025.
