 Gaussian 16, Revision C.01,

 ----------------------------------------------------------------------
 #t hf aug-cc-pvdz symm=none int=(grid=ultrafine) guess=(read,tcheck) s
 table=(opt,rrhf)
 ----------------------------------------------------------------------
 -----
 title
 -----
 Symbolic Z-matrix:
 Charge =  0 Multiplicity = 1

 SCF Done:  E(RHF) =  -1060.71520124     A.U. after   15 cycles
 Normal termination of Gaussian 16 at Sun Apr  6 08:17:43 2025.
 Gaussian 16:  ES64L-G16RevC.01  3-Jul-2019

 ----------------------------------------------------------------------
 #t hf aug-cc-pvdz iop(5/13=1,5/36=2,99/5=2) pseudo=read geom=check gue
 ss=(read,tcheck) scf=(maxcycle=1)
 ----------------------------------------------------------------------
 -----
 title
 -----
 Structure from the checkpoint file:  "mercapto_Z-3-mercaptoacrylate.chk"
 Charge =  0 Multiplicity = 1

                         Standard orientation:
 ---------------------------------------------------------------------
 Center     Atomic      Atomic             Coordinates (Angstroms)
 Number     Number       Type             X           Y           Z
 ---------------------------------------------------------------------
      1         16           0       -2.265968   -0.918361   -0.000001
      2         16           0        2.145504   -0.995460    0.000002
      3          8           0       -0.634755   -0.362504    0.000000
      4          8           0       -1.517867    1.704175   -0.000002
      5          6           0       -0.541512    0.991131   -0.000001
      6          6           0        0.843271    1.467699    0.000000
      7          6           0        1.974268    0.747540    0.000000
      8          1           0       -1.833773   -2.193713    0.000000
      9          1           0        3.490805   -0.983923    0.000003
     10          1           0        0.921463    2.545287   -0.000001
     11          1           0        2.913753    1.281908    0.000000
 ---------------------------------------------------------------------

 SCF Done:  E(RHF) =  -1062.29723002     A.U. after    2 cycles

 The electronic state is 1-A.
 Alpha  occ. eigenvalues --  -75.75200 -75.72482 -21.11259 -21.05669 -13.22012
 Alpha  occ. eigenvalues --  -13.17522 -13.16834 -13.16306 -13.06279 -13.03723
 Alpha  occ. eigenvalues --  -11.53640 -11.47908 -11.41690  -8.08551  -8.06494
 Alpha  occ. eigenvalues --   -1.85705  -1.66910  -1.26622  -1.11901  -1.07288
 Alpha  occ. eigenvalues --   -0.89375  -0.74056  -0.68633  -0.64224  -0.58989
 Alpha  occ. eigenvalues --   -0.56148  -0.52057  -0.51312  -0.44125  -0.42981
 Alpha  occ. eigenvalues --   -0.38306  -0.37909  -0.31259  -0.25330  -0.23484
 Alpha virt. eigenvalues --    0.02189   0.03505   0.04243   0.05856   0.07905
 Alpha virt. eigenvalues --    0.09017   0.09668   0.10910   0.11743   0.12988
 Alpha virt. eigenvalues --    0.13350   0.13653   0.13910   0.14541   0.15245

 Mulliken charges:
               1
     1  S   -0.207850
     2  S   -0.403470
     3  O   -2.120852
     4  O   -2.969723
     5  C    4.540427
     6  C   -1.783614
     7  C   -1.378018
     8  H    0.966086
     9  H    1.033239
    10  H    1.353661
    11  H    0.970115
 Sum of Mulliken charges =   0.00000

 Dipole moment (field-independent basis, Debye):
    X=              0.1779    Y=             -1.8519    Z=              0.0000  Tot=              1.8604

 Test job not archived.
 1\1\GINC-SE086\SP\RHF\Aug-CC-pVDZ\C3H4O2S2\OHZDE\06-Apr-2025\0\\#t hf
 aug-cc-pvdz iop(5/13=1,5/36=2,99/5=2) pseudo=read geom=check guess=(re
 ad,tcheck) scf=(maxcycle=1)\\title\\0,1\S,0,-2.265968,-0.918361,-0.000
 001\S,0,2.145504,-0.99546,0.000002\O,0,-0.634755,-0.362504,0.\O,0,-1.5
 17867,1.704175,-0.000002\C,0,-0.541512,0.991131,-0.000001\C,0,0.843271
 ,1.467699,0.\C,0,1.974268,0.74754,0.\H,0,-1.833773,-2.193713,0.\H,0,3.
 490805,-0.983923,0.000003\H,0,0.921463,2.545287,-0.000001\H,0,2.913753
 ,1.281908,0.\\Version=ES64L-G16RevC.01\State=1-A\HF=-1062.29723\RMSD=8

 Normal termination of Gaussian 16 at Sun Apr  6 08:19:05 2025.
