 Gaussian 16, Revision C.01,

 ----------------------------------------------------------------------
 #t hf aug-cc-pvdz symm=none int=(grid=ultrafine) guess=(read,tcheck) s
 table=(opt,rrhf)
 ----------------------------------------------------------------------
 -----
 title
 -----
 Symbolic Z-matrix:
 Charge =  0 Multiplicity = 1

 SCF Done:  E(RHF) =  -347.850125408     A.U. after   14 cycles
 Normal termination of Gaussian 16 at Sun Apr  6 08:19:19 2025.
 Gaussian 16:  ES64L-G16RevC.01  3-Jul-2019

 ----------------------------------------------------------------------
 #t hf aug-cc-pvdz iop(5/13=1,5/36=2,99/5=2) pseudo=read geom=check gue
 ss=(read,tcheck) scf=(maxcycle=1)
 ----------------------------------------------------------------------
 -----
 title
 -----
 Structure from the checkpoint file:  "mesitylene.chk"
 Charge =  0 Multiplicity = 1

                         Standard orientation:
 ---------------------------------------------------------------------
 Center     Atomic      Atomic             Coordinates (Angstroms)
 Number     Number       Type             X           Y           Z
 ---------------------------------------------------------------------
      1          6           0       -0.816117    1.116614   -0.000003
      2          6           0       -0.558958   -1.265085   -0.000003
      3          6           0        1.375075    0.148470   -0.000003
      4          6           0       -1.396484   -0.145289   -0.000002
      5          6           0        0.572419    1.282036   -0.000002
      6          6           0        0.824066   -1.136747   -0.000002
      7          6           0       -2.894085   -0.315438    0.000003
      8          6           0        1.173865    2.664070    0.000003
      9          6           0        1.720220   -2.348632    0.000003
     10          1           0       -1.453667    1.993557   -0.000006
     11          1           0       -0.999638   -2.255692   -0.000006
     12          1           0        2.453305    0.262133   -0.000006
     13          1           0       -3.229193   -0.871675   -0.878113
     14          1           0       -3.229201   -0.871541    0.878201
     15          1           0       -3.403651    0.647324   -0.000072
     16          1           0        2.262425    2.623985   -0.000072
     17          1           0        0.859703    3.232400   -0.878113
     18          1           0        0.859824    3.232340    0.878201
     19          1           0        2.369376   -2.360799    0.878201
     20          1           0        1.141226   -3.271311   -0.000072
     21          1           0        2.369488   -2.360725   -0.878113
 ---------------------------------------------------------------------

 SCF Done:  E(RHF) =  -349.586300712     A.U. after    2 cycles

 The electronic state is 1-A.
 Alpha  occ. eigenvalues --  -11.48787 -11.43814 -11.43814 -11.41440 -11.41440
 Alpha  occ. eigenvalues --  -11.38564 -11.38192 -11.38192 -11.34322  -1.36235
 Alpha  occ. eigenvalues --   -1.15944  -1.15944  -1.01532  -0.98022  -0.98022
 Alpha  occ. eigenvalues --   -0.80881  -0.80881  -0.68291  -0.62142  -0.58823
 Alpha  occ. eigenvalues --   -0.58166  -0.56231  -0.56231  -0.55138  -0.55138
 Alpha  occ. eigenvalues --   -0.53140  -0.53140  -0.46896  -0.45670  -0.41240
 Alpha  occ. eigenvalues --   -0.41240  -0.30551  -0.30551
 Alpha virt. eigenvalues --    0.03431   0.04771   0.04771   0.05829   0.05829
 Alpha virt. eigenvalues --    0.06253   0.06253   0.06669   0.07128   0.07989
 Alpha virt. eigenvalues --    0.09197   0.09746   0.09746   0.12169   0.12169

 Mulliken charges:
               1
     1  C   -2.479131
     2  C   -2.479108
     3  C   -2.479166
     4  C    2.839475
     5  C    2.839435
     6  C    2.839450
     7  C   -5.616654
     8  C   -5.616659
     9  C   -5.616659
    10  H    1.973860
    11  H    1.973858
    12  H    1.973859
    13  H    0.981226
    14  H    0.981221
    15  H    1.320032
    16  H    1.320033
    17  H    0.981227
    18  H    0.981221
    19  H    0.981221
    20  H    1.320032
    21  H    0.981227
 Sum of Mulliken charges =   0.00000

 Dipole moment (field-independent basis, Debye):
    X=              0.0000    Y=              0.0000    Z=              0.0000  Tot=              0.0000

 Test job not archived.
 1\1\GINC-SE086\SP\RHF\Aug-CC-pVDZ\C9H12\OHZDE\06-Apr-2025\0\\#t hf aug
 -cc-pvdz iop(5/13=1,5/36=2,99/5=2) pseudo=read geom=check guess=(read,
 tcheck) scf=(maxcycle=1)\\title\\0,1\C,0,1.195072,0.696188,-0.000003\C
 ,0,-1.200452,0.686869,-0.000003\C,0,0.00538,-1.383057,-0.000003\C,0,0.
 ,1.404022,-0.000002\C,0,1.215919,-0.702011,-0.000002\C,0,-1.215919,-0.
 702011,-0.000002\C,0,-0.014264,2.91119,0.000003\C,0,2.528296,-1.443242
 ,0.000003\C,0,-2.514032,-1.467948,0.000003\H,0,2.133281,1.239569,-0.00
 0006\H,0,-2.140139,1.227691,-0.000006\H,0,0.006857,-2.46726,-0.000006\

 Normal termination of Gaussian 16 at Sun Apr  6 08:20:56 2025.
