 Gaussian 16, Revision C.01,

 ----------------------------------------------------------------------
 #t hf aug-cc-pvdz symm=none int=(grid=ultrafine) guess=(read,tcheck) s
 table=(opt,rrhf)
 ----------------------------------------------------------------------
 -----
 title
 -----
 Symbolic Z-matrix:
 Charge =  0 Multiplicity = 1

 SCF Done:  E(RHF) =  -343.765923563     A.U. after   14 cycles
 Normal termination of Gaussian 16 at Sun Apr  6 08:21:27 2025.
 Gaussian 16:  ES64L-G16RevC.01  3-Jul-2019

 ----------------------------------------------------------------------
 #t hf aug-cc-pvdz iop(5/13=1,5/36=2,99/5=2) pseudo=read geom=check gue
 ss=(read,tcheck) scf=(maxcycle=1)
 ----------------------------------------------------------------------
 -----
 title
 -----
 Structure from the checkpoint file:  "methylcrotonate.chk"
 Charge =  0 Multiplicity = 1

                         Standard orientation:
 ---------------------------------------------------------------------
 Center     Atomic      Atomic             Coordinates (Angstroms)
 Number     Number       Type             X           Y           Z
 ---------------------------------------------------------------------
      1          8           0       -0.793144    1.368201   -0.000236
      2          6           0       -0.564751    0.180694   -0.000163
      3          6           0        0.769320   -0.452538   -0.000259
      4          6           0        1.881122    0.280508    0.000126
      5          6           0        3.269891   -0.259619    0.000137
      6          8           0       -1.538842   -0.759642    0.000060
      7          6           0       -2.885236   -0.262814    0.000226
      8          1           0        0.797736   -1.534345   -0.001112
      9          1           0        1.768232    1.360075    0.000946
     10          1           0        3.819852    0.096612    0.875095
     11          1           0        3.287143   -1.348669   -0.000445
     12          1           0        3.820235    0.097410   -0.874284
     13          1           0       -3.068501    0.342864    0.886099
     14          1           0       -3.068919    0.342320   -0.885935
     15          1           0       -3.521975   -1.142120    0.000642
 ---------------------------------------------------------------------

 SCF Done:  E(RHF) =  -345.316351217     A.U. after    2 cycles

 The electronic state is 1-A.
 Alpha  occ. eigenvalues --  -21.08470 -21.03642 -11.52418 -11.45309 -11.41267
 Alpha  occ. eigenvalues --  -11.40708 -11.38213  -1.83438  -1.65108  -1.22756
 Alpha  occ. eigenvalues --   -1.06529  -0.99544  -0.83946  -0.74415  -0.68217
 Alpha  occ. eigenvalues --   -0.62747  -0.60880  -0.58248  -0.58037  -0.54330
 Alpha  occ. eigenvalues --   -0.51765  -0.50399  -0.49217  -0.41391  -0.35144
 Alpha  occ. eigenvalues --   -0.31298  -0.29113
 Alpha virt. eigenvalues --    0.03240   0.04817   0.05687   0.05838   0.06244
 Alpha virt. eigenvalues --    0.06746   0.07341   0.07838   0.09339   0.10489
 Alpha virt. eigenvalues --    0.11106   0.13240   0.14177   0.14303   0.14436

 Mulliken charges:
               1
     1  O   -3.468367
     2  C    6.252368
     3  C   -3.712201
     4  C    1.353167
     5  C   -4.623367
     6  O   -3.460304
     7  C   -3.045090
     8  H    1.642000
     9  H    1.530206
    10  H    1.119100
    11  H    1.241931
    12  H    1.119083
    13  H    1.340259
    14  H    1.340141
    15  H    1.371073
 Sum of Mulliken charges =   0.00000

 Dipole moment (field-independent basis, Debye):
    X=              0.6967    Y=             -1.0087    Z=              0.0003  Tot=              1.2259

 Test job not archived.
 1\1\GINC-SE049\SP\RHF\Aug-CC-pVDZ\C5H8O2\OHZDE\06-Apr-2025\0\\#t hf au
 g-cc-pvdz iop(5/13=1,5/36=2,99/5=2) pseudo=read geom=check guess=(read
 ,tcheck) scf=(maxcycle=1)\\title\\0,1\O,0,-0.793144,1.368201,-0.000236
 \C,0,-0.564751,0.180694,-0.000163\C,0,0.76932,-0.452538,-0.000259\C,0,
 1.881122,0.280508,0.000126\C,0,3.269891,-0.259619,0.000137\O,0,-1.5388
 42,-0.759642,0.00006\C,0,-2.885236,-0.262814,0.000226\H,0,0.797736,-1.
 534345,-0.001112\H,0,1.768232,1.360075,0.000946\H,0,3.819852,0.096612,
 0.875095\H,0,3.287143,-1.348669,-0.000445\H,0,3.820235,0.09741,-0.8742

 Normal termination of Gaussian 16 at Sun Apr  6 08:21:44 2025.
