 Gaussian 16, Revision C.01,

 ----------------------------------------------------------------------
 #t hf aug-cc-pvdz symm=none int=(grid=ultrafine) guess=(read,tcheck) s
 table=(opt,rrhf)
 ----------------------------------------------------------------------
 -----
 title
 -----
 Symbolic Z-matrix:
 Charge =  0 Multiplicity = 1

 SCF Done:  E(RHF) =  -243.704573039     A.U. after   14 cycles
 Normal termination of Gaussian 16 at Sun Apr  6 08:22:03 2025.
 Gaussian 16:  ES64L-G16RevC.01  3-Jul-2019

 ----------------------------------------------------------------------
 #t hf aug-cc-pvdz iop(5/13=1,5/36=2,99/5=2) pseudo=read geom=check gue
 ss=(read,tcheck) scf=(maxcycle=1)
 ----------------------------------------------------------------------
 -----
 title
 -----
 Structure from the checkpoint file:  "methylnitrite.chk"
 Charge =  0 Multiplicity = 1

                         Standard orientation:
 ---------------------------------------------------------------------
 Center     Atomic      Atomic             Coordinates (Angstroms)
 Number     Number       Type             X           Y           Z
 ---------------------------------------------------------------------
      1          6           0        1.328264    0.334723    0.000000
      2          8           0        0.000000    0.884876    0.000000
      3          1           0        1.983497    1.199685    0.000000
      4          1           0        1.493655   -0.273528    0.888518
      5          1           0        1.493655   -0.273528   -0.888518
      6          7           0       -1.045924   -0.048758    0.000000
      7          8           0       -0.702365   -1.174834    0.000000
 ---------------------------------------------------------------------

 SCF Done:  E(RHF) =  -244.743973423     A.U. after    2 cycles

 The electronic state is 1-A'.
 Alpha  occ. eigenvalues --  -21.14866 -21.10824 -15.93384 -11.42260  -1.97679
 Alpha  occ. eigenvalues --   -1.72712  -1.07489  -0.88498  -0.70314  -0.65631
 Alpha  occ. eigenvalues --   -0.62558  -0.56529  -0.55749  -0.44089  -0.34633
 Alpha  occ. eigenvalues --   -0.30477
 Alpha virt. eigenvalues --    0.03616   0.05879   0.06271   0.09776   0.13632
 Alpha virt. eigenvalues --    0.13900   0.14768   0.14835   0.15540   0.17856
 Alpha virt. eigenvalues --    0.18438   0.20500   0.22640   0.25611   0.26630

 Mulliken charges:
               1
     1  C   -2.625357
     2  O   -1.943096
     3  H    1.240105
     4  H    1.330803
     5  H    1.330803
     6  N    2.343564
     7  O   -1.676821
 Sum of Mulliken charges =  -0.00000

 Dipole moment (field-independent basis, Debye):
    X=              1.9621    Y=             -0.0448    Z=             -0.0000  Tot=              1.9626

 Test job not archived.
 1\1\GINC-SE155\SP\RHF\Aug-CC-pVDZ\C1H3N1O2\OHZDE\06-Apr-2025\0\\#t hf
 aug-cc-pvdz iop(5/13=1,5/36=2,99/5=2) pseudo=read geom=check guess=(re
 ad,tcheck) scf=(maxcycle=1)\\title\\0,1\C,0,1.328264,0.334723,0.\O,0,0
 .,0.884876,0.\H,0,1.983497,1.199685,0.\H,0,1.493655,-0.273528,0.888518
 \H,0,1.493655,-0.273528,-0.888518\N,0,-1.045924,-0.048758,0.\O,0,-0.70
 2365,-1.174834,0.\\Version=ES64L-G16RevC.01\State=1-A'\HF=-244.7439734
 \RMSD=6.994e-02\Dipole=0.7719407,-0.017613,0.\Quadrupole=0.0388389,-0.
 7759062,0.7370673,0.7033292,0.,0.\PG=CS [SG(C1H1N1O2),X(H2)]\\@

 Normal termination of Gaussian 16 at Sun Apr  6 08:22:57 2025.
