 Gaussian 16, Revision C.01,

 ----------------------------------------------------------------------
 #t hf aug-cc-pvdz symm=none int=(grid=ultrafine) guess=(read,tcheck) s
 table=(opt,rrhf)
 ----------------------------------------------------------------------
 -----
 title
 -----
 Symbolic Z-matrix:
 Charge =  0 Multiplicity = 1

 SCF Done:  E(RHF) =  -515.804320056     A.U. after   12 cycles
 Normal termination of Gaussian 16 at Sun Apr  6 08:23:40 2025.
 Gaussian 16:  ES64L-G16RevC.01  3-Jul-2019

 ----------------------------------------------------------------------
 #t hf aug-cc-pvdz iop(5/13=1,5/36=2,99/5=2) pseudo=read geom=check gue
 ss=(read,tcheck) scf=(maxcycle=1)
 ----------------------------------------------------------------------
 -----
 title
 -----
 Structure from the checkpoint file:  "methylthioethane.chk"
 Charge =  0 Multiplicity = 1

                         Standard orientation:
 ---------------------------------------------------------------------
 Center     Atomic      Atomic             Coordinates (Angstroms)
 Number     Number       Type             X           Y           Z
 ---------------------------------------------------------------------
      1          6           0       -1.716415   -1.342580    0.000000
      2          6           0        1.817500    0.896420    0.000000
      3          6           0       -0.231871   -1.002452    0.000000
      4         16           0        0.000000    0.813744    0.000000
      5          1           0       -2.213283   -0.938659    0.882278
      6          1           0       -2.213283   -0.938659   -0.882278
      7          1           0       -1.855592   -2.424603    0.000000
      8          1           0        2.231538    0.426391    0.891139
      9          1           0        2.087879    1.950284    0.000000
     10          1           0        2.231538    0.426391   -0.891139
     11          1           0        0.257960   -1.414687   -0.883038
     12          1           0        0.257960   -1.414687    0.883038
 ---------------------------------------------------------------------

 SCF Done:  E(RHF) =  -516.662607657     A.U. after    2 cycles

 The electronic state is 1-A'.
 Alpha  occ. eigenvalues --  -75.66537 -13.09667 -13.05921 -12.99719 -11.41030
 Alpha  occ. eigenvalues --  -11.38856 -11.36620  -8.00602  -1.24449  -1.09927
 Alpha  occ. eigenvalues --   -0.94417  -0.84396  -0.63067  -0.59426  -0.58219
 Alpha  occ. eigenvalues --   -0.57786  -0.51284  -0.49817  -0.41717  -0.35563
 Alpha  occ. eigenvalues --   -0.21557
 Alpha virt. eigenvalues --    0.03358   0.03648   0.05496   0.05622   0.06633
 Alpha virt. eigenvalues --    0.07343   0.07528   0.08365   0.09856   0.12032
 Alpha virt. eigenvalues --    0.13111   0.13980   0.14635   0.15943   0.16304

 Mulliken charges:
               1
     1  C   -3.436987
     2  C   -4.822398
     3  C   -3.811821
     4  S    1.228768
     5  H    1.303921
     6  H    1.303921
     7  H    1.130459
     8  H    1.423937
     9  H    1.316656
    10  H    1.423937
    11  H    1.469803
    12  H    1.469803
 Sum of Mulliken charges =   0.00000

 Dipole moment (field-independent basis, Debye):
    X=             -0.1077    Y=             -0.0488    Z=             -0.0000  Tot=              0.1182

 Test job not archived.
 1\1\GINC-SE042\SP\RHF\Aug-CC-pVDZ\C3H8S1\OHZDE\06-Apr-2025\0\\#t hf au
 g-cc-pvdz iop(5/13=1,5/36=2,99/5=2) pseudo=read geom=check guess=(read
 ,tcheck) scf=(maxcycle=1)\\title\\0,1\C,0,-1.716415,-1.34258,0.\C,0,1.
 8175,0.89642,0.\C,0,-0.231871,-1.002452,0.\S,0,0.,0.813744,0.\H,0,-2.2
 13283,-0.938659,0.882278\H,0,-2.213283,-0.938659,-0.882278\H,0,-1.8555
 92,-2.424603,0.\H,0,2.231538,0.426391,0.891139\H,0,2.087879,1.950284,0
 .\H,0,2.231538,0.426391,-0.891139\H,0,0.25796,-1.414687,-0.883038\H,0,
 0.25796,-1.414687,0.883038\\Version=ES64L-G16RevC.01\State=1-A'\HF=-51

 Normal termination of Gaussian 16 at Sun Apr  6 08:23:45 2025.
