 Gaussian 16, Revision C.01,

 ----------------------------------------------------------------------
 #t hf aug-cc-pvdz symm=none int=(grid=ultrafine) guess=(read,tcheck) s
 table=(opt,rrhf)
 ----------------------------------------------------------------------
 -----
 title
 -----
 Symbolic Z-matrix:
 Charge =  0 Multiplicity = 1

 SCF Done:  E(RHF) =  -305.912325021     A.U. after   13 cycles
 Normal termination of Gaussian 16 at Sun Apr  6 08:21:12 2025.
 Gaussian 16:  ES64L-G16RevC.01  3-Jul-2019

 ----------------------------------------------------------------------
 #t hf aug-cc-pvdz iop(5/13=1,5/36=2,99/5=2) pseudo=read geom=check gue
 ss=(read,tcheck) scf=(maxcycle=1)
 ----------------------------------------------------------------------
 -----
 title
 -----
 Structure from the checkpoint file:  "methyl_propanoate.chk"
 Charge =  0 Multiplicity = 1

                         Standard orientation:
 ---------------------------------------------------------------------
 Center     Atomic      Atomic             Coordinates (Angstroms)
 Number     Number       Type             X           Y           Z
 ---------------------------------------------------------------------
      1          6           0        0.000000    0.105348    0.000000
      2          6           0        2.229810   -1.101248    0.000000
      3          6           0       -2.125328    1.140307    0.000000
      4          6           0        0.712415   -1.227832    0.000000
      5          8           0        0.529639    1.188224    0.000000
      6          8           0       -1.340167   -0.063276    0.000000
      7          1           0        2.578825   -0.559466    0.877868
      8          1           0        2.691306   -2.088610    0.000000
      9          1           0        2.578825   -0.559466   -0.877868
     10          1           0       -3.160662    0.813935    0.000000
     11          1           0       -1.911948    1.735162   -0.886287
     12          1           0       -1.911948    1.735162    0.886287
     13          1           0        0.359222   -1.787875    0.869073
     14          1           0        0.359222   -1.787875   -0.869073
 ---------------------------------------------------------------------

 SCF Done:  E(RHF) =  -307.295840181     A.U. after    2 cycles

 The electronic state is 1-A'.
 Alpha  occ. eigenvalues --  -21.08696 -21.04483 -11.51868 -11.41780 -11.41290
 Alpha  occ. eigenvalues --  -11.36687  -1.83815  -1.65703  -1.18637  -1.02923
 Alpha  occ. eigenvalues --   -0.92411  -0.74371  -0.67640  -0.65354  -0.61124
 Alpha  occ. eigenvalues --   -0.59242  -0.56060  -0.51889  -0.50100  -0.48606
 Alpha  occ. eigenvalues --   -0.46071  -0.41337  -0.32075  -0.29329
 Alpha virt. eigenvalues --    0.03380   0.05015   0.05614   0.05740   0.06452
 Alpha virt. eigenvalues --    0.06610   0.07011   0.07154   0.10577   0.11906
 Alpha virt. eigenvalues --    0.13181   0.14022   0.14435   0.15071   0.15422

 Mulliken charges:
               1
     1  C    6.120353
     2  C   -3.402474
     3  C   -2.976357
     4  C   -4.081145
     5  O   -2.993810
     6  O   -3.196760
     7  H    1.283026
     8  H    1.061761
     9  H    1.283026
    10  H    1.360383
    11  H    1.299328
    12  H    1.299328
    13  H    1.471670
    14  H    1.471670
 Sum of Mulliken charges =   0.00000

 Dipole moment (field-independent basis, Debye):
    X=             -0.9118    Y=             -0.7805    Z=              0.0000  Tot=              1.2002

 Test job not archived.
 1\1\GINC-SE208\SP\RHF\Aug-CC-pVDZ\C4H8O2\OHZDE\06-Apr-2025\0\\#t hf au
 g-cc-pvdz iop(5/13=1,5/36=2,99/5=2) pseudo=read geom=check guess=(read
 ,tcheck) scf=(maxcycle=1)\\title\\0,1\C,0,0.,0.105348,0.\C,0,2.22981,-
 1.101248,0.\C,0,-2.125328,1.140307,0.\C,0,0.712415,-1.227832,0.\O,0,0.
 529639,1.188224,0.\O,0,-1.340167,-0.063276,0.\H,0,2.578825,-0.559466,0
 .877868\H,0,2.691306,-2.08861,0.\H,0,2.578825,-0.559466,-0.877868\H,0,
 -3.160662,0.813935,0.\H,0,-1.911948,1.735162,-0.886287\H,0,-1.911948,1
 .735162,0.886287\H,0,0.359222,-1.787875,0.869073\H,0,0.359222,-1.78787

 Normal termination of Gaussian 16 at Sun Apr  6 08:21:43 2025.
