 Gaussian 16, Revision C.01,

 ----------------------------------------------------------------------
 #t hf aug-cc-pvdz symm=none int=(grid=ultrafine) guess=(read,tcheck) s
 table=(opt,rrhf)
 ----------------------------------------------------------------------
 -----
 title
 -----
 Symbolic Z-matrix:
 Charge =  0 Multiplicity = 1

 SCF Done:  E(RHF) =  -281.535784730     A.U. after   15 cycles
 Normal termination of Gaussian 16 at Sun Apr  6 08:20:57 2025.
 Gaussian 16:  ES64L-G16RevC.01  3-Jul-2019

 ----------------------------------------------------------------------
 #t hf aug-cc-pvdz iop(5/13=1,5/36=2,99/5=2) pseudo=read geom=check gue
 ss=(read,tcheck) scf=(maxcycle=1)
 ----------------------------------------------------------------------
 -----
 title
 -----
 Structure from the checkpoint file:  "methyl_peroxycyanate.chk"
 Charge =  0 Multiplicity = 1

                         Standard orientation:
 ---------------------------------------------------------------------
 Center     Atomic      Atomic             Coordinates (Angstroms)
 Number     Number       Type             X           Y           Z
 ---------------------------------------------------------------------
      1          8           0        0.168175    0.731979   -0.169936
      2          8           0       -0.875385    0.011600    0.633516
      3          7           0        2.292619   -0.465281   -0.025231
      4          6           0        1.271007    0.074684   -0.071494
      5          6           0       -1.910219   -0.317169   -0.281016
      6          1           0       -2.328484    0.577593   -0.741855
      7          1           0       -1.568489   -1.027299   -1.034576
      8          1           0       -2.658412   -0.787050    0.359468
 ---------------------------------------------------------------------

 SCF Done:  E(RHF) =  -282.719002049     A.U. after    2 cycles

 The electronic state is 1-A.
 Alpha  occ. eigenvalues --  -21.19107 -21.17076 -15.76758 -11.48442 -11.44910
 Alpha  occ. eigenvalues --   -2.00644  -1.57947  -1.29006  -1.01396  -0.75190
 Alpha  occ. eigenvalues --   -0.67789  -0.63763  -0.62923  -0.57422  -0.53046
 Alpha  occ. eigenvalues --   -0.50405  -0.40174  -0.39113  -0.33724
 Alpha virt. eigenvalues --    0.02756   0.05156   0.05534   0.08252   0.09289
 Alpha virt. eigenvalues --    0.11326   0.11617   0.12427   0.13610   0.13874
 Alpha virt. eigenvalues --    0.14852   0.17128   0.19000   0.20171   0.22024

 Mulliken charges:
               1
     1  O   -1.537941
     2  O   -1.285991
     3  N   -2.348614
     4  C    3.724692
     5  C   -2.469807
     6  H    1.337358
     7  H    1.305004
     8  H    1.275298
 Sum of Mulliken charges =  -0.00000

 Dipole moment (field-independent basis, Debye):
    X=             -4.6463    Y=              0.5488    Z=             -0.3185  Tot=              4.6894

 Test job not archived.
 1\1\GINC-SE177\SP\RHF\Aug-CC-pVDZ\C2H3N1O2\OHZDE\06-Apr-2025\0\\#t hf
 aug-cc-pvdz iop(5/13=1,5/36=2,99/5=2) pseudo=read geom=check guess=(re
 ad,tcheck) scf=(maxcycle=1)\\title\\0,1\O,0,0.168175,0.731979,-0.16993
 6\O,0,-0.875385,0.0116,0.633516\N,0,2.292619,-0.465281,-0.025231\C,0,1
 .271007,0.074684,-0.071494\C,0,-1.910219,-0.317169,-0.281016\H,0,-2.32
 8484,0.577593,-0.741855\H,0,-1.568489,-1.027299,-1.034576\H,0,-2.65841
 2,-0.78705,0.359468\\Version=ES64L-G16RevC.01\State=1-A\HF=-282.719002
 \RMSD=4.947e-02\Dipole=-1.8279967,0.2159138,-0.1252885\Quadrupole=-1.7

 Normal termination of Gaussian 16 at Sun Apr  6 08:21:01 2025.
