 Gaussian 16, Revision C.01,

 ----------------------------------------------------------------------
 #t hf aug-cc-pvdz symm=none int=(grid=ultrafine) guess=(read,tcheck) s
 table=(opt,rrhf)
 ----------------------------------------------------------------------
 -----
 title
 -----
 Symbolic Z-matrix:
 Charge =  0 Multiplicity = 1

 SCF Done:  E(RHF) =  -318.522328754     A.U. after   15 cycles
 Normal termination of Gaussian 16 at Sun Apr  6 08:20:57 2025.
 Gaussian 16:  ES64L-G16RevC.01  3-Jul-2019

 ----------------------------------------------------------------------
 #t hf aug-cc-pvdz iop(5/13=1,5/36=2,99/5=2) pseudo=read geom=check gue
 ss=(read,tcheck) scf=(maxcycle=1)
 ----------------------------------------------------------------------
 -----
 title
 -----
 Structure from the checkpoint file:  "methyl_nitrate.chk"
 Charge =  0 Multiplicity = 1

                         Standard orientation:
 ---------------------------------------------------------------------
 Center     Atomic      Atomic             Coordinates (Angstroms)
 Number     Number       Type             X           Y           Z
 ---------------------------------------------------------------------
      1          7           0       -0.000000    0.625382    0.000000
      2          8           0       -1.204276    0.568235    0.000000
      3          8           0        0.724269    1.578295    0.000000
      4          8           0        0.708849   -0.603160    0.000000
      5          6           0       -0.143421   -1.760352    0.000000
      6          1           0        0.559744   -2.588769    0.000000
      7          1           0       -0.764976   -1.786875    0.892235
      8          1           0       -0.764976   -1.786875   -0.892235
 ---------------------------------------------------------------------

 SCF Done:  E(RHF) =  -319.867265853     A.U. after    2 cycles

 The electronic state is 1-A'.
 Alpha  occ. eigenvalues --  -21.14521 -21.12615 -21.12440 -16.06000 -11.44300
 Alpha  occ. eigenvalues --   -2.08832  -1.76644  -1.74109  -1.07081  -0.88431
 Alpha  occ. eigenvalues --   -0.74328  -0.73497  -0.68285  -0.63178  -0.59859
 Alpha  occ. eigenvalues --   -0.50192  -0.38268  -0.37278  -0.34302  -0.33230
 Alpha virt. eigenvalues --    0.03209   0.05474   0.05915   0.09186   0.13778
 Alpha virt. eigenvalues --    0.13954   0.14379   0.14547   0.14906   0.17141
 Alpha virt. eigenvalues --    0.19106   0.20035   0.20735   0.24324   0.24493

 Mulliken charges:
               1
     1  N    6.520233
     2  O   -2.621764
     3  O   -2.685761
     4  O   -2.516238
     5  C   -2.663843
     6  H    1.328424
     7  H    1.319474
     8  H    1.319474
 Sum of Mulliken charges =   0.00000

 Dipole moment (field-independent basis, Debye):
    X=              0.0197    Y=             -2.4453    Z=              0.0000  Tot=              2.4454

 Test job not archived.
 1\1\GINC-SE200\SP\RHF\Aug-CC-pVDZ\C1H3N1O3\OHZDE\06-Apr-2025\0\\#t hf
 aug-cc-pvdz iop(5/13=1,5/36=2,99/5=2) pseudo=read geom=check guess=(re
 ad,tcheck) scf=(maxcycle=1)\\title\\0,1\N,0,0.,0.625382,0.\O,0,-1.2042
 76,0.568235,0.\O,0,0.724269,1.578295,0.\O,0,0.708849,-0.60316,0.\C,0,-
 0.143421,-1.760352,0.\H,0,0.559744,-2.588769,0.\H,0,-0.764976,-1.78687
 5,0.892235\H,0,-0.764976,-1.786875,-0.892235\\Version=ES64L-G16RevC.01
 \State=1-A'\HF=-319.8672659\RMSD=8.507e-02\Dipole=0.0077702,-0.9620607
 ,0.\Quadrupole=-1.7371514,1.1327121,0.6044393,-0.09697,0.,0.\PG=CS [SG

 Normal termination of Gaussian 16 at Sun Apr  6 08:21:42 2025.
