 Gaussian 16, Revision C.01,

 ----------------------------------------------------------------------
 #t hf aug-cc-pvdz symm=none int=(grid=ultrafine) guess=(read,tcheck) s
 table=(opt,rrhf)
 ----------------------------------------------------------------------
 -----
 title
 -----
 Symbolic Z-matrix:
 Charge =  0 Multiplicity = 1

 SCF Done:  E(RHF) =  -514.620383084     A.U. after   13 cycles
 Normal termination of Gaussian 16 at Sun Apr  6 08:23:37 2025.
 Gaussian 16:  ES64L-G16RevC.01  3-Jul-2019

 ----------------------------------------------------------------------
 #t hf aug-cc-pvdz iop(5/13=1,5/36=2,99/5=2) pseudo=read geom=check gue
 ss=(read,tcheck) scf=(maxcycle=1)
 ----------------------------------------------------------------------
 -----
 title
 -----
 Structure from the checkpoint file:  "methylthiirane.chk"
 Charge =  0 Multiplicity = 1

                         Standard orientation:
 ---------------------------------------------------------------------
 Center     Atomic      Atomic             Coordinates (Angstroms)
 Number     Number       Type             X           Y           Z
 ---------------------------------------------------------------------
      1          6           0       -1.779558   -0.307747   -0.176939
      2          6           0       -0.520387    0.167305    0.499192
      3          6           0        0.364858    1.153255   -0.152316
      4         16           0        1.096395   -0.525749   -0.053924
      5          1           0       -1.640106   -0.377917   -1.255255
      6          1           0       -2.077985   -1.288840    0.191938
      7          1           0       -2.597663    0.389956    0.023094
      8          1           0       -0.579906    0.234408    1.579077
      9          1           0        0.109461    1.476866   -1.153106
     10          1           0        0.854404    1.900623    0.457404
 ---------------------------------------------------------------------

 SCF Done:  E(RHF) =  -515.447645371     A.U. after    2 cycles

 The electronic state is 1-A.
 Alpha  occ. eigenvalues --  -75.66605 -13.11449 -13.06708 -13.00218 -11.44892
 Alpha  occ. eigenvalues --  -11.41305 -11.38062  -8.00590  -1.33057  -1.06602
 Alpha  occ. eigenvalues --   -0.90749  -0.83398  -0.67262  -0.59791  -0.57735
 Alpha  occ. eigenvalues --   -0.53179  -0.50271  -0.37678  -0.34180  -0.22407
 Alpha virt. eigenvalues --    0.03319   0.04799   0.05296   0.06147   0.06645
 Alpha virt. eigenvalues --    0.07095   0.07547   0.10576   0.12811   0.13343
 Alpha virt. eigenvalues --    0.13894   0.14923   0.15399   0.16106   0.17030

 Mulliken charges:
               1
     1  C   -4.325605
     2  C   -1.242958
     3  C   -2.537174
     4  S    0.903308
     5  H    1.258799
     6  H    1.159482
     7  H    1.204196
     8  H    1.182864
     9  H    1.250611
    10  H    1.146477
 Sum of Mulliken charges =  -0.00000

 Dipole moment (field-independent basis, Debye):
    X=              0.3841    Y=             -0.5035    Z=              0.0024  Tot=              0.6333

 Test job not archived.
 1\1\GINC-SE047\SP\RHF\Aug-CC-pVDZ\C3H6S1\OHZDE\06-Apr-2025\0\\#t hf au
 g-cc-pvdz iop(5/13=1,5/36=2,99/5=2) pseudo=read geom=check guess=(read
 ,tcheck) scf=(maxcycle=1)\\title\\0,1\C,0,-1.779558,-0.307747,-0.17693
 9\C,0,-0.520387,0.167305,0.499192\C,0,0.364858,1.153255,-0.152316\S,0,
 1.096395,-0.525749,-0.053924\H,0,-1.640106,-0.377917,-1.255255\H,0,-2.
 077985,-1.28884,0.191938\H,0,-2.597663,0.389956,0.023094\H,0,-0.579906
 ,0.234408,1.579077\H,0,0.109461,1.476866,-1.153106\H,0,0.854404,1.9006
 23,0.457404\\Version=ES64L-G16RevC.01\State=1-A\HF=-515.4476454\RMSD=4

 Normal termination of Gaussian 16 at Sun Apr  6 08:23:40 2025.
