 Gaussian 16, Revision C.01,

 ----------------------------------------------------------------------
 #t hf aug-cc-pvdz symm=none int=(grid=ultrafine) guess=(read,tcheck) s
 table=(opt,rrhf)
 ----------------------------------------------------------------------
 -----
 title
 -----
 Symbolic Z-matrix:
 Charge =  0 Multiplicity = 1

 SCF Done:  E(RHF) =  -266.872970421     A.U. after   13 cycles
 Normal termination of Gaussian 16 at Sun Apr  6 08:20:58 2025.
 Gaussian 16:  ES64L-G16RevC.01  3-Jul-2019

 ----------------------------------------------------------------------
 #t hf aug-cc-pvdz iop(5/13=1,5/36=2,99/5=2) pseudo=read geom=check gue
 ss=(read,tcheck) scf=(maxcycle=1)
 ----------------------------------------------------------------------
 -----
 title
 -----
 Structure from the checkpoint file:  "methyl_acetate.chk"
 Charge =  0 Multiplicity = 1

                         Standard orientation:
 ---------------------------------------------------------------------
 Center     Atomic      Atomic             Coordinates (Angstroms)
 Number     Number       Type             X           Y           Z
 ---------------------------------------------------------------------
      1          6           0        0.000000    0.495796    0.000000
      2          6           0       -1.126166    1.493825    0.000000
      3          6           0        0.518397   -1.810474    0.000000
      4          8           0        1.175144    0.763556    0.000000
      5          8           0       -0.472599   -0.769316    0.000000
      6          1           0       -1.754646    1.346302    0.878098
      7          1           0       -1.754646    1.346302   -0.878098
      8          1           0       -0.719073    2.499833    0.000000
      9          1           0        1.146150   -1.739249   -0.886325
     10          1           0       -0.037679   -2.742743    0.000000
     11          1           0        1.146150   -1.739249    0.886325
 ---------------------------------------------------------------------

 SCF Done:  E(RHF) =  -268.052752573     A.U. after    2 cycles

 The electronic state is 1-A'.
 Alpha  occ. eigenvalues --  -21.08878 -21.04643 -11.51503 -11.41343 -11.39197
 Alpha  occ. eigenvalues --   -1.83908  -1.65741  -1.12088  -1.00162  -0.75536
 Alpha  occ. eigenvalues --   -0.66639  -0.64187  -0.60957  -0.59056  -0.53829
 Alpha  occ. eigenvalues --   -0.52044  -0.47289  -0.41851  -0.32182  -0.29403
 Alpha virt. eigenvalues --    0.03400   0.05062   0.05706   0.06219   0.06732
 Alpha virt. eigenvalues --    0.07130   0.09046   0.12902   0.13321   0.13714
 Alpha virt. eigenvalues --    0.14257   0.15411   0.15603   0.16519   0.17252

 Mulliken charges:
               1
     1  C    5.596410
     2  C   -4.405442
     3  C   -2.792575
     4  O   -2.971958
     5  O   -3.049478
     6  H    1.246182
     7  H    1.246182
     8  H    1.249344
     9  H    1.277729
    10  H    1.325878
    11  H    1.277729
 Sum of Mulliken charges =   0.00000

 Dipole moment (field-independent basis, Debye):
    X=             -1.0852    Y=             -0.8321    Z=              0.0000  Tot=              1.3675

 Test job not archived.
 1\1\GINC-SE013\SP\RHF\Aug-CC-pVDZ\C3H6O2\OHZDE\06-Apr-2025\0\\#t hf au
 g-cc-pvdz iop(5/13=1,5/36=2,99/5=2) pseudo=read geom=check guess=(read
 ,tcheck) scf=(maxcycle=1)\\title\\0,1\C,0,0.,0.495796,0.\C,0,-1.126166
 ,1.493825,0.\C,0,0.518397,-1.810474,0.\O,0,1.175144,0.763556,0.\O,0,-0
 .472599,-0.769316,0.\H,0,-1.754646,1.346302,0.878098\H,0,-1.754646,1.3
 46302,-0.878098\H,0,-0.719073,2.499833,0.\H,0,1.14615,-1.739249,-0.886
 325\H,0,-0.037679,-2.742743,0.\H,0,1.14615,-1.739249,0.886325\\Version
 =ES64L-G16RevC.01\State=1-A'\HF=-268.0527526\RMSD=1.606e-01\Dipole=-0.

 Normal termination of Gaussian 16 at Sun Apr  6 08:21:43 2025.
