 Gaussian 16, Revision C.01,

 ----------------------------------------------------------------------
 #t hf aug-cc-pvdz symm=none int=(grid=ultrafine) guess=(read,tcheck) s
 table=(opt,rrhf)
 ----------------------------------------------------------------------
 -----
 title
 -----
 Symbolic Z-matrix:
 Charge =  0 Multiplicity = 1

 SCF Done:  E(RHF) =  -94.0473977591     A.U. after   11 cycles
 Normal termination of Gaussian 16 at Sun Apr  6 08:19:03 2025.
 Gaussian 16:  ES64L-G16RevC.01  3-Jul-2019

 ----------------------------------------------------------------------
 #t hf aug-cc-pvdz iop(5/13=1,5/36=2,99/5=2) pseudo=read geom=check gue
 ss=(read,tcheck) scf=(maxcycle=1)
 ----------------------------------------------------------------------
 -----
 title
 -----
 Structure from the checkpoint file:  "methanimine.chk"
 Charge =  0 Multiplicity = 1

                         Standard orientation:
 ---------------------------------------------------------------------
 Center     Atomic      Atomic             Coordinates (Angstroms)
 Number     Number       Type             X           Y           Z
 ---------------------------------------------------------------------
      1          6           0        0.056004    0.583317    0.000000
      2          7           0        0.056004   -0.680483    0.000000
      3          1           0       -0.843040    1.205928    0.000000
      4          1           0        1.009028    1.110493    0.000000
      5          1           0       -0.894042   -1.052940    0.000000
 ---------------------------------------------------------------------

 SCF Done:  E(RHF) =  -94.4874121045     A.U. after    2 cycles

 The electronic state is 1-A'.
 Alpha  occ. eigenvalues --  -15.75156 -11.42053  -1.33039  -0.87830  -0.67422
 Alpha  occ. eigenvalues --   -0.57974  -0.42996  -0.39429
 Alpha virt. eigenvalues --    0.03495   0.05575   0.06112   0.10058   0.11472
 Alpha virt. eigenvalues --    0.15550   0.16242   0.17241   0.20009   0.21294
 Alpha virt. eigenvalues --    0.25048   0.25196   0.30524   0.32382   0.32483

 Mulliken charges:
               1
     1  C   -1.081837
     2  N   -2.271590
     3  H    1.315495
     4  H    1.324407
     5  H    0.713524
 Sum of Mulliken charges =   0.00000

 Dipole moment (field-independent basis, Debye):
    X=             -1.1910    Y=              1.3330    Z=              0.0000  Tot=              1.7875

 Test job not archived.
 1\1\GINC-SE041\SP\RHF\Aug-CC-pVDZ\C1H3N1\OHZDE\06-Apr-2025\0\\#t hf au
 g-cc-pvdz iop(5/13=1,5/36=2,99/5=2) pseudo=read geom=check guess=(read
 ,tcheck) scf=(maxcycle=1)\\title\\0,1\C,0,0.056004,0.583317,0.\N,0,0.0
 56004,-0.680483,0.\H,0,-0.84304,1.205928,0.\H,0,1.009028,1.110493,0.\H
 ,0,-0.894042,-1.05294,0.\\Version=ES64L-G16RevC.01\State=1-A'\HF=-94.4
 874121\RMSD=6.027e-02\Dipole=-0.4685658,0.5244306,0.\Quadrupole=0.6557
 611,0.0945764,-0.7503375,1.4785308,0.,0.\PG=CS [SG(C1H3N1)]\\@

 Normal termination of Gaussian 16 at Sun Apr  6 08:19:15 2025.
