 Gaussian 16, Revision C.01,

 ----------------------------------------------------------------------
 #t hf aug-cc-pvdz symm=none int=(grid=ultrafine) guess=(read,tcheck) s
 table=(opt,rrhf)
 ----------------------------------------------------------------------
 -----
 title
 -----
 Symbolic Z-matrix:
 Charge =  0 Multiplicity = 1

 SCF Done:  E(RHF) =  -816.962883021     A.U. after   15 cycles
 Normal termination of Gaussian 16 at Sun Apr  6 08:23:31 2025.
 Gaussian 16:  ES64L-G16RevC.01  3-Jul-2019

 ----------------------------------------------------------------------
 #t hf aug-cc-pvdz iop(5/13=1,5/36=2,99/5=2) pseudo=read geom=check gue
 ss=(read,tcheck) scf=(maxcycle=1)
 ----------------------------------------------------------------------
 -----
 title
 -----
 Structure from the checkpoint file:  "methylphenylsulfone.chk"
 Charge =  0 Multiplicity = 1

                         Standard orientation:
 ---------------------------------------------------------------------
 Center     Atomic      Atomic             Coordinates (Angstroms)
 Number     Number       Type             X           Y           Z
 ---------------------------------------------------------------------
      1          6           0        0.091342    3.082579   -0.000000
      2          6           0        0.094844    2.390597    1.206836
      3          6           0        0.094844    2.390597   -1.206836
      4          6           0        0.094844    1.001048    1.213029
      5          6           0        0.094844    1.001048   -1.213029
      6          6           0        0.088331    0.322160   -0.000000
      7          6           0       -1.655962   -1.917459    0.000000
      8          8           0        0.656057   -1.929130   -1.266976
      9          8           0        0.656057   -1.929130    1.266976
     10         16           0        0.091079   -1.476746    0.000000
     11          1           0        0.094921    4.164148   -0.000000
     12          1           0        0.106394    2.931653    2.142942
     13          1           0        0.106394    2.931653   -2.142942
     14          1           0        0.122551    0.445707    2.139560
     15          1           0        0.122551    0.445707   -2.139560
     16          1           0       -2.120878   -1.521537   -0.898564
     17          1           0       -1.683749   -3.005188    0.000000
     18          1           0       -2.120878   -1.521537    0.898564
 ---------------------------------------------------------------------

 SCF Done:  E(RHF) =  -819.165639829     A.U. after    2 cycles

 The electronic state is 1-A'.
 Alpha  occ. eigenvalues --  -75.88259 -21.03728 -21.03666 -13.50150 -13.40242
 Alpha  occ. eigenvalues --  -13.36084 -11.54248 -11.46073 -11.45765 -11.43734
 Alpha  occ. eigenvalues --  -11.43009 -11.42733 -11.39046  -8.23188  -1.81730
 Alpha  occ. eigenvalues --   -1.64026  -1.37192  -1.17297  -1.11897  -1.11008
 Alpha  occ. eigenvalues --   -0.94916  -0.89299  -0.84238  -0.74003  -0.67255
 Alpha  occ. eigenvalues --   -0.64066  -0.63064  -0.60935  -0.59998  -0.59928
 Alpha  occ. eigenvalues --   -0.56697  -0.52413  -0.47853  -0.47851  -0.42662
 Alpha  occ. eigenvalues --   -0.38547  -0.38527  -0.36464  -0.35258  -0.34563
 Alpha  occ. eigenvalues --   -0.34424
 Alpha virt. eigenvalues --    0.02451   0.04359   0.04860   0.04914   0.05486
 Alpha virt. eigenvalues --    0.06415   0.07282   0.07300   0.08485   0.09880
 Alpha virt. eigenvalues --    0.10030   0.11934   0.12051   0.12211   0.12904

 Mulliken charges:
               1
     1  C   -2.742170
     2  C   -0.738714
     3  C   -0.738714
     4  C   -3.426950
     5  C   -3.426950
     6  C    2.842961
     7  C   -5.013579
     8  O   -2.685843
     9  O   -2.685843
    10  S    6.260603
    11  H    1.550693
    12  H    1.501773
    13  H    1.501773
    14  H    1.876798
    15  H    1.876798
    16  H    1.390450
    17  H    1.266466
    18  H    1.390450
 Sum of Mulliken charges =  -0.00000

 Dipole moment (field-independent basis, Debye):
    X=             -1.6741    Y=              2.7632    Z=             -0.0000  Tot=              3.2307

 Test job not archived.
 1\1\GINC-SE169\SP\RHF\Aug-CC-pVDZ\C7H8O2S1\OHZDE\06-Apr-2025\0\\#t hf
 aug-cc-pvdz iop(5/13=1,5/36=2,99/5=2) pseudo=read geom=check guess=(re
 ad,tcheck) scf=(maxcycle=1)\\title\\0,1\C,0,0.091342,3.082579,0.\C,0,0
 .094844,2.390597,1.206836\C,0,0.094844,2.390597,-1.206836\C,0,0.094844
 ,1.001048,1.213029\C,0,0.094844,1.001048,-1.213029\C,0,0.088331,0.3221
 6,0.\C,0,-1.655962,-1.917459,0.\O,0,0.656057,-1.92913,-1.266976\O,0,0.
 656057,-1.92913,1.266976\S,0,0.091079,-1.476746,0.\H,0,0.094921,4.1641
 48,0.\H,0,0.106394,2.931653,2.142942\H,0,0.106394,2.931653,-2.142942\H

 Normal termination of Gaussian 16 at Sun Apr  6 08:23:38 2025.
