 Gaussian 16, Revision C.01,

 ----------------------------------------------------------------------
 #t hf aug-cc-pvdz symm=none int=(grid=ultrafine) guess=(read,tcheck) s
 table=(opt,rrhf)
 ----------------------------------------------------------------------
 -----
 title
 -----
 Symbolic Z-matrix:
 Charge =  0 Multiplicity = 1

 SCF Done:  E(RHF) =  -115.061543901     A.U. after   11 cycles
 Normal termination of Gaussian 16 at Sun Apr  6 08:19:03 2025.
 Gaussian 16:  ES64L-G16RevC.01  3-Jul-2019

 ----------------------------------------------------------------------
 #t hf aug-cc-pvdz iop(5/13=1,5/36=2,99/5=2) pseudo=read geom=check gue
 ss=(read,tcheck) scf=(maxcycle=1)
 ----------------------------------------------------------------------
 -----
 title
 -----
 Structure from the checkpoint file:  "methanol.chk"
 Charge =  0 Multiplicity = 1

                         Standard orientation:
 ---------------------------------------------------------------------
 Center     Atomic      Atomic             Coordinates (Angstroms)
 Number     Number       Type             X           Y           Z
 ---------------------------------------------------------------------
      1          6           0        0.046493    0.666056    0.000000
      2          8           0        0.046493   -0.757300    0.000000
      3          1           0       -0.438632    1.076138    0.890767
      4          1           0       -0.438632    1.076138   -0.890767
      5          1           0        1.088355    0.979641    0.000000
      6          1           0       -0.861989   -1.069858    0.000000
 ---------------------------------------------------------------------

 SCF Done:  E(RHF) =  -115.582765587     A.U. after    2 cycles

 The electronic state is 1-A'.
 Alpha  occ. eigenvalues --  -21.06746 -11.39793  -1.69730  -0.97456  -0.63595
 Alpha  occ. eigenvalues --   -0.59656  -0.53954  -0.41230  -0.31754
 Alpha virt. eigenvalues --    0.03440   0.05917   0.06124   0.06646   0.11817
 Alpha virt. eigenvalues --    0.14525   0.15967   0.16168   0.21120   0.22130
 Alpha virt. eigenvalues --    0.24951   0.27915   0.28909   0.31245   0.34714

 Mulliken charges:
               1
     1  C   -2.239822
     2  O   -2.250191
     3  H    1.191250
     4  H    1.191250
     5  H    1.251392
     6  H    0.856121
 Sum of Mulliken charges =  -0.00000

 Dipole moment (field-independent basis, Debye):
    X=             -0.6721    Y=              0.4897    Z=             -0.0000  Tot=              0.8316

 Test job not archived.
 1\1\GINC-SE042\SP\RHF\Aug-CC-pVDZ\C1H4O1\OHZDE\06-Apr-2025\0\\#t hf au
 g-cc-pvdz iop(5/13=1,5/36=2,99/5=2) pseudo=read geom=check guess=(read
 ,tcheck) scf=(maxcycle=1)\\title\\0,1\C,0,0.046493,0.666056,0.\O,0,0.0
 46493,-0.7573,0.\H,0,-0.438632,1.076138,0.890767\H,0,-0.438632,1.07613
 8,-0.890767\H,0,1.088355,0.979641,0.\H,0,-0.861989,-1.069858,0.\\Versi
 on=ES64L-G16RevC.01\State=1-A'\HF=-115.5827656\RMSD=5.900e-02\Dipole=-
 0.2644272,0.1926557,0.\Quadrupole=0.9784857,-0.3422161,-0.6362696,1.27
 16728,0.,0.\PG=CS [SG(C1H2O1),X(H2)]\\@

 Normal termination of Gaussian 16 at Sun Apr  6 08:19:16 2025.
