 Gaussian 16, Revision C.01,

 ----------------------------------------------------------------------
 #t hf aug-cc-pvdz symm=none int=(grid=ultrafine) guess=(read,tcheck) s
 table=(opt,rrhf)
 ----------------------------------------------------------------------
 -----
 title
 -----
 Symbolic Z-matrix:
 Charge =  0 Multiplicity = 1

 SCF Done:  E(RHF) =  -383.987638593     A.U. after   14 cycles

 1\1\GINC-SE168\Stability\RHF\Aug-CC-pVDZ\C6H12O2\OHZDE\06-Apr-2025\0\\
 #t hf aug-cc-pvdz symm=none int=(grid=ultrafine) guess=(read,tcheck) s
 table=(opt,rrhf)\\title\\0,1\C,0,-0.018703,0.623324,0.\C,0,-0.018703,-
 1.537398,1.260653\C,0,-2.067621,-0.796408,0.\C,0,-0.018703,-1.537398,-
 1.260653\C,0,1.913511,1.98573,0.\C,0,-0.535531,-0.817672,0.\O,0,-0.704
 653,1.61536,0.\O,0,1.331529,0.672656,0.\H,0,-0.353319,-1.032473,2.1681
 79\H,0,-0.406978,-2.556799,1.283172\H,0,1.068644,-1.583922,1.275217\H,
 0,-2.456671,-0.283818,0.878679\H,0,-2.447056,-1.819081,0.\H,0,-2.45667

 Normal termination of Gaussian 16 at Sun Apr  6 08:21:09 2025.
 Gaussian 16:  ES64L-G16RevC.01  3-Jul-2019

 ----------------------------------------------------------------------
 #t hf aug-cc-pvdz iop(5/13=1,5/36=2,99/5=2) pseudo=read geom=check gue
 ss=(read,tcheck) scf=(maxcycle=1)
 ----------------------------------------------------------------------
 -----
 title
 -----
 Structure from the checkpoint file:  "methyl-2-2-dimethylpropanoate.chk"
 Charge =  0 Multiplicity = 1

                         Standard orientation:
 ---------------------------------------------------------------------
 Center     Atomic      Atomic             Coordinates (Angstroms)
 Number     Number       Type             X           Y           Z
 ---------------------------------------------------------------------
      1          6           0       -0.018703    0.623324    0.000000
      2          6           0       -0.018703   -1.537398    1.260653
      3          6           0       -2.067621   -0.796408    0.000000
      4          6           0       -0.018703   -1.537398   -1.260653
      5          6           0        1.913511    1.985730    0.000000
      6          6           0       -0.535531   -0.817672    0.000000
      7          8           0       -0.704653    1.615360    0.000000
      8          8           0        1.331529    0.672656    0.000000
      9          1           0       -0.353319   -1.032473    2.168179
     10          1           0       -0.406978   -2.556799    1.283172
     11          1           0        1.068644   -1.583922    1.275217
     12          1           0       -2.456671   -0.283818    0.878679
     13          1           0       -2.447056   -1.819081    0.000000
     14          1           0       -2.456671   -0.283818   -0.878679
     15          1           0        1.068644   -1.583922   -1.275217
     16          1           0       -0.406978   -2.556799   -1.283172
     17          1           0       -0.353319   -1.032473   -2.168179
     18          1           0        1.607640    2.539254    0.885978
     19          1           0        1.607640    2.539254   -0.885978
     20          1           0        2.987917    1.829400    0.000000
 ---------------------------------------------------------------------

 SCF Done:  E(RHF) =  -385.784700922     A.U. after    2 cycles

 The electronic state is 1-A'.
 Alpha  occ. eigenvalues --  -21.08456 -21.04269 -11.52363 -11.43232 -11.41445
 Alpha  occ. eigenvalues --  -11.39354 -11.39135 -11.35856  -1.83905  -1.65640
 Alpha  occ. eigenvalues --   -1.27562  -1.03013  -1.01433  -1.00153  -0.87817
 Alpha  occ. eigenvalues --   -0.72040  -0.67513  -0.63721  -0.61701  -0.60532
 Alpha  occ. eigenvalues --   -0.58996  -0.55872  -0.55352  -0.52998  -0.51591
 Alpha  occ. eigenvalues --   -0.49536  -0.48738  -0.43915  -0.42786  -0.40076
 Alpha  occ. eigenvalues --   -0.31881  -0.28419
 Alpha virt. eigenvalues --    0.03639   0.04687   0.05255   0.05398   0.05595
 Alpha virt. eigenvalues --    0.05730   0.06130   0.06929   0.07330   0.08355
 Alpha virt. eigenvalues --    0.08390   0.09562   0.10756   0.12680   0.12945

 Mulliken charges:
               1
     1  C    6.959481
     2  C   -4.734179
     3  C   -4.088591
     4  C   -4.734179
     5  C   -3.288527
     6  C    1.575127
     7  O   -3.434073
     8  O   -3.564669
     9  H    1.236895
    10  H    1.169075
    11  H    1.344005
    12  H    1.272331
    13  H    1.144173
    14  H    1.272331
    15  H    1.344005
    16  H    1.169075
    17  H    1.236895
    18  H    1.349145
    19  H    1.349145
    20  H    1.422536
 Sum of Mulliken charges =  -0.00000

 Dipole moment (field-independent basis, Debye):
    X=              1.1735    Y=             -0.6505    Z=              0.0000  Tot=              1.3417

 Test job not archived.
 1\1\GINC-SE168\SP\RHF\Aug-CC-pVDZ\C6H12O2\OHZDE\06-Apr-2025\0\\#t hf a
 ug-cc-pvdz iop(5/13=1,5/36=2,99/5=2) pseudo=read geom=check guess=(rea
 d,tcheck) scf=(maxcycle=1)\\title\\0,1\C,0,-0.018703,0.623324,0.\C,0,-
 0.018703,-1.537398,1.260653\C,0,-2.067621,-0.796408,0.\C,0,-0.018703,-
 1.537398,-1.260653\C,0,1.913511,1.98573,0.\C,0,-0.535531,-0.817672,0.\
 O,0,-0.704653,1.61536,0.\O,0,1.331529,0.672656,0.\H,0,-0.353319,-1.032
 473,2.168179\H,0,-0.406978,-2.556799,1.283172\H,0,1.068644,-1.583922,1
 .275217\H,0,-2.456671,-0.283818,0.878679\H,0,-2.447056,-1.819081,0.\H,

 Normal termination of Gaussian 16 at Sun Apr  6 08:21:46 2025.
