 Gaussian 16, Revision C.01,

 ----------------------------------------------------------------------
 #t hf aug-cc-pvdz symm=none int=(grid=ultrafine) guess=(read,tcheck) s
 table=(opt,rrhf)
 ----------------------------------------------------------------------
 -----
 title
 -----
 Symbolic Z-matrix:
 Charge =  0 Multiplicity = 1

 SCF Done:  E(RHF) =  -573.913701744     A.U. after   14 cycles
 Normal termination of Gaussian 16 at Sun Apr  6 08:20:54 2025.
 Gaussian 16:  ES64L-G16RevC.01  3-Jul-2019

 ----------------------------------------------------------------------
 #t hf aug-cc-pvdz iop(5/13=1,5/36=2,99/5=2) pseudo=read geom=check gue
 ss=(read,tcheck) scf=(maxcycle=1)
 ----------------------------------------------------------------------
 -----
 title
 -----
 Structure from the checkpoint file:  "methyl_hypochlorite.chk"
 Charge =  0 Multiplicity = 1

                         Standard orientation:
 ---------------------------------------------------------------------
 Center     Atomic      Atomic             Coordinates (Angstroms)
 Number     Number       Type             X           Y           Z
 ---------------------------------------------------------------------
      1          8           0        0.000000    0.802908    0.000000
      2         17           0       -0.811552   -0.704077    0.000000
      3          6           0        1.415082    0.620626    0.000000
      4          1           0        1.809715    1.636753    0.000000
      5          1           0        1.748086    0.092767    0.894890
      6          1           0        1.748086    0.092767   -0.894890
 ---------------------------------------------------------------------

 SCF Done:  E(RHF) =  -574.670759033     A.U. after    2 cycles

 The electronic state is 1-A'.
 Alpha  occ. eigenvalues --  -99.93137 -21.11162 -11.42206 -10.49993  -9.69866
 Alpha  occ. eigenvalues --   -9.68974  -9.68853  -1.78717  -1.24970  -0.98716
 Alpha  occ. eigenvalues --   -0.66339  -0.64569  -0.61268  -0.55617  -0.52761
 Alpha  occ. eigenvalues --   -0.44187  -0.34631
 Alpha virt. eigenvalues --    0.03242   0.04764   0.06161   0.06368   0.08738
 Alpha virt. eigenvalues --    0.13734   0.14149   0.14477   0.15464   0.15466
 Alpha virt. eigenvalues --    0.19243   0.21957   0.22236   0.25419   0.26461

 Mulliken charges:
               1
     1  O   -1.821231
     2  Cl   0.599769
     3  C   -2.478052
     4  H    1.147543
     5  H    1.275986
     6  H    1.275986
 Sum of Mulliken charges =  -0.00000

 Dipole moment (field-independent basis, Debye):
    X=              2.1947    Y=              1.7157    Z=             -0.0000  Tot=              2.7857

 Test job not archived.
 1\1\GINC-SE167\SP\RHF\Aug-CC-pVDZ\C1H3Cl1O1\OHZDE\06-Apr-2025\0\\#t hf
  aug-cc-pvdz iop(5/13=1,5/36=2,99/5=2) pseudo=read geom=check guess=(r
 ead,tcheck) scf=(maxcycle=1)\\title\\0,1\O,0,0.,0.802908,0.\Cl,0,-0.81
 1552,-0.704077,0.\C,0,1.415082,0.620626,0.\H,0,1.809715,1.636753,0.\H,
 0,1.748086,0.092767,0.89489\H,0,1.748086,0.092767,-0.89489\\Version=ES
 64L-G16RevC.01\State=1-A'\HF=-574.670759\RMSD=5.031e-02\Dipole=0.86345
 34,0.674999,0.\Quadrupole=0.6085084,0.6002937,-1.2088021,1.5114855,0.,
 0.\PG=CS [SG(C1H1Cl1O1),X(H2)]\\@

 Normal termination of Gaussian 16 at Sun Apr  6 08:20:56 2025.
