 Gaussian 16, Revision C.01,

 ----------------------------------------------------------------------
 #t hf aug-cc-pvdz symm=none int=(grid=ultrafine) guess=(read,tcheck) s
 table=(opt,rrhf)
 ----------------------------------------------------------------------
 -----
 title
 -----
 Symbolic Z-matrix:
 Charge =  0 Multiplicity = 1

 SCF Done:  E(RHF) =  -834.077082249     A.U. after   14 cycles
 Normal termination of Gaussian 16 at Sun Apr  6 08:19:04 2025.
 Gaussian 16:  ES64L-G16RevC.01  3-Jul-2019

 ----------------------------------------------------------------------
 #t hf aug-cc-pvdz iop(5/13=1,5/36=2,99/5=2) pseudo=read geom=check gue
 ss=(read,tcheck) scf=(maxcycle=1)
 ----------------------------------------------------------------------
 -----
 title
 -----
 Structure from the checkpoint file:  "methanedithioicacid.chk"
 Charge =  0 Multiplicity = 1

                         Standard orientation:
 ---------------------------------------------------------------------
 Center     Atomic      Atomic             Coordinates (Angstroms)
 Number     Number       Type             X           Y           Z
 ---------------------------------------------------------------------
      1         16           0       -1.379699   -0.462768   -0.000000
      2         16           0        1.542184    0.101951    0.000000
      3          6           0        0.000000    0.604111    0.000000
      4          1           0       -0.264368    1.658591   -0.000000
      5          1           0       -2.335387    0.489817   -0.000000
 ---------------------------------------------------------------------

 SCF Done:  E(RHF) =  -834.701251984     A.U. after    2 cycles

 The electronic state is 1-A'.
 Alpha  occ. eigenvalues --  -75.73553 -75.68034 -13.17021 -13.14721 -13.12280
 Alpha  occ. eigenvalues --  -13.04870 -13.00139 -12.98791 -11.48733  -8.07629
 Alpha  occ. eigenvalues --   -8.02209  -1.27572  -1.09699  -0.83190  -0.63766
 Alpha  occ. eigenvalues --   -0.46362  -0.44680  -0.42643  -0.24273  -0.22678
 Alpha virt. eigenvalues --    0.01744   0.04414   0.06280   0.06837   0.09434
 Alpha virt. eigenvalues --    0.10268   0.13297   0.13821   0.15735   0.15902
 Alpha virt. eigenvalues --    0.15938   0.17123   0.19102   0.19657   0.24161

 Mulliken charges:
               1
     1  S   -0.088529
     2  S    1.365102
     3  C   -3.419355
     4  H    1.131655
     5  H    1.011127
 Sum of Mulliken charges =  -0.00000

 Dipole moment (field-independent basis, Debye):
    X=              0.4840    Y=             -1.2131    Z=             -0.0000  Tot=              1.3061

 Test job not archived.
 1\1\GINC-SE013\SP\RHF\Aug-CC-pVDZ\C1H2S2\OHZDE\06-Apr-2025\0\\#t hf au
 g-cc-pvdz iop(5/13=1,5/36=2,99/5=2) pseudo=read geom=check guess=(read
 ,tcheck) scf=(maxcycle=1)\\title\\0,1\S,0,-1.379699,-0.462768,0.\S,0,1
 .542184,0.101951,0.\C,0,0.,0.604111,0.\H,0,-0.264368,1.658591,0.\H,0,-
 2.335387,0.489817,0.\\Version=ES64L-G16RevC.01\State=1-A'\HF=-834.7012
 52\RMSD=1.724e-01\Dipole=0.1904351,-0.4772599,0.\Quadrupole=3.3802029,
 -0.6177349,-2.7624681,-0.1027817,0.,0.\PG=CS [SG(C1H2S2)]\\@

 Normal termination of Gaussian 16 at Sun Apr  6 08:19:16 2025.
