 Gaussian 16, Revision C.01,

 ----------------------------------------------------------------------
 #t hf aug-cc-pvdz symm=none int=(grid=ultrafine) guess=(read,tcheck) s
 table=(opt,rrhf)
 ----------------------------------------------------------------------
 -----
 title
 -----
 Symbolic Z-matrix:
 Charge =  0 Multiplicity = 1

 SCF Done:  E(RHF) =  -321.921262538     A.U. after   13 cycles
 Normal termination of Gaussian 16 at Sun Apr  6 08:19:18 2025.
 Gaussian 16:  ES64L-G16RevC.01  3-Jul-2019

 ----------------------------------------------------------------------
 #t hf aug-cc-pvdz iop(5/13=1,5/36=2,99/5=2) pseudo=read geom=check gue
 ss=(read,tcheck) scf=(maxcycle=1)
 ----------------------------------------------------------------------
 -----
 title
 -----
 Structure from the checkpoint file:  "methyl-N-methylcarbamate.chk"
 Charge =  0 Multiplicity = 1

                         Standard orientation:
 ---------------------------------------------------------------------
 Center     Atomic      Atomic             Coordinates (Angstroms)
 Number     Number       Type             X           Y           Z
 ---------------------------------------------------------------------
      1          6           0        0.017458    0.114976   -0.000014
      2          6           0       -2.442157   -0.010060    0.000035
      3          6           0        2.370388   -0.058037    0.000016
      4          7           0       -1.126195   -0.614338   -0.000060
      5          8           0        0.091274    1.325205   -0.000014
      6          8           0        1.096157   -0.714172    0.000010
      7          1           0       -2.316092    1.068892   -0.000449
      8          1           0       -3.008671   -0.296928    0.887756
      9          1           0       -3.009081   -0.297691   -0.887170
     10          1           0        2.483823    0.563324    0.886629
     11          1           0        2.483850    0.563286   -0.886620
     12          1           0        3.107408   -0.855675    0.000044
     13          1           0       -1.031457   -1.614379    0.000035
 ---------------------------------------------------------------------

 SCF Done:  E(RHF) =  -323.349908667     A.U. after    2 cycles

 The electronic state is 1-A.
 Alpha  occ. eigenvalues --  -21.08236 -21.02288 -15.76054 -11.51066 -11.41143
 Alpha  occ. eigenvalues --  -11.39859  -1.83890  -1.65390  -1.38859  -1.05312
 Alpha  occ. eigenvalues --   -0.96662  -0.79276  -0.70390  -0.64510  -0.63555
 Alpha  occ. eigenvalues --   -0.60493  -0.56830  -0.52662  -0.52619  -0.51932
 Alpha  occ. eigenvalues --   -0.42520  -0.33398  -0.31122  -0.29367
 Alpha virt. eigenvalues --    0.03363   0.04947   0.05601   0.05784   0.06397
 Alpha virt. eigenvalues --    0.07289   0.07699   0.10297   0.11537   0.13331
 Alpha virt. eigenvalues --    0.13410   0.14160   0.14918   0.15558   0.17656

 Mulliken charges:
               1
     1  C    6.106647
     2  C   -3.408346
     3  C   -3.224946
     4  N   -2.557355
     5  O   -2.642323
     6  O   -2.822790
     7  H    1.331460
     8  H    1.284727
     9  H    1.284691
    10  H    1.275938
    11  H    1.275923
    12  H    1.323789
    13  H    0.772585
 Sum of Mulliken charges =  -0.00000

 Dipole moment (field-independent basis, Debye):
    X=             -0.3716    Y=             -1.8558    Z=              0.0001  Tot=              1.8926

 Test job not archived.
 1\1\GINC-SE412\SP\RHF\Aug-CC-pVDZ\C3H7N1O2\OHZDE\06-Apr-2025\0\\#t hf
 aug-cc-pvdz iop(5/13=1,5/36=2,99/5=2) pseudo=read geom=check guess=(re
 ad,tcheck) scf=(maxcycle=1)\\title\\0,1\C,0,0.017458,0.114976,-0.00001
 4\C,0,-2.442157,-0.01006,0.000035\C,0,2.370388,-0.058037,0.000016\N,0,
 -1.126195,-0.614338,-0.00006\O,0,0.091274,1.325205,-0.000014\O,0,1.096
 157,-0.714172,0.00001\H,0,-2.316092,1.068892,-0.000449\H,0,-3.008671,-
 0.296928,0.887756\H,0,-3.009081,-0.297691,-0.88717\H,0,2.483823,0.5633
 24,0.886629\H,0,2.48385,0.563286,-0.88662\H,0,3.107408,-0.855675,0.000

 Normal termination of Gaussian 16 at Sun Apr  6 08:20:48 2025.
