 Gaussian 16, Revision C.01,

 ----------------------------------------------------------------------
 #t hf aug-cc-pvdz symm=none int=(grid=ultrafine) guess=(read,tcheck) s
 table=(opt,rrhf)
 ----------------------------------------------------------------------
 -----
 title
 -----
 Symbolic Z-matrix:
 Charge =  0 Multiplicity = 1

 SCF Done:  E(RHF) =  -457.404667689     A.U. after   16 cycles
 Normal termination of Gaussian 16 at Sun Apr  6 08:22:26 2025.
 Gaussian 16:  ES64L-G16RevC.01  3-Jul-2019

 ----------------------------------------------------------------------
 #t hf aug-cc-pvdz iop(5/13=1,5/36=2,99/5=2) pseudo=read geom=check gue
 ss=(read,tcheck) scf=(maxcycle=1)
 ----------------------------------------------------------------------
 -----
 title
 -----
 Structure from the checkpoint file:  "methyl_benzoate.chk"
 Charge =  0 Multiplicity = 1

                         Standard orientation:
 ---------------------------------------------------------------------
 Center     Atomic      Atomic             Coordinates (Angstroms)
 Number     Number       Type             X           Y           Z
 ---------------------------------------------------------------------
      1          6           0       -1.629703    2.519691    0.000000
      2          6           0       -0.245437    2.661629    0.000000
      3          6           0       -2.199329    1.250750    0.000000
      4          6           0        0.567055    1.537570    0.000000
      5          6           0       -1.389364    0.123082    0.000000
      6          6           0        0.000000    0.261893    0.000000
      7          6           0        0.918942   -0.909822    0.000000
      8          6           0        1.082579   -3.263273    0.000000
      9          8           0        2.125324   -0.833326    0.000000
     10          8           0        0.258943   -2.087035    0.000000
     11          1           0       -2.263404    3.396510    0.000000
     12          1           0        0.198432    3.647794    0.000000
     13          1           0       -3.275165    1.139998    0.000000
     14          1           0        1.643793    1.627324    0.000000
     15          1           0       -1.827393   -0.863439    0.000000
     16          1           0        1.713986   -3.286294    0.886283
     17          1           0        1.713986   -3.286294   -0.886283
     18          1           0        0.393171   -4.101840    0.000000
 ---------------------------------------------------------------------

 SCF Done:  E(RHF) =  -459.475287381     A.U. after    2 cycles

 The electronic state is 1-A'.
 Alpha  occ. eigenvalues --  -21.08993 -21.04398 -11.53408 -11.52387 -11.44246
 Alpha  occ. eigenvalues --  -11.43928 -11.42273 -11.41769 -11.41396 -11.37333
 Alpha  occ. eigenvalues --   -1.84340  -1.65904  -1.35100  -1.12976  -1.10245
 Alpha  occ. eigenvalues --   -1.02115  -0.90351  -0.87098  -0.77652  -0.72187
 Alpha  occ. eigenvalues --   -0.67377  -0.63404  -0.62812  -0.59905  -0.59002
 Alpha  occ. eigenvalues --   -0.55701  -0.54547  -0.53794  -0.48468  -0.46845
 Alpha  occ. eigenvalues --   -0.45425  -0.41529  -0.34069  -0.33629  -0.31740
 Alpha  occ. eigenvalues --   -0.29605
 Alpha virt. eigenvalues --    0.03143   0.04726   0.05003   0.05596   0.06467
 Alpha virt. eigenvalues --    0.06661   0.06965   0.07551   0.09340   0.09965
 Alpha virt. eigenvalues --    0.10887   0.11215   0.12793   0.13100   0.13634

 Mulliken charges:
               1
     1  C   -3.091199
     2  C   -1.361679
     3  C   -1.434862
     4  C   -3.088463
     5  C   -0.620742
     6  C    2.773397
     7  C    5.119540
     8  C   -3.126573
     9  O   -3.592493
    10  O   -3.835697
    11  H    1.531642
    12  H    1.464459
    13  H    1.489431
    14  H    1.705056
    15  H    1.959036
    16  H    1.345411
    17  H    1.345411
    18  H    1.418325
 Sum of Mulliken charges =  -0.00000

 Dipole moment (field-independent basis, Debye):
    X=             -1.3585    Y=             -0.2948    Z=             -0.0000  Tot=              1.3901

 Test job not archived.
 1\1\GINC-SE044\SP\RHF\Aug-CC-pVDZ\C8H8O2\OHZDE\06-Apr-2025\0\\#t hf au
 g-cc-pvdz iop(5/13=1,5/36=2,99/5=2) pseudo=read geom=check guess=(read
 ,tcheck) scf=(maxcycle=1)\\title\\0,1\C,0,-1.629703,2.519691,0.\C,0,-0
 .245437,2.661629,0.\C,0,-2.199329,1.25075,0.\C,0,0.567055,1.53757,0.\C
 ,0,-1.389364,0.123082,0.\C,0,0.,0.261893,0.\C,0,0.918942,-0.909822,0.\
 C,0,1.082579,-3.263273,0.\O,0,2.125324,-0.833326,0.\O,0,0.258943,-2.08
 7035,0.\H,0,-2.263404,3.39651,0.\H,0,0.198432,3.647794,0.\H,0,-3.27516
 5,1.139998,0.\H,0,1.643793,1.627324,0.\H,0,-1.827393,-0.863439,0.\H,0,

 Normal termination of Gaussian 16 at Sun Apr  6 08:23:07 2025.
