 Gaussian 16, Revision C.01,

 ----------------------------------------------------------------------
 #t hf aug-cc-pvdz symm=none int=(grid=ultrafine) guess=(read,tcheck) s
 table=(opt,rrhf)
 ----------------------------------------------------------------------
 -----
 title
 -----
 Symbolic Z-matrix:
 Charge =  0 Multiplicity = 1

 SCF Done:  E(RHF) =  -189.830832630     A.U. after   13 cycles
 Normal termination of Gaussian 16 at Sun Apr  6 08:20:53 2025.
 Gaussian 16:  ES64L-G16RevC.01  3-Jul-2019

 ----------------------------------------------------------------------
 #t hf aug-cc-pvdz iop(5/13=1,5/36=2,99/5=2) pseudo=read geom=check gue
 ss=(read,tcheck) scf=(maxcycle=1)
 ----------------------------------------------------------------------
 -----
 title
 -----
 Structure from the checkpoint file:  "methyl_hydroperoxide.chk"
 Charge =  0 Multiplicity = 1

                         Standard orientation:
 ---------------------------------------------------------------------
 Center     Atomic      Atomic             Coordinates (Angstroms)
 Number     Number       Type             X           Y           Z
 ---------------------------------------------------------------------
      1          6           0        1.130346   -0.225128    0.025065
      2          8           0       -0.015267    0.606026   -0.027255
      3          8           0       -1.167167   -0.278825   -0.095051
      4          1           0        1.971335    0.468788    0.022108
      5          1           0        1.147766   -0.826787    0.937012
      6          1           0        1.184789   -0.873635   -0.851239
      7          1           0       -1.626495   -0.035207    0.720173
 ---------------------------------------------------------------------

 SCF Done:  E(RHF) =  -190.639674550     A.U. after    2 cycles

 The electronic state is 1-A.
 Alpha  occ. eigenvalues --  -21.11475 -21.09565 -11.40652  -1.93090  -1.43950
 Alpha  occ. eigenvalues --   -0.96570  -0.65715  -0.62443  -0.55510  -0.54192
 Alpha  occ. eigenvalues --   -0.42627  -0.34796  -0.29220
 Alpha virt. eigenvalues --    0.03764   0.05840   0.06208   0.06489   0.11035
 Alpha virt. eigenvalues --    0.15002   0.15371   0.16260   0.16990   0.20171
 Alpha virt. eigenvalues --    0.22325   0.23945   0.25573   0.27407   0.28884

 Mulliken charges:
               1
     1  C   -2.414284
     2  O   -1.352305
     3  O   -0.897011
     4  H    1.225466
     5  H    1.259889
     6  H    1.283564
     7  H    0.894680
 Sum of Mulliken charges =  -0.00000

 Dipole moment (field-independent basis, Debye):
    X=              0.3020    Y=             -0.2360    Z=              0.6986  Tot=              0.7968

 Test job not archived.
 1\1\GINC-SE155\SP\RHF\Aug-CC-pVDZ\C1H4O2\OHZDE\06-Apr-2025\0\\#t hf au
 g-cc-pvdz iop(5/13=1,5/36=2,99/5=2) pseudo=read geom=check guess=(read
 ,tcheck) scf=(maxcycle=1)\\title\\0,1\C,0,1.130346,-0.225128,0.025065\
 O,0,-0.015267,0.606026,-0.027255\O,0,-1.167167,-0.278825,-0.095051\H,0
 ,1.971335,0.468788,0.022108\H,0,1.147766,-0.826787,0.937012\H,0,1.1847
 89,-0.873635,-0.851239\H,0,-1.626495,-0.035207,0.720173\\Version=ES64L
 -G16RevC.01\State=1-A\HF=-190.6396746\RMSD=5.325e-02\Dipole=0.1188189,
 -0.0928468,0.2748488\Quadrupole=1.2756661,-1.2561958,-0.0194703,0.0614

 Normal termination of Gaussian 16 at Sun Apr  6 08:20:56 2025.
