 Gaussian 16, Revision C.01,

 ----------------------------------------------------------------------
 #t hf aug-cc-pvdz symm=none int=(grid=ultrafine) guess=(read,tcheck) s
 table=(opt,rrhf)
 ----------------------------------------------------------------------
 -----
 title
 -----
 Symbolic Z-matrix:
 Charge =  0 Multiplicity = 1

 SCF Done:  E(RHF) =  -265.474062574     A.U. after   15 cycles
 Normal termination of Gaussian 16 at Sun Apr  6 08:23:37 2025.
 Gaussian 16:  ES64L-G16RevC.01  3-Jul-2019

 ----------------------------------------------------------------------
 #t hf aug-cc-pvdz iop(5/13=1,5/36=2,99/5=2) pseudo=read geom=check gue
 ss=(read,tcheck) scf=(maxcycle=1)
 ----------------------------------------------------------------------
 -----
 title
 -----
 Structure from the checkpoint file:  "methylperoxyacetylene.chk"
 Charge =  0 Multiplicity = 1

                         Standard orientation:
 ---------------------------------------------------------------------
 Center     Atomic      Atomic             Coordinates (Angstroms)
 Number     Number       Type             X           Y           Z
 ---------------------------------------------------------------------
      1          8           0        0.113175    0.611906   -0.000481
      2          8           0       -0.850519   -0.571912   -0.000730
      3          6           0        1.313138    0.157342   -0.000011
      4          6           0       -2.131835    0.020694    0.000616
      5          6           0        2.457104   -0.211516    0.000417
      6          1           0       -2.297771    0.619401   -0.896754
      7          1           0       -2.296639    0.617800    0.899259
      8          1           0       -2.808117   -0.835719    0.000264
      9          1           0        3.470842   -0.520554    0.000796
 ---------------------------------------------------------------------

 SCF Done:  E(RHF) =  -266.623225006     A.U. after    2 cycles

 The electronic state is 1-A.
 Alpha  occ. eigenvalues --  -21.15658 -21.13845 -11.45584 -11.42695 -11.39944
 Alpha  occ. eigenvalues --   -1.95673  -1.55401  -1.06507  -0.98890  -0.74970
 Alpha  occ. eigenvalues --   -0.67032  -0.64516  -0.60316  -0.56369  -0.54229
 Alpha  occ. eigenvalues --   -0.44835  -0.38269  -0.34310  -0.27376
 Alpha virt. eigenvalues --    0.03240   0.04954   0.05805   0.06177   0.09244
 Alpha virt. eigenvalues --    0.10291   0.12407   0.13393   0.13832   0.14448
 Alpha virt. eigenvalues --    0.14888   0.15189   0.15401   0.15883   0.17991

 Mulliken charges:
               1
     1  O   -2.356362
     2  O   -1.523561
     3  C    2.791304
     4  C   -2.406733
     5  C   -1.095681
     6  H    1.364230
     7  H    1.364351
     8  H    1.250830
     9  H    0.611623
 Sum of Mulliken charges =   0.00000

 Dipole moment (field-independent basis, Debye):
    X=             -1.6866    Y=             -0.2649    Z=              0.0010  Tot=              1.7072

 Test job not archived.
 1\1\GINC-SE167\SP\RHF\Aug-CC-pVDZ\C3H4O2\OHZDE\06-Apr-2025\0\\#t hf au
 g-cc-pvdz iop(5/13=1,5/36=2,99/5=2) pseudo=read geom=check guess=(read
 ,tcheck) scf=(maxcycle=1)\\title\\0,1\O,0,0.113175,0.611906,-0.000481\
 O,0,-0.850519,-0.571912,-0.00073\C,0,1.313138,0.157342,-0.000011\C,0,-
 2.131835,0.020694,0.000616\C,0,2.457104,-0.211516,0.000417\H,0,-2.2977
 71,0.619401,-0.896754\H,0,-2.296639,0.6178,0.899259\H,0,-2.808117,-0.8
 35719,0.000264\H,0,3.470842,-0.520554,0.000796\\Version=ES64L-G16RevC.
 01\State=1-A\HF=-266.623225\RMSD=4.537e-01\Dipole=-0.663545,-0.1042162

 Normal termination of Gaussian 16 at Sun Apr  6 08:23:39 2025.
