 Gaussian 16, Revision C.01,

 ----------------------------------------------------------------------
 #t hf aug-cc-pvdz symm=none int=(grid=ultrafine) guess=(read,tcheck) s
 table=(opt,rrhf)
 ----------------------------------------------------------------------
 -----
 title
 -----
 Symbolic Z-matrix:
 Charge =  0 Multiplicity = 1

 SCF Done:  E(RHF) =  -913.342221621     A.U. after   14 cycles
 Normal termination of Gaussian 16 at Sun Apr  6 08:21:45 2025.
 Gaussian 16:  ES64L-G16RevC.01  3-Jul-2019

 ----------------------------------------------------------------------
 #t hf aug-cc-pvdz iop(5/13=1,5/36=2,99/5=2) pseudo=read geom=check gue
 ss=(read,tcheck) scf=(maxcycle=1)
 ----------------------------------------------------------------------
 -----
 title
 -----
 Structure from the checkpoint file:  "methyldisulfanylethane.chk"
 Charge =  0 Multiplicity = 1

                         Standard orientation:
 ---------------------------------------------------------------------
 Center     Atomic      Atomic             Coordinates (Angstroms)
 Number     Number       Type             X           Y           Z
 ---------------------------------------------------------------------
      1          6           0       -2.888226    0.352672    0.043352
      2          6           0        2.230326    1.007436    0.361276
      3          6           0       -1.472280    0.450501   -0.510263
      4         16           0        1.475203   -0.449173   -0.449721
      5         16           0       -0.358677   -0.632636    0.485898
      6          1           0       -3.263170   -0.670018   -0.003336
      7          1           0       -2.934951    0.684419    1.080970
      8          1           0       -3.559094    0.983985   -0.541222
      9          1           0        1.664668    1.911244    0.149935
     10          1           0        3.229499    1.100849   -0.064440
     11          1           0        2.305148    0.847335    1.433383
     12          1           0       -1.100520    1.472025   -0.456081
     13          1           0       -1.424923    0.115456   -1.544229
 ---------------------------------------------------------------------

 SCF Done:  E(RHF) =  -914.421691064     A.U. after    2 cycles

 The electronic state is 1-A.
 Alpha  occ. eigenvalues --  -75.69708 -75.69338 -13.13892 -13.10742 -13.08394
 Alpha  occ. eigenvalues --  -13.07018 -13.03728 -13.02485 -11.41869 -11.39678
 Alpha  occ. eigenvalues --  -11.37321  -8.03610  -8.03309  -1.26971  -1.16546
 Alpha  occ. eigenvalues --   -1.04030  -0.91883  -0.84513  -0.63575  -0.60287
 Alpha  occ. eigenvalues --   -0.59052  -0.58186  -0.52610  -0.50813  -0.45170
 Alpha  occ. eigenvalues --   -0.41142  -0.33376  -0.24276  -0.23242
 Alpha virt. eigenvalues --    0.02974   0.03069   0.04563   0.05711   0.06457
 Alpha virt. eigenvalues --    0.07007   0.07369   0.08494   0.08845   0.09860
 Alpha virt. eigenvalues --    0.12289   0.13244   0.13902   0.14126   0.14882

 Mulliken charges:
               1
     1  C   -3.524533
     2  C   -4.566052
     3  C   -3.718028
     4  S    0.114795
     5  S    0.324261
     6  H    1.314263
     7  H    1.292906
     8  H    1.186562
     9  H    1.494380
    10  H    1.387689
    11  H    1.510256
    12  H    1.575646
    13  H    1.607855
 Sum of Mulliken charges =   0.00000

 Dipole moment (field-independent basis, Debye):
    X=             -0.2333    Y=             -0.3111    Z=             -0.1131  Tot=              0.4050

 Test job not archived.
 1\1\GINC-SE169\SP\RHF\Aug-CC-pVDZ\C3H8S2\OHZDE\06-Apr-2025\0\\#t hf au
 g-cc-pvdz iop(5/13=1,5/36=2,99/5=2) pseudo=read geom=check guess=(read
 ,tcheck) scf=(maxcycle=1)\\title\\0,1\C,0,-2.888226,0.352672,0.043352\
 C,0,2.230326,1.007436,0.361276\C,0,-1.47228,0.450501,-0.510263\S,0,1.4
 75203,-0.449173,-0.449721\S,0,-0.358677,-0.632636,0.485898\H,0,-3.2631
 7,-0.670018,-0.003336\H,0,-2.934951,0.684419,1.08097\H,0,-3.559094,0.9
 83985,-0.541222\H,0,1.664668,1.911244,0.149935\H,0,3.229499,1.100849,-
 0.06444\H,0,2.305148,0.847335,1.433383\H,0,-1.10052,1.472025,-0.456081

 Normal termination of Gaussian 16 at Sun Apr  6 08:22:02 2025.
