 Gaussian 16, Revision C.01,

 ----------------------------------------------------------------------
 #t hf aug-cc-pvdz symm=none int=(grid=ultrafine) guess=(read,tcheck) s
 table=(opt,rrhf)
 ----------------------------------------------------------------------
 -----
 title
 -----
 Symbolic Z-matrix:
 Charge =  0 Multiplicity = 1

 SCF Done:  E(RHF) =  -437.730316646     A.U. after   11 cycles
 Normal termination of Gaussian 16 at Sun Apr  6 08:19:04 2025.
 Gaussian 16:  ES64L-G16RevC.01  3-Jul-2019

 ----------------------------------------------------------------------
 #t hf aug-cc-pvdz iop(5/13=1,5/36=2,99/5=2) pseudo=read geom=check gue
 ss=(read,tcheck) scf=(maxcycle=1)
 ----------------------------------------------------------------------
 -----
 title
 -----
 Structure from the checkpoint file:  "methanethiol.chk"
 Charge =  0 Multiplicity = 1

                         Standard orientation:
 ---------------------------------------------------------------------
 Center     Atomic      Atomic             Coordinates (Angstroms)
 Number     Number       Type             X           Y           Z
 ---------------------------------------------------------------------
      1          6           0        0.048051    1.161675    0.000000
      2         16           0        0.048051   -0.668872    0.000000
      3          1           0       -0.431921    1.553804    0.892468
      4          1           0       -0.431921    1.553804   -0.892468
      5          1           0        1.092879    1.462961    0.000000
      6          1           0       -1.286160   -0.838674    0.000000
 ---------------------------------------------------------------------

 SCF Done:  E(RHF) =  -438.175270468     A.U. after    2 cycles

 The electronic state is 1-A'.
 Alpha  occ. eigenvalues --  -75.68408 -13.11165 -13.06265 -13.00389 -11.39722
 Alpha  occ. eigenvalues --   -8.02257  -1.18070  -0.94097  -0.59975  -0.58787
 Alpha  occ. eigenvalues --   -0.49164  -0.39165  -0.23505
 Alpha virt. eigenvalues --    0.02463   0.04343   0.05909   0.06023   0.10197
 Alpha virt. eigenvalues --    0.11885   0.14137   0.15372   0.15545   0.17189
 Alpha virt. eigenvalues --    0.17303   0.20192   0.26256   0.26281   0.26972

 Mulliken charges:
               1
     1  C   -4.467626
     2  S   -0.475583
     3  H    1.333599
     4  H    1.333599
     5  H    1.313449
     6  H    0.962562
 Sum of Mulliken charges =  -0.00000

 Dipole moment (field-independent basis, Debye):
    X=              0.8504    Y=              0.3018    Z=              0.0000  Tot=              0.9024

 Test job not archived.
 1\1\GINC-SE050\SP\RHF\Aug-CC-pVDZ\C1H4S1\OHZDE\06-Apr-2025\0\\#t hf au
 g-cc-pvdz iop(5/13=1,5/36=2,99/5=2) pseudo=read geom=check guess=(read
 ,tcheck) scf=(maxcycle=1)\\title\\0,1\C,0,0.048051,1.161675,0.\S,0,0.0
 48051,-0.668872,0.\H,0,-0.431921,1.553804,0.892468\H,0,-0.431921,1.553
 804,-0.892468\H,0,1.092879,1.462961,0.\H,0,-1.28616,-0.838674,0.\\Vers
 ion=ES64L-G16RevC.01\State=1-A'\HF=-438.1752705\RMSD=8.893e-02\Dipole=
 0.3345826,0.1187336,0.\Quadrupole=1.2163436,0.8733549,-2.0896985,0.135
 5568,0.,0.\PG=CS [SG(C1H2S1),X(H2)]\\@

 Normal termination of Gaussian 16 at Sun Apr  6 08:19:16 2025.
