 Gaussian 16, Revision C.01,

 ----------------------------------------------------------------------
 #t hf aug-cc-pvdz symm=none int=(grid=ultrafine) guess=(read,tcheck) s
 table=(opt,rrhf)
 ----------------------------------------------------------------------
 -----
 title
 -----
 Symbolic Z-matrix:
 Charge =  0 Multiplicity = 1

 SCF Done:  E(RHF) =  -571.302481085     A.U. after   16 cycles

 1\1\GINC-SE398\Stability\RHF\Aug-CC-pVDZ\C9H10O3\OHZDE\06-Apr-2025\0\\
 #t hf aug-cc-pvdz symm=none int=(grid=ultrafine) guess=(read,tcheck) s
 table=(opt,rrhf)\\title\\0,1\C,0,1.21275,-0.008767,0.\C,0,-1.191217,-0
 .059999,0.\C,0,1.253899,-1.395528,0.\C,0,-1.163891,-1.439772,0.\C,0,0.
 ,0.676566,0.\C,0,0.05938,-2.119086,0.\C,0,0.029615,2.157734,0.\C,0,1.1
 87057,-4.229322,0.\C,0,-1.258011,4.136065,0.\O,0,1.03763,2.827599,0.\O
 ,0,-0.016913,-3.47356,0.\O,0,-1.208484,2.702078,0.\H,0,2.13057,0.56174
 1,0.\H,0,-2.138564,0.457542,0.\H,0,2.208636,-1.897967,0.\H,0,-2.077198

 Normal termination of Gaussian 16 at Sun Apr  6 08:21:48 2025.
 Gaussian 16:  ES64L-G16RevC.01  3-Jul-2019

 ----------------------------------------------------------------------
 #t hf aug-cc-pvdz iop(5/13=1,5/36=2,99/5=2) pseudo=read geom=check gue
 ss=(read,tcheck) scf=(maxcycle=1)
 ----------------------------------------------------------------------
 -----
 title
 -----
 Structure from the checkpoint file:  "methyl-4-methoxybenzoate.chk"
 Charge =  0 Multiplicity = 1

                         Standard orientation:
 ---------------------------------------------------------------------
 Center     Atomic      Atomic             Coordinates (Angstroms)
 Number     Number       Type             X           Y           Z
 ---------------------------------------------------------------------
      1          6           0        1.212750   -0.008767    0.000000
      2          6           0       -1.191217   -0.059999    0.000000
      3          6           0        1.253899   -1.395528    0.000000
      4          6           0       -1.163891   -1.439772    0.000000
      5          6           0        0.000000    0.676566    0.000000
      6          6           0        0.059380   -2.119086    0.000000
      7          6           0        0.029615    2.157734    0.000000
      8          6           0        1.187056   -4.229322    0.000000
      9          6           0       -1.258011    4.136065    0.000000
     10          8           0        1.037630    2.827599    0.000000
     11          8           0       -0.016913   -3.473560    0.000000
     12          8           0       -1.208484    2.702078    0.000000
     13          1           0        2.130570    0.561741    0.000000
     14          1           0       -2.138564    0.457542    0.000000
     15          1           0        2.208636   -1.897967    0.000000
     16          1           0       -2.077198   -2.017737    0.000000
     17          1           0        1.783546   -4.025408    0.892035
     18          1           0        1.783546   -4.025408   -0.892035
     19          1           0        0.883034   -5.272089    0.000000
     20          1           0       -2.313254    4.391701    0.000000
     21          1           0       -0.767834    4.535668   -0.886018
     22          1           0       -0.767834    4.535668    0.886018
 ---------------------------------------------------------------------

 SCF Done:  E(RHF) =  -573.870423503     A.U. after    2 cycles

 The electronic state is 1-A'.
 Alpha  occ. eigenvalues --  -21.08578 -21.08482 -21.03725 -11.54138 -11.52879
 Alpha  occ. eigenvalues --  -11.47292 -11.44779 -11.43352 -11.42150 -11.41505
 Alpha  occ. eigenvalues --  -11.41152 -11.37600  -1.83830  -1.80041  -1.65297
 Alpha  occ. eigenvalues --   -1.33321  -1.12138  -1.10995  -1.02868  -0.99636
 Alpha  occ. eigenvalues --   -0.88323  -0.87220  -0.77629  -0.70984  -0.66753
 Alpha  occ. eigenvalues --   -0.64683  -0.63397  -0.62974  -0.62712  -0.59219
 Alpha  occ. eigenvalues --   -0.58390  -0.55800  -0.54848  -0.52578  -0.50503
 Alpha  occ. eigenvalues --   -0.49162  -0.45777  -0.41386  -0.40726  -0.39926
 Alpha  occ. eigenvalues --   -0.34441  -0.31819  -0.29088  -0.26922
 Alpha virt. eigenvalues --    0.03074   0.04852   0.05159   0.05602   0.05742
 Alpha virt. eigenvalues --    0.06218   0.06756   0.07173   0.07183   0.08400
 Alpha virt. eigenvalues --    0.09434   0.10570   0.10809   0.11203   0.11661

 Mulliken charges:
               1
     1  C   -1.380573
     2  C    0.108342
     3  C   -2.524885
     4  C   -4.289161
     5  C    2.201975
     6  C    3.991916
     7  C    5.393828
     8  C   -3.856637
     9  C   -3.243597
    10  O   -3.656200
    11  O   -4.754518
    12  O   -3.862264
    13  H    1.800332
    14  H    1.985789
    15  H    1.800447
    16  H    1.917713
    17  H    1.402782
    18  H    1.402782
    19  H    1.432363
    20  H    1.425187
    21  H    1.352189
    22  H    1.352189
 Sum of Mulliken charges =   0.00000

 Dipole moment (field-independent basis, Debye):
    X=             -0.6215    Y=             -1.8961    Z=              0.0000  Tot=              1.9954

 Test job not archived.
 1\1\GINC-SE398\SP\RHF\Aug-CC-pVDZ\C9H10O3\OHZDE\06-Apr-2025\0\\#t hf a
 ug-cc-pvdz iop(5/13=1,5/36=2,99/5=2) pseudo=read geom=check guess=(rea
 d,tcheck) scf=(maxcycle=1)\\title\\0,1\C,0,1.21275,-0.008767,0.\C,0,-1
 .191217,-0.059999,0.\C,0,1.253899,-1.395528,0.\C,0,-1.163891,-1.439772
 ,0.\C,0,0.,0.676566,0.\C,0,0.05938,-2.119086,0.\C,0,0.029615,2.157734,
 0.\C,0,1.187057,-4.229322,0.\C,0,-1.258011,4.136065,0.\O,0,1.03763,2.8
 27599,0.\O,0,-0.016913,-3.47356,0.\O,0,-1.208484,2.702078,0.\H,0,2.130
 57,0.561741,0.\H,0,-2.138564,0.457542,0.\H,0,2.208636,-1.897967,0.\H,0

 Normal termination of Gaussian 16 at Sun Apr  6 08:22:11 2025.
