 Gaussian 16, Revision C.01,

 ----------------------------------------------------------------------
 #t hf aug-cc-pvdz symm=none int=(grid=ultrafine) guess=(read,tcheck) s
 table=(opt,rrhf)
 ----------------------------------------------------------------------
 -----
 title
 -----
 Symbolic Z-matrix:
 Charge =  0 Multiplicity = 1

 SCF Done:  E(RHF) =  -263.057642681     A.U. after   13 cycles
 Normal termination of Gaussian 16 at Sun Apr  6 08:23:41 2025.
 Gaussian 16:  ES64L-G16RevC.01  3-Jul-2019

 ----------------------------------------------------------------------
 #t hf aug-cc-pvdz iop(5/13=1,5/36=2,99/5=2) pseudo=read geom=check gue
 ss=(read,tcheck) scf=(maxcycle=1)
 ----------------------------------------------------------------------
 -----
 title
 -----
 Structure from the checkpoint file:  "methylurea.chk"
 Charge =  0 Multiplicity = 1

                         Standard orientation:
 ---------------------------------------------------------------------
 Center     Atomic      Atomic             Coordinates (Angstroms)
 Number     Number       Type             X           Y           Z
 ---------------------------------------------------------------------
      1          6           0       -1.883880    0.052683    0.051156
      2          1           0       -2.056506    0.749901   -0.773592
      3          1           0       -2.696495   -0.669693    0.034127
      4          1           0       -1.939587    0.605039    0.992852
      5          1           0       -0.628998   -1.659843   -0.030177
      6          7           0       -0.629825   -0.657566   -0.098325
      7          6           0        0.625516   -0.112385   -0.011604
      8          1           0       -0.085368    1.818229   -0.316218
      9          1           0        1.594033    1.648111   -0.085107
     10          7           0        0.672759    1.267776    0.047964
     11          8           0        1.632821   -0.800625    0.036666
 ---------------------------------------------------------------------

 SCF Done:  E(RHF) =  -264.247843257     A.U. after    2 cycles

 The electronic state is 1-A.
 Alpha  occ. eigenvalues --  -21.00374 -15.77075 -15.75532 -11.49224 -11.41359
 Alpha  occ. eigenvalues --   -1.70265  -1.41126  -1.30441  -1.02049  -0.83108
 Alpha  occ. eigenvalues --   -0.72088  -0.64480  -0.63525  -0.61939  -0.55062
 Alpha  occ. eigenvalues --   -0.53804  -0.47727  -0.37156  -0.29985  -0.28530
 Alpha virt. eigenvalues --    0.02878   0.04715   0.05409   0.05897   0.06886
 Alpha virt. eigenvalues --    0.07740   0.10460   0.12541   0.13685   0.13819
 Alpha virt. eigenvalues --    0.14312   0.15240   0.16105   0.17985   0.18958

 Mulliken charges:
               1
     1  C   -3.262719
     2  H    1.335197
     3  H    1.343340
     4  H    1.309094
     5  H    0.465911
     6  N   -2.260935
     7  C    5.262606
     8  H    0.721383
     9  H    0.534800
    10  N   -2.551405
    11  O   -2.897272
 Sum of Mulliken charges =  -0.00000

 Dipole moment (field-independent basis, Debye):
    X=             -2.8441    Y=              1.4957    Z=             -0.4516  Tot=              3.2449

 Test job not archived.
 1\1\GINC-SE009\SP\RHF\Aug-CC-pVDZ\C2H6N2O1\OHZDE\06-Apr-2025\0\\#t hf
 aug-cc-pvdz iop(5/13=1,5/36=2,99/5=2) pseudo=read geom=check guess=(re
 ad,tcheck) scf=(maxcycle=1)\\title\\0,1\C,0,-1.88388,0.052683,0.051156
 \H,0,-2.056506,0.749901,-0.773592\H,0,-2.696495,-0.669693,0.034127\H,0
 ,-1.939587,0.605039,0.992852\H,0,-0.628998,-1.659843,-0.030177\N,0,-0.
 629825,-0.657566,-0.098325\C,0,0.625516,-0.112385,-0.011604\H,0,-0.085
 368,1.818229,-0.316218\H,0,1.594033,1.648111,-0.085107\N,0,0.672759,1.
 267776,0.047964\O,0,1.632821,-0.800625,0.036666\\Version=ES64L-G16RevC

 Normal termination of Gaussian 16 at Sun Apr  6 08:23:44 2025.
