 Gaussian 16, Revision C.01,

 ----------------------------------------------------------------------
 #t hf aug-cc-pvdz symm=none int=(grid=ultrafine) guess=(read,tcheck) s
 table=(opt,rrhf)
 ----------------------------------------------------------------------
 -----
 title
 -----
 Symbolic Z-matrix:
 Charge =  0 Multiplicity = 1

 SCF Done:  E(RHF) =  -460.904214075     A.U. after   14 cycles

 1\1\GINC-SE103\Stability\RHF\Aug-CC-pVDZ\C8H14O2\OHZDE\06-Apr-2025\0\\
 #t hf aug-cc-pvdz symm=none int=(grid=ultrafine) guess=(read,tcheck) s
 table=(opt,rrhf)\\title\\0,1\C,0,-1.111854,-0.407602,0.125096\C,0,2.51
 9955,0.35947,-0.688408\C,0,1.969676,-1.052974,-0.470654\C,0,1.411901,1
 .411583,-0.589259\C,0,1.194356,-1.168658,0.84717\C,0,0.666104,1.312877
 ,0.744533\C,0,0.0999,-0.101797,0.994429\C,0,-3.28167,0.319162,-0.47119
 8\O,0,-1.25017,-1.37067,-0.588255\O,0,-2.07217,0.532062,0.27385\H,0,3.
 28442,0.574297,0.066511\H,0,3.016327,0.424143,-1.65902\H,0,1.308119,-1

 Normal termination of Gaussian 16 at Sun Apr  6 08:24:19 2025.
 Gaussian 16:  ES64L-G16RevC.01  3-Jul-2019

 ----------------------------------------------------------------------
 #t hf aug-cc-pvdz iop(5/13=1,5/36=2,99/5=2) pseudo=read geom=check gue
 ss=(read,tcheck) scf=(maxcycle=1)
 ----------------------------------------------------------------------
 -----
 title
 -----
 Structure from the checkpoint file:  "methylcyclohexanoate.chk"
 Charge =  0 Multiplicity = 1

                         Standard orientation:
 ---------------------------------------------------------------------
 Center     Atomic      Atomic             Coordinates (Angstroms)
 Number     Number       Type             X           Y           Z
 ---------------------------------------------------------------------
      1          6           0       -1.111854   -0.407602    0.125096
      2          6           0        2.519955    0.359470   -0.688408
      3          6           0        1.969676   -1.052974   -0.470654
      4          6           0        1.411901    1.411583   -0.589259
      5          6           0        1.194356   -1.168658    0.847170
      6          6           0        0.666104    1.312877    0.744533
      7          6           0        0.099900   -0.101797    0.994429
      8          6           0       -3.281670    0.319161   -0.471198
      9          8           0       -1.250170   -1.370670   -0.588255
     10          8           0       -2.072170    0.532062    0.273850
     11          1           0        3.284420    0.574297    0.066511
     12          1           0        3.016327    0.424143   -1.659020
     13          1           0        1.308119   -1.318004   -1.297782
     14          1           0        2.784895   -1.779646   -0.477318
     15          1           0        1.828010    2.414978   -0.702103
     16          1           0        0.706946    1.275720   -1.416225
     17          1           0        0.756983   -2.162764    0.937526
     18          1           0        1.888488   -1.047022    1.684150
     19          1           0        1.361886    1.538168    1.557947
     20          1           0       -0.133635    2.050051    0.799485
     21          1           0       -0.284837   -0.125874    2.018897
     22          1           0       -3.073608    0.295601   -1.539403
     23          1           0       -3.927090    1.157270   -0.226901
     24          1           0       -3.748380   -0.620420   -0.180785
 ---------------------------------------------------------------------

 SCF Done:  E(RHF) =  -463.078025266     A.U. after    2 cycles

 The electronic state is 1-A.
 Alpha  occ. eigenvalues --  -21.08481 -21.04230 -11.52649 -11.44622 -11.43922
 Alpha  occ. eigenvalues --  -11.42226 -11.41347 -11.38390 -11.37507 -11.34038
 Alpha  occ. eigenvalues --   -1.83803  -1.65584  -1.31889  -1.12913  -1.10399
 Alpha  occ. eigenvalues --   -1.01971  -0.90917  -0.88249  -0.80923  -0.72077
 Alpha  occ. eigenvalues --   -0.67584  -0.66840  -0.63268  -0.61517  -0.61146
 Alpha  occ. eigenvalues --   -0.57468  -0.56432  -0.54207  -0.52571  -0.49682
 Alpha  occ. eigenvalues --   -0.48143  -0.47247  -0.46361  -0.44109  -0.40867
 Alpha  occ. eigenvalues --   -0.38853  -0.38650  -0.31847  -0.28659
 Alpha virt. eigenvalues --    0.03829   0.04378   0.04844   0.05156   0.05312
 Alpha virt. eigenvalues --    0.05416   0.05927   0.06824   0.07078   0.07730
 Alpha virt. eigenvalues --    0.08015   0.08429   0.08517   0.09095   0.12432

 Mulliken charges:
               1
     1  C    6.656695
     2  C   -2.760580
     3  C   -3.025463
     4  C   -3.270385
     5  C   -3.082763
     6  C   -3.413863
     7  C   -0.439906
     8  C   -3.418181
     9  O   -3.261939
    10  O   -3.722272
    11  H    1.400370
    12  H    1.333150
    13  H    1.575513
    14  H    1.289177
    15  H    1.269283
    16  H    1.639538
    17  H    1.388243
    18  H    1.137100
    19  H    1.308460
    20  H    1.467746
    21  H    1.824885
    22  H    1.364324
    23  H    1.389247
    24  H    1.351623
 Sum of Mulliken charges =   0.00000

 Dipole moment (field-independent basis, Debye):
    X=             -0.2677    Y=              1.0489    Z=              0.3942  Tot=              1.1521

 Test job not archived.
 1\1\GINC-SE103\SP\RHF\Aug-CC-pVDZ\C8H14O2\OHZDE\06-Apr-2025\0\\#t hf a
 ug-cc-pvdz iop(5/13=1,5/36=2,99/5=2) pseudo=read geom=check guess=(rea
 d,tcheck) scf=(maxcycle=1)\\title\\0,1\C,0,-1.111854,-0.407602,0.12509
 6\C,0,2.519955,0.35947,-0.688408\C,0,1.969676,-1.052974,-0.470654\C,0,
 1.411901,1.411583,-0.589259\C,0,1.194356,-1.168658,0.84717\C,0,0.66610
 4,1.312877,0.744533\C,0,0.0999,-0.101797,0.994429\C,0,-3.28167,0.31916
 2,-0.471198\O,0,-1.25017,-1.37067,-0.588255\O,0,-2.07217,0.532062,0.27
 385\H,0,3.28442,0.574297,0.066511\H,0,3.016327,0.424143,-1.65902\H,0,1

 Normal termination of Gaussian 16 at Sun Apr  6 08:24:59 2025.
