 Gaussian 16, Revision C.01,

 ----------------------------------------------------------------------
 #t hf aug-cc-pvdz symm=none int=(grid=ultrafine) guess=(read,tcheck) s
 table=(opt,rrhf)
 ----------------------------------------------------------------------
 -----
 title
 -----
 Symbolic Z-matrix:
 Charge =  0 Multiplicity = 1

 SCF Done:  E(RHF) =  -590.620380887     A.U. after   14 cycles
 Normal termination of Gaussian 16 at Sun Apr  6 08:23:49 2025.
 Gaussian 16:  ES64L-G16RevC.01  3-Jul-2019

 ----------------------------------------------------------------------
 #t hf aug-cc-pvdz iop(5/13=1,5/36=2,99/5=2) pseudo=read geom=check gue
 ss=(read,tcheck) scf=(maxcycle=1)
 ----------------------------------------------------------------------
 -----
 title
 -----
 Structure from the checkpoint file:  "methylethylsulfoxide.chk"
 Charge =  0 Multiplicity = 1

                         Standard orientation:
 ---------------------------------------------------------------------
 Center     Atomic      Atomic             Coordinates (Angstroms)
 Number     Number       Type             X           Y           Z
 ---------------------------------------------------------------------
      1          6           0       -2.236697    0.080678   -0.129130
      2          1           0       -2.322637   -0.067126   -1.206237
      3          1           0       -3.133658   -0.332835    0.333139
      4          1           0       -2.233285    1.152437    0.067774
      5          6           0       -1.000479   -0.609481    0.429352
      6          1           0       -1.046984   -1.689171    0.288441
      7          1           0       -0.841528   -0.414738    1.490353
      8          6           0        0.730938    1.540292    0.218013
      9          1           0       -0.093205    2.158259   -0.133594
     10         16           0        0.566260   -0.160011   -0.432652
     11          8           0        1.651899   -0.967090    0.229435
     12          1           0        1.671904    1.924647   -0.167830
     13          1           0        0.761474    1.496490    1.305499
 ---------------------------------------------------------------------

 SCF Done:  E(RHF) =  -591.801921573     A.U. after    2 cycles

 The electronic state is 1-A.
 Alpha  occ. eigenvalues --  -75.77694 -20.99177 -13.32346 -13.21399 -13.16489
 Alpha  occ. eigenvalues --  -11.43135 -11.40534 -11.38645  -8.11924  -1.67312
 Alpha  occ. eigenvalues --   -1.23055  -1.10974  -0.96802  -0.85835  -0.65781
 Alpha  occ. eigenvalues --   -0.62554  -0.61068  -0.58528  -0.54758  -0.52696
 Alpha  occ. eigenvalues --   -0.47663  -0.45189  -0.36893  -0.31628  -0.25179
 Alpha virt. eigenvalues --    0.02903   0.04060   0.05002   0.05623   0.06334
 Alpha virt. eigenvalues --    0.06589   0.07226   0.07995   0.09516   0.11927
 Alpha virt. eigenvalues --    0.12601   0.13365   0.13751   0.14567   0.15463

 Mulliken charges:
               1
     1  C   -3.498558
     2  H    1.352319
     3  H    1.111521
     4  H    1.347334
     5  C   -3.972385
     6  H    1.545078
     7  H    1.556369
     8  C   -4.708559
     9  H    1.575109
    10  S    3.393509
    11  O   -2.410951
    12  H    1.361218
    13  H    1.347995
 Sum of Mulliken charges =   0.00000

 Dipole moment (field-independent basis, Debye):
    X=             -1.6751    Y=              0.9342    Z=             -0.6988  Tot=              2.0413

 Test job not archived.
 1\1\GINC-SE023\SP\RHF\Aug-CC-pVDZ\C3H8O1S1\OHZDE\06-Apr-2025\0\\#t hf
 aug-cc-pvdz iop(5/13=1,5/36=2,99/5=2) pseudo=read geom=check guess=(re
 ad,tcheck) scf=(maxcycle=1)\\title\\0,1\C,0,-2.236697,0.080677,-0.1291
 3\H,0,-2.322637,-0.067127,-1.206237\H,0,-3.133658,-0.332836,0.333139\H
 ,0,-2.233285,1.152436,0.067774\C,0,-1.000479,-0.609481,0.429352\H,0,-1
 .046983,-1.689171,0.288441\H,0,-0.841528,-0.414738,1.490353\C,0,0.7309
 37,1.540292,0.218013\H,0,-0.093206,2.158259,-0.133594\S,0,0.56626,-0.1
 60011,-0.432652\O,0,1.651899,-0.967089,0.229435\H,0,1.671903,1.924648,

 Normal termination of Gaussian 16 at Sun Apr  6 08:23:53 2025.
