 Gaussian 16, Revision C.01,

 ----------------------------------------------------------------------
 #t hf aug-cc-pvdz symm=none int=(grid=ultrafine) guess=(read,tcheck) s
 table=(opt,rrhf)
 ----------------------------------------------------------------------
 -----
 title
 -----
 Symbolic Z-matrix:
 Charge =  0 Multiplicity = 1

 SCF Done:  E(RHF) =  -193.964343221     A.U. after   12 cycles
 Normal termination of Gaussian 16 at Sun Apr  6 08:21:04 2025.
 Gaussian 16:  ES64L-G16RevC.01  3-Jul-2019

 ----------------------------------------------------------------------
 #t hf aug-cc-pvdz iop(5/13=1,5/36=2,99/5=2) pseudo=read geom=check gue
 ss=(read,tcheck) scf=(maxcycle=1)
 ----------------------------------------------------------------------
 -----
 title
 -----
 Structure from the checkpoint file:  "methylenecyclobutane.chk"
 Charge =  0 Multiplicity = 1

                         Standard orientation:
 ---------------------------------------------------------------------
 Center     Atomic      Atomic             Coordinates (Angstroms)
 Number     Number       Type             X           Y           Z
 ---------------------------------------------------------------------
      1          6           0        0.233750   -0.388334    1.091648
      2          6           0        0.233750   -0.388334   -1.091648
      3          6           0       -0.103047    0.613325   -0.000000
      4          6           0        0.233750   -1.499323    0.000000
      5          6           0       -0.627950    1.827559   -0.000000
      6          1           0       -0.477778   -0.485850    1.911239
      7          1           0       -0.477778   -0.485850   -1.911239
      8          1           0        1.227026   -0.224070    1.515020
      9          1           0        1.227026   -0.224070   -1.515020
     10          1           0       -0.853925    2.345913    0.923515
     11          1           0       -0.853925    2.345913   -0.923515
     12          1           0        1.077726   -2.185964    0.000000
     13          1           0       -0.689886   -2.075382    0.000000
 ---------------------------------------------------------------------

 SCF Done:  E(RHF) =  -194.948722682     A.U. after    2 cycles

 The electronic state is 1-A'.
 Alpha  occ. eigenvalues --  -11.46221 -11.39495 -11.39187 -11.37147 -11.34728
 Alpha  occ. eigenvalues --   -1.32985  -1.05576  -0.96184  -0.86989  -0.73604
 Alpha  occ. eigenvalues --   -0.64744  -0.62617  -0.59611  -0.54012  -0.48990
 Alpha  occ. eigenvalues --   -0.44870  -0.42644  -0.40606  -0.32885
 Alpha virt. eigenvalues --    0.03902   0.05658   0.05787   0.05828   0.06173
 Alpha virt. eigenvalues --    0.06355   0.06624   0.06798   0.10368   0.12442
 Alpha virt. eigenvalues --    0.13075   0.13330   0.13926   0.14469   0.15546

 Mulliken charges:
               1
     1  C   -3.121539
     2  C   -3.121539
     3  C    3.289255
     4  C   -3.181677
     5  C   -4.148562
     6  H    1.191761
     7  H    1.191761
     8  H    1.219090
     9  H    1.219090
    10  H    1.417951
    11  H    1.417951
    12  H    1.310591
    13  H    1.315866
 Sum of Mulliken charges =  -0.00000

 Dipole moment (field-independent basis, Debye):
    X=              0.1770    Y=             -0.5685    Z=             -0.0000  Tot=              0.5954

 Test job not archived.
 1\1\GINC-SE170\SP\RHF\Aug-CC-pVDZ\C5H8\OHZDE\06-Apr-2025\0\\#t hf aug-
 cc-pvdz iop(5/13=1,5/36=2,99/5=2) pseudo=read geom=check guess=(read,t
 check) scf=(maxcycle=1)\\title\\0,1\C,0,0.23375,-0.388334,1.091648\C,0
 ,0.23375,-0.388334,-1.091648\C,0,-0.103047,0.613325,0.\C,0,0.23375,-1.
 499323,0.\C,0,-0.62795,1.827559,0.\H,0,-0.477778,-0.48585,1.911239\H,0
 ,-0.477778,-0.48585,-1.911239\H,0,1.227026,-0.22407,1.51502\H,0,1.2270
 26,-0.22407,-1.51502\H,0,-0.853925,2.345913,0.923515\H,0,-0.853925,2.3
 45913,-0.923515\H,0,1.077726,-2.185964,0.\H,0,-0.689886,-2.075382,0.\\

 Normal termination of Gaussian 16 at Sun Apr  6 08:21:42 2025.
