 Gaussian 16, Revision C.01,

 ----------------------------------------------------------------------
 #t hf aug-cc-pvdz symm=none int=(grid=ultrafine) guess=(read,tcheck) s
 table=(opt,rrhf)
 ----------------------------------------------------------------------
 -----
 title
 -----
 Symbolic Z-matrix:
 Charge =  0 Multiplicity = 1

 SCF Done:  E(RHF) =  -245.825974138     A.U. after   13 cycles
 Normal termination of Gaussian 16 at Sun Apr  6 08:19:09 2025.
 Gaussian 16:  ES64L-G16RevC.01  3-Jul-2019

 ----------------------------------------------------------------------
 #t hf aug-cc-pvdz iop(5/13=1,5/36=2,99/5=2) pseudo=read geom=check gue
 ss=(read,tcheck) scf=(maxcycle=1)
 ----------------------------------------------------------------------
 -----
 title
 -----
 Structure from the checkpoint file:  "methoxyacetonitrile.chk"
 Charge =  0 Multiplicity = 1

                         Standard orientation:
 ---------------------------------------------------------------------
 Center     Atomic      Atomic             Coordinates (Angstroms)
 Number     Number       Type             X           Y           Z
 ---------------------------------------------------------------------
      1          1           0        2.599638   -1.376903    0.000000
      2          1           0        2.446132    0.154879    0.891870
      3          1           0        2.446132    0.154879   -0.891870
      4          6           0        2.130026   -0.397041    0.000000
      5          8           0        0.728282   -0.616731    0.000000
      6          1           0        0.230030    1.194926   -0.885833
      7          1           0        0.230030    1.194926    0.885833
      8          6           0        0.000000    0.588434    0.000000
      9          7           0       -2.565567    0.100470    0.000000
     10          6           0       -1.433235    0.293249    0.000000
 ---------------------------------------------------------------------

 SCF Done:  E(RHF) =  -246.928455063     A.U. after    2 cycles

 The electronic state is 1-A'.
 Alpha  occ. eigenvalues --  -21.07983 -15.76583 -11.49191 -11.43332 -11.42338
 Alpha  occ. eigenvalues --   -1.78755  -1.31151  -1.09963  -0.97113  -0.73931
 Alpha  occ. eigenvalues --   -0.69012  -0.63219  -0.60355  -0.58310  -0.51215
 Alpha  occ. eigenvalues --   -0.45030  -0.44393  -0.41931  -0.33200
 Alpha virt. eigenvalues --    0.02803   0.04912   0.05227   0.05616   0.06719
 Alpha virt. eigenvalues --    0.09371   0.10623   0.11737   0.12428   0.12696
 Alpha virt. eigenvalues --    0.14017   0.15460   0.15783   0.16434   0.17656

 Mulliken charges:
               1
     1  H    1.302749
     2  H    1.331023
     3  H    1.331023
     4  C   -2.790872
     5  O   -2.688245
     6  H    1.466769
     7  H    1.466769
     8  C   -1.236896
     9  N   -2.322450
    10  C    2.140130
 Sum of Mulliken charges =   0.00000

 Dipole moment (field-independent basis, Debye):
    X=              3.9495    Y=              0.7543    Z=              0.0000  Tot=              4.0208

 Test job not archived.
 1\1\GINC-SE108\SP\RHF\Aug-CC-pVDZ\C3H5N1O1\OHZDE\06-Apr-2025\0\\#t hf
 aug-cc-pvdz iop(5/13=1,5/36=2,99/5=2) pseudo=read geom=check guess=(re
 ad,tcheck) scf=(maxcycle=1)\\title\\0,1\H,0,2.599637,-1.376904,0.\H,0,
 2.446132,0.154878,0.89187\H,0,2.446132,0.154878,-0.89187\C,0,2.130026,
 -0.397042,0.\O,0,0.728282,-0.616731,0.\H,0,0.23003,1.194926,-0.885833\
 H,0,0.23003,1.194926,0.885833\C,0,0.,0.588434,0.\N,0,-2.565567,0.10047
 1,0.\C,0,-1.433235,0.293249,0.\\Version=ES64L-G16RevC.01\State=1-A'\HF
 =-246.9284551\RMSD=2.017e-01\Dipole=1.5538345,0.2967571,0.\Quadrupole=

 Normal termination of Gaussian 16 at Sun Apr  6 08:19:16 2025.
