 Gaussian 16, Revision C.01,

 ----------------------------------------------------------------------
 #t hf aug-cc-pvdz symm=none int=(grid=ultrafine) guess=(read,tcheck) s
 table=(opt,rrhf)
 ----------------------------------------------------------------------
 -----
 title
 -----
 Symbolic Z-matrix:
 Charge =  0 Multiplicity = 1

 SCF Done:  E(RHF) =  -343.750816589     A.U. after   14 cycles
 Normal termination of Gaussian 16 at Sun Apr  6 08:21:29 2025.
 Gaussian 16:  ES64L-G16RevC.01  3-Jul-2019

 ----------------------------------------------------------------------
 #t hf aug-cc-pvdz iop(5/13=1,5/36=2,99/5=2) pseudo=read geom=check gue
 ss=(read,tcheck) scf=(maxcycle=1)
 ----------------------------------------------------------------------
 -----
 title
 -----
 Structure from the checkpoint file:  "methyl_cyclopropanecarboxylate.chk"
 Charge =  0 Multiplicity = 1

                         Standard orientation:
 ---------------------------------------------------------------------
 Center     Atomic      Atomic             Coordinates (Angstroms)
 Number     Number       Type             X           Y           Z
 ---------------------------------------------------------------------
      1          6           0        0.042677    0.344157    0.000000
      2          6           0       -0.973754   -1.889957    0.743851
      3          6           0       -0.973754   -1.889957   -0.743851
      4          6           0        0.111176   -1.135227    0.000000
      5          6           0        1.324994    2.327509    0.000000
      6          8           0       -0.973754    0.998522    0.000000
      7          8           0        1.277432    0.891383    0.000000
      8          1           0       -1.716618   -1.286124    1.243595
      9          1           0       -0.669468   -2.784850    1.266689
     10          1           0       -0.669468   -2.784850   -1.266689
     11          1           0       -1.716618   -1.286124   -1.243595
     12          1           0        1.106406   -1.551725    0.000000
     13          1           0        2.379774    2.584262    0.000000
     14          1           0        0.834268    2.725508    0.886305
     15          1           0        0.834268    2.725508   -0.886305
 ---------------------------------------------------------------------

 SCF Done:  E(RHF) =  -345.307086515     A.U. after    2 cycles

 The electronic state is 1-A'.
 Alpha  occ. eigenvalues --  -21.08762 -21.03854 -11.52885 -11.42382 -11.42138
 Alpha  occ. eigenvalues --  -11.41209 -11.37415  -1.83783  -1.65490  -1.31433
 Alpha  occ. eigenvalues --   -1.04156  -0.91692  -0.87152  -0.74825  -0.70450
 Alpha  occ. eigenvalues --   -0.65558  -0.62982  -0.59787  -0.55530  -0.53492
 Alpha  occ. eigenvalues --   -0.51751  -0.51028  -0.42405  -0.40570  -0.38456
 Alpha  occ. eigenvalues --   -0.31726  -0.29386
 Alpha virt. eigenvalues --    0.03720   0.05065   0.05075   0.05846   0.06493
 Alpha virt. eigenvalues --    0.06896   0.06924   0.07279   0.09968   0.12031
 Alpha virt. eigenvalues --    0.12256   0.12621   0.14072   0.14201   0.15090

 Mulliken charges:
               1
     1  C    6.267551
     2  C   -2.165702
     3  C   -2.165702
     4  C   -2.836731
     5  C   -3.012739
     6  O   -3.253692
     7  O   -3.344236
     8  H    1.294075
     9  H    1.205740
    10  H    1.205740
    11  H    1.294075
    12  H    1.537599
    13  H    1.328176
    14  H    1.322924
    15  H    1.322924
 Sum of Mulliken charges =   0.00000

 Dipole moment (field-independent basis, Debye):
    X=              1.0533    Y=             -0.5528    Z=              0.0000  Tot=              1.1895

 Test job not archived.
 1\1\GINC-SE136\SP\RHF\Aug-CC-pVDZ\C5H8O2\OHZDE\06-Apr-2025\0\\#t hf au
 g-cc-pvdz iop(5/13=1,5/36=2,99/5=2) pseudo=read geom=check guess=(read
 ,tcheck) scf=(maxcycle=1)\\title\\0,1\C,0,0.042677,0.344157,0.\C,0,-0.
 973754,-1.889957,0.743851\C,0,-0.973754,-1.889957,-0.743851\C,0,0.1111
 76,-1.135227,0.\C,0,1.324994,2.327509,0.\O,0,-0.973754,0.998522,0.\O,0
 ,1.277432,0.891383,0.\H,0,-1.716618,-1.286124,1.243595\H,0,-0.669468,-
 2.78485,1.266689\H,0,-0.669468,-2.78485,-1.266689\H,0,-1.716618,-1.286
 124,-1.243595\H,0,1.106406,-1.551725,0.\H,0,2.379774,2.584262,0.\H,0,0

 Normal termination of Gaussian 16 at Sun Apr  6 08:21:43 2025.
