 Gaussian 16, Revision C.01,

 ----------------------------------------------------------------------
 #t hf aug-cc-pvdz symm=none int=(grid=ultrafine) guess=(read,tcheck) s
 table=(opt,rrhf)
 ----------------------------------------------------------------------
 -----
 title
 -----
 Symbolic Z-matrix:
 Charge =  0 Multiplicity = 1

 SCF Done:  E(RHF) =  -193.130938623     A.U. after   11 cycles
 Normal termination of Gaussian 16 at Sun Apr  6 08:19:09 2025.
 Gaussian 16:  ES64L-G16RevC.01  3-Jul-2019

 ----------------------------------------------------------------------
 #t hf aug-cc-pvdz iop(5/13=1,5/36=2,99/5=2) pseudo=read geom=check gue
 ss=(read,tcheck) scf=(maxcycle=1)
 ----------------------------------------------------------------------
 -----
 title
 -----
 Structure from the checkpoint file:  "methoxyethane.chk"
 Charge =  0 Multiplicity = 1

                         Standard orientation:
 ---------------------------------------------------------------------
 Center     Atomic      Atomic             Coordinates (Angstroms)
 Number     Number       Type             X           Y           Z
 ---------------------------------------------------------------------
      1          6           0        1.436557    1.185794    0.000000
      2          6           0       -1.314175   -1.253686    0.000000
      3          6           0        0.000000    0.706828    0.000000
      4          8           0       -0.011621   -0.711204    0.000000
      5          1           0        1.471309    2.276007    0.000000
      6          1           0        1.962303    0.823929    0.883530
      7          1           0        1.962303    0.823929   -0.883530
      8          1           0       -1.877412   -0.946607    0.889974
      9          1           0       -1.215654   -2.337382    0.000000
     10          1           0       -1.877412   -0.946607   -0.889974
     11          1           0       -0.533380    1.081375   -0.884588
     12          1           0       -0.533380    1.081375    0.884588
 ---------------------------------------------------------------------

 SCF Done:  E(RHF) =  -194.057786543     A.U. after    2 cycles

 The electronic state is 1-A'.
 Alpha  occ. eigenvalues --  -21.03642 -11.42172 -11.39567 -11.35693  -1.74340
 Alpha  occ. eigenvalues --   -1.12349  -0.96882  -0.86110  -0.65193  -0.61079
 Alpha  occ. eigenvalues --   -0.60366  -0.57854  -0.51390  -0.49419  -0.46055
 Alpha  occ. eigenvalues --   -0.38088  -0.29319
 Alpha virt. eigenvalues --    0.04097   0.05159   0.05964   0.05976   0.06169
 Alpha virt. eigenvalues --    0.06550   0.07273   0.07972   0.12088   0.12902
 Alpha virt. eigenvalues --    0.14483   0.15339   0.16155   0.16189   0.17079

 Mulliken charges:
               1
     1  C   -3.671087
     2  C   -2.792523
     3  C   -1.353184
     4  O   -2.749615
     5  H    1.125404
     6  H    1.260353
     7  H    1.260353
     8  H    1.323291
     9  H    1.279209
    10  H    1.323291
    11  H    1.497253
    12  H    1.497253
 Sum of Mulliken charges =   0.00000

 Dipole moment (field-independent basis, Debye):
    X=             -0.3180    Y=              0.2298    Z=              0.0000  Tot=              0.3923

 Test job not archived.
 1\1\GINC-SE167\SP\RHF\Aug-CC-pVDZ\C3H8O1\OHZDE\06-Apr-2025\0\\#t hf au
 g-cc-pvdz iop(5/13=1,5/36=2,99/5=2) pseudo=read geom=check guess=(read
 ,tcheck) scf=(maxcycle=1)\\title\\0,1\C,0,1.436557,1.185794,0.\C,0,-1.
 314175,-1.253686,0.\C,0,0.,0.706828,0.\O,0,-0.011621,-0.711204,0.\H,0,
 1.471309,2.276007,0.\H,0,1.962303,0.823929,0.88353\H,0,1.962303,0.8239
 29,-0.88353\H,0,-1.877412,-0.946607,0.889974\H,0,-1.215654,-2.337382,0
 .\H,0,-1.877412,-0.946607,-0.889974\H,0,-0.53338,1.081375,-0.884588\H,
 0,-0.53338,1.081375,0.884588\\Version=ES64L-G16RevC.01\State=1-A'\HF=-

 Normal termination of Gaussian 16 at Sun Apr  6 08:19:17 2025.
