 Gaussian 16, Revision C.01,

 ----------------------------------------------------------------------
 #t hf aug-cc-pvdz symm=none int=(grid=ultrafine) guess=(read,tcheck) s
 table=(opt,rrhf)
 ----------------------------------------------------------------------
 -----
 title
 -----
 Symbolic Z-matrix:
 Charge =  0 Multiplicity = 1

 SCF Done:  E(RHF) =  -1308.72534885     A.U. after   13 cycles
 Normal termination of Gaussian 16 at Sun Apr  6 08:19:24 2025.
 Gaussian 16:  ES64L-G16RevC.01  3-Jul-2019

 ----------------------------------------------------------------------
 #t hf aug-cc-pvdz iop(5/13=1,5/36=2,99/5=2) pseudo=read geom=check gue
 ss=(read,tcheck) scf=(maxcycle=1)
 ----------------------------------------------------------------------
 -----
 title
 -----
 Structure from the checkpoint file:  "methoxyflurane.chk"
 Charge =  0 Multiplicity = 1

                         Standard orientation:
 ---------------------------------------------------------------------
 Center     Atomic      Atomic             Coordinates (Angstroms)
 Number     Number       Type             X           Y           Z
 ---------------------------------------------------------------------
      1          6           0       -2.942068    0.313166   -0.088641
      2          6           0        0.735707    0.108753   -0.508616
      3          6           0       -0.654620   -0.311306    0.007121
      4          8           0       -1.574078    0.542788   -0.481566
      5          9           0       -0.678682   -0.369389    1.367117
      6          9           0       -0.901212   -1.593523   -0.415518
      7         17           0        1.144790    1.756836    0.037582
      8         17           0        1.979103   -1.067794   -0.011846
      9          1           0       -3.270321   -0.674880   -0.406191
     10          1           0       -3.516616    1.078340   -0.599716
     11          1           0       -3.051412    0.421677    0.988511
     12          1           0        0.709733    0.121384   -1.591166
 ---------------------------------------------------------------------

 SCF Done:  E(RHF) =  -1310.74378437     A.U. after    2 cycles

 The electronic state is 1-A.
 Alpha  occ. eigenvalues --  -99.90958 -99.90845 -29.29988 -29.29805 -21.09970
 Alpha  occ. eigenvalues --  -11.59908 -11.51069 -11.43638 -10.48378 -10.48109
 Alpha  occ. eigenvalues --   -9.68236  -9.68068  -9.67459  -9.67341  -9.67252
 Alpha  occ. eigenvalues --   -9.67189  -1.85458  -1.42558  -1.29922  -1.24964
 Alpha  occ. eigenvalues --   -1.02433  -1.00924  -0.87757  -0.76539  -0.72530
 Alpha  occ. eigenvalues --   -0.68444  -0.64535  -0.62451  -0.59755  -0.53908
 Alpha  occ. eigenvalues --   -0.52808  -0.50519  -0.50373  -0.48665  -0.44134
 Alpha  occ. eigenvalues --   -0.43428  -0.34717  -0.33447  -0.30232  -0.28465
 Alpha  occ. eigenvalues --   -0.22318
 Alpha virt. eigenvalues --    0.03645   0.04336   0.05552   0.05979   0.06390
 Alpha virt. eigenvalues --    0.07499   0.09183   0.10140   0.12057   0.12447
 Alpha virt. eigenvalues --    0.13141   0.14714   0.15319   0.15709   0.16771

 Mulliken charges:
               1
     1  C   -3.235551
     2  C   -4.458817
     3  C    3.869244
     4  O   -3.422471
     5  F    0.507050
     6  F    0.480648
     7  Cl   0.181357
     8  Cl   0.299081
     9  H    1.302635
    10  H    1.341874
    11  H    1.264219
    12  H    1.870731
 Sum of Mulliken charges =  -0.00000

 Dipole moment (field-independent basis, Debye):
    X=             -2.9486    Y=             -2.4711    Z=              0.7619  Tot=              3.9219

 Test job not archived.
 1\1\GINC-SE169\SP\RHF\Aug-CC-pVDZ\C3H4Cl2F2O1\OHZDE\06-Apr-2025\0\\#t
 hf aug-cc-pvdz iop(5/13=1,5/36=2,99/5=2) pseudo=read geom=check guess=
 (read,tcheck) scf=(maxcycle=1)\\title\\0,1\C,0,-2.942068,0.313165,-0.0
 88641\C,0,0.735707,0.108753,-0.508616\C,0,-0.65462,-0.311306,0.007121\
 O,0,-1.574078,0.542788,-0.481566\F,0,-0.678682,-0.369389,1.367117\F,0,
 -0.901211,-1.593523,-0.415518\Cl,0,1.14479,1.756836,0.037582\Cl,0,1.97
 9103,-1.067794,-0.011846\H,0,-3.270321,-0.674881,-0.406191\H,0,-3.5166
 16,1.078339,-0.599716\H,0,-3.051412,0.421676,0.988511\H,0,0.709733,0.1

 Normal termination of Gaussian 16 at Sun Apr  6 08:20:51 2025.
