 Gaussian 16, Revision C.01,

 ----------------------------------------------------------------------
 #t hf aug-cc-pvdz symm=none int=(grid=ultrafine) guess=(read,tcheck) s
 table=(opt,rrhf)
 ----------------------------------------------------------------------
 -----
 title
 -----
 Symbolic Z-matrix:
 Charge =  0 Multiplicity = 1

 SCF Done:  E(RHF) =  -665.476514252     A.U. after   13 cycles
 Normal termination of Gaussian 16 at Sun Apr  6 08:21:47 2025.
 Gaussian 16:  ES64L-G16RevC.01  3-Jul-2019

 ----------------------------------------------------------------------
 #t hf aug-cc-pvdz iop(5/13=1,5/36=2,99/5=2) pseudo=read geom=check gue
 ss=(read,tcheck) scf=(maxcycle=1)
 ----------------------------------------------------------------------
 -----
 title
 -----
 Structure from the checkpoint file:  "methylethylsulfone.chk"
 Charge =  0 Multiplicity = 1

                         Standard orientation:
 ---------------------------------------------------------------------
 Center     Atomic      Atomic             Coordinates (Angstroms)
 Number     Number       Type             X           Y           Z
 ---------------------------------------------------------------------
      1          6           0        2.288662    0.176351    0.057230
      2          6           0        1.130294   -0.527360   -0.632556
      3          6           0       -0.786688    1.583975   -0.306161
      4         16           0       -0.501180   -0.154526    0.071483
      5          8           0       -0.417269   -0.287283    1.523670
      6          8           0       -1.483277   -0.935076   -0.675425
      7          1           0        2.280785   -0.024085    1.126808
      8          1           0        3.231448   -0.185743   -0.353456
      9          1           0        2.258771    1.255472   -0.093143
     10          1           0        1.185809   -1.610963   -0.523095
     11          1           0        1.058079   -0.300708   -1.695857
     12          1           0       -0.772893    1.722266   -1.384003
     13          1           0       -1.774988    1.803771    0.091152
     14          1           0       -0.037380    2.193478    0.190821
 ---------------------------------------------------------------------

 SCF Done:  E(RHF) =  -666.990118824     A.U. after    2 cycles

 The electronic state is 1-A.
 Alpha  occ. eigenvalues --  -75.87487 -21.03429 -21.03388 -13.48992 -13.39165
 Alpha  occ. eigenvalues --  -13.33265 -11.44798 -11.42597 -11.39632  -8.22482
 Alpha  occ. eigenvalues --   -1.81369  -1.63533  -1.22910  -1.12889  -0.98028
 Alpha  occ. eigenvalues --   -0.85225  -0.67333  -0.65724  -0.63322  -0.60411
 Alpha  occ. eigenvalues --   -0.57903  -0.55035  -0.51771  -0.50938  -0.42375
 Alpha  occ. eigenvalues --   -0.38158  -0.37655  -0.34672  -0.33966
 Alpha virt. eigenvalues --    0.02356   0.04068   0.04704   0.05346   0.06186
 Alpha virt. eigenvalues --    0.06743   0.07008   0.08029   0.11238   0.11710
 Alpha virt. eigenvalues --    0.12518   0.13438   0.14110   0.14586   0.14885

 Mulliken charges:
               1
     1  C   -3.530369
     2  C   -4.148338
     3  C   -4.668547
     4  S    6.360285
     5  O   -2.500791
     6  O   -2.523013
     7  H    1.360979
     8  H    1.096803
     9  H    1.368287
    10  H    1.551514
    11  H    1.475968
    12  H    1.315618
    13  H    1.361399
    14  H    1.480204
 Sum of Mulliken charges =  -0.00000

 Dipole moment (field-independent basis, Debye):
    X=              1.8136    Y=              1.4717    Z=             -1.0588  Tot=              2.5644

 Test job not archived.
 1\1\GINC-SE167\SP\RHF\Aug-CC-pVDZ\C3H8O2S1\OHZDE\06-Apr-2025\0\\#t hf
 aug-cc-pvdz iop(5/13=1,5/36=2,99/5=2) pseudo=read geom=check guess=(re
 ad,tcheck) scf=(maxcycle=1)\\title\\0,1\C,0,2.288662,0.176351,0.05723\
 C,0,1.130294,-0.52736,-0.632556\C,0,-0.786688,1.583975,-0.306161\S,0,-
 0.50118,-0.154526,0.071483\O,0,-0.417269,-0.287283,1.52367\O,0,-1.4832
 77,-0.935076,-0.675425\H,0,2.280785,-0.024085,1.126808\H,0,3.231448,-0
 .185743,-0.353456\H,0,2.258771,1.255472,-0.093143\H,0,1.185809,-1.6109
 63,-0.523095\H,0,1.058079,-0.300708,-1.695857\H,0,-0.772893,1.722266,-

 Normal termination of Gaussian 16 at Sun Apr  6 08:22:03 2025.
