 Gaussian 16, Revision C.01,

 ----------------------------------------------------------------------
 #t hf aug-cc-pvdz symm=none int=(grid=ultrafine) guess=(read,tcheck) s
 table=(opt,rrhf)
 ----------------------------------------------------------------------
 -----
 title
 -----
 Symbolic Z-matrix:
 Charge =  0 Multiplicity = 1

 SCF Done:  E(RHF) =  -95.2307704496     A.U. after   11 cycles
 Normal termination of Gaussian 16 at Sun Apr  6 08:20:53 2025.
 Gaussian 16:  ES64L-G16RevC.01  3-Jul-2019

 ----------------------------------------------------------------------
 #t hf aug-cc-pvdz iop(5/13=1,5/36=2,99/5=2) pseudo=read geom=check gue
 ss=(read,tcheck) scf=(maxcycle=1)
 ----------------------------------------------------------------------
 -----
 title
 -----
 Structure from the checkpoint file:  "methylamine.chk"
 Charge =  0 Multiplicity = 1

                         Standard orientation:
 ---------------------------------------------------------------------
 Center     Atomic      Atomic             Coordinates (Angstroms)
 Number     Number       Type             X           Y           Z
 ---------------------------------------------------------------------
      1          6           0       -0.048962    0.706625   -0.000000
      2          7           0       -0.048962   -0.757428    0.000000
      3          1           0        0.945026    1.171177   -0.000000
      4          1           0       -0.587216    1.065175    0.877567
      5          1           0       -0.587216    1.065175   -0.877567
      6          1           0        0.432957   -1.119643    0.812861
      7          1           0        0.432957   -1.119643   -0.812861
 ---------------------------------------------------------------------

 SCF Done:  E(RHF) =  -95.7123554695     A.U. after    2 cycles

 The electronic state is 1-A'.
 Alpha  occ. eigenvalues --  -15.72587 -11.37444  -1.31109  -0.94681  -0.65417
 Alpha  occ. eigenvalues --   -0.59108  -0.53209  -0.50478  -0.34764
 Alpha virt. eigenvalues --    0.03684   0.05457   0.05934   0.06411   0.07896
 Alpha virt. eigenvalues --    0.11728   0.15642   0.15765   0.16750   0.17965
 Alpha virt. eigenvalues --    0.19708   0.21669   0.27696   0.29660   0.30074

 Mulliken charges:
               1
     1  C   -2.867314
     2  N   -2.118003
     3  H    1.238742
     4  H    1.258904
     5  H    1.258904
     6  H    0.614384
     7  H    0.614384
 Sum of Mulliken charges =  -0.00000

 Dipole moment (field-independent basis, Debye):
    X=              1.0413    Y=              0.2328    Z=              0.0000  Tot=              1.0670

 Test job not archived.
 1\1\GINC-SE212\SP\RHF\Aug-CC-pVDZ\C1H5N1\OHZDE\06-Apr-2025\0\\#t hf au
 g-cc-pvdz iop(5/13=1,5/36=2,99/5=2) pseudo=read geom=check guess=(read
 ,tcheck) scf=(maxcycle=1)\\title\\0,1\C,0,-0.048962,0.706625,0.\N,0,-0
 .048962,-0.757428,0.\H,0,0.945026,1.171177,0.\H,0,-0.587216,1.065175,0
 .877567\H,0,-0.587216,1.065175,-0.877567\H,0,0.432957,-1.119643,0.8128
 61\H,0,0.432957,-1.119643,-0.812861\\Version=ES64L-G16RevC.01\State=1-
 A'\HF=-95.7123555\RMSD=5.310e-02\Dipole=0.4096841,0.0915877,0.\Quadrup
 ole=-0.7547156,-0.3907977,1.1455133,-1.4900121,0.,0.\PG=CS [SG(C1H1N1)

 Normal termination of Gaussian 16 at Sun Apr  6 08:20:57 2025.
