 Gaussian 16, Revision C.01,

 ----------------------------------------------------------------------
 #t hf aug-cc-pvdz symm=none int=(grid=ultrafine) guess=(read,tcheck) s
 table=(opt,rrhf)
 ----------------------------------------------------------------------
 -----
 title
 -----
 Symbolic Z-matrix:
 Charge =  0 Multiplicity = 1

 SCF Done:  E(RHF) =  -189.944957295     A.U. after   11 cycles
 Normal termination of Gaussian 16 at Sun Apr  6 08:19:05 2025.
 Gaussian 16:  ES64L-G16RevC.01  3-Jul-2019

 ----------------------------------------------------------------------
 #t hf aug-cc-pvdz iop(5/13=1,5/36=2,99/5=2) pseudo=read geom=check gue
 ss=(read,tcheck) scf=(maxcycle=1)
 ----------------------------------------------------------------------
 -----
 title
 -----
 Structure from the checkpoint file:  "methanediol.chk"
 Charge =  0 Multiplicity = 1

                         Standard orientation:
 ---------------------------------------------------------------------
 Center     Atomic      Atomic             Coordinates (Angstroms)
 Number     Number       Type             X           Y           Z
 ---------------------------------------------------------------------
      1          6           0        0.000000   -0.000000    0.529544
      2          8           0       -0.000000    1.174198   -0.247524
      3          8           0       -0.000000   -1.174198   -0.247524
      4          1           0       -0.891011   -0.071326    1.155757
      5          1           0        0.891011    0.071326    1.155757
      6          1           0       -0.812903    1.199741   -0.764202
      7          1           0        0.812903   -1.199741   -0.764202
 ---------------------------------------------------------------------

 SCF Done:  E(RHF) =  -190.755894781     A.U. after    2 cycles

 The electronic state is 1-A.
 Alpha  occ. eigenvalues --  -21.07917 -21.07884 -11.44024  -1.78029  -1.64714
 Alpha  occ. eigenvalues --   -0.94177  -0.70356  -0.60186  -0.57678  -0.50661
 Alpha  occ. eigenvalues --   -0.40198  -0.35449  -0.30778
 Alpha virt. eigenvalues --    0.03922   0.05784   0.05942   0.06497   0.11766
 Alpha virt. eigenvalues --    0.12269   0.15954   0.16376   0.20408   0.20668
 Alpha virt. eigenvalues --    0.21698   0.23419   0.24817   0.28202   0.30062

 Mulliken charges:
               1
     1  C    0.441040
     2  O   -2.293658
     3  O   -2.293658
     4  H    1.343997
     5  H    1.343997
     6  H    0.729140
     7  H    0.729140
 Sum of Mulliken charges =   0.00000

 Dipole moment (field-independent basis, Debye):
    X=              0.0000    Y=              0.0000    Z=              0.0167  Tot=              0.0167

 Test job not archived.
 1\1\GINC-SE009\SP\RHF\Aug-CC-pVDZ\C1H4O2\OHZDE\06-Apr-2025\0\\#t hf au
 g-cc-pvdz iop(5/13=1,5/36=2,99/5=2) pseudo=read geom=check guess=(read
 ,tcheck) scf=(maxcycle=1)\\title\\0,1\C,0,0.,0.,0.529544\O,0,0.,1.1741
 98,-0.247524\O,0,0.,-1.174198,-0.247524\H,0,-0.891011,-0.071326,1.1557
 57\H,0,0.891011,0.071326,1.155757\H,0,-0.812903,1.199741,-0.764202\H,0
 ,0.812903,-1.199741,-0.764202\\Version=ES64L-G16RevC.01\State=1-A\HF=-
 190.7558948\RMSD=5.592e-02\Dipole=0.,0.,0.0065703\Quadrupole=1.6255768
 ,-2.2336581,0.6080812,-1.7381882,0.,0.\PG=C02 [C2(C1),X(H4O2)]\\@

 Normal termination of Gaussian 16 at Sun Apr  6 08:19:15 2025.
