 Gaussian 16, Revision C.01,

 ----------------------------------------------------------------------
 #t hf aug-cc-pvdz symm=none int=(grid=ultrafine) guess=(read,tcheck) s
 table=(opt,rrhf)
 ----------------------------------------------------------------------
 -----
 title
 -----
 Symbolic Z-matrix:
 Charge =  0 Multiplicity = 1

 SCF Done:  E(RHF) =  -268.867257504     A.U. after   13 cycles
 Normal termination of Gaussian 16 at Sun Apr  6 08:21:13 2025.
 Gaussian 16:  ES64L-G16RevC.01  3-Jul-2019

 ----------------------------------------------------------------------
 #t hf aug-cc-pvdz iop(5/13=1,5/36=2,99/5=2) pseudo=read geom=check gue
 ss=(read,tcheck) scf=(maxcycle=1)
 ----------------------------------------------------------------------
 -----
 title
 -----
 Structure from the checkpoint file:  "methylcyclopropylketone.chk"
 Charge =  0 Multiplicity = 1

                         Standard orientation:
 ---------------------------------------------------------------------
 Center     Atomic      Atomic             Coordinates (Angstroms)
 Number     Number       Type             X           Y           Z
 ---------------------------------------------------------------------
      1          6           0        0.284009   -0.759507    0.000000
      2          6           0       -0.302823    1.638533    0.742121
      3          6           0       -0.302823    1.638533   -0.742121
      4          6           0       -0.688018    0.369102    0.000000
      5          6           0       -0.302823   -2.152697    0.000000
      6          8           0        1.484030   -0.570889    0.000000
      7          1           0        0.655236    1.614399    1.240617
      8          1           0       -1.093428    2.156153    1.265732
      9          1           0       -1.093428    2.156153   -1.265732
     10          1           0        0.655236    1.614399   -1.240617
     11          1           0       -1.734635    0.099083    0.000000
     12          1           0       -0.938808   -2.291274    0.877339
     13          1           0       -0.938808   -2.291274   -0.877339
     14          1           0        0.491252   -2.894317    0.000000
 ---------------------------------------------------------------------

 SCF Done:  E(RHF) =  -270.135977380     A.U. after    2 cycles

 The electronic state is 1-A'.
 Alpha  occ. eigenvalues --  -21.03805 -11.50003 -11.42478 -11.41261 -11.38694
 Alpha  occ. eigenvalues --  -11.36921  -1.70028  -1.31258  -1.11057  -0.92127
 Alpha  occ. eigenvalues --   -0.86870  -0.74206  -0.68828  -0.63365  -0.59407
 Alpha  occ. eigenvalues --   -0.57171  -0.54511  -0.51970  -0.46470  -0.45866
 Alpha  occ. eigenvalues --   -0.41118  -0.35572  -0.28060
 Alpha virt. eigenvalues --    0.03711   0.05125   0.05322   0.05608   0.05637
 Alpha virt. eigenvalues --    0.06520   0.07567   0.07653   0.09676   0.12166
 Alpha virt. eigenvalues --    0.12531   0.12968   0.13918   0.14142   0.14377

 Mulliken charges:
               1
     1  C    4.071156
     2  C   -2.197638
     3  C   -2.197638
     4  C   -1.627250
     5  C   -4.838089
     6  O   -3.454999
     7  H    1.306000
     8  H    1.173110
     9  H    1.173110
    10  H    1.306000
    11  H    1.487211
    12  H    1.255545
    13  H    1.255545
    14  H    1.287939
 Sum of Mulliken charges =   0.00000

 Dipole moment (field-independent basis, Debye):
    X=             -1.5270    Y=              0.3103    Z=              0.0000  Tot=              1.5582

 Test job not archived.
 1\1\GINC-SE168\SP\RHF\Aug-CC-pVDZ\C5H8O1\OHZDE\06-Apr-2025\0\\#t hf au
 g-cc-pvdz iop(5/13=1,5/36=2,99/5=2) pseudo=read geom=check guess=(read
 ,tcheck) scf=(maxcycle=1)\\title\\0,1\C,0,0.284009,-0.759507,0.\C,0,-0
 .302823,1.638533,0.742121\C,0,-0.302823,1.638533,-0.742121\C,0,-0.6880
 18,0.369102,0.\C,0,-0.302823,-2.152697,0.\O,0,1.48403,-0.570889,0.\H,0
 ,0.655236,1.614399,1.240617\H,0,-1.093428,2.156153,1.265732\H,0,-1.093
 428,2.156153,-1.265732\H,0,0.655236,1.614399,-1.240617\H,0,-1.734635,0
 .099083,0.\H,0,-0.938808,-2.291274,0.877339\H,0,-0.938808,-2.291274,-0

 Normal termination of Gaussian 16 at Sun Apr  6 08:21:42 2025.
