 Gaussian 16, Revision C.01,

 ----------------------------------------------------------------------
 #t hf aug-cc-pvdz symm=none int=(grid=ultrafine) guess=(read,tcheck) s
 table=(opt,rrhf)
 ----------------------------------------------------------------------
 -----
 title
 -----
 Symbolic Z-matrix:
 Charge =  0 Multiplicity = 1

 SCF Done:  E(RHF) =  -154.904962504     A.U. after   12 cycles
 Normal termination of Gaussian 16 at Sun Apr  6 08:20:55 2025.
 Gaussian 16:  ES64L-G16RevC.01  3-Jul-2019

 ----------------------------------------------------------------------
 #t hf aug-cc-pvdz iop(5/13=1,5/36=2,99/5=2) pseudo=read geom=check gue
 ss=(read,tcheck) scf=(maxcycle=1)
 ----------------------------------------------------------------------
 -----
 title
 -----
 Structure from the checkpoint file:  "methylenecyclopropane.chk"
 Charge =  0 Multiplicity = 1

                         Standard orientation:
 ---------------------------------------------------------------------
 Center     Atomic      Atomic             Coordinates (Angstroms)
 Number     Number       Type             X           Y           Z
 ---------------------------------------------------------------------
      1          6           0        0.000000    0.000000    1.631581
      2          6           0        0.000000    0.000000    0.315547
      3          1           0        0.000000    0.924656    2.195166
      4          1           0       -0.000000   -0.924656    2.195166
      5          6           0        0.000000    0.769087   -0.928764
      6          6           0       -0.000000   -0.769087   -0.928764
      7          1           0        0.910119    1.272300   -1.231981
      8          1           0       -0.910119    1.272300   -1.231981
      9          1           0       -0.910119   -1.272300   -1.231981
     10          1           0        0.910119   -1.272300   -1.231981
 ---------------------------------------------------------------------

 SCF Done:  E(RHF) =  -155.678018699     A.U. after    2 cycles

 The electronic state is 1-A1.
 Alpha  occ. eigenvalues --  -11.45155 -11.41228 -11.39314 -11.37051  -1.30791
 Alpha  occ. eigenvalues --   -1.03542  -0.87152  -0.75305  -0.65028  -0.61227
 Alpha  occ. eigenvalues --   -0.59294  -0.51279  -0.40804  -0.39071  -0.34442
 Alpha virt. eigenvalues --    0.03628   0.05654   0.05893   0.06309   0.06425
 Alpha virt. eigenvalues --    0.06428   0.09682   0.11559   0.12227   0.13823
 Alpha virt. eigenvalues --    0.14564   0.14966   0.15185   0.16026   0.16086

 Mulliken charges:
               1
     1  C   -4.053048
     2  C    2.989389
     3  H    1.264937
     4  H    1.264937
     5  C   -2.821627
     6  C   -2.821627
     7  H    1.044259
     8  H    1.044259
     9  H    1.044259
    10  H    1.044259
 Sum of Mulliken charges =   0.00000

 Dipole moment (field-independent basis, Debye):
    X=              0.0000    Y=             -0.0000    Z=             -0.5083  Tot=              0.5083

 Test job not archived.
 1\1\GINC-SE046\SP\RHF\Aug-CC-pVDZ\C4H6\OHZDE\06-Apr-2025\0\\#t hf aug-
 cc-pvdz iop(5/13=1,5/36=2,99/5=2) pseudo=read geom=check guess=(read,t
 check) scf=(maxcycle=1)\\title\\0,1\C,0,0.,0.,1.631581\C,0,0.,0.,0.315
 547\H,0,0.,0.924656,2.195166\H,0,0.,-0.924656,2.195166\C,0,0.,0.769087
 ,-0.928764\C,0,0.,-0.769087,-0.928764\H,0,0.910119,1.2723,-1.231981\H,
 0,-0.910119,1.2723,-1.231981\H,0,-0.910119,-1.2723,-1.231981\H,0,0.910
 119,-1.2723,-1.231981\\Version=ES64L-G16RevC.01\State=1-A1\HF=-155.678
 0187\RMSD=1.268e+00\Dipole=0.,0.,-0.1999835\Quadrupole=-0.4990501,0.46

 Normal termination of Gaussian 16 at Sun Apr  6 08:20:57 2025.
