 Gaussian 16, Revision C.01,

 ----------------------------------------------------------------------
 #t hf aug-cc-pvdz symm=none int=(grid=ultrafine) guess=(read,tcheck) s
 table=(opt,rrhf)
 ----------------------------------------------------------------------
 -----
 title
 -----
 Symbolic Z-matrix:
 Charge =  0 Multiplicity = 1

 SCF Done:  E(RHF) =  -418.329754194     A.U. after   15 cycles
 Normal termination of Gaussian 16 at Sun Apr  6 08:21:43 2025.
 Gaussian 16:  ES64L-G16RevC.01  3-Jul-2019

 ----------------------------------------------------------------------
 #t hf aug-cc-pvdz iop(5/13=1,5/36=2,99/5=2) pseudo=read geom=check gue
 ss=(read,tcheck) scf=(maxcycle=1)
 ----------------------------------------------------------------------
 -----
 title
 -----
 Structure from the checkpoint file:  "methylbenzoquinone.chk"
 Charge =  0 Multiplicity = 1

                         Standard orientation:
 ---------------------------------------------------------------------
 Center     Atomic      Atomic             Coordinates (Angstroms)
 Number     Number       Type             X           Y           Z
 ---------------------------------------------------------------------
      1          6           0        0.157346    2.550685    0.000000
      2          6           0        0.000000    1.065125    0.000000
      3          6           0        1.254968    0.250008    0.000000
      4          6           0       -1.184685    0.435491    0.000000
      5          8           0        2.350763    0.783788    0.000000
      6          6           0        1.133424   -1.225777    0.000000
      7          6           0       -1.308516   -1.034538    0.000000
      8          6           0       -0.057139   -1.827836    0.000000
      9          8           0       -2.399405   -1.581506    0.000000
     10          1           0       -0.810637    3.047202    0.000000
     11          1           0        0.726761    2.875723    0.872072
     12          1           0        0.726761    2.875723   -0.872072
     13          1           0       -2.120792    0.980088    0.000000
     14          1           0        2.067297   -1.772322    0.000000
     15          1           0       -0.172634   -2.903622    0.000000
 ---------------------------------------------------------------------

 SCF Done:  E(RHF) =  -420.183134692     A.U. after    2 cycles

 The electronic state is 1-A'.
 Alpha  occ. eigenvalues --  -21.08052 -21.07485 -11.55856 -11.51207 -11.48211
 Alpha  occ. eigenvalues --  -11.47199 -11.43783 -11.41864 -11.40025  -1.74020
 Alpha  occ. eigenvalues --   -1.71941  -1.31487  -1.18526  -1.05748  -0.99475
 Alpha  occ. eigenvalues --   -0.89221  -0.82885  -0.68087  -0.67319  -0.65933
 Alpha  occ. eigenvalues --   -0.60637  -0.59731  -0.56055  -0.54640  -0.52230
 Alpha  occ. eigenvalues --   -0.50412  -0.48573  -0.47980  -0.38791  -0.33694
 Alpha  occ. eigenvalues --   -0.31094  -0.30638
 Alpha virt. eigenvalues --    0.02729   0.05104   0.05170   0.05770   0.06066
 Alpha virt. eigenvalues --    0.06458   0.06664   0.09422   0.10477   0.10933
 Alpha virt. eigenvalues --    0.10967   0.11805   0.12473   0.12742   0.13090

 Mulliken charges:
               1
     1  C   -5.336137
     2  C    1.610541
     3  C    4.728241
     4  C   -0.127751
     5  O   -4.339022
     6  C   -1.802712
     7  C    2.621794
     8  C   -1.649451
     9  O   -3.995415
    10  H    1.223757
    11  H    1.019144
    12  H    1.019144
    13  H    1.769838
    14  H    1.640197
    15  H    1.617833
 Sum of Mulliken charges =  -0.00000

 Dipole moment (field-independent basis, Debye):
    X=              0.3666    Y=              0.5828    Z=             -0.0000  Tot=              0.6886

 Test job not archived.
 1\1\GINC-SE041\SP\RHF\Aug-CC-pVDZ\C7H6O2\OHZDE\06-Apr-2025\0\\#t hf au
 g-cc-pvdz iop(5/13=1,5/36=2,99/5=2) pseudo=read geom=check guess=(read
 ,tcheck) scf=(maxcycle=1)\\title\\0,1\C,0,0.157346,2.550685,0.\C,0,0.,
 1.065125,0.\C,0,1.254968,0.250008,0.\C,0,-1.184685,0.435491,0.\O,0,2.3
 50763,0.783788,0.\C,0,1.133424,-1.225777,0.\C,0,-1.308516,-1.034538,0.
 \C,0,-0.057139,-1.827836,0.\O,0,-2.399405,-1.581506,0.\H,0,-0.810637,3
 .047202,0.\H,0,0.726761,2.875723,0.872072\H,0,0.726761,2.875723,-0.872
 072\H,0,-2.120792,0.980088,0.\H,0,2.067297,-1.772322,0.\H,0,-0.172634,

 Normal termination of Gaussian 16 at Sun Apr  6 08:22:04 2025.
