 Gaussian 16, Revision C.01,

 ----------------------------------------------------------------------
 #t hf aug-cc-pvdz symm=none int=(grid=ultrafine) guess=(read,tcheck) s
 table=(opt,rrhf)
 ----------------------------------------------------------------------
 -----
 title
 -----
 Symbolic Z-matrix:
 Charge =  0 Multiplicity = 1

 SCF Done:  E(RHF) =  -455.332017630     A.U. after   15 cycles
 Normal termination of Gaussian 16 at Sun Apr  6 08:19:54 2025.
 Gaussian 16:  ES64L-G16RevC.01  3-Jul-2019

 ----------------------------------------------------------------------
 #t hf aug-cc-pvdz iop(5/13=1,5/36=2,99/5=2) pseudo=read geom=check gue
 ss=(read,tcheck) scf=(maxcycle=1)
 ----------------------------------------------------------------------
 -----
 title
 -----
 Structure from the checkpoint file:  "methyl-3-furancarboxylate.chk"
 Charge =  0 Multiplicity = 1

                         Standard orientation:
 ---------------------------------------------------------------------
 Center     Atomic      Atomic             Coordinates (Angstroms)
 Number     Number       Type             X           Y           Z
 ---------------------------------------------------------------------
      1          6           0       -1.374452    0.901229    0.000000
      2          6           0       -1.354402    2.251618    0.000000
      3          6           0        0.741286    1.626446    0.000000
      4          6           0        0.000000    0.483904    0.000000
      5          6           0        0.566044   -0.870351    0.000000
      6          6           0        0.057679   -3.174642    0.000000
      7          8           0        1.747782   -1.126769    0.000000
      8          8           0       -0.063377    2.708616    0.000000
      9          8           0       -0.400911   -1.813271    0.000000
     10          1           0       -2.241521    0.265834    0.000000
     11          1           0       -2.117954    3.007351    0.000000
     12          1           0        1.801169    1.802830    0.000000
     13          1           0        0.656818   -3.374632    0.886389
     14          1           0        0.656818   -3.374632   -0.886389
     15          1           0       -0.840215   -3.784584    0.000000
 ---------------------------------------------------------------------

 SCF Done:  E(RHF) =  -457.324582674     A.U. after    2 cycles

 The electronic state is 1-A'.
 Alpha  occ. eigenvalues --  -21.13331 -21.09331 -21.04533 -11.53736 -11.49252
 Alpha  occ. eigenvalues --  -11.46308 -11.44123 -11.41862 -11.39472  -1.87269
 Alpha  occ. eigenvalues --   -1.83498  -1.66002  -1.22774  -1.08479  -1.03073
 Alpha  occ. eigenvalues --   -0.88181  -0.82077  -0.78218  -0.70831  -0.63779
 Alpha  occ. eigenvalues --   -0.62363  -0.59429  -0.58048  -0.57513  -0.52946
 Alpha  occ. eigenvalues --   -0.52420  -0.51513  -0.44522  -0.41925  -0.34573
 Alpha  occ. eigenvalues --   -0.33690  -0.31530  -0.29833
 Alpha virt. eigenvalues --    0.03270   0.04658   0.05248   0.06434   0.06549
 Alpha virt. eigenvalues --    0.06758   0.09109   0.10285   0.10304   0.10794
 Alpha virt. eigenvalues --    0.11782   0.13096   0.13350   0.13963   0.14327

 Mulliken charges:
               1
     1  C   -3.079261
     2  C   -0.102010
     3  C   -1.356397
     4  C    2.471321
     5  C    8.296308
     6  C   -3.142058
     7  O   -3.547778
     8  O   -4.057090
     9  O   -3.552333
    10  H    1.310470
    11  H    1.391586
    12  H    1.344789
    13  H    1.329283
    14  H    1.329283
    15  H    1.363887
 Sum of Mulliken charges =  -0.00000

 Dipole moment (field-independent basis, Debye):
    X=             -1.4588    Y=              0.2108    Z=              0.0000  Tot=              1.4740

 Test job not archived.
 1\1\GINC-SE273\SP\RHF\Aug-CC-pVDZ\C6H6O3\OHZDE\06-Apr-2025\0\\#t hf au
 g-cc-pvdz iop(5/13=1,5/36=2,99/5=2) pseudo=read geom=check guess=(read
 ,tcheck) scf=(maxcycle=1)\\title\\0,1\C,0,-1.374452,0.901229,0.\C,0,-1
 .354402,2.251618,0.\C,0,0.741286,1.626446,0.\C,0,0.,0.483904,0.\C,0,0.
 566044,-0.870351,0.\C,0,0.057679,-3.174642,0.\O,0,1.747782,-1.126769,0
 .\O,0,-0.063377,2.708616,0.\O,0,-0.400911,-1.813271,0.\H,0,-2.241521,0
 .265834,0.\H,0,-2.117954,3.007351,0.\H,0,1.801169,1.80283,0.\H,0,0.656
 818,-3.374632,0.886389\H,0,0.656818,-3.374632,-0.886389\H,0,-0.840215,

 Normal termination of Gaussian 16 at Sun Apr  6 08:20:51 2025.
