 Gaussian 16, Revision C.01,

 ----------------------------------------------------------------------
 #t hf aug-cc-pvdz symm=none int=(grid=ultrafine) guess=(read,tcheck) s
 table=(opt,rrhf)
 ----------------------------------------------------------------------
 -----
 title
 -----
 Symbolic Z-matrix:
 Charge =  0 Multiplicity = 1

 SCF Done:  E(RHF) =  -273.272199886     A.U. after   11 cycles
 Normal termination of Gaussian 16 at Sun Apr  6 08:22:03 2025.
 Gaussian 16:  ES64L-G16RevC.01  3-Jul-2019

 ----------------------------------------------------------------------
 #t hf aug-cc-pvdz iop(5/13=1,5/36=2,99/5=2) pseudo=read geom=check gue
 ss=(read,tcheck) scf=(maxcycle=1)
 ----------------------------------------------------------------------
 -----
 title
 -----
 Structure from the checkpoint file:  "methylcyclohexane.chk"
 Charge =  0 Multiplicity = 1

                         Standard orientation:
 ---------------------------------------------------------------------
 Center     Atomic      Atomic             Coordinates (Angstroms)
 Number     Number       Type             X           Y           Z
 ---------------------------------------------------------------------
      1          6           0       -0.739782   -1.773761   -0.000000
      2          6           0       -0.089048   -1.206811    1.264899
      3          6           0       -0.089048   -1.206811   -1.264899
      4          6           0       -0.089048    0.324852    1.260545
      5          6           0       -0.089048    0.324852   -1.260545
      6          6           0        0.566508    0.906527    0.000000
      7          6           0        0.533702    2.434333    0.000000
      8          1           0       -0.680166   -2.864513   -0.000000
      9          1           0       -1.805477   -1.520961   -0.000000
     10          1           0       -0.602476   -1.579676    2.154131
     11          1           0        0.943314   -1.566555    1.330389
     12          1           0        0.943314   -1.566555   -1.330389
     13          1           0       -0.602476   -1.579676   -2.154131
     14          1           0       -1.122408    0.686328    1.318579
     15          1           0        0.419978    0.704095    2.150588
     16          1           0        0.419978    0.704095   -2.150588
     17          1           0       -1.122408    0.686328   -1.318579
     18          1           0        1.617471    0.591208    0.000000
     19          1           0        1.030791    2.842574    0.882126
     20          1           0        1.030791    2.842574   -0.882126
     21          1           0       -0.495635    2.801645    0.000000
 ---------------------------------------------------------------------

 SCF Done:  E(RHF) =  -274.699368389     A.U. after    2 cycles

 The electronic state is 1-A'.
 Alpha  occ. eigenvalues --  -11.42909 -11.42370 -11.41147 -11.38456 -11.36884
 Alpha  occ. eigenvalues --  -11.35691 -11.32824  -1.32465  -1.13900  -1.09542
 Alpha  occ. eigenvalues --   -0.98125  -0.87640  -0.84119  -0.77207  -0.65037
 Alpha  occ. eigenvalues --   -0.61359  -0.60532  -0.60377  -0.55867  -0.52613
 Alpha  occ. eigenvalues --   -0.51667  -0.49341  -0.46129  -0.44833  -0.44814
 Alpha  occ. eigenvalues --   -0.43048  -0.37529  -0.37510
 Alpha virt. eigenvalues --    0.04521   0.04988   0.05296   0.05375   0.05576
 Alpha virt. eigenvalues --    0.05697   0.05870   0.06265   0.06807   0.08341
 Alpha virt. eigenvalues --    0.08480   0.08686   0.08927   0.09123   0.12844

 Mulliken charges:
               1
     1  C   -2.590941
     2  C   -2.891122
     3  C   -2.891122
     4  C   -3.115973
     5  C   -3.115973
     6  C   -0.085220
     7  C   -4.560274
     8  H    1.328310
     9  H    1.395600
    10  H    1.250338
    11  H    1.377003
    12  H    1.377003
    13  H    1.250338
    14  H    1.411129
    15  H    1.403343
    16  H    1.403343
    17  H    1.411129
    18  H    1.872855
    19  H    1.217931
    20  H    1.217931
    21  H    1.334370
 Sum of Mulliken charges =  -0.00000

 Dipole moment (field-independent basis, Debye):
    X=              0.0939    Y=             -0.1782    Z=              0.0000  Tot=              0.2014

 Test job not archived.
 1\1\GINC-SE050\SP\RHF\Aug-CC-pVDZ\C7H14\OHZDE\06-Apr-2025\0\\#t hf aug
 -cc-pvdz iop(5/13=1,5/36=2,99/5=2) pseudo=read geom=check guess=(read,
 tcheck) scf=(maxcycle=1)\\title\\0,1\C,0,-0.739782,-1.773761,0.\C,0,-0
 .089048,-1.206811,1.264899\C,0,-0.089048,-1.206811,-1.264899\C,0,-0.08
 9048,0.324852,1.260545\C,0,-0.089048,0.324852,-1.260545\C,0,0.566508,0
 .906527,0.\C,0,0.533702,2.434333,0.\H,0,-0.680166,-2.864513,0.\H,0,-1.
 805477,-1.520961,0.\H,0,-0.602476,-1.579676,2.154131\H,0,0.943314,-1.5
 66555,1.330389\H,0,0.943314,-1.566555,-1.330389\H,0,-0.602476,-1.57967

 Normal termination of Gaussian 16 at Sun Apr  6 08:23:01 2025.
