 Gaussian 16, Revision C.01,

 ----------------------------------------------------------------------
 #t hf aug-cc-pvdz symm=none int=(grid=ultrafine) guess=(read,tcheck) s
 table=(opt,rrhf)
 ----------------------------------------------------------------------
 -----
 title
 -----
 Symbolic Z-matrix:
 Charge =  0 Multiplicity = 1

 SCF Done:  E(RHF) =  -1019.88540975     A.U. after   15 cycles
 Normal termination of Gaussian 16 at Sun Apr  6 08:19:17 2025.
 Gaussian 16:  ES64L-G16RevC.01  3-Jul-2019

 ----------------------------------------------------------------------
 #t hf aug-cc-pvdz iop(5/13=1,5/36=2,99/5=2) pseudo=read geom=check gue
 ss=(read,tcheck) scf=(maxcycle=1)
 ----------------------------------------------------------------------
 -----
 title
 -----
 Structure from the checkpoint file:  "methyl-N-cyanocarbamodithioate.chk"
 Charge =  0 Multiplicity = 1

                         Standard orientation:
 ---------------------------------------------------------------------
 Center     Atomic      Atomic             Coordinates (Angstroms)
 Number     Number       Type             X           Y           Z
 ---------------------------------------------------------------------
      1         16           0       -0.076910    1.429668   -0.296124
      2         16           0       -2.320711   -0.430993    0.003087
      3          7           0        0.165443   -1.221447    0.348448
      4          7           0        2.533504   -1.512398   -0.373747
      5          6           0       -0.698146   -0.166641    0.047913
      6          6           0        1.601581    1.576806    0.424261
      7          6           0        1.436784   -1.360874   -0.047466
      8          1           0        2.364170    1.136292   -0.207540
      9          1           0        1.754502    2.651750    0.498792
     10          1           0        1.630210    1.146822    1.421550
     11          1           0       -0.320891   -2.072484    0.604643
 ---------------------------------------------------------------------

 SCF Done:  E(RHF) =  -1021.35812670     A.U. after    2 cycles

 The electronic state is 1-A.
 Alpha  occ. eigenvalues --  -75.73335 -75.67540 -15.86152 -15.78508 -13.18594
 Alpha  occ. eigenvalues --  -13.14960 -13.14535 -13.06723 -13.01657 -12.98890
 Alpha  occ. eigenvalues --  -11.53409 -11.49555 -11.42800  -8.07552  -8.01741
 Alpha  occ. eigenvalues --   -1.52688  -1.32311  -1.24939  -1.14590  -1.00369
 Alpha  occ. eigenvalues --   -0.88387  -0.81437  -0.64606  -0.63052  -0.62369
 Alpha  occ. eigenvalues --   -0.60219  -0.55810  -0.47803  -0.47286  -0.46036
 Alpha  occ. eigenvalues --   -0.40577  -0.33679  -0.25586  -0.23028
 Alpha virt. eigenvalues --    0.01949   0.03704   0.05562   0.05855   0.06484
 Alpha virt. eigenvalues --    0.07472   0.08009   0.09462   0.10347   0.11381
 Alpha virt. eigenvalues --    0.11668   0.13230   0.13494   0.14816   0.14863

 Mulliken charges:
               1
     1  S    2.056157
     2  S    1.329160
     3  N   -2.727662
     4  N   -2.569076
     5  C   -1.454204
     6  C   -5.016187
     7  C    3.234527
     8  H    1.565469
     9  H    1.299912
    10  H    1.436091
    11  H    0.845813
 Sum of Mulliken charges =  -0.00000

 Dipole moment (field-independent basis, Debye):
    X=             -2.6645    Y=              2.2086    Z=              0.5759  Tot=              3.5084

 Test job not archived.
 1\1\GINC-SE343\SP\RHF\Aug-CC-pVDZ\C3H4N2S2\OHZDE\06-Apr-2025\0\\#t hf
 aug-cc-pvdz iop(5/13=1,5/36=2,99/5=2) pseudo=read geom=check guess=(re
 ad,tcheck) scf=(maxcycle=1)\\title\\0,1\S,0,-0.076909,1.429668,-0.2961
 24\S,0,-2.320711,-0.430992,0.003087\N,0,0.165442,-1.221447,0.348448\N,
 0,2.533503,-1.512399,-0.373747\C,0,-0.698146,-0.16664,0.047913\C,0,1.6
 01582,1.576805,0.424261\C,0,1.436783,-1.360875,-0.047466\H,0,2.364171,
 1.136291,-0.20754\H,0,1.754503,2.651749,0.498792\H,0,1.630211,1.146821
 ,1.42155\H,0,-0.320892,-2.072484,0.604643\\Version=ES64L-G16RevC.01\St

 Normal termination of Gaussian 16 at Sun Apr  6 08:20:50 2025.
