 Gaussian 16, Revision C.01,

 ----------------------------------------------------------------------
 #t hf aug-cc-pvdz symm=none int=(grid=ultrafine) guess=(read,tcheck) s
 table=(opt,rrhf)
 ----------------------------------------------------------------------
 -----
 title
 -----
 Symbolic Z-matrix:
 Charge =  0 Multiplicity = 1

 SCF Done:  E(RHF) =  -190.785570768     A.U. after   14 cycles
 Normal termination of Gaussian 16 at Sun Apr  6 08:22:03 2025.
 Gaussian 16:  ES64L-G16RevC.01  3-Jul-2019

 ----------------------------------------------------------------------
 #t hf aug-cc-pvdz iop(5/13=1,5/36=2,99/5=2) pseudo=read geom=check gue
 ss=(read,tcheck) scf=(maxcycle=1)
 ----------------------------------------------------------------------
 -----
 title
 -----
 Structure from the checkpoint file:  "methylketene.chk"
 Charge =  0 Multiplicity = 1

                         Standard orientation:
 ---------------------------------------------------------------------
 Center     Atomic      Atomic             Coordinates (Angstroms)
 Number     Number       Type             X           Y           Z
 ---------------------------------------------------------------------
      1          6           0       -0.671285   -0.386770    0.000000
      2          6           0       -0.000000    0.736156    0.000000
      3          6           0        1.508464    0.811358    0.000000
      4          8           0       -1.266323   -1.387836    0.000000
      5          1           0       -0.595082    1.639797    0.000000
      6          1           0        1.954606   -0.181706    0.000000
      7          1           0        1.873994    1.340067    0.882008
      8          1           0        1.873994    1.340067   -0.882008
 ---------------------------------------------------------------------

 SCF Done:  E(RHF) =  -191.643626103     A.U. after    2 cycles

 The electronic state is 1-A'.
 Alpha  occ. eigenvalues --  -21.12785 -11.53180 -11.41738 -11.38346  -1.76230
 Alpha  occ. eigenvalues --   -1.19532  -0.97616  -0.71456  -0.61895  -0.59280
 Alpha  occ. eigenvalues --   -0.56652  -0.53340  -0.52920  -0.45660  -0.27664
 Alpha virt. eigenvalues --    0.02928   0.05464   0.06296   0.06382   0.09051
 Alpha virt. eigenvalues --    0.10807   0.11674   0.12487   0.12655   0.13436
 Alpha virt. eigenvalues --    0.14977   0.16907   0.17444   0.18536   0.18947

 Mulliken charges:
               1
     1  C    1.482763
     2  C   -0.277816
     3  C   -4.029509
     4  O   -2.316206
     5  H    1.416356
     6  H    1.339517
     7  H    1.192448
     8  H    1.192448
 Sum of Mulliken charges =  -0.00000

 Dipole moment (field-independent basis, Debye):
    X=              0.2432    Y=              0.0397    Z=              0.0000  Tot=              0.2464

 Test job not archived.
 1\1\GINC-SE146\SP\RHF\Aug-CC-pVDZ\C3H4O1\OHZDE\06-Apr-2025\0\\#t hf au
 g-cc-pvdz iop(5/13=1,5/36=2,99/5=2) pseudo=read geom=check guess=(read
 ,tcheck) scf=(maxcycle=1)\\title\\0,1\C,0,-0.671285,-0.38677,0.\C,0,0.
 ,0.736156,0.\C,0,1.508464,0.811358,0.\O,0,-1.266323,-1.387836,0.\H,0,-
 0.595082,1.639797,0.\H,0,1.954606,-0.181706,0.\H,0,1.873994,1.340067,0
 .882008\H,0,1.873994,1.340067,-0.882008\\Version=ES64L-G16RevC.01\Stat
 e=1-A'\HF=-191.6436261\RMSD=2.809e-01\Dipole=0.0956831,0.0156081,0.\Qu
 adrupole=0.7371301,0.5342686,-1.2713987,-0.4043467,0.,0.\PG=CS [SG(C3H

 Normal termination of Gaussian 16 at Sun Apr  6 08:22:56 2025.
