 Gaussian 16, Revision C.01,

 ----------------------------------------------------------------------
 #t hf aug-cc-pvdz symm=none int=(grid=ultrafine) guess=(read,tcheck) s
 table=(opt,rrhf)
 ----------------------------------------------------------------------
 -----
 title
 -----
 Symbolic Z-matrix:
 Charge =  0 Multiplicity = 1

 SCF Done:  E(RHF) =  -227.821752327     A.U. after   13 cycles
 Normal termination of Gaussian 16 at Sun Apr  6 08:20:54 2025.
 Gaussian 16:  ES64L-G16RevC.01  3-Jul-2019

 ----------------------------------------------------------------------
 #t hf aug-cc-pvdz iop(5/13=1,5/36=2,99/5=2) pseudo=read geom=check gue
 ss=(read,tcheck) scf=(maxcycle=1)
 ----------------------------------------------------------------------
 -----
 title
 -----
 Structure from the checkpoint file:  "methyl_formate.chk"
 Charge =  0 Multiplicity = 1

                         Standard orientation:
 ---------------------------------------------------------------------
 Center     Atomic      Atomic             Coordinates (Angstroms)
 Number     Number       Type             X           Y           Z
 ---------------------------------------------------------------------
      1          6           0        0.932507   -0.092918    0.000000
      2          6           0       -1.369372    0.416095    0.000000
      3          8           0        0.725872   -1.275132    0.000000
      4          8           0        0.000000    0.866990    0.000000
      5          1           0        1.926421    0.370591    0.000000
      6          1           0       -1.972732    1.317760    0.000000
      7          1           0       -1.569738   -0.181136    0.887236
      8          1           0       -1.569738   -0.181136   -0.887236
 ---------------------------------------------------------------------

 SCF Done:  E(RHF) =  -228.797460625     A.U. after    2 cycles

 The electronic state is 1-A'.
 Alpha  occ. eigenvalues --  -21.10271 -21.06155 -11.50715 -11.42045  -1.84459
 Alpha  occ. eigenvalues --   -1.66773  -1.03822  -0.83122  -0.69573  -0.63693
 Alpha  occ. eigenvalues --   -0.56833  -0.56505  -0.51245  -0.43060  -0.32786
 Alpha  occ. eigenvalues --   -0.31239
 Alpha virt. eigenvalues --    0.03389   0.05429   0.06172   0.06567   0.10035
 Alpha virt. eigenvalues --    0.10983   0.11219   0.14150   0.14535   0.16130
 Alpha virt. eigenvalues --    0.17007   0.18246   0.18589   0.20569   0.26105

 Mulliken charges:
               1
     1  C    2.468305
     2  C   -2.807660
     3  O   -2.397718
     4  O   -2.642742
     5  H    1.582505
     6  H    1.262014
     7  H    1.267648
     8  H    1.267648
 Sum of Mulliken charges =   0.00000

 Dipole moment (field-independent basis, Debye):
    X=             -0.8708    Y=              1.1552    Z=              0.0000  Tot=              1.4467

 Test job not archived.
 1\1\GINC-SE146\SP\RHF\Aug-CC-pVDZ\C2H4O2\OHZDE\06-Apr-2025\0\\#t hf au
 g-cc-pvdz iop(5/13=1,5/36=2,99/5=2) pseudo=read geom=check guess=(read
 ,tcheck) scf=(maxcycle=1)\\title\\0,1\C,0,0.932507,-0.092918,0.\C,0,-1
 .369372,0.416095,0.\O,0,0.725872,-1.275132,0.\O,0,0.,0.86699,0.\H,0,1.
 926421,0.370591,0.\H,0,-1.972732,1.31776,0.\H,0,-1.569738,-0.181136,0.
 887236\H,0,-1.569738,-0.181136,-0.887236\\Version=ES64L-G16RevC.01\Sta
 te=1-A'\HF=-228.7974606\RMSD=5.700e-02\Dipole=-0.3426081,0.4545014,0.\
 Quadrupole=2.0207587,-2.3546709,0.3339122,0.2647866,0.,0.\PG=CS [SG(C2

 Normal termination of Gaussian 16 at Sun Apr  6 08:20:57 2025.
