 Gaussian 16, Revision C.01,

 ----------------------------------------------------------------------
 #t hf aug-cc-pvdz symm=none int=(grid=ultrafine) guess=(read,tcheck) s
 table=(opt,rrhf)
 ----------------------------------------------------------------------
 -----
 title
 -----
 Symbolic Z-matrix:
 Charge =  0 Multiplicity = 1

 SCF Done:  E(RHF) =  -926.977276512     A.U. after   15 cycles
 Normal termination of Gaussian 16 at Sun Apr  6 08:22:08 2025.
 Gaussian 16:  ES64L-G16RevC.01  3-Jul-2019

 ----------------------------------------------------------------------
 #t hf aug-cc-pvdz iop(5/13=1,5/36=2,99/5=2) pseudo=read geom=check gue
 ss=(read,tcheck) scf=(maxcycle=1)
 ----------------------------------------------------------------------
 -----
 title
 -----
 Structure from the checkpoint file:  "methylsulfanyliminomethanethione.chk"
 Charge =  0 Multiplicity = 1

                         Standard orientation:
 ---------------------------------------------------------------------
 Center     Atomic      Atomic             Coordinates (Angstroms)
 Number     Number       Type             X           Y           Z
 ---------------------------------------------------------------------
      1         16           0        1.487854   -0.652185    0.000095
      2         16           0       -2.683866    0.052343   -0.000262
      3          7           0        0.082020    0.281815    0.000072
      4          6           0        2.714170    0.680388    0.000283
      5          6           0       -1.107551    0.131432   -0.000082
      6          1           0        3.680142    0.176343    0.000324
      7          1           0        2.621166    1.288815   -0.895396
      8          1           0        2.621025    1.288688    0.896033
 ---------------------------------------------------------------------

 SCF Done:  E(RHF) =  -928.039782762     A.U. after    2 cycles

 The electronic state is 1-A.
 Alpha  occ. eigenvalues --  -75.74747 -75.69461 -15.79539 -13.22547 -13.20891
 Alpha  occ. eigenvalues --  -13.14310 -13.07026 -13.00736 -13.00669 -11.53452
 Alpha  occ. eigenvalues --  -11.41841  -8.08669  -8.03728  -1.44994  -1.21759
 Alpha  occ. eigenvalues --   -1.12776  -0.97483  -0.70034  -0.61845  -0.59739
 Alpha  occ. eigenvalues --   -0.58306  -0.56269  -0.53492  -0.42571  -0.31396
 Alpha  occ. eigenvalues --   -0.27624  -0.20812
 Alpha virt. eigenvalues --    0.02071   0.04220   0.05354   0.05715   0.06914
 Alpha virt. eigenvalues --    0.08741   0.10268   0.11114   0.11714   0.13138
 Alpha virt. eigenvalues --    0.13548   0.14532   0.16195   0.16333   0.17632

 Mulliken charges:
               1
     1  S    1.693905
     2  S    1.650575
     3  N   -3.082003
     4  C   -4.702029
     5  C    0.297160
     6  H    1.366793
     7  H    1.387804
     8  H    1.387795
 Sum of Mulliken charges =  -0.00000

 Dipole moment (field-independent basis, Debye):
    X=             -0.2672    Y=             -1.0706    Z=             -0.0002  Tot=              1.1034

 Test job not archived.
 1\1\GINC-SE222\SP\RHF\Aug-CC-pVDZ\C2H3N1S2\OHZDE\06-Apr-2025\0\\#t hf
 aug-cc-pvdz iop(5/13=1,5/36=2,99/5=2) pseudo=read geom=check guess=(re
 ad,tcheck) scf=(maxcycle=1)\\title\\0,1\S,0,1.487854,-0.652185,0.00009
 5\S,0,-2.683866,0.052343,-0.000262\N,0,0.08202,0.281815,0.000072\C,0,2
 .71417,0.680388,0.000283\C,0,-1.107551,0.131432,-0.000082\H,0,3.680142
 ,0.176343,0.000324\H,0,2.621166,1.288815,-0.895396\H,0,2.621025,1.2886
 88,0.896033\\Version=ES64L-G16RevC.01\State=1-A\HF=-928.0397828\RMSD=1
 .690e-01\Dipole=-0.1051115,-0.4212123,-0.000074\Quadrupole=9.312424,-3

 Normal termination of Gaussian 16 at Sun Apr  6 08:22:57 2025.
