 Gaussian 16, Revision C.01,

 ----------------------------------------------------------------------
 #t hf aug-cc-pvdz symm=none int=(grid=ultrafine) guess=(read,tcheck) s
 table=(opt,rrhf)
 ----------------------------------------------------------------------
 -----
 title
 -----
 Symbolic Z-matrix:
 Charge =  0 Multiplicity = 1

 SCF Done:  E(RHF) =  -150.233251968     A.U. after   12 cycles
 Normal termination of Gaussian 16 at Sun Apr  6 08:22:58 2025.
 Gaussian 16:  ES64L-G16RevC.01  3-Jul-2019

 ----------------------------------------------------------------------
 #t hf aug-cc-pvdz iop(5/13=1,5/36=2,99/5=2) pseudo=read geom=check gue
 ss=(read,tcheck) scf=(maxcycle=1)
 ----------------------------------------------------------------------
 -----
 title
 -----
 Structure from the checkpoint file:  "methylhydrazine.chk"
 Charge =  0 Multiplicity = 1

                         Standard orientation:
 ---------------------------------------------------------------------
 Center     Atomic      Atomic             Coordinates (Angstroms)
 Number     Number       Type             X           Y           Z
 ---------------------------------------------------------------------
      1          6           0       -1.176124   -0.240930   -0.001430
      2          7           0        0.026647    0.569467   -0.122671
      3          7           0        1.244597   -0.148622    0.053689
      4          1           0        1.130779   -0.914669    0.717137
      5          1           0        1.508519   -0.549814   -0.837623
      6          1           0       -1.242751   -0.927801   -0.846695
      7          1           0       -1.212149   -0.834846    0.925321
      8          1           0       -2.049950    0.411665   -0.026287
      9          1           0        0.023585    1.315124    0.559605
 ---------------------------------------------------------------------

 SCF Done:  E(RHF) =  -150.968394061     A.U. after    2 cycles

 The electronic state is 1-A.
 Alpha  occ. eigenvalues --  -15.74490 -15.73239 -11.37931  -1.45645  -1.13636
 Alpha  occ. eigenvalues --   -0.93301  -0.67509  -0.63475  -0.59421  -0.55831
 Alpha  occ. eigenvalues --   -0.50972  -0.36587  -0.34066
 Alpha virt. eigenvalues --    0.03785   0.05361   0.05855   0.06347   0.07322
 Alpha virt. eigenvalues --    0.07786   0.11656   0.14882   0.15671   0.16331
 Alpha virt. eigenvalues --    0.18618   0.19190   0.20312   0.20704   0.21821

 Mulliken charges:
               1
     1  C   -2.969603
     2  N   -1.430869
     3  N   -1.449603
     4  H    0.643770
     5  H    0.697734
     6  H    1.280232
     7  H    1.213460
     8  H    1.271386
     9  H    0.743494
 Sum of Mulliken charges =  -0.00000

 Dipole moment (field-independent basis, Debye):
    X=             -0.7673    Y=             -0.9001    Z=              0.4749  Tot=              1.2746

 Test job not archived.
 1\1\GINC-SE038\SP\RHF\Aug-CC-pVDZ\C1H6N2\OHZDE\06-Apr-2025\0\\#t hf au
 g-cc-pvdz iop(5/13=1,5/36=2,99/5=2) pseudo=read geom=check guess=(read
 ,tcheck) scf=(maxcycle=1)\\title\\0,1\C,0,-1.176124,-0.24093,-0.00143\
 N,0,0.026647,0.569467,-0.122671\N,0,1.244597,-0.148622,0.053689\H,0,1.
 130779,-0.914669,0.717137\H,0,1.508519,-0.549814,-0.837623\H,0,-1.2427
 51,-0.927801,-0.846695\H,0,-1.212149,-0.834846,0.925321\H,0,-2.04995,0
 .411665,-0.026287\H,0,0.023585,1.315124,0.559605\\Version=ES64L-G16Rev
 C.01\State=1-A\HF=-150.9683941\RMSD=4.872e-02\Dipole=-0.301885,-0.3541

 Normal termination of Gaussian 16 at Sun Apr  6 08:23:32 2025.
