 Gaussian 16, Revision C.01,

 ----------------------------------------------------------------------
 #t hf aug-cc-pvdz symm=none int=(grid=ultrafine) guess=(read,tcheck) s
 table=(opt,rrhf)
 ----------------------------------------------------------------------
 -----
 title
 -----
 Symbolic Z-matrix:
 Charge =  0 Multiplicity = 1

 SCF Done:  E(RHF) =  -202.897736579     A.U. after   14 cycles
 Normal termination of Gaussian 16 at Sun Apr  6 08:20:54 2025.
 Gaussian 16:  ES64L-G16RevC.01  3-Jul-2019

 ----------------------------------------------------------------------
 #t hf aug-cc-pvdz iop(5/13=1,5/36=2,99/5=2) pseudo=read geom=check gue
 ss=(read,tcheck) scf=(maxcycle=1)
 ----------------------------------------------------------------------
 -----
 title
 -----
 Structure from the checkpoint file:  "methyl_azide.chk"
 Charge =  0 Multiplicity = 1

                         Standard orientation:
 ---------------------------------------------------------------------
 Center     Atomic      Atomic             Coordinates (Angstroms)
 Number     Number       Type             X           Y           Z
 ---------------------------------------------------------------------
      1          7           0        0.000000    0.723823    0.000000
      2          7           0       -0.513023    1.731413    0.000000
      3          7           0        0.675733   -0.298488    0.000000
      4          6           0       -0.069885   -1.567760    0.000000
      5          1           0        0.668896   -2.362474    0.000000
      6          1           0       -0.694278   -1.664099    0.890793
      7          1           0       -0.694278   -1.664099   -0.890793
 ---------------------------------------------------------------------

 SCF Done:  E(RHF) =  -203.839172841     A.U. after    2 cycles

 The electronic state is 1-A'.
 Alpha  occ. eigenvalues --  -15.96148 -15.84608 -15.77043 -11.41391  -1.67619
 Alpha  occ. eigenvalues --   -1.37355  -1.05235  -0.73500  -0.68494  -0.68063
 Alpha  occ. eigenvalues --   -0.63237  -0.58449  -0.55826  -0.40388  -0.34245
 Alpha virt. eigenvalues --    0.03301   0.06081   0.06096   0.09068   0.11261
 Alpha virt. eigenvalues --    0.12493   0.14156   0.14530   0.15487   0.15835
 Alpha virt. eigenvalues --    0.16777   0.19508   0.21067   0.22807   0.23066

 Mulliken charges:
               1
     1  N    2.704607
     2  N   -1.664232
     3  N   -1.828349
     4  C   -3.165382
     5  H    1.381541
     6  H    1.285908
     7  H    1.285908
 Sum of Mulliken charges =   0.00000

 Dipole moment (field-independent basis, Debye):
    X=             -0.5631    Y=             -1.8152    Z=              0.0000  Tot=              1.9006

 Test job not archived.
 1\1\GINC-SE023\SP\RHF\Aug-CC-pVDZ\C1H3N3\OHZDE\06-Apr-2025\0\\#t hf au
 g-cc-pvdz iop(5/13=1,5/36=2,99/5=2) pseudo=read geom=check guess=(read
 ,tcheck) scf=(maxcycle=1)\\title\\0,1\N,0,0.,0.723823,0.\N,0,-0.513023
 ,1.731413,0.\N,0,0.675733,-0.298488,0.\C,0,-0.069885,-1.56776,0.\H,0,0
 .668896,-2.362474,0.\H,0,-0.694278,-1.664099,0.890793\H,0,-0.694278,-1
 .664099,-0.890793\\Version=ES64L-G16RevC.01\State=1-A'\HF=-203.8391728
 \RMSD=1.665e-01\Dipole=-0.2215488,-0.7141618,0.\Quadrupole=-0.6890056,
 0.2812966,0.4077089,0.9514208,0.,0.\PG=CS [SG(C1H1N3),X(H2)]\\@

 Normal termination of Gaussian 16 at Sun Apr  6 08:20:57 2025.
