 Gaussian 16, Revision C.01,

 ----------------------------------------------------------------------
 #t hf aug-cc-pvdz symm=none int=(grid=ultrafine) guess=(read,tcheck) s
 table=(opt,rrhf)
 ----------------------------------------------------------------------
 -----
 title
 -----
 Symbolic Z-matrix:
 Charge =  0 Multiplicity = 1

 SCF Done:  E(RHF) =  -926.991640766     A.U. after   15 cycles
 Normal termination of Gaussian 16 at Sun Apr  6 08:22:06 2025.
 Gaussian 16:  ES64L-G16RevC.01  3-Jul-2019

 ----------------------------------------------------------------------
 #t hf aug-cc-pvdz iop(5/13=1,5/36=2,99/5=2) pseudo=read geom=check gue
 ss=(read,tcheck) scf=(maxcycle=1)
 ----------------------------------------------------------------------
 -----
 title
 -----
 Structure from the checkpoint file:  "methylsulfanyl_thiocyanate.chk"
 Charge =  0 Multiplicity = 1

                         Standard orientation:
 ---------------------------------------------------------------------
 Center     Atomic      Atomic             Coordinates (Angstroms)
 Number     Number       Type             X           Y           Z
 ---------------------------------------------------------------------
      1         16           0       -1.181973   -0.258533   -0.605061
      2         16           0        0.526277   -0.912219    0.396167
      3          7           0        2.499926    1.048130   -0.266984
      4          6           0       -1.850452    1.006228    0.528769
      5          6           0        1.684030    0.266004   -0.023640
      6          1           0       -2.789196    1.324506    0.074977
      7          1           0       -1.175486    1.854944    0.595860
      8          1           0       -2.045134    0.582281    1.509582
 ---------------------------------------------------------------------

 SCF Done:  E(RHF) =  -928.042256190     A.U. after    2 cycles

 The electronic state is 1-A.
 Alpha  occ. eigenvalues --  -75.77039 -75.73971 -15.77745 -13.23115 -13.18001
 Alpha  occ. eigenvalues --  -13.14003 -13.11432 -13.09916 -13.07139 -11.44683
 Alpha  occ. eigenvalues --  -11.42408  -8.11061  -8.07852  -1.34613  -1.26110
 Alpha  occ. eigenvalues --   -1.12975  -0.95028  -0.67671  -0.61873  -0.61434
 Alpha  occ. eigenvalues --   -0.52407  -0.51433  -0.50651  -0.45771  -0.36377
 Alpha  occ. eigenvalues --   -0.29213  -0.27070
 Alpha virt. eigenvalues --    0.01930   0.03816   0.04854   0.05521   0.06822
 Alpha virt. eigenvalues --    0.09734   0.11147   0.12133   0.13055   0.13383
 Alpha virt. eigenvalues --    0.13543   0.13964   0.15287   0.15614   0.16653

 Mulliken charges:
               1
     1  S    0.314512
     2  S    0.640148
     3  N   -2.012232
     4  C   -4.435430
     5  C    1.164587
     6  H    1.359928
     7  H    1.492311
     8  H    1.476176
 Sum of Mulliken charges =  -0.00000

 Dipole moment (field-independent basis, Debye):
    X=             -4.0523    Y=             -2.5550    Z=              0.3649  Tot=              4.8044

 Test job not archived.
 1\1\GINC-SE209\SP\RHF\Aug-CC-pVDZ\C2H3N1S2\OHZDE\06-Apr-2025\0\\#t hf
 aug-cc-pvdz iop(5/13=1,5/36=2,99/5=2) pseudo=read geom=check guess=(re
 ad,tcheck) scf=(maxcycle=1)\\title\\0,1\S,0,-1.181973,-0.258533,-0.605
 061\S,0,0.526277,-0.912219,0.396167\N,0,2.499926,1.04813,-0.266984\C,0
 ,-1.850452,1.006228,0.528769\C,0,1.68403,0.266004,-0.02364\H,0,-2.7891
 96,1.324506,0.074977\H,0,-1.175486,1.854944,0.59586\H,0,-2.045134,0.58
 2281,1.509582\\Version=ES64L-G16RevC.01\State=1-A\HF=-928.0422562\RMSD
 =9.347e-02\Dipole=-1.594292,-1.0052168,0.1435773\Quadrupole=-2.1333196

 Normal termination of Gaussian 16 at Sun Apr  6 08:22:57 2025.
