 Gaussian 16, Revision C.01,

 ----------------------------------------------------------------------
 #t hf aug-cc-pvdz symm=none int=(grid=ultrafine) guess=(read,tcheck) s
 table=(opt,rrhf)
 ----------------------------------------------------------------------
 -----
 title
 -----
 Symbolic Z-matrix:
 Charge =  0 Multiplicity = 1

 SCF Done:  E(RHF) =  -1046.31253232     A.U. after   13 cycles
 Normal termination of Gaussian 16 at Sun Apr  6 08:19:09 2025.
 Gaussian 16:  ES64L-G16RevC.01  3-Jul-2019

 ----------------------------------------------------------------------
 #t hf aug-cc-pvdz iop(5/13=1,5/36=2,99/5=2) pseudo=read geom=check gue
 ss=(read,tcheck) scf=(maxcycle=1)
 ----------------------------------------------------------------------
 -----
 title
 -----
 Structure from the checkpoint file:  "methanesulfonyl_chloride.chk"
 Charge =  0 Multiplicity = 1

                         Standard orientation:
 ---------------------------------------------------------------------
 Center     Atomic      Atomic             Coordinates (Angstroms)
 Number     Number       Type             X           Y           Z
 ---------------------------------------------------------------------
      1          6           0        0.838039    1.595359    0.000000
      2          8           0        0.838039   -0.743500    1.259473
      3          8           0        0.838039   -0.743500   -1.259473
      4         16           0        0.445322   -0.156189    0.000000
      5         17           0       -1.666500   -0.052456    0.000000
      6          1           0        0.421587    2.033909    0.900953
      7          1           0        1.925327    1.646800    0.000000
      8          1           0        0.421587    2.033909   -0.900953
 ---------------------------------------------------------------------

 SCF Done:  E(RHF) =  -1047.65163387     A.U. after    2 cycles

 The electronic state is 1-A'.
 Alpha  occ. eigenvalues --  -99.92372 -75.94434 -21.08871 -21.08860 -13.56672
 Alpha  occ. eigenvalues --  -13.44350 -13.33327 -11.45642 -10.49644  -9.69441
 Alpha  occ. eigenvalues --   -9.68723  -9.68670  -8.29258  -1.86536  -1.68284
 Alpha  occ. eigenvalues --   -1.33659  -1.17273  -0.93007  -0.70306  -0.66323
 Alpha  occ. eigenvalues --   -0.64404  -0.60112  -0.57874  -0.54102  -0.46159
 Alpha  occ. eigenvalues --   -0.45683  -0.41652  -0.40769  -0.38538
 Alpha virt. eigenvalues --    0.01892   0.05155   0.05431   0.06763   0.08235
 Alpha virt. eigenvalues --    0.10020   0.12284   0.12445   0.13263   0.13902
 Alpha virt. eigenvalues --    0.14443   0.15717   0.15970   0.17587   0.19448

 Mulliken charges:
               1
     1  C   -4.282669
     2  O   -2.301298
     3  O   -2.301298
     4  S    5.025304
     5  Cl  -0.168600
     6  H    1.341898
     7  H    1.344766
     8  H    1.341898
 Sum of Mulliken charges =  -0.00000

 Dipole moment (field-independent basis, Debye):
    X=              1.8139    Y=              2.0686    Z=              0.0000  Tot=              2.7512

 Test job not archived.
 1\1\GINC-SE028\SP\RHF\Aug-CC-pVDZ\C1H3Cl1O2S1\OHZDE\06-Apr-2025\0\\#t
 hf aug-cc-pvdz iop(5/13=1,5/36=2,99/5=2) pseudo=read geom=check guess=
 (read,tcheck) scf=(maxcycle=1)\\title\\0,1\C,0,0.838039,1.595359,0.\O,
 0,0.838039,-0.7435,1.259473\O,0,0.838039,-0.7435,-1.259473\S,0,0.44532
 2,-0.156189,0.\Cl,0,-1.6665,-0.052456,0.\H,0,0.421587,2.033909,0.90095
 3\H,0,1.925327,1.6468,0.\H,0,0.421587,2.033909,-0.900953\\Version=ES64
 L-G16RevC.01\State=1-A'\HF=-1047.6516339\RMSD=7.741e-02\Dipole=0.71362
 88,0.8138469,0.\Quadrupole=0.3780469,1.3775447,-1.7555916,1.6805676,0.

 Normal termination of Gaussian 16 at Sun Apr  6 08:19:17 2025.
