 Gaussian 16, Revision C.01,

 ----------------------------------------------------------------------
 #t hf aug-cc-pvdz symm=none int=(grid=ultrafine) guess=(read,tcheck) s
 table=(opt,rrhf)
 ----------------------------------------------------------------------
 -----
 title
 -----
 Symbolic Z-matrix:
 Charge =  0 Multiplicity = 1

 SCF Done:  E(RHF) =  -542.303983610     A.U. after   16 cycles
 Normal termination of Gaussian 16 at Sun Apr  6 08:22:01 2025.
 Gaussian 16:  ES64L-G16RevC.01  3-Jul-2019

 ----------------------------------------------------------------------
 #t hf aug-cc-pvdz iop(5/13=1,5/36=2,99/5=2) pseudo=read geom=check gue
 ss=(read,tcheck) scf=(maxcycle=1)
 ----------------------------------------------------------------------
 -----
 title
 -----
 Structure from the checkpoint file:  "methyl_4-amino-1-2-5-oxadiazole-3-carboxylate.chk"
 Charge =  0 Multiplicity = 1

                         Standard orientation:
 ---------------------------------------------------------------------
 Center     Atomic      Atomic             Coordinates (Angstroms)
 Number     Number       Type             X           Y           Z
 ---------------------------------------------------------------------
      1          8           0        2.016475   -1.532303    0.023208
      2          8           0       -1.977891   -0.721593   -0.043326
      3          8           0       -1.306736    1.428753    0.077244
      4          7           0        0.673411   -1.516062    0.017123
      5          7           0        2.549934   -0.243148    0.003763
      6          7           0        1.568662    1.902573   -0.089651
      7          6           0        0.322741   -0.259915   -0.006268
      8          6           0        1.509470    0.550011   -0.017954
      9          6           0       -1.061961    0.241317    0.012304
     10          6           0       -3.352842   -0.290458   -0.016320
     11          1           0        0.715764    2.400412    0.105126
     12          1           0        2.442779    2.350901    0.120191
     13          1           0       -3.562178    0.355303   -0.866446
     14          1           0       -3.561230    0.246902    0.906438
     15          1           0       -3.938417   -1.201652   -0.071525
 ---------------------------------------------------------------------

 SCF Done:  E(RHF) =  -544.643094171     A.U. after    2 cycles

 The electronic state is 1-A.
 Alpha  occ. eigenvalues --  -21.15224 -21.11921 -21.07993 -15.83968 -15.78937
 Alpha  occ. eigenvalues --  -15.78161 -11.57167 -11.52273 -11.44947 -11.43686
 Alpha  occ. eigenvalues --   -1.96775  -1.87201  -1.69537  -1.43123  -1.32780
 Alpha  occ. eigenvalues --   -1.23255  -1.06086  -0.94916  -0.86863  -0.78786
 Alpha  occ. eigenvalues --   -0.72164  -0.68937  -0.67886  -0.64942  -0.64302
 Alpha  occ. eigenvalues --   -0.59978  -0.57806  -0.54781  -0.50072  -0.48799
 Alpha  occ. eigenvalues --   -0.46957  -0.44307  -0.41170  -0.39469  -0.34845
 Alpha  occ. eigenvalues --   -0.33366  -0.30634
 Alpha virt. eigenvalues --    0.03073   0.04678   0.05707   0.05880   0.06908
 Alpha virt. eigenvalues --    0.08390   0.10220   0.10751   0.11481   0.11756
 Alpha virt. eigenvalues --    0.12530   0.13539   0.13655   0.13855   0.14884

 Mulliken charges:
               1
     1  O   -2.362830
     2  O   -3.652165
     3  O   -3.263756
     4  N   -1.141759
     5  N   -1.392937
     6  N   -3.329330
     7  C    1.841093
     8  C    3.420924
     9  C    7.825161
    10  C   -3.399256
    11  H    0.563424
    12  H    0.834074
    13  H    1.335813
    14  H    1.327701
    15  H    1.393842
 Sum of Mulliken charges =  -0.00000

 Dipole moment (field-independent basis, Debye):
    X=             -1.9319    Y=              1.5033    Z=              0.3998  Tot=              2.4803

 Test job not archived.
 1\1\GINC-SE009\SP\RHF\Aug-CC-pVDZ\C4H5N3O3\OHZDE\06-Apr-2025\0\\#t hf
 aug-cc-pvdz iop(5/13=1,5/36=2,99/5=2) pseudo=read geom=check guess=(re
 ad,tcheck) scf=(maxcycle=1)\\title\\0,1\O,0,2.016475,-1.532303,0.02320
 8\O,0,-1.977891,-0.721593,-0.043326\O,0,-1.306736,1.428753,0.077244\N,
 0,0.673411,-1.516062,0.017123\N,0,2.549934,-0.243148,0.003763\N,0,1.56
 8662,1.902573,-0.089651\C,0,0.322741,-0.259915,-0.006268\C,0,1.50947,0
 .550011,-0.017954\C,0,-1.061961,0.241317,0.012304\C,0,-3.352842,-0.290
 458,-0.01632\H,0,0.715764,2.400412,0.105126\H,0,2.442779,2.350901,0.12

 Normal termination of Gaussian 16 at Sun Apr  6 08:23:01 2025.
