 Gaussian 16, Revision C.01,

 ----------------------------------------------------------------------
 #t hf aug-cc-pvdz symm=none int=(grid=ultrafine) guess=(read,tcheck) s
 table=(opt,rrhf)
 ----------------------------------------------------------------------
 -----
 title
 -----
 Symbolic Z-matrix:
 Charge =  0 Multiplicity = 1

 SCF Done:  E(RHF) =  -383.989856436     A.U. after   13 cycles

 1\1\GINC-SE165\Stability\RHF\Aug-CC-pVDZ\C6H12O2\OHZDE\06-Apr-2025\0\\
 #t hf aug-cc-pvdz symm=none int=(grid=ultrafine) guess=(read,tcheck) s
 table=(opt,rrhf)\\title\\0,1\C,0,-1.162065,-0.3166,0.\C,0,3.891987,0.2
 93233,0.\C,0,-3.521231,-0.471592,0.\C,0,0.,0.649193,0.\C,0,2.521478,0.
 967777,0.\C,0,1.364398,-0.031139,0.\O,0,-1.082593,-1.519471,0.\O,0,-2.
 339681,0.346164,0.\H,0,4.019803,-0.339306,0.880577\H,0,4.019803,-0.339
 306,-0.880577\H,0,4.697325,1.028826,0.\H,0,-3.548612,-1.103036,0.88626
 2\H,0,-3.548612,-1.103036,-0.886262\H,0,-4.356547,0.221758,0.\H,0,-0.1

 Normal termination of Gaussian 16 at Sun Apr  6 08:22:07 2025.
 Gaussian 16:  ES64L-G16RevC.01  3-Jul-2019

 ----------------------------------------------------------------------
 #t hf aug-cc-pvdz iop(5/13=1,5/36=2,99/5=2) pseudo=read geom=check gue
 ss=(read,tcheck) scf=(maxcycle=1)
 ----------------------------------------------------------------------
 -----
 title
 -----
 Structure from the checkpoint file:  "methyl_pentanoate.chk"
 Charge =  0 Multiplicity = 1

                         Standard orientation:
 ---------------------------------------------------------------------
 Center     Atomic      Atomic             Coordinates (Angstroms)
 Number     Number       Type             X           Y           Z
 ---------------------------------------------------------------------
      1          6           0       -1.162065   -0.316600    0.000000
      2          6           0        3.891987    0.293232    0.000000
      3          6           0       -3.521231   -0.471591    0.000000
      4          6           0       -0.000000    0.649193    0.000000
      5          6           0        2.521478    0.967776    0.000000
      6          6           0        1.364398   -0.031139    0.000000
      7          8           0       -1.082593   -1.519471    0.000000
      8          8           0       -2.339681    0.346164    0.000000
      9          1           0        4.019803   -0.339307    0.880577
     10          1           0        4.019803   -0.339307   -0.880577
     11          1           0        4.697325    1.028825    0.000000
     12          1           0       -3.548612   -1.103035    0.886262
     13          1           0       -3.548612   -1.103035   -0.886262
     14          1           0       -4.356547    0.221759    0.000000
     15          1           0       -0.114752    1.302305   -0.869458
     16          1           0       -0.114752    1.302305    0.869458
     17          1           0        2.437814    1.621045    0.874090
     18          1           0        2.437814    1.621045   -0.874090
     19          1           0        1.440757   -0.685686    0.871083
     20          1           0        1.440757   -0.685686   -0.871083
 ---------------------------------------------------------------------

 SCF Done:  E(RHF) =  -385.782644379     A.U. after    2 cycles

 The electronic state is 1-A'.
 Alpha  occ. eigenvalues --  -21.08629 -21.04415 -11.52367 -11.43249 -11.41351
 Alpha  occ. eigenvalues --  -11.41085 -11.37643 -11.34944  -1.83751  -1.65629
 Alpha  occ. eigenvalues --   -1.24984  -1.11181  -1.01950  -0.93782  -0.83613
 Alpha  occ. eigenvalues --   -0.74624  -0.67109  -0.66822  -0.62764  -0.59920
 Alpha  occ. eigenvalues --   -0.58912  -0.56211  -0.55041  -0.51817  -0.51125
 Alpha  occ. eigenvalues --   -0.46887  -0.45523  -0.45379  -0.43715  -0.40608
 Alpha  occ. eigenvalues --   -0.31990  -0.29194
 Alpha virt. eigenvalues --    0.03683   0.04816   0.05105   0.05176   0.05972
 Alpha virt. eigenvalues --    0.05981   0.06647   0.07247   0.07506   0.07937
 Alpha virt. eigenvalues --    0.07988   0.09584   0.10270   0.11887   0.13446

 Mulliken charges:
               1
     1  C    6.659125
     2  C   -4.340295
     3  C   -3.075024
     4  C   -4.425720
     5  C   -2.852268
     6  C   -2.163873
     7  O   -3.105681
     8  O   -3.427764
     9  H    1.281198
    10  H    1.281198
    11  H    1.071692
    12  H    1.323172
    13  H    1.323172
    14  H    1.443046
    15  H    1.523727
    16  H    1.523727
    17  H    1.395699
    18  H    1.395699
    19  H    1.584585
    20  H    1.584585
 Sum of Mulliken charges =  -0.00000

 Dipole moment (field-independent basis, Debye):
    X=             -0.4383    Y=              1.0531    Z=              0.0000  Tot=              1.1406

 Test job not archived.
 1\1\GINC-SE165\SP\RHF\Aug-CC-pVDZ\C6H12O2\OHZDE\06-Apr-2025\0\\#t hf a
 ug-cc-pvdz iop(5/13=1,5/36=2,99/5=2) pseudo=read geom=check guess=(rea
 d,tcheck) scf=(maxcycle=1)\\title\\0,1\C,0,-1.162065,-0.3166,0.\C,0,3.
 891987,0.293233,0.\C,0,-3.521231,-0.471592,0.\C,0,0.,0.649193,0.\C,0,2
 .521478,0.967777,0.\C,0,1.364398,-0.031139,0.\O,0,-1.082593,-1.519471,
 0.\O,0,-2.339681,0.346164,0.\H,0,4.019803,-0.339306,0.880577\H,0,4.019
 803,-0.339306,-0.880577\H,0,4.697325,1.028826,0.\H,0,-3.548612,-1.1030
 36,0.886262\H,0,-3.548612,-1.103036,-0.886262\H,0,-4.356547,0.221758,0

 Normal termination of Gaussian 16 at Sun Apr  6 08:23:01 2025.
