 Gaussian 16, Revision C.01,

 ----------------------------------------------------------------------
 #t hf aug-cc-pvdz symm=none int=(grid=ultrafine) guess=(read,tcheck) s
 table=(opt,rrhf)
 ----------------------------------------------------------------------
 -----
 title
 -----
 Symbolic Z-matrix:
 Charge =  0 Multiplicity = 1

 SCF Done:  E(RHF) =  -423.028696660     A.U. after   13 cycles

 1\1\GINC-SE150\Stability\RHF\Aug-CC-pVDZ\C7H14O2\OHZDE\06-Apr-2025\0\\
 #t hf aug-cc-pvdz symm=none int=(grid=ultrafine) guess=(read,tcheck) s
 table=(opt,rrhf)\\title\\0,1\C,0,1.488939,1.017839,0.\C,0,-3.766271,-2
 .671937,0.\C,0,3.138511,2.711319,0.\C,0,0.,0.760101,0.\C,0,-2.256886,-
 2.436231,0.\C,0,-0.365395,-0.720041,0.\C,0,-1.876026,-0.955711,0.\O,0,
 2.352499,0.176679,0.\O,0,1.749338,2.343823,0.\H,0,-4.235468,-2.228565,
 0.880789\H,0,-4.235468,-2.228565,-0.880789\H,0,-4.00323,-3.736674,0.\H
 ,0,3.153724,3.796785,0.\H,0,3.636516,2.322018,-0.886207\H,0,3.636516,2

 Normal termination of Gaussian 16 at Sun Apr  6 08:22:48 2025.
 Gaussian 16:  ES64L-G16RevC.01  3-Jul-2019

 ----------------------------------------------------------------------
 #t hf aug-cc-pvdz iop(5/13=1,5/36=2,99/5=2) pseudo=read geom=check gue
 ss=(read,tcheck) scf=(maxcycle=1)
 ----------------------------------------------------------------------
 -----
 title
 -----
 Structure from the checkpoint file:  "methyl_hexanoate.chk"
 Charge =  0 Multiplicity = 1

                         Standard orientation:
 ---------------------------------------------------------------------
 Center     Atomic      Atomic             Coordinates (Angstroms)
 Number     Number       Type             X           Y           Z
 ---------------------------------------------------------------------
      1          6           0        1.488939    1.017839    0.000000
      2          6           0       -3.766272   -2.671936    0.000000
      3          6           0        3.138511    2.711318    0.000000
      4          6           0        0.000000    0.760101    0.000000
      5          6           0       -2.256886   -2.436231    0.000000
      6          6           0       -0.365395   -0.720041    0.000000
      7          6           0       -1.876026   -0.955711    0.000000
      8          8           0        2.352499    0.176679    0.000000
      9          8           0        1.749338    2.343823    0.000000
     10          1           0       -4.235468   -2.228564    0.880789
     11          1           0       -4.235468   -2.228564   -0.880789
     12          1           0       -4.003231   -3.736673    0.000000
     13          1           0        3.153724    3.796784    0.000000
     14          1           0        3.636516    2.322017   -0.886207
     15          1           0        3.636516    2.322017    0.886207
     16          1           0       -0.422849    1.270771   -0.869472
     17          1           0       -0.422849    1.270771    0.869472
     18          1           0       -1.811862   -2.921057   -0.873831
     19          1           0       -1.811862   -2.921057    0.873831
     20          1           0        0.084585   -1.201251    0.871034
     21          1           0        0.084585   -1.201251   -0.871034
     22          1           0       -2.322130   -0.469995   -0.874710
     23          1           0       -2.322130   -0.469995    0.874710
 ---------------------------------------------------------------------

 SCF Done:  E(RHF) =  -425.026587466     A.U. after    2 cycles

 The electronic state is 1-A'.
 Alpha  occ. eigenvalues --  -21.08621 -21.04401 -11.52399 -11.43497 -11.42068
 Alpha  occ. eigenvalues --  -11.41269 -11.39352 -11.36863 -11.34525  -1.83742
 Alpha  occ. eigenvalues --   -1.65615  -1.26566  -1.14926  -1.04429  -0.98835
 Alpha  occ. eigenvalues --   -0.88873  -0.82592  -0.74530  -0.67164  -0.67155
 Alpha  occ. eigenvalues --   -0.63456  -0.60501  -0.59089  -0.58064  -0.54899
 Alpha  occ. eigenvalues --   -0.54262  -0.53040  -0.49227  -0.48398  -0.45985
 Alpha  occ. eigenvalues --   -0.45235  -0.44888  -0.42592  -0.39800  -0.31978
 Alpha  occ. eigenvalues --   -0.29168
 Alpha virt. eigenvalues --    0.03770   0.04692   0.04892   0.05188   0.05976
 Alpha virt. eigenvalues --    0.06023   0.06542   0.06646   0.06963   0.07267
 Alpha virt. eigenvalues --    0.07468   0.08918   0.09515   0.10141   0.10869

 Mulliken charges:
               1
     1  C    6.817625
     2  C   -4.530798
     3  C   -3.162976
     4  C   -4.635175
     5  C   -3.417172
     6  C   -2.307998
     7  C   -2.192263
     8  O   -3.103343
     9  O   -3.486544
    10  H    1.347963
    11  H    1.347963
    12  H    1.076062
    13  H    1.464873
    14  H    1.330793
    15  H    1.330793
    16  H    1.537228
    17  H    1.537228
    18  H    1.429187
    19  H    1.429187
    20  H    1.594341
    21  H    1.594341
    22  H    1.499343
    23  H    1.499343
 Sum of Mulliken charges =  -0.00000

 Dipole moment (field-independent basis, Debye):
    X=             -0.4370    Y=              0.9004    Z=             -0.0000  Tot=              1.0009

 Test job not archived.
 1\1\GINC-SE150\SP\RHF\Aug-CC-pVDZ\C7H14O2\OHZDE\06-Apr-2025\0\\#t hf a
 ug-cc-pvdz iop(5/13=1,5/36=2,99/5=2) pseudo=read geom=check guess=(rea
 d,tcheck) scf=(maxcycle=1)\\title\\0,1\C,0,1.488939,1.017839,0.\C,0,-3
 .766271,-2.671937,0.\C,0,3.138511,2.711319,0.\C,0,0.,0.760101,0.\C,0,-
 2.256886,-2.436231,0.\C,0,-0.365395,-0.720041,0.\C,0,-1.876026,-0.9557
 11,0.\O,0,2.352499,0.176679,0.\O,0,1.749338,2.343823,0.\H,0,-4.235468,
 -2.228565,0.880789\H,0,-4.235468,-2.228565,-0.880789\H,0,-4.00323,-3.7
 36674,0.\H,0,3.153724,3.796785,0.\H,0,3.636516,2.322018,-0.886207\H,0,

 Normal termination of Gaussian 16 at Sun Apr  6 08:23:04 2025.
