 Gaussian 16, Revision C.01,

 ----------------------------------------------------------------------
 #t hf aug-cc-pvdz symm=none int=(grid=ultrafine) guess=(read,tcheck) s
 table=(opt,rrhf)
 ----------------------------------------------------------------------
 -----
 title
 -----
 Symbolic Z-matrix:
 Charge =  0 Multiplicity = 1

 SCF Done:  E(RHF) =  -563.473214843     A.U. after   13 cycles
 Normal termination of Gaussian 16 at Sun Apr  6 08:23:48 2025.
 Gaussian 16:  ES64L-G16RevC.01  3-Jul-2019

 ----------------------------------------------------------------------
 #t hf aug-cc-pvdz iop(5/13=1,5/36=2,99/5=2) pseudo=read geom=check gue
 ss=(read,tcheck) scf=(maxcycle=1)
 ----------------------------------------------------------------------
 -----
 title
 -----
 Structure from the checkpoint file:  "methyltrifluoroacetate.chk"
 Charge =  0 Multiplicity = 1

                         Standard orientation:
 ---------------------------------------------------------------------
 Center     Atomic      Atomic             Coordinates (Angstroms)
 Number     Number       Type             X           Y           Z
 ---------------------------------------------------------------------
      1          6           0        0.050669    0.624607    0.000000
      2          6           0       -1.855094    2.001586    0.000000
      3          6           0        0.511832   -0.857791    0.000000
      4          8           0        0.811982    1.547940    0.000000
      5          8           0       -1.275222    0.677957    0.000000
      6          9           0        0.050669   -1.497770    1.087625
      7          9           0        0.050669   -1.497770   -1.087625
      8          9           0        1.840087   -0.932253    0.000000
      9          1           0       -1.541783    2.544186    0.888968
     10          1           0       -2.927775    1.844167    0.000000
     11          1           0       -1.541783    2.544186   -0.888968
 ---------------------------------------------------------------------

 SCF Done:  E(RHF) =  -565.603799595     A.U. after    2 cycles

 The electronic state is 1-A'.
 Alpha  occ. eigenvalues --  -29.32665 -29.32632 -29.32445 -21.12929 -21.09482
 Alpha  occ. eigenvalues --  -11.62946 -11.54666 -11.44306  -1.88370  -1.70971
 Alpha  occ. eigenvalues --   -1.42837  -1.06818  -0.90721  -0.90615  -0.89303
 Alpha  occ. eigenvalues --   -0.73717  -0.66019  -0.60884  -0.60101  -0.55085
 Alpha  occ. eigenvalues --   -0.50086  -0.47162  -0.45279  -0.44441  -0.39526
 Alpha  occ. eigenvalues --   -0.37907  -0.36814  -0.34677  -0.28512  -0.27184
 Alpha  occ. eigenvalues --   -0.25891  -0.22712
 Alpha virt. eigenvalues --    0.03258   0.05582   0.05975   0.08452   0.10040
 Alpha virt. eigenvalues --    0.12352   0.12751   0.13048   0.13322   0.13977
 Alpha virt. eigenvalues --    0.15173   0.15830   0.17419   0.17544   0.17798

 Mulliken charges:
               1
     1  C    3.079854
     2  C   -3.002568
     3  C    0.183635
     4  O   -2.688075
     5  O   -2.651126
     6  F    0.341547
     7  F    0.341547
     8  F    0.495294
     9  H    1.262002
    10  H    1.375889
    11  H    1.262002
 Sum of Mulliken charges =   0.00000

 Dipole moment (field-independent basis, Debye):
    X=             -1.2631    Y=             -1.0590    Z=              0.0000  Tot=              1.6483

 Test job not archived.
 1\1\GINC-SE041\SP\RHF\Aug-CC-pVDZ\C3H3F3O2\OHZDE\06-Apr-2025\0\\#t hf
 aug-cc-pvdz iop(5/13=1,5/36=2,99/5=2) pseudo=read geom=check guess=(re
 ad,tcheck) scf=(maxcycle=1)\\title\\0,1\C,0,0.050669,0.624607,0.\C,0,-
 1.855094,2.001586,0.\C,0,0.511832,-0.857791,0.\O,0,0.811982,1.54794,0.
 \O,0,-1.275222,0.677957,0.\F,0,0.050669,-1.49777,1.087625\F,0,0.050669
 ,-1.49777,-1.087625\F,0,1.840087,-0.932253,0.\H,0,-1.541783,2.544186,0
 .888968\H,0,-2.927775,1.844167,0.\H,0,-1.541783,2.544186,-0.888968\\Ve
 rsion=ES64L-G16RevC.01\State=1-A'\HF=-565.6037996\RMSD=1.540e-01\Dipol

 Normal termination of Gaussian 16 at Sun Apr  6 08:23:53 2025.
