 Gaussian 16, Revision C.01,

 ----------------------------------------------------------------------
 #t hf aug-cc-pvdz symm=none int=(grid=ultrafine) guess=(read,tcheck) s
 table=(opt,rrhf)
 ----------------------------------------------------------------------
 -----
 title
 -----
 Symbolic Z-matrix:
 Charge =  0 Multiplicity = 1

 SCF Done:  E(RHF) =  -660.906473787     A.U. after   17 cycles
 Normal termination of Gaussian 16 at Sun Apr  6 08:22:15 2025.
 Gaussian 16:  ES64L-G16RevC.01  3-Jul-2019

 ----------------------------------------------------------------------
 #t hf aug-cc-pvdz iop(5/13=1,5/36=2,99/5=2) pseudo=read geom=check gue
 ss=(read,tcheck) scf=(maxcycle=1)
 ----------------------------------------------------------------------
 -----
 title
 -----
 Structure from the checkpoint file:  "methyl-4-nitrobenzoate.chk"
 Charge =  0 Multiplicity = 1

                         Standard orientation:
 ---------------------------------------------------------------------
 Center     Atomic      Atomic             Coordinates (Angstroms)
 Number     Number       Type             X           Y           Z
 ---------------------------------------------------------------------
      1          6           0       -1.286273    0.390991    0.000000
      2          6           0        1.112125    0.088865    0.000000
      3          6           0       -1.467836   -0.981974    0.000000
      4          6           0        0.942643   -1.286930    0.000000
      5          6           0        0.000000    0.932795    0.000000
      6          6           0       -0.346334   -1.799458    0.000000
      7          6           0        0.128280    2.421778    0.000000
      8          6           0        1.617644    4.250574    0.000000
      9          7           0       -0.530904   -3.266994    0.000000
     10          8           0       -0.811383    3.179716    0.000000
     11          8           0       -1.675584   -3.692985    0.000000
     12          8           0        0.472906   -3.963304    0.000000
     13          8           0        1.410358    2.826665    0.000000
     14          1           0       -2.134031    1.060043    0.000000
     15          1           0        2.105499    0.509823    0.000000
     16          1           0       -2.451989   -1.422851    0.000000
     17          1           0        1.785123   -1.960132    0.000000
     18          1           0        2.694123    4.387094    0.000000
     19          1           0        1.172868    4.697195    0.886917
     20          1           0        1.172868    4.697195   -0.886917
 ---------------------------------------------------------------------

 SCF Done:  E(RHF) =  -663.797276843     A.U. after    2 cycles

 The electronic state is 1-A'.
 Alpha  occ. eigenvalues --  -21.11020 -21.10249 -21.10129 -21.06666 -16.00830
 Alpha  occ. eigenvalues --  -11.56591 -11.55269 -11.49026 -11.48237 -11.47741
 Alpha  occ. eigenvalues --  -11.45237 -11.43303 -11.41270  -2.00796  -1.86409
 Alpha  occ. eigenvalues --   -1.69908  -1.68101  -1.39134  -1.20528  -1.13950
 Alpha  occ. eigenvalues --   -1.06630  -1.00842  -0.91488  -0.87007  -0.80282
 Alpha  occ. eigenvalues --   -0.74752  -0.70630  -0.68510  -0.66614  -0.65458
 Alpha  occ. eigenvalues --   -0.65129  -0.62601  -0.60046  -0.59954  -0.56786
 Alpha  occ. eigenvalues --   -0.55951  -0.51809  -0.51067  -0.48504  -0.43604
 Alpha  occ. eigenvalues --   -0.37143  -0.36904  -0.36518  -0.33864  -0.32214
 Alpha  occ. eigenvalues --   -0.31957  -0.31448
 Alpha virt. eigenvalues --    0.02728   0.04461   0.05069   0.05486   0.06284
 Alpha virt. eigenvalues --    0.06294   0.06742   0.07239   0.08323   0.09722
 Alpha virt. eigenvalues --    0.09787   0.11169   0.11384   0.11945   0.12327

 Mulliken charges:
               1
     1  C   -1.264776
     2  C    0.971284
     3  C   -2.549099
     4  C   -2.951478
     5  C    1.457749
     6  C    1.058511
     7  C    5.012219
     8  C   -3.193844
     9  N    3.308652
    10  O   -3.580154
    11  O   -3.009370
    12  O   -3.011034
    13  O   -3.902663
    14  H    1.827162
    15  H    1.997763
    16  H    1.830815
    17  H    1.859950
    18  H    1.434375
    19  H    1.351968
    20  H    1.351968
 Sum of Mulliken charges =  -0.00000

 Dipole moment (field-independent basis, Debye):
    X=              1.6984    Y=              2.9742    Z=             -0.0000  Tot=              3.4250

 Test job not archived.
 1\1\GINC-SE343\SP\RHF\Aug-CC-pVDZ\C8H7N1O4\OHZDE\06-Apr-2025\0\\#t hf
 aug-cc-pvdz iop(5/13=1,5/36=2,99/5=2) pseudo=read geom=check guess=(re
 ad,tcheck) scf=(maxcycle=1)\\title\\0,1\C,0,-1.286273,0.390991,0.\C,0,
 1.112125,0.088865,0.\C,0,-1.467836,-0.981974,0.\C,0,0.942643,-1.28693,
 0.\C,0,0.,0.932795,0.\C,0,-0.346334,-1.799458,0.\C,0,0.12828,2.421778,
 0.\C,0,1.617644,4.250574,0.\N,0,-0.530904,-3.266994,0.\O,0,-0.811383,3
 .179716,0.\O,0,-1.675584,-3.692985,0.\O,0,0.472906,-3.963304,0.\O,0,1.
 410358,2.826665,0.\H,0,-2.134031,1.060043,0.\H,0,2.105499,0.509823,0.\

 Normal termination of Gaussian 16 at Sun Apr  6 08:23:06 2025.
