 Gaussian 16, Revision C.01,

 ----------------------------------------------------------------------
 #t hf aug-cc-pvdz symm=none int=(grid=ultrafine) guess=(read,tcheck) s
 table=(opt,rrhf)
 ----------------------------------------------------------------------
 -----
 title
 -----
 Symbolic Z-matrix:
 Charge =  0 Multiplicity = 1

 SCF Done:  E(RHF) =  -234.224115536     A.U. after   12 cycles
 Normal termination of Gaussian 16 at Sun Apr  6 08:21:34 2025.
 Gaussian 16:  ES64L-G16RevC.01  3-Jul-2019

 ----------------------------------------------------------------------
 #t hf aug-cc-pvdz iop(5/13=1,5/36=2,99/5=2) pseudo=read geom=check gue
 ss=(read,tcheck) scf=(maxcycle=1)
 ----------------------------------------------------------------------
 -----
 title
 -----
 Structure from the checkpoint file:  "methylcyclopentane.chk"
 Charge =  0 Multiplicity = 1

                         Standard orientation:
 ---------------------------------------------------------------------
 Center     Atomic      Atomic             Coordinates (Angstroms)
 Number     Number       Type             X           Y           Z
 ---------------------------------------------------------------------
      1          6           0       -1.527992   -0.778219   -0.025802
      2          6           0       -1.527998    0.778215   -0.025762
      3          6           0       -0.054746   -1.195602    0.153522
      4          6           0       -0.054742    1.195610    0.153491
      5          6           0        0.759977   -0.000005   -0.361654
      6          6           0        2.225909   -0.000001    0.053568
      7          1           0       -2.163452   -1.189245    0.758393
      8          1           0       -1.917173   -1.155891   -0.972214
      9          1           0       -1.917255    1.155933   -0.972124
     10          1           0       -2.163406    1.189187    0.758504
     11          1           0        0.170715   -1.346139    1.213831
     12          1           0        0.187199   -2.127106   -0.360157
     13          1           0        0.187182    2.127090   -0.360241
     14          1           0        0.170755    1.346201    1.213784
     15          1           0        0.706863   -0.000021   -1.457058
     16          1           0        2.748064    0.880936   -0.324665
     17          1           0        2.320004    0.000014    1.142416
     18          1           0        2.748063   -0.880949   -0.324642
 ---------------------------------------------------------------------

 SCF Done:  E(RHF) =  -235.446744581     A.U. after    2 cycles

 The electronic state is 1-A.
 Alpha  occ. eigenvalues --  -11.46186 -11.41335 -11.38482 -11.36845 -11.35645
 Alpha  occ. eigenvalues --  -11.32679  -1.32823  -1.09700  -1.03252  -0.94741
 Alpha  occ. eigenvalues --   -0.80946  -0.79150  -0.66332  -0.62888  -0.58883
 Alpha  occ. eigenvalues --   -0.57686  -0.54930  -0.51345  -0.45471  -0.44201
 Alpha  occ. eigenvalues --   -0.43030  -0.42813  -0.41506  -0.39751
 Alpha virt. eigenvalues --    0.04346   0.05384   0.05485   0.05557   0.05593
 Alpha virt. eigenvalues --    0.05817   0.06386   0.06543   0.06749   0.08478
 Alpha virt. eigenvalues --    0.09065   0.09168   0.12242   0.13885   0.14097

 Mulliken charges:
               1
     1  C   -2.692401
     2  C   -2.692331
     3  C   -3.138007
     4  C   -3.138100
     5  C   -0.541421
     6  C   -4.182905
     7  H    1.330409
     8  H    1.344915
     9  H    1.344920
    10  H    1.330426
    11  H    1.470961
    12  H    1.330931
    13  H    1.330930
    14  H    1.470948
    15  H    1.685051
    16  H    1.208378
    17  H    1.328912
    18  H    1.208384
 Sum of Mulliken charges =   0.00000

 Dipole moment (field-independent basis, Debye):
    X=             -0.0349    Y=             -0.0000    Z=             -0.1358  Tot=              0.1402

 Test job not archived.
 1\1\GINC-SE104\SP\RHF\Aug-CC-pVDZ\C6H12\OHZDE\06-Apr-2025\0\\#t hf aug
 -cc-pvdz iop(5/13=1,5/36=2,99/5=2) pseudo=read geom=check guess=(read,
 tcheck) scf=(maxcycle=1)\\title\\0,1\C,0,-1.527992,-0.778219,-0.025802
 \C,0,-1.527998,0.778215,-0.025762\C,0,-0.054746,-1.195602,0.153522\C,0
 ,-0.054742,1.19561,0.153491\C,0,0.759977,-0.000005,-0.361654\C,0,2.225
 909,-0.000001,0.053568\H,0,-2.163452,-1.189245,0.758393\H,0,-1.917173,
 -1.155891,-0.972214\H,0,-1.917255,1.155933,-0.972124\H,0,-2.163406,1.1
 89187,0.758504\H,0,0.170715,-1.346139,1.213831\H,0,0.1872,-2.127106,-0

 Normal termination of Gaussian 16 at Sun Apr  6 08:21:45 2025.
