 Gaussian 16, Revision C.01,

 ----------------------------------------------------------------------
 #t hf aug-cc-pvdz symm=none int=(grid=ultrafine) guess=(read,tcheck) s
 table=(opt,rrhf)
 ----------------------------------------------------------------------
 -----
 title
 -----
 Symbolic Z-matrix:
 Charge =  0 Multiplicity = 1

 SCF Done:  E(RHF) =  -667.292411693     A.U. after   15 cycles
 Normal termination of Gaussian 16 at Sun Apr  6 08:24:25 2025.
 Gaussian 16:  ES64L-G16RevC.01  3-Jul-2019

 ----------------------------------------------------------------------
 #t hf aug-cc-pvdz iop(5/13=1,5/36=2,99/5=2) pseudo=read geom=check gue
 ss=(read,tcheck) scf=(maxcycle=1)
 ----------------------------------------------------------------------
 -----
 title
 -----
 Structure from the checkpoint file:  "methylsulfanylbenzene.chk"
 Charge =  0 Multiplicity = 1

                         Standard orientation:
 ---------------------------------------------------------------------
 Center     Atomic      Atomic             Coordinates (Angstroms)
 Number     Number       Type             X           Y           Z
 ---------------------------------------------------------------------
      1          6           0        2.631509    0.344451    0.000050
      2          6           0        1.698472    1.371404   -0.000121
      3          6           0        2.188597   -0.975522    0.000179
      4          6           0        0.334547    1.093914   -0.000188
      5          6           0        0.832934   -1.262341    0.000136
      6          6           0       -0.109855   -0.227934   -0.000068
      7          6           0       -2.721440    0.856894    0.000405
      8         16           0       -1.818130   -0.717138   -0.000261
      9          1           0        3.689808    0.566132    0.000100
     10          1           0        2.026789    2.402640   -0.000214
     11          1           0        2.903178   -1.788083    0.000345
     12          1           0       -0.367984    1.913568   -0.000322
     13          1           0        0.498331   -2.291718    0.000281
     14          1           0       -2.506706    1.440121    0.893802
     15          1           0       -3.774965    0.585558    0.000442
     16          1           0       -2.506952    1.440801   -0.892611
 ---------------------------------------------------------------------

 SCF Done:  E(RHF) =  -668.839729861     A.U. after    2 cycles

 The electronic state is 1-A.
 Alpha  occ. eigenvalues --  -75.68630 -13.15588 -13.11434 -13.01515 -11.51120
 Alpha  occ. eigenvalues --  -11.43971 -11.43117 -11.40924 -11.40695 -11.40221
 Alpha  occ. eigenvalues --  -11.36423  -8.02798  -1.36200  -1.20237  -1.09592
 Alpha  occ. eigenvalues --   -1.07741  -0.95222  -0.86701  -0.82868  -0.71196
 Alpha  occ. eigenvalues --   -0.64036  -0.60878  -0.59468  -0.58050  -0.57799
 Alpha  occ. eigenvalues --   -0.52403  -0.51288  -0.45851  -0.42276  -0.36667
 Alpha  occ. eigenvalues --   -0.36609  -0.33323  -0.21066
 Alpha virt. eigenvalues --    0.03030   0.03813   0.05057   0.05625   0.05940
 Alpha virt. eigenvalues --    0.06238   0.07178   0.09004   0.10015   0.10660
 Alpha virt. eigenvalues --    0.10926   0.11890   0.12898   0.13545   0.13914

 Mulliken charges:
               1
     1  C   -2.824962
     2  C   -1.620239
     3  C   -1.203541
     4  C   -1.044954
     5  C   -3.797678
     6  C    2.238488
     7  C   -5.388238
     8  S    1.151654
     9  H    1.533727
    10  H    1.487762
    11  H    1.515708
    12  H    1.927411
    13  H    1.750057
    14  H    1.556806
    15  H    1.161087
    16  H    1.556911
 Sum of Mulliken charges =  -0.00000

 Dipole moment (field-independent basis, Debye):
    X=             -0.8497    Y=             -0.3373    Z=             -0.0001  Tot=              0.9142

 Test job not archived.
 1\1\GINC-SE212\SP\RHF\Aug-CC-pVDZ\C7H8S1\OHZDE\06-Apr-2025\0\\#t hf au
 g-cc-pvdz iop(5/13=1,5/36=2,99/5=2) pseudo=read geom=check guess=(read
 ,tcheck) scf=(maxcycle=1)\\title\\0,1\C,0,2.631509,0.344451,0.00005\C,
 0,1.698472,1.371404,-0.000121\C,0,2.188597,-0.975522,0.000179\C,0,0.33
 4547,1.093914,-0.000188\C,0,0.832934,-1.262341,0.000136\C,0,-0.109855,
 -0.227934,-0.000068\C,0,-2.72144,0.856894,0.000405\S,0,-1.81813,-0.717
 138,-0.000261\H,0,3.689808,0.566132,0.0001\H,0,2.026789,2.40264,-0.000
 214\H,0,2.903178,-1.788083,0.000345\H,0,-0.367984,1.913568,-0.000322\H

 Normal termination of Gaussian 16 at Sun Apr  6 08:24:50 2025.
