 Gaussian 16, Revision C.01,

 ----------------------------------------------------------------------
 #t hf aug-cc-pvdz symm=none int=(grid=ultrafine) guess=(read,tcheck) s
 table=(opt,rrhf)
 ----------------------------------------------------------------------
 -----
 title
 -----
 Symbolic Z-matrix:
 Charge =  0 Multiplicity = 1

 SCF Done:  E(RHF) =  -928.173926870     A.U. after   14 cycles
 Normal termination of Gaussian 16 at Sun Apr  6 08:20:59 2025.
 Gaussian 16:  ES64L-G16RevC.01  3-Jul-2019

 ----------------------------------------------------------------------
 #t hf aug-cc-pvdz iop(5/13=1,5/36=2,99/5=2) pseudo=read geom=check gue
 ss=(read,tcheck) scf=(maxcycle=1)
 ----------------------------------------------------------------------
 -----
 title
 -----
 Structure from the checkpoint file:  "methylcarbamodithioic_acid.chk"
 Charge =  0 Multiplicity = 1

                         Standard orientation:
 ---------------------------------------------------------------------
 Center     Atomic      Atomic             Coordinates (Angstroms)
 Number     Number       Type             X           Y           Z
 ---------------------------------------------------------------------
      1          6           0        1.860208   -1.388426    0.000000
      2          7           0        1.300486   -0.046394    0.000000
      3          6           0        0.000000    0.288733    0.000000
      4         16           0       -0.535187    1.859700    0.000000
      5         16           0       -1.092712   -1.125087    0.000000
      6          1           0        1.555773   -1.946049    0.887371
      7          1           0        1.555773   -1.946049   -0.887371
      8          1           0        2.943735   -1.305923    0.000000
      9          1           0        1.930390    0.739868    0.000000
     10          1           0       -2.203937   -0.372747    0.000000
 ---------------------------------------------------------------------

 SCF Done:  E(RHF) =  -929.260011784     A.U. after    2 cycles

 The electronic state is 1-A'.
 Alpha  occ. eigenvalues --  -75.72346 -75.63683 -15.79927 -13.17919 -13.15078
 Alpha  occ. eigenvalues --  -13.10700 -13.04240 -12.98212 -12.94695 -11.50291
 Alpha  occ. eigenvalues --  -11.42809  -8.06450  -7.97854  -1.47667  -1.20367
 Alpha  occ. eigenvalues --   -1.09597  -1.00903  -0.82632  -0.66533  -0.64402
 Alpha  occ. eigenvalues --   -0.61279  -0.54667  -0.52247  -0.49693  -0.40601
 Alpha  occ. eigenvalues --   -0.30189  -0.22706  -0.21000
 Alpha virt. eigenvalues --    0.01903   0.04141   0.05392   0.05938   0.06263
 Alpha virt. eigenvalues --    0.07832   0.08660   0.09642   0.11407   0.12861
 Alpha virt. eigenvalues --    0.13638   0.14229   0.14680   0.16693   0.18039

 Mulliken charges:
               1
     1  C   -3.486238
     2  N   -2.728551
     3  C   -0.354565
     4  S    0.854457
     5  S   -0.325392
     6  H    1.416747
     7  H    1.416747
     8  H    1.334767
     9  H    0.724820
    10  H    1.147209
 Sum of Mulliken charges =  -0.00000

 Dipole moment (field-independent basis, Debye):
    X=              1.6986    Y=             -2.6404    Z=             -0.0000  Tot=              3.1396

 Test job not archived.
 1\1\GINC-SE042\SP\RHF\Aug-CC-pVDZ\C2H5N1S2\OHZDE\06-Apr-2025\0\\#t hf
 aug-cc-pvdz iop(5/13=1,5/36=2,99/5=2) pseudo=read geom=check guess=(re
 ad,tcheck) scf=(maxcycle=1)\\title\\0,1\C,0,1.860208,-1.388426,0.\N,0,
 1.300486,-0.046394,0.\C,0,0.,0.288733,0.\S,0,-0.535187,1.8597,0.\S,0,-
 1.092712,-1.125087,0.\H,0,1.555773,-1.946049,0.887371\H,0,1.555773,-1.
 946049,-0.887371\H,0,2.943735,-1.305923,0.\H,0,1.93039,0.739868,0.\H,0
 ,-2.203937,-0.372747,0.\\Version=ES64L-G16RevC.01\State=1-A'\HF=-929.2
 600118\RMSD=1.217e-01\Dipole=0.6682803,-1.0388048,0.\Quadrupole=3.4164

 Normal termination of Gaussian 16 at Sun Apr  6 08:21:43 2025.
