 Gaussian 16, Revision C.01,

 ----------------------------------------------------------------------
 #t hf aug-cc-pvdz symm=none int=(grid=ultrafine) guess=(read,tcheck) s
 table=(opt,rrhf)
 ----------------------------------------------------------------------
 -----
 title
 -----
 Symbolic Z-matrix:
 Charge =  0 Multiplicity = 1

 SCF Done:  E(RHF) =  -797.525575471     A.U. after   14 cycles
 Normal termination of Gaussian 16 at Sun Apr  6 08:20:49 2025.
 Gaussian 16:  ES64L-G16RevC.01  3-Jul-2019

 ----------------------------------------------------------------------
 #t hf aug-cc-pvdz iop(5/13=1,5/36=2,99/5=2) pseudo=read geom=check gue
 ss=(read,tcheck) scf=(maxcycle=1)
 ----------------------------------------------------------------------
 -----
 title
 -----
 Structure from the checkpoint file:  "methionine.chk"
 Charge =  0 Multiplicity = 1

                         Standard orientation:
 ---------------------------------------------------------------------
 Center     Atomic      Atomic             Coordinates (Angstroms)
 Number     Number       Type             X           Y           Z
 ---------------------------------------------------------------------
      1          7           0        1.383360   -1.709403   -0.280672
      2          6           0        0.902676   -0.326707   -0.137165
      3          6           0        2.097848    0.644277   -0.084187
      4          8           0        1.986464    1.809740    0.191438
      5          8           0        3.270321    0.085065   -0.408810
      6          1           0        3.067922   -0.861838   -0.574079
      7          6           0       -0.045437   -0.081707    1.039348
      8          6           0       -1.394296   -0.791390    0.929264
      9         16           0       -2.401897   -0.377571   -0.542342
     10          6           0       -2.782880    1.376943   -0.230855
     11          1           0        0.370857   -0.069835   -1.056761
     12          1           0        0.441708   -0.411029    1.964287
     13          1           0       -0.185549    0.993103    1.140986
     14          1           0       -1.266805   -1.872991    0.865831
     15          1           0       -1.989980   -0.594509    1.821028
     16          1           0       -3.454759    1.689893   -1.027050
     17          1           0       -3.289548    1.495435    0.725679
     18          1           0       -1.889992    1.996927   -0.261114
     19          1           0        1.404146   -2.198452    0.605725
     20          1           0        0.817076   -2.246682   -0.921820
 ---------------------------------------------------------------------

 SCF Done:  E(RHF) =  -799.592044487     A.U. after    2 cycles

 The electronic state is 1-A.
 Alpha  occ. eigenvalues --  -75.68184 -21.10284 -21.03836 -15.76907 -13.13345
 Alpha  occ. eigenvalues --  -13.09430 -13.05809 -11.52485 -11.47084 -11.44417
 Alpha  occ. eigenvalues --  -11.40048 -11.39213  -8.02210  -1.81418  -1.64618
 Alpha  occ. eigenvalues --   -1.38617  -1.25044  -1.13454  -1.03289  -0.94755
 Alpha  occ. eigenvalues --   -0.85120  -0.77471  -0.72692  -0.69390  -0.63685
 Alpha  occ. eigenvalues --   -0.62225  -0.59904  -0.59330  -0.57053  -0.56258
 Alpha  occ. eigenvalues --   -0.52882  -0.49361  -0.48365  -0.43951  -0.43148
 Alpha  occ. eigenvalues --   -0.39741  -0.36395  -0.32383  -0.28185  -0.23229
 Alpha virt. eigenvalues --    0.03095   0.03256   0.04340   0.05013   0.05184
 Alpha virt. eigenvalues --    0.05525   0.07312   0.07615   0.07950   0.08064
 Alpha virt. eigenvalues --    0.09259   0.10273   0.11616   0.11701   0.12283

 Mulliken charges:
               1
     1  N   -2.639345
     2  C   -1.912923
     3  C    6.714707
     4  O   -3.357508
     5  O   -3.210694
     6  H    1.124575
     7  C   -2.241812
     8  C   -3.793711
     9  S    0.821296
    10  C   -4.877731
    11  H    2.089639
    12  H    1.235396
    13  H    1.732940
    14  H    1.569910
    15  H    1.313240
    16  H    1.369691
    17  H    1.389019
    18  H    1.570753
    19  H    0.587911
    20  H    0.514645
 Sum of Mulliken charges =  -0.00000

 Dipole moment (field-independent basis, Debye):
    X=             -2.3067    Y=             -3.0533    Z=             -0.2538  Tot=              3.8351

 Test job not archived.
 1\1\GINC-SE107\SP\RHF\Aug-CC-pVDZ\C5H11N1O2S1\OHZDE\06-Apr-2025\0\\#t
 hf aug-cc-pvdz iop(5/13=1,5/36=2,99/5=2) pseudo=read geom=check guess=
 (read,tcheck) scf=(maxcycle=1)\\title\\0,1\N,0,1.38336,-1.709403,-0.28
 0672\C,0,0.902676,-0.326707,-0.137165\C,0,2.097848,0.644277,-0.084187\
 O,0,1.986464,1.80974,0.191438\O,0,3.270321,0.085065,-0.40881\H,0,3.067
 922,-0.861838,-0.574079\C,0,-0.045437,-0.081707,1.039348\C,0,-1.394296
 ,-0.79139,0.929264\S,0,-2.401897,-0.377571,-0.542342\C,0,-2.78288,1.37
 6943,-0.230855\H,0,0.370857,-0.069835,-1.056761\H,0,0.441708,-0.411029

 Normal termination of Gaussian 16 at Sun Apr  6 08:21:00 2025.
