 Gaussian 16, Revision C.01,

 ----------------------------------------------------------------------
 #t hf aug-cc-pvdz symm=none int=(grid=ultrafine) guess=(read,tcheck) s
 table=(opt,rrhf)
 ----------------------------------------------------------------------
 -----
 title
 -----
 Symbolic Z-matrix:
 Charge =  0 Multiplicity = 1

 SCF Done:  E(RHF) =  -149.110392815     A.U. after   13 cycles
 Normal termination of Gaussian 16 at Sun Apr  6 08:19:05 2025.
 Gaussian 16:  ES64L-G16RevC.01  3-Jul-2019

 ----------------------------------------------------------------------
 #t hf aug-cc-pvdz iop(5/13=1,5/36=2,99/5=2) pseudo=read geom=check gue
 ss=(read,tcheck) scf=(maxcycle=1)
 ----------------------------------------------------------------------
 -----
 title
 -----
 Structure from the checkpoint file:  "methanimidamide.chk"
 Charge =  0 Multiplicity = 1

                         Standard orientation:
 ---------------------------------------------------------------------
 Center     Atomic      Atomic             Coordinates (Angstroms)
 Number     Number       Type             X           Y           Z
 ---------------------------------------------------------------------
      1          6           0       -0.122869    0.390343   -0.000727
      2          7           0        1.132778   -0.147911   -0.053004
      3          7           0       -1.171312   -0.329822    0.010738
      4          1           0       -0.118022    1.483848   -0.004688
      5          1           0        1.919698    0.417616    0.206986
      6          1           0        1.214009   -1.140910    0.095135
      7          1           0       -2.008734    0.241521    0.002787
 ---------------------------------------------------------------------

 SCF Done:  E(RHF) =  -149.806027521     A.U. after    2 cycles

 The electronic state is 1-A.
 Alpha  occ. eigenvalues --  -15.76771 -15.71012 -11.43974  -1.41572  -1.22921
 Alpha  occ. eigenvalues --   -0.84903  -0.73497  -0.61060  -0.57675  -0.50752
 Alpha  occ. eigenvalues --   -0.38387  -0.32355
 Alpha virt. eigenvalues --    0.03505   0.04996   0.06006   0.07205   0.11139
 Alpha virt. eigenvalues --    0.12398   0.14269   0.15596   0.16964   0.18086
 Alpha virt. eigenvalues --    0.18854   0.20433   0.21428   0.22961   0.25302

 Mulliken charges:
               1
     1  C    1.691349
     2  N   -2.535024
     3  N   -2.681282
     4  H    1.562420
     5  H    0.666614
     6  H    0.609795
     7  H    0.686129
 Sum of Mulliken charges =  -0.00000

 Dipole moment (field-independent basis, Debye):
    X=              1.9226    Y=              1.6301    Z=              0.5156  Tot=              2.5728

 Test job not archived.
 1\1\GINC-SE084\SP\RHF\Aug-CC-pVDZ\C1H4N2\OHZDE\06-Apr-2025\0\\#t hf au
 g-cc-pvdz iop(5/13=1,5/36=2,99/5=2) pseudo=read geom=check guess=(read
 ,tcheck) scf=(maxcycle=1)\\title\\0,1\C,0,-0.122869,0.390343,-0.000727
 \N,0,1.132778,-0.147911,-0.053004\N,0,-1.171312,-0.329822,0.010738\H,0
 ,-0.118022,1.483848,-0.004688\H,0,1.919698,0.417616,0.206986\H,0,1.214
 009,-1.14091,0.095135\H,0,-2.008734,0.241521,0.002787\\Version=ES64L-G
 16RevC.01\State=1-A\HF=-149.8060275\RMSD=5.141e-02\Dipole=0.7563998,0.
 641324,0.2028498\Quadrupole=1.6924448,0.3989669,-2.0914116,-1.8314068,

 Normal termination of Gaussian 16 at Sun Apr  6 08:19:16 2025.
