 Gaussian 16, Revision C.01,

 ----------------------------------------------------------------------
 #t hf aug-cc-pvdz symm=none int=(grid=ultrafine) guess=(read,tcheck) s
 table=(opt,rrhf)
 ----------------------------------------------------------------------
 -----
 title
 -----
 Symbolic Z-matrix:
 Charge =  0 Multiplicity = 1

 SCF Done:  E(RHF) =  -358.607910763     A.U. after   14 cycles
 Normal termination of Gaussian 16 at Sun Apr  6 08:19:17 2025.
 Gaussian 16:  ES64L-G16RevC.01  3-Jul-2019

 ----------------------------------------------------------------------
 #t hf aug-cc-pvdz iop(5/13=1,5/36=2,99/5=2) pseudo=read geom=check gue
 ss=(read,tcheck) scf=(maxcycle=1)
 ----------------------------------------------------------------------
 -----
 title
 -----
 Structure from the checkpoint file:  "methyl-2-cyanoacetate.chk"
 Charge =  0 Multiplicity = 1

                         Standard orientation:
 ---------------------------------------------------------------------
 Center     Atomic      Atomic             Coordinates (Angstroms)
 Number     Number       Type             X           Y           Z
 ---------------------------------------------------------------------
      1          6           0       -0.309417   -2.118342    0.000000
      2          6           0        0.000000    0.358652    0.000000
      3          6           0        0.510900    2.662545    0.000000
      4          6           0        0.648260   -1.022919    0.000000
      5          7           0       -1.032586   -3.010338    0.000000
      6          8           0       -1.177335    0.583268    0.000000
      7          8           0        0.963845    1.293027    0.000000
      8          1           0        1.413065    3.264947    0.000000
      9          1           0       -0.085784    2.861008    0.887616
     10          1           0       -0.085784    2.861008   -0.887616
     11          1           0        1.298036   -1.102285    0.873564
     12          1           0        1.298036   -1.102285   -0.873564
 ---------------------------------------------------------------------

 SCF Done:  E(RHF) =  -360.168337923     A.U. after    2 cycles

 The electronic state is 1-A'.
 Alpha  occ. eigenvalues --  -21.11690 -21.07656 -15.76641 -11.55831 -11.48514
 Alpha  occ. eigenvalues --  -11.43724 -11.43336  -1.86868  -1.68980  -1.32511
 Alpha  occ. eigenvalues --   -1.17545  -1.03575  -0.81088  -0.71268  -0.70419
 Alpha  occ. eigenvalues --   -0.68701  -0.63516  -0.58475  -0.57323  -0.51882
 Alpha  occ. eigenvalues --   -0.51630  -0.45947  -0.44016  -0.43167  -0.34746
 Alpha  occ. eigenvalues --   -0.32393
 Alpha virt. eigenvalues --    0.02537   0.04303   0.05040   0.05700   0.06522
 Alpha virt. eigenvalues --    0.08652   0.09295   0.11033   0.11499   0.11890
 Alpha virt. eigenvalues --    0.12758   0.13851   0.14166   0.14487   0.15579

 Mulliken charges:
               1
     1  C    2.599176
     2  C    6.018128
     3  C   -3.044620
     4  C   -3.914352
     5  N   -2.549863
     6  O   -2.942864
     7  O   -3.180203
     8  H    1.399034
     9  H    1.293042
    10  H    1.293042
    11  H    1.514740
    12  H    1.514740
 Sum of Mulliken charges =   0.00000

 Dipole moment (field-independent basis, Debye):
    X=              3.1357    Y=              3.5863    Z=              0.0000  Tot=              4.7638

 Test job not archived.
 1\1\GINC-SE249\SP\RHF\Aug-CC-pVDZ\C4H5N1O2\OHZDE\06-Apr-2025\0\\#t hf
 aug-cc-pvdz iop(5/13=1,5/36=2,99/5=2) pseudo=read geom=check guess=(re
 ad,tcheck) scf=(maxcycle=1)\\title\\0,1\C,0,-0.309415,-2.118342,0.\C,0
 ,0.,0.358652,0.\C,0,0.510898,2.662545,0.\C,0,0.648261,-1.022919,0.\N,0
 ,-1.032584,-3.010339,0.\O,0,-1.177335,0.583267,0.\O,0,0.963844,1.29302
 7,0.\H,0,1.413063,3.264948,0.\H,0,-0.085786,2.861008,0.887616\H,0,-0.0
 85786,2.861008,-0.887616\H,0,1.298037,-1.102284,0.873564\H,0,1.298037,
 -1.102284,-0.873564\\Version=ES64L-G16RevC.01\State=1-A'\HF=-360.16833

 Normal termination of Gaussian 16 at Sun Apr  6 08:20:50 2025.
