 Gaussian 16, Revision C.01,

 ----------------------------------------------------------------------
 #t hf aug-cc-pvdz symm=none int=(grid=ultrafine) guess=(read,tcheck) s
 table=(opt,rrhf)
 ----------------------------------------------------------------------
 -----
 title
 -----
 Symbolic Z-matrix:
 Charge =  0 Multiplicity = 1

 SCF Done:  E(RHF) =  -501.106320345     A.U. after   13 cycles

 1\1\GINC-SE028\Stability\RHF\Aug-CC-pVDZ\C9H18O2\OHZDE\06-Apr-2025\0\\
 #t hf aug-cc-pvdz symm=none int=(grid=ultrafine) guess=(read,tcheck) s
 table=(opt,rrhf)\\title\\0,1\C,0,-3.009194,0.13272,0.000067\C,0,5.9492
 2,-0.256907,0.000078\C,0,-5.35896,-0.13098,-0.000089\C,0,-1.695422,-0.
 613559,0.000091\C,0,4.63791,0.526987,-0.000135\C,0,-0.471203,0.2955,-0
 .000112\C,0,3.398027,-0.367925,0.000074\C,0,0.841821,-0.487584,0.00007
 2\C,0,2.080878,0.408235,-0.000139\O,0,-3.143099,1.330753,0.000219\O,0,
 -4.051638,-0.727268,-0.00012\H,0,6.025429,-0.898227,-0.880487\H,0,6.02

 Normal termination of Gaussian 16 at Sun Apr  6 08:25:53 2025.
 Gaussian 16:  ES64L-G16RevC.01  3-Jul-2019

 ----------------------------------------------------------------------
 #t hf aug-cc-pvdz iop(5/13=1,5/36=2,99/5=2) pseudo=read geom=check gue
 ss=(read,tcheck) scf=(maxcycle=1)
 ----------------------------------------------------------------------
 -----
 title
 -----
 Structure from the checkpoint file:  "methyl_octanoate.chk"
 Charge =  0 Multiplicity = 1

                         Standard orientation:
 ---------------------------------------------------------------------
 Center     Atomic      Atomic             Coordinates (Angstroms)
 Number     Number       Type             X           Y           Z
 ---------------------------------------------------------------------
      1          6           0       -3.009194    0.132720    0.000067
      2          6           0        5.949220   -0.256907    0.000078
      3          6           0       -5.358960   -0.130980   -0.000089
      4          6           0       -1.695422   -0.613559    0.000091
      5          6           0        4.637910    0.526987   -0.000135
      6          6           0       -0.471203    0.295500   -0.000112
      7          6           0        3.398027   -0.367925    0.000074
      8          6           0        0.841821   -0.487584    0.000072
      9          6           0        2.080878    0.408235   -0.000139
     10          8           0       -3.143099    1.330753    0.000219
     11          8           0       -4.051638   -0.727268   -0.000120
     12          1           0        6.025429   -0.898227   -0.880487
     13          1           0        6.025395   -0.897805    0.880953
     14          1           0        6.812866    0.409515   -0.000065
     15          1           0       -6.058778   -0.960891   -0.000238
     16          1           0       -5.497418    0.485846   -0.886256
     17          1           0       -5.497491    0.485592    0.886244
     18          1           0       -1.693478   -1.276884   -0.869154
     19          1           0       -1.693380   -1.276583    0.869569
     20          1           0        4.606452    1.184753    0.873644
     21          1           0        4.606474    1.184314   -0.874245
     22          1           0       -0.510948    0.953181    0.870826
     23          1           0       -0.510932    0.952783   -0.871354
     24          1           0        3.430023   -1.026718   -0.874390
     25          1           0        3.430000   -1.026275    0.874873
     26          1           0        0.873319   -1.146380   -0.874384
     27          1           0        0.873315   -1.145960    0.874844
     28          1           0        2.049304    1.066245   -0.874663
     29          1           0        2.049281    1.066686    0.874053
 ---------------------------------------------------------------------

 SCF Done:  E(RHF) =  -503.514831517     A.U. after    2 cycles

 The electronic state is 1-A.
 Alpha  occ. eigenvalues --  -21.08608 -21.04392 -11.52480 -11.43689 -11.42637
 Alpha  occ. eigenvalues --  -11.41647 -11.41205 -11.39719 -11.37349 -11.35856
 Alpha  occ. eigenvalues --  -11.33997  -1.83728  -1.65601  -1.28439  -1.20022
 Alpha  occ. eigenvalues --   -1.10732  -1.03300  -0.98448  -0.90566  -0.83698
 Alpha  occ. eigenvalues --   -0.82013  -0.74524  -0.67492  -0.67124  -0.64762
 Alpha  occ. eigenvalues --   -0.62091  -0.59532  -0.58886  -0.57768  -0.56031
 Alpha  occ. eigenvalues --   -0.54296  -0.54173  -0.50029  -0.49691  -0.48939
 Alpha  occ. eigenvalues --   -0.46600  -0.45496  -0.45341  -0.44901  -0.44315
 Alpha  occ. eigenvalues --   -0.41768  -0.37874  -0.31964  -0.29144
 Alpha virt. eigenvalues --    0.03828   0.04513   0.04583   0.05163   0.05819
 Alpha virt. eigenvalues --    0.05885   0.05947   0.06184   0.06614   0.06697
 Alpha virt. eigenvalues --    0.07274   0.07473   0.08021   0.08889   0.09050

 Mulliken charges:
               1
     1  C    7.004747
     2  C   -4.733718
     3  C   -3.259799
     4  C   -5.014972
     5  C   -3.587269
     6  C   -2.650733
     7  C   -2.800427
     8  C   -2.255881
     9  C   -2.805007
    10  O   -3.124530
    11  O   -3.539795
    12  H    1.347817
    13  H    1.347815
    14  H    1.078807
    15  H    1.480919
    16  H    1.334493
    17  H    1.334432
    18  H    1.559342
    19  H    1.559423
    20  H    1.495498
    21  H    1.495512
    22  H    1.620675
    23  H    1.620473
    24  H    1.629218
    25  H    1.629234
    26  H    1.530373
    27  H    1.530272
    28  H    1.586511
    29  H    1.586571
 Sum of Mulliken charges =   0.00000

 Dipole moment (field-independent basis, Debye):
    X=             -0.2092    Y=             -0.9617    Z=             -0.0002  Tot=              0.9842

 Test job not archived.
 1\1\GINC-SE028\SP\RHF\Aug-CC-pVDZ\C9H18O2\OHZDE\06-Apr-2025\0\\#t hf a
 ug-cc-pvdz iop(5/13=1,5/36=2,99/5=2) pseudo=read geom=check guess=(rea
 d,tcheck) scf=(maxcycle=1)\\title\\0,1\C,0,-3.009194,0.13272,0.000067\
 C,0,5.94922,-0.256907,0.000078\C,0,-5.35896,-0.13098,-0.000089\C,0,-1.
 695422,-0.613559,0.000091\C,0,4.63791,0.526987,-0.000135\C,0,-0.471203
 ,0.2955,-0.000112\C,0,3.398027,-0.367925,0.000074\C,0,0.841821,-0.4875
 84,0.000072\C,0,2.080878,0.408235,-0.000139\O,0,-3.143099,1.330753,0.0
 00219\O,0,-4.051638,-0.727268,-0.00012\H,0,6.025429,-0.898227,-0.88048

 Normal termination of Gaussian 16 at Sun Apr  6 08:26:45 2025.
