 Gaussian 16, Revision C.01,

 ----------------------------------------------------------------------
 #t hf aug-cc-pvdz symm=none int=(grid=ultrafine) guess=(read,tcheck) s
 table=(opt,rrhf)
 ----------------------------------------------------------------------
 -----
 title
 -----
 Symbolic Z-matrix:
 Charge =  0 Multiplicity = 1

 SCF Done:  E(RHF) =  -725.789048226     A.U. after   13 cycles
 Normal termination of Gaussian 16 at Sun Apr  6 08:19:14 2025.
 Gaussian 16:  ES64L-G16RevC.01  3-Jul-2019

 ----------------------------------------------------------------------
 #t hf aug-cc-pvdz iop(5/13=1,5/36=2,99/5=2) pseudo=read geom=check gue
 ss=(read,tcheck) scf=(maxcycle=1)
 ----------------------------------------------------------------------
 -----
 title
 -----
 Structure from the checkpoint file:  "methyl-2-chloroacetate.chk"
 Charge =  0 Multiplicity = 1

                         Standard orientation:
 ---------------------------------------------------------------------
 Center     Atomic      Atomic             Coordinates (Angstroms)
 Number     Number       Type             X           Y           Z
 ---------------------------------------------------------------------
      1          6           0        0.000000    0.466246    0.000000
      2          6           0       -0.565796    2.760319    0.000000
      3          6           0       -0.633002   -0.915121    0.000000
      4          8           0        1.170077    0.724321    0.000000
      5          8           0       -0.987371    1.382600    0.000000
      6         17           0        0.569256   -2.233268    0.000000
      7          1           0        0.026697    2.973494    0.887304
      8          1           0       -1.480709    3.343662    0.000000
      9          1           0        0.026697    2.973494   -0.887304
     10          1           0       -1.259449   -1.024561   -0.881342
     11          1           0       -1.259449   -1.024561    0.881342
 ---------------------------------------------------------------------

 SCF Done:  E(RHF) =  -727.195507630     A.U. after    2 cycles

 The electronic state is 1-A'.
 Alpha  occ. eigenvalues --  -99.88888 -21.10606 -21.06491 -11.53869 -11.45629
 Alpha  occ. eigenvalues --  -11.42710 -10.46178  -9.66103  -9.65291  -9.65217
 Alpha  occ. eigenvalues --   -1.85724  -1.67809  -1.33939  -1.10233  -1.00212
 Alpha  occ. eigenvalues --   -0.78126  -0.69960  -0.68714  -0.63597  -0.63129
 Alpha  occ. eigenvalues --   -0.57237  -0.55231  -0.51778  -0.48925  -0.47547
 Alpha  occ. eigenvalues --   -0.43474  -0.33768  -0.31406
 Alpha virt. eigenvalues --    0.02962   0.04471   0.05352   0.06013   0.06858
 Alpha virt. eigenvalues --    0.07480   0.09020   0.10981   0.12749   0.13071
 Alpha virt. eigenvalues --    0.13794   0.14267   0.15239   0.15660   0.17194

 Mulliken charges:
               1
     1  C    6.094875
     2  C   -2.974534
     3  C   -4.535575
     4  O   -2.873061
     5  O   -3.164864
     6  Cl   0.199902
     7  H    1.290908
     8  H    1.355545
     9  H    1.290908
    10  H    1.657949
    11  H    1.657949
 Sum of Mulliken charges =  -0.00000

 Dipole moment (field-independent basis, Debye):
    X=             -2.2504    Y=              2.3055    Z=              0.0000  Tot=              3.2218

 Test job not archived.
 1\1\GINC-SE168\SP\RHF\Aug-CC-pVDZ\C3H5Cl1O2\OHZDE\06-Apr-2025\0\\#t hf
  aug-cc-pvdz iop(5/13=1,5/36=2,99/5=2) pseudo=read geom=check guess=(r
 ead,tcheck) scf=(maxcycle=1)\\title\\0,1\C,0,0.,0.466246,0.\C,0,-0.565
 797,2.760319,0.\C,0,-0.633002,-0.915121,0.\O,0,1.170077,0.724321,0.\O,
 0,-0.987371,1.3826,0.\Cl,0,0.569257,-2.233268,0.\H,0,0.026696,2.973494
 ,0.887304\H,0,-1.48071,3.343662,0.\H,0,0.026696,2.973494,-0.887304\H,0
 ,-1.259449,-1.024561,-0.881342\H,0,-1.259449,-1.024561,0.881342\\Versi
 on=ES64L-G16RevC.01\State=1-A'\HF=-727.1955076\RMSD=1.611e-01\Dipole=-

 Normal termination of Gaussian 16 at Sun Apr  6 08:19:19 2025.
