 Gaussian 16, Revision C.01,

 ----------------------------------------------------------------------
 #t hf aug-cc-pvdz symm=none int=(grid=ultrafine) guess=(read,tcheck) s
 table=(opt,rrhf)
 ----------------------------------------------------------------------
 -----
 title
 -----
 Symbolic Z-matrix:
 Charge =  0 Multiplicity = 1

 SCF Done:  E(RHF) =  -354.402222982     A.U. after   15 cycles
 Normal termination of Gaussian 16 at Sun Apr  6 08:23:46 2025.
 Gaussian 16:  ES64L-G16RevC.01  3-Jul-2019

 ----------------------------------------------------------------------
 #t hf aug-cc-pvdz iop(5/13=1,5/36=2,99/5=2) pseudo=read geom=check gue
 ss=(read,tcheck) scf=(maxcycle=1)
 ----------------------------------------------------------------------
 -----
 title
 -----
 Structure from the checkpoint file:  "methyliminomethylenemalononitrile.chk"
 Charge =  0 Multiplicity = 1

                         Standard orientation:
 ---------------------------------------------------------------------
 Center     Atomic      Atomic             Coordinates (Angstroms)
 Number     Number       Type             X           Y           Z
 ---------------------------------------------------------------------
      1          7           0        1.861945    0.000000   -0.456084
      2          7           0       -1.883795   -2.246172    0.097385
      3          7           0       -1.883789    2.246175    0.097385
      4          6           0       -0.633316   -0.000000   -0.061156
      5          6           0        0.702935   -0.000000   -0.213424
      6          6           0       -1.327965   -1.238667    0.025608
      7          6           0       -1.327962    1.238668    0.025608
      8          6           0        3.099732   -0.000002    0.296584
      9          1           0        3.669604    0.881017    0.009638
     10          1           0        3.669563   -0.881067    0.009698
     11          1           0        2.919761    0.000038    1.370540
 ---------------------------------------------------------------------

 SCF Done:  E(RHF) =  -355.979756012     A.U. after    2 cycles

 The electronic state is 1-A.
 Alpha  occ. eigenvalues --  -15.84554 -15.77518 -15.77499 -11.57198 -11.51871
 Alpha  occ. eigenvalues --  -11.46829 -11.46083 -11.45272  -1.48740  -1.36106
 Alpha  occ. eigenvalues --   -1.30464  -1.20327  -1.08900  -0.84058  -0.81946
 Alpha  occ. eigenvalues --   -0.72007  -0.67847  -0.66657  -0.59014  -0.54902
 Alpha  occ. eigenvalues --   -0.54674  -0.50459  -0.49170  -0.47042  -0.46700
 Alpha  occ. eigenvalues --   -0.45180  -0.32937
 Alpha virt. eigenvalues --    0.00898   0.04629   0.04790   0.05631   0.08130
 Alpha virt. eigenvalues --    0.09575   0.09806   0.10409   0.10617   0.10925
 Alpha virt. eigenvalues --    0.11524   0.12244   0.12326   0.13101   0.13605

 Mulliken charges:
               1
     1  N   -3.116667
     2  N   -2.339737
     3  N   -2.339741
     4  C    1.547537
     5  C    3.213253
     6  C    1.203401
     7  C    1.203412
     8  C   -3.518751
     9  H    1.412813
    10  H    1.412816
    11  H    1.321664
 Sum of Mulliken charges =   0.00000

 Dipole moment (field-independent basis, Debye):
    X=              7.1026    Y=             -0.0000    Z=              0.4345  Tot=              7.1159

 Test job not archived.
 1\1\GINC-SE101\SP\RHF\Aug-CC-pVDZ\C5H3N3\OHZDE\06-Apr-2025\0\\#t hf au
 g-cc-pvdz iop(5/13=1,5/36=2,99/5=2) pseudo=read geom=check guess=(read
 ,tcheck) scf=(maxcycle=1)\\title\\0,1\N,0,1.861945,0.,-0.456084\N,0,-1
 .883795,-2.246172,0.097385\N,0,-1.883789,2.246175,0.097385\C,0,-0.6333
 16,0.,-0.061156\C,0,0.702935,0.,-0.213424\C,0,-1.327965,-1.238667,0.02
 5608\C,0,-1.327962,1.238668,0.025608\C,0,3.099732,-0.000002,0.296584\H
 ,0,3.669604,0.881017,0.009638\H,0,3.669563,-0.881067,0.009698\H,0,2.91
 9761,0.000038,1.37054\\Version=ES64L-G16RevC.01\State=1-A\HF=-355.9797

 Normal termination of Gaussian 16 at Sun Apr  6 08:23:51 2025.
