 Gaussian 16, Revision C.01,

 ----------------------------------------------------------------------
 #t hf aug-cc-pvdz symm=none int=(grid=ultrafine) guess=(read,tcheck) s
 table=(opt,rrhf)
 ----------------------------------------------------------------------
 -----
 title
 -----
 Symbolic Z-matrix:
 Charge =  0 Multiplicity = 1

 SCF Done:  E(RHF) =  -284.901809934     A.U. after   14 cycles
 Normal termination of Gaussian 16 at Sun Apr  6 08:17:50 2025.
 Gaussian 16:  ES64L-G16RevC.01  3-Jul-2019

 ----------------------------------------------------------------------
 #t hf aug-cc-pvdz iop(5/13=1,5/36=2,99/5=2) pseudo=read geom=check gue
 ss=(read,tcheck) scf=(maxcycle=1)
 ----------------------------------------------------------------------
 -----
 title
 -----
 Structure from the checkpoint file:  "methacrylamide.chk"
 Charge =  0 Multiplicity = 1

                         Standard orientation:
 ---------------------------------------------------------------------
 Center     Atomic      Atomic             Coordinates (Angstroms)
 Number     Number       Type             X           Y           Z
 ---------------------------------------------------------------------
      1          7           0       -1.672206    0.735432    0.281233
      2          1           0       -2.635471    0.448331    0.316740
      3          1           0       -1.408035    1.582616    0.748896
      4          6           0        1.669363   -0.902956    0.274192
      5          1           0        1.491299   -1.339113    1.259311
      6          1           0        1.537891   -1.708491   -0.448267
      7          1           0        2.695543   -0.542835    0.230507
      8          6           0        1.067908    1.453999   -0.283116
      9          1           0        0.354906    2.225169   -0.540582
     10          1           0        2.112388    1.736805   -0.297815
     11          6           0       -0.747453   -0.216273   -0.042278
     12          8           0       -1.070845   -1.348227   -0.361502
     13          6           0        0.697462    0.204449   -0.006366
 ---------------------------------------------------------------------

 SCF Done:  E(RHF) =  -286.216063579     A.U. after    2 cycles

 The electronic state is 1-A.
 Alpha  occ. eigenvalues --  -21.02389 -15.77730 -11.50440 -11.43121 -11.40040
 Alpha  occ. eigenvalues --  -11.37325  -1.70462  -1.35158  -1.21553  -1.00899
 Alpha  occ. eigenvalues --   -0.90169  -0.75490  -0.71405  -0.64131  -0.60817
 Alpha  occ. eigenvalues --   -0.58082  -0.53475  -0.52495  -0.49007  -0.47130
 Alpha  occ. eigenvalues --   -0.36275  -0.32380  -0.28611
 Alpha virt. eigenvalues --    0.03189   0.04852   0.05470   0.05793   0.06524
 Alpha virt. eigenvalues --    0.06988   0.07774   0.09622   0.10720   0.11972
 Alpha virt. eigenvalues --    0.12818   0.14184   0.14793   0.15420   0.15987

 Mulliken charges:
               1
     1  N   -3.071267
     2  H    0.790917
     3  H    0.722452
     4  C   -4.744326
     5  H    1.158107
     6  H    1.180872
     7  H    1.316174
     8  C   -3.546960
     9  H    1.571320
    10  H    1.566361
    11  C    4.810876
    12  O   -3.367323
    13  C    1.612797
 Sum of Mulliken charges =   0.00000

 Dipole moment (field-independent basis, Debye):
    X=              0.1766    Y=              1.9763    Z=              0.9621  Tot=              2.2052

 Test job not archived.
 1\1\GINC-SE044\SP\RHF\Aug-CC-pVDZ\C4H7N1O1\OHZDE\06-Apr-2025\0\\#t hf
 aug-cc-pvdz iop(5/13=1,5/36=2,99/5=2) pseudo=read geom=check guess=(re
 ad,tcheck) scf=(maxcycle=1)\\title\\0,1\N,0,-1.672206,0.735432,0.28123
 3\H,0,-2.635471,0.448331,0.31674\H,0,-1.408035,1.582616,0.748896\C,0,1
 .669363,-0.902956,0.274192\H,0,1.491299,-1.339113,1.259311\H,0,1.53789
 1,-1.708491,-0.448267\H,0,2.695543,-0.542835,0.230507\C,0,1.067908,1.4
 53999,-0.283116\H,0,0.354906,2.225169,-0.540582\H,0,2.112388,1.736805,
 -0.297815\C,0,-0.747453,-0.216273,-0.042278\O,0,-1.070845,-1.348227,-0

 Normal termination of Gaussian 16 at Sun Apr  6 08:19:04 2025.
