 Gaussian 16, Revision C.01,

 ----------------------------------------------------------------------
 #t hf aug-cc-pvdz symm=none int=(grid=ultrafine) guess=(read,tcheck) s
 table=(opt,rrhf)
 ----------------------------------------------------------------------
 -----
 title
 -----
 Symbolic Z-matrix:
 Charge =  0 Multiplicity = 1

 SCF Done:  E(RHF) =  -304.720867890     A.U. after   14 cycles
 Normal termination of Gaussian 16 at Sun Apr  6 08:21:40 2025.
 Gaussian 16:  ES64L-G16RevC.01  3-Jul-2019

 ----------------------------------------------------------------------
 #t hf aug-cc-pvdz iop(5/13=1,5/36=2,99/5=2) pseudo=read geom=check gue
 ss=(read,tcheck) scf=(maxcycle=1)
 ----------------------------------------------------------------------
 -----
 title
 -----
 Structure from the checkpoint file:  "methylester-2-propenoicacid.chk"
 Charge =  0 Multiplicity = 1

                         Standard orientation:
 ---------------------------------------------------------------------
 Center     Atomic      Atomic             Coordinates (Angstroms)
 Number     Number       Type             X           Y           Z
 ---------------------------------------------------------------------
      1          1           0        2.527151   -1.893202    0.000000
      2          1           0        2.462309   -0.342026    0.886291
      3          1           0        2.462309   -0.342026   -0.886291
      4          6           0        2.133453   -0.881674    0.000000
      5          8           0        0.704180   -1.022573    0.000000
      6          8           0        0.512477    1.224123    0.000000
      7          6           0        0.000000    0.130493    0.000000
      8          1           0       -1.752519   -1.187538    0.000000
      9          6           0       -1.456302   -0.147599    0.000000
     10          1           0       -3.407145    0.640282    0.000000
     11          1           0       -2.020477    1.871182    0.000000
     12          6           0       -2.344631    0.838934    0.000000
 ---------------------------------------------------------------------

 SCF Done:  E(RHF) =  -306.066843640     A.U. after    2 cycles

 The electronic state is 1-A'.
 Alpha  occ. eigenvalues --  -21.09088 -21.04370 -11.52395 -11.43394 -11.41487
 Alpha  occ. eigenvalues --  -11.39595  -1.84055  -1.65777  -1.18386  -1.02972
 Alpha  occ. eigenvalues --   -0.88774  -0.74095  -0.69344  -0.63209  -0.62608
 Alpha  occ. eigenvalues --   -0.57632  -0.53092  -0.52644  -0.51322  -0.42009
 Alpha  occ. eigenvalues --   -0.36878  -0.31910  -0.29727
 Alpha virt. eigenvalues --    0.03280   0.04958   0.05729   0.06158   0.06813
 Alpha virt. eigenvalues --    0.06902   0.08616   0.10538   0.12250   0.13415
 Alpha virt. eigenvalues --    0.13698   0.14430   0.14569   0.14936   0.16146

 Mulliken charges:
               1
     1  H    1.339953
     2  H    1.335101
     3  H    1.335101
     4  C   -2.977487
     5  O   -3.366638
     6  O   -3.262300
     7  C    5.756843
     8  H    1.583771
     9  C   -2.000999
    10  H    1.391049
    11  H    1.480757
    12  C   -2.615151
 Sum of Mulliken charges =  -0.00000

 Dipole moment (field-independent basis, Debye):
    X=             -0.2934    Y=             -1.0427    Z=              0.0000  Tot=              1.0832

 Test job not archived.
 1\1\GINC-SE046\SP\RHF\Aug-CC-pVDZ\C4H6O2\OHZDE\06-Apr-2025\0\\#t hf au
 g-cc-pvdz iop(5/13=1,5/36=2,99/5=2) pseudo=read geom=check guess=(read
 ,tcheck) scf=(maxcycle=1)\\title\\0,1\H,0,2.52715,-1.893203,0.\H,0,2.4
 62309,-0.342027,0.886291\H,0,2.462309,-0.342027,-0.886291\C,0,2.133452
 ,-0.881675,0.\O,0,0.704179,-1.022573,0.\O,0,0.512478,1.224123,0.\C,0,0
 .,0.130493,0.\H,0,-1.75252,-1.187537,0.\C,0,-1.456302,-0.147598,0.\H,0
 ,-3.407145,0.640284,0.\H,0,-2.020476,1.871183,0.\C,0,-2.344631,0.83893
 5,0.\\Version=ES64L-G16RevC.01\State=1-A'\HF=-306.0668436\RMSD=3.982e-

 Normal termination of Gaussian 16 at Sun Apr  6 08:22:03 2025.
