 Gaussian 16, Revision C.01,

 ----------------------------------------------------------------------
 #t hf aug-cc-pvdz symm=none int=(grid=ultrafine) guess=(read,tcheck) s
 table=(opt,rrhf)
 ----------------------------------------------------------------------
 -----
 title
 -----
 Symbolic Z-matrix:
 Charge =  0 Multiplicity = 1

 SCF Done:  E(RHF) =  -286.039209891     A.U. after   12 cycles
 Normal termination of Gaussian 16 at Sun Apr  6 08:25:14 2025.
 Gaussian 16:  ES64L-G16RevC.01  3-Jul-2019

 ----------------------------------------------------------------------
 #t hf aug-cc-pvdz iop(5/13=1,5/36=2,99/5=2) pseudo=read geom=check gue
 ss=(read,tcheck) scf=(maxcycle=1)
 ----------------------------------------------------------------------
 -----
 title
 -----
 Structure from the checkpoint file:  "morpholine.chk"
 Charge =  0 Multiplicity = 1

                         Standard orientation:
 ---------------------------------------------------------------------
 Center     Atomic      Atomic             Coordinates (Angstroms)
 Number     Number       Type             X           Y           Z
 ---------------------------------------------------------------------
      1          6           0       -0.005439    0.742948    1.206807
      2          6           0       -0.005439    0.742948   -1.206807
      3          6           0       -0.005439   -0.778359    1.177882
      4          6           0       -0.005439   -0.778359   -1.177882
      5          7           0        0.657361    1.234334    0.000000
      6          8           0       -0.635671   -1.270842    0.000000
      7          1           0       -1.046564    1.092682    1.289352
      8          1           0        0.540160    1.092900    2.084922
      9          1           0        0.540160    1.092900   -2.084922
     10          1           0       -1.046564    1.092682   -1.289352
     11          1           0        1.027148   -1.146672    1.227425
     12          1           0       -0.566071   -1.185206    2.018469
     13          1           0       -0.566071   -1.185206   -2.018469
     14          1           0        1.027148   -1.146672   -1.227425
     15          1           0        0.705027    2.243917    0.000000
 ---------------------------------------------------------------------

 SCF Done:  E(RHF) =  -287.388317225     A.U. after    2 cycles

 The electronic state is 1-A'.
 Alpha  occ. eigenvalues --  -21.03346 -15.71502 -11.48278 -11.42559 -11.37914
 Alpha  occ. eigenvalues --  -11.37028  -1.74823  -1.37686  -1.13501  -0.98556
 Alpha  occ. eigenvalues --   -0.91700  -0.79709  -0.71284  -0.63655  -0.63369
 Alpha  occ. eigenvalues --   -0.58354  -0.55104  -0.52946  -0.52734  -0.48753
 Alpha  occ. eigenvalues --   -0.43897  -0.36217  -0.33135  -0.28337
 Alpha virt. eigenvalues --    0.04138   0.05218   0.05483   0.05720   0.05755
 Alpha virt. eigenvalues --    0.06142   0.06654   0.07430   0.09238   0.10913
 Alpha virt. eigenvalues --    0.12614   0.12986   0.14207   0.14463   0.14839

 Mulliken charges:
               1
     1  C   -2.229294
     2  C   -2.229294
     3  C   -1.177001
     4  C   -1.177001
     5  N   -2.028215
     6  O   -2.951881
     7  H    1.447891
     8  H    1.350750
     9  H    1.350750
    10  H    1.447891
    11  H    1.510845
    12  H    1.274957
    13  H    1.274957
    14  H    1.510845
    15  H    0.623802
 Sum of Mulliken charges =   0.00000

 Dipole moment (field-independent basis, Debye):
    X=             -0.1770    Y=              0.9006    Z=             -0.0000  Tot=              0.9178

 Test job not archived.
 1\1\GINC-SE009\SP\RHF\Aug-CC-pVDZ\C4H9N1O1\OHZDE\06-Apr-2025\0\\#t hf
 aug-cc-pvdz iop(5/13=1,5/36=2,99/5=2) pseudo=read geom=check guess=(re
 ad,tcheck) scf=(maxcycle=1)\\title\\0,1\C,0,-0.005439,0.742948,1.20680
 7\C,0,-0.005439,0.742948,-1.206807\C,0,-0.005439,-0.778359,1.177882\C,
 0,-0.005439,-0.778359,-1.177882\N,0,0.657361,1.234334,0.\O,0,-0.635671
 ,-1.270842,0.\H,0,-1.046564,1.092682,1.289352\H,0,0.54016,1.0929,2.084
 922\H,0,0.54016,1.0929,-2.084922\H,0,-1.046564,1.092682,-1.289352\H,0,
 1.027148,-1.146672,1.227425\H,0,-0.566071,-1.185206,2.018469\H,0,-0.56

 Normal termination of Gaussian 16 at Sun Apr  6 08:25:36 2025.
