 Gaussian 16, Revision C.01,

 ----------------------------------------------------------------------
 #t hf aug-cc-pvdz symm=none int=(grid=ultrafine) guess=(read,tcheck) s
 table=(opt,rrhf)
 ----------------------------------------------------------------------
 -----
 title
 -----
 Symbolic Z-matrix:
 Charge =  0 Multiplicity = 1

 SCF Done:  E(RHF) =  -299.574094801     A.U. after   15 cycles
 Normal termination of Gaussian 16 at Sun Apr  6 08:07:30 2025.
 Gaussian 16:  ES64L-G16RevC.01  3-Jul-2019

 ----------------------------------------------------------------------
 #t hf aug-cc-pvdz iop(5/13=1,5/36=2,99/5=2) pseudo=read geom=check gue
 ss=(read,tcheck) scf=(maxcycle=1)
 ----------------------------------------------------------------------
 -----
 title
 -----
 Structure from the checkpoint file:  "N--ethynoxymethanimidamide.chk"
 Charge =  0 Multiplicity = 1

                         Standard orientation:
 ---------------------------------------------------------------------
 Center     Atomic      Atomic             Coordinates (Angstroms)
 Number     Number       Type             X           Y           Z
 ---------------------------------------------------------------------
      1          8           0       -0.689613    0.644791   -0.033712
      2          7           0        0.397947   -0.341322   -0.020979
      3          7           0        2.699526   -0.326539   -0.051220
      4          6           0        1.495578    0.309910    0.018594
      5          6           0       -1.853711    0.076390   -0.000732
      6          6           0       -2.964471   -0.373779    0.028776
      7          1           0        3.498737    0.148468    0.328845
      8          1           0        2.698373   -1.329150    0.048330
      9          1           0        1.518689    1.394723    0.066269
     10          1           0       -3.945580   -0.772460    0.051811
 ---------------------------------------------------------------------

 SCF Done:  E(RHF) =  -300.896010019     A.U. after    2 cycles

 The electronic state is 1-A.
 Alpha  occ. eigenvalues --  -21.11837 -15.80018 -15.77935 -11.47395 -11.44044
 Alpha  occ. eigenvalues --  -11.37770  -1.83813  -1.43326  -1.22746  -1.04526
 Alpha  occ. eigenvalues --   -0.87275  -0.76523  -0.70311  -0.66411  -0.61609
 Alpha  occ. eigenvalues --   -0.58503  -0.56834  -0.49886  -0.41513  -0.38115
 Alpha  occ. eigenvalues --   -0.33689  -0.25728
 Alpha virt. eigenvalues --    0.02815   0.04674   0.05089   0.06351   0.09797
 Alpha virt. eigenvalues --    0.10295   0.11237   0.13177   0.13974   0.14291
 Alpha virt. eigenvalues --    0.14711   0.15173   0.15278   0.16064   0.16476

 Mulliken charges:
               1
     1  O   -3.195378
     2  N   -1.042153
     3  N   -2.667005
     4  C    1.792223
     5  C    2.702955
     6  C   -1.401115
     7  H    0.650712
     8  H    0.649807
     9  H    1.878169
    10  H    0.631785
 Sum of Mulliken charges =   0.00000

 Dipole moment (field-independent basis, Debye):
    X=              3.9893    Y=              0.6247    Z=              0.6985  Tot=              4.0979

 Test job not archived.
 1\1\GINC-SE273\SP\RHF\Aug-CC-pVDZ\C3H4N2O1\OHZDE\06-Apr-2025\0\\#t hf
 aug-cc-pvdz iop(5/13=1,5/36=2,99/5=2) pseudo=read geom=check guess=(re
 ad,tcheck) scf=(maxcycle=1)\\title\\0,1\O,0,-0.689613,0.644791,-0.0337
 12\N,0,0.397947,-0.341322,-0.020979\N,0,2.699526,-0.326539,-0.05122\C,
 0,1.495578,0.30991,0.018594\C,0,-1.853711,0.07639,-0.000732\C,0,-2.964
 471,-0.373779,0.028776\H,0,3.498737,0.148468,0.328845\H,0,2.698373,-1.
 32915,0.04833\H,0,1.518689,1.394723,0.066269\H,0,-3.94558,-0.77246,0.0
 51811\\Version=ES64L-G16RevC.01\State=1-A\HF=-300.89601\RMSD=4.981e-01

 Normal termination of Gaussian 16 at Sun Apr  6 08:07:34 2025.
