 Gaussian 16, Revision C.01,

 ----------------------------------------------------------------------
 #t hf aug-cc-pvdz symm=none int=(grid=ultrafine) guess=(read,tcheck) s
 table=(opt,rrhf)
 ----------------------------------------------------------------------
 -----
 title
 -----
 Symbolic Z-matrix:
 Charge =  0 Multiplicity = 1

 SCF Done:  E(RHF) =  -262.989913464     A.U. after   13 cycles
 Normal termination of Gaussian 16 at Sun Apr  6 08:07:28 2025.
 Gaussian 16:  ES64L-G16RevC.01  3-Jul-2019

 ----------------------------------------------------------------------
 #t hf aug-cc-pvdz iop(5/13=1,5/36=2,99/5=2) pseudo=read geom=check gue
 ss=(read,tcheck) scf=(maxcycle=1)
 ----------------------------------------------------------------------
 -----
 title
 -----
 Structure from the checkpoint file:  "N--methylformic_hydrazide.chk"
 Charge =  0 Multiplicity = 1

                         Standard orientation:
 ---------------------------------------------------------------------
 Center     Atomic      Atomic             Coordinates (Angstroms)
 Number     Number       Type             X           Y           Z
 ---------------------------------------------------------------------
      1          6           0       -1.389634    0.299814   -0.198766
      2          6           0        1.952053   -0.334792   -0.368307
      3          7           0       -0.126016    0.752446    0.062428
      4          7           0        0.873407   -0.070871    0.575294
      5          8           0       -1.831251   -0.798313    0.032910
      6          1           0       -1.989676    1.107143   -0.659469
      7          1           0        2.420897    0.574948   -0.769208
      8          1           0        1.565322   -0.922739   -1.199271
      9          1           0        2.715072   -0.922090    0.141351
     10          1           0        0.119098    1.672856   -0.284035
     11          1           0        1.213038    0.315233    1.445736
 ---------------------------------------------------------------------

 SCF Done:  E(RHF) =  -264.182568621     A.U. after    2 cycles

 The electronic state is 1-A.
 Alpha  occ. eigenvalues --  -21.02805 -15.78381 -15.75989 -11.48225 -11.39423
 Alpha  occ. eigenvalues --   -1.69885  -1.50712  -1.21535  -0.97613  -0.82980
 Alpha  occ. eigenvalues --   -0.75012  -0.67179  -0.61729  -0.58460  -0.53679
 Alpha  occ. eigenvalues --   -0.50282  -0.49935  -0.36703  -0.31839  -0.28923
 Alpha virt. eigenvalues --    0.03082   0.04554   0.05283   0.05564   0.06972
 Alpha virt. eigenvalues --    0.07232   0.10832   0.11751   0.13273   0.14028
 Alpha virt. eigenvalues --    0.14149   0.15352   0.16385   0.17009   0.18683

 Mulliken charges:
               1
     1  C    2.247040
     2  C   -3.125226
     3  N   -1.492955
     4  N   -1.800228
     5  O   -2.662423
     6  H    1.464215
     7  H    1.274506
     8  H    1.344776
     9  H    1.262912
    10  H    0.798571
    11  H    0.688812
 Sum of Mulliken charges =   0.00000

 Dipole moment (field-independent basis, Debye):
    X=              2.4910    Y=              2.1656    Z=             -0.1619  Tot=              3.3047

 Test job not archived.
 1\1\GINC-SE273\SP\RHF\Aug-CC-pVDZ\C2H6N2O1\OHZDE\06-Apr-2025\0\\#t hf
 aug-cc-pvdz iop(5/13=1,5/36=2,99/5=2) pseudo=read geom=check guess=(re
 ad,tcheck) scf=(maxcycle=1)\\title\\0,1\C,0,-1.389634,0.299814,-0.1987
 66\C,0,1.952053,-0.334792,-0.368307\N,0,-0.126016,0.752446,0.062428\N,
 0,0.873407,-0.070871,0.575294\O,0,-1.831251,-0.798313,0.03291\H,0,-1.9
 89676,1.107143,-0.659469\H,0,2.420897,0.574948,-0.769208\H,0,1.565322,
 -0.922739,-1.199271\H,0,2.715072,-0.92209,0.141351\H,0,0.119098,1.6728
 56,-0.284035\H,0,1.213038,0.315233,1.445736\\Version=ES64L-G16RevC.01\

 Normal termination of Gaussian 16 at Sun Apr  6 08:07:32 2025.
