 Gaussian 16, Revision C.01,

 ----------------------------------------------------------------------
 #t hf aug-cc-pvdz symm=none int=(grid=ultrafine) guess=(read,tcheck) s
 table=(opt,rrhf)
 ----------------------------------------------------------------------
 -----
 title
 -----
 Symbolic Z-matrix:
 Charge =  0 Multiplicity = 1

 SCF Done:  E(RHF) =  -323.938800866     A.U. after   14 cycles
 Normal termination of Gaussian 16 at Sun Apr  6 08:08:01 2025.
 Gaussian 16:  ES64L-G16RevC.01  3-Jul-2019

 ----------------------------------------------------------------------
 #t hf aug-cc-pvdz iop(5/13=1,5/36=2,99/5=2) pseudo=read geom=check gue
 ss=(read,tcheck) scf=(maxcycle=1)
 ----------------------------------------------------------------------
 -----
 title
 -----
 Structure from the checkpoint file:  "N-1E-1-propen-1-ylacetamide.chk"
 Charge =  0 Multiplicity = 1

                         Standard orientation:
 ---------------------------------------------------------------------
 Center     Atomic      Atomic             Coordinates (Angstroms)
 Number     Number       Type             X           Y           Z
 ---------------------------------------------------------------------
      1          6           0       -1.936874   -0.817158    0.000000
      2          6           0       -0.619074   -0.628886    0.000000
      3          6           0        1.363850    0.795633    0.000000
      4          6           0       -2.590378   -2.163353    0.000000
      5          6           0        1.836552    2.234079    0.000000
      6          7           0        0.000000    0.623665    0.000000
      7          8           0        2.140869   -0.141131    0.000000
      8          1           0       -2.595791    0.047326    0.000000
      9          1           0        0.088707   -1.445676    0.000000
     10          1           0       -3.229377   -2.296211    0.877032
     11          1           0       -3.229377   -2.296211   -0.877032
     12          1           0       -1.850634   -2.963831    0.000000
     13          1           0        2.460883    2.395109   -0.878171
     14          1           0        2.460883    2.395109    0.878171
     15          1           0        1.027080    2.963093    0.000000
     16          1           0       -0.583780    1.442786    0.000000
 ---------------------------------------------------------------------

 SCF Done:  E(RHF) =  -325.453700271     A.U. after    2 cycles

 The electronic state is 1-A'.
 Alpha  occ. eigenvalues --  -21.02339 -15.77765 -11.50723 -11.45218 -11.39877
 Alpha  occ. eigenvalues --  -11.39350 -11.36723  -1.70681  -1.41519  -1.18334
 Alpha  occ. eigenvalues --   -1.09825  -0.98028  -0.82224  -0.80483  -0.67355
 Alpha  occ. eigenvalues --   -0.64426  -0.61672  -0.56837  -0.56602  -0.56594
 Alpha  occ. eigenvalues --   -0.52091  -0.49906  -0.49108  -0.47966  -0.38981
 Alpha  occ. eigenvalues --   -0.28914  -0.27495
 Alpha virt. eigenvalues --    0.03214   0.04356   0.04966   0.06112   0.06237
 Alpha virt. eigenvalues --    0.06868   0.07140   0.07999   0.08333   0.10383
 Alpha virt. eigenvalues --    0.11874   0.12186   0.12611   0.12832   0.13957

 Mulliken charges:
               1
     1  C   -0.759895
     2  C    0.064893
     3  C    5.187092
     4  C   -4.552814
     5  C   -4.782903
     6  N   -3.393998
     7  O   -3.346828
     8  H    1.555626
     9  H    1.723771
    10  H    1.201060
    11  H    1.201060
    12  H    1.251881
    13  H    1.252699
    14  H    1.252699
    15  H    1.447126
    16  H    0.698532
 Sum of Mulliken charges =   0.00000

 Dipole moment (field-independent basis, Debye):
    X=             -1.5723    Y=              1.6509    Z=             -0.0000  Tot=              2.2798

 Test job not archived.
 1\1\GINC-SE398\SP\RHF\Aug-CC-pVDZ\C5H9N1O1\OHZDE\06-Apr-2025\0\\#t hf
 aug-cc-pvdz iop(5/13=1,5/36=2,99/5=2) pseudo=read geom=check guess=(re
 ad,tcheck) scf=(maxcycle=1)\\title\\0,1\C,0,-1.936874,-0.817158,0.\C,0
 ,-0.619074,-0.628886,0.\C,0,1.36385,0.795633,0.\C,0,-2.590379,-2.16335
 2,0.\C,0,1.836552,2.234079,0.\N,0,0.,0.623665,0.\O,0,2.140869,-0.14113
 1,0.\H,0,-2.595791,0.047327,0.\H,0,0.088707,-1.445676,0.\H,0,-3.229378
 ,-2.29621,0.877032\H,0,-3.229378,-2.29621,-0.877032\H,0,-1.850635,-2.9
 63831,0.\H,0,2.460883,2.395108,-0.878171\H,0,2.460883,2.395108,0.87817

 Normal termination of Gaussian 16 at Sun Apr  6 08:08:06 2025.
