 Gaussian 16, Revision C.01,

 ----------------------------------------------------------------------
 #t hf aug-cc-pvdz symm=none int=(grid=ultrafine) guess=(read,tcheck) s
 table=(opt,rrhf)
 ----------------------------------------------------------------------
 -----
 title
 -----
 Symbolic Z-matrix:
 Charge =  0 Multiplicity = 1

 SCF Done:  E(RHF) =  -453.574309933     A.U. after   15 cycles
 Normal termination of Gaussian 16 at Sun Apr  6 08:08:38 2025.
 Gaussian 16:  ES64L-G16RevC.01  3-Jul-2019

 ----------------------------------------------------------------------
 #t hf aug-cc-pvdz iop(5/13=1,5/36=2,99/5=2) pseudo=read geom=check gue
 ss=(read,tcheck) scf=(maxcycle=1)
 ----------------------------------------------------------------------
 -----
 title
 -----
 Structure from the checkpoint file:  "N-4-pyridinylacetamide.chk"
 Charge =  0 Multiplicity = 1

                         Standard orientation:
 ---------------------------------------------------------------------
 Center     Atomic      Atomic             Coordinates (Angstroms)
 Number     Number       Type             X           Y           Z
 ---------------------------------------------------------------------
      1          6           0        1.276347   -0.143704    0.000000
      2          6           0       -0.094534    1.815947    0.000000
      3          6           0        2.368941    0.714696    0.000000
      4          6           0        1.065879    2.570549    0.000000
      5          6           0       -0.000000    0.420948    0.000000
      6          6           0       -1.364098   -1.686589    0.000000
      7          6           0       -2.811083   -2.138228    0.000000
      8          7           0        2.292696    2.045547    0.000000
      9          7           0       -1.189731   -0.317431    0.000000
     10          8           0       -0.446472   -2.481401    0.000000
     11          1           0        1.408310   -1.211468    0.000000
     12          1           0       -1.059712    2.307235    0.000000
     13          1           0        3.368384    0.294912    0.000000
     14          1           0        1.004291    3.652813    0.000000
     15          1           0       -2.977485   -2.760972    0.878119
     16          1           0       -2.977485   -2.760972   -0.878119
     17          1           0       -3.532976   -1.322843    0.000000
     18          1           0       -2.031016    0.233980    0.000000
 ---------------------------------------------------------------------

 SCF Done:  E(RHF) =  -455.653900194     A.U. after    2 cycles

 The electronic state is 1-A'.
 Alpha  occ. eigenvalues --  -21.04102 -15.79767 -15.72878 -11.52775 -11.51384
 Alpha  occ. eigenvalues --  -11.45754 -11.45085 -11.42005 -11.40632 -11.38099
 Alpha  occ. eigenvalues --   -1.72477  -1.47948  -1.39665  -1.18009  -1.11626
 Alpha  occ. eigenvalues --   -1.09416  -0.91225  -0.89954  -0.80649  -0.73911
 Alpha  occ. eigenvalues --   -0.67103  -0.66528  -0.63196  -0.61081  -0.59725
 Alpha  occ. eigenvalues --   -0.58467  -0.56682  -0.54406  -0.51071  -0.49737
 Alpha  occ. eigenvalues --   -0.47287  -0.40349  -0.36607  -0.34370  -0.30185
 Alpha  occ. eigenvalues --   -0.29656
 Alpha virt. eigenvalues --    0.02612   0.04239   0.04742   0.05990   0.06125
 Alpha virt. eigenvalues --    0.06495   0.07646   0.08136   0.09999   0.10409
 Alpha virt. eigenvalues --    0.11211   0.11381   0.11749   0.12198   0.12937

 Mulliken charges:
               1
     1  C   -0.324111
     2  C   -1.811524
     3  C   -1.727789
     4  C   -1.152442
     5  C    4.594034
     6  C    5.408393
     7  C   -5.084758
     8  N   -3.453995
     9  N   -4.325859
    10  O   -3.567669
    11  H    1.852736
    12  H    1.676004
    13  H    1.511570
    14  H    1.532929
    15  H    1.264934
    16  H    1.264934
    17  H    1.480901
    18  H    0.861712
 Sum of Mulliken charges =   0.00000

 Dipole moment (field-independent basis, Debye):
    X=             -3.5042    Y=             -0.1276    Z=              0.0000  Tot=              3.5065

 Test job not archived.
 1\1\GINC-SE398\SP\RHF\Aug-CC-pVDZ\C7H8N2O1\OHZDE\06-Apr-2025\0\\#t hf
 aug-cc-pvdz iop(5/13=1,5/36=2,99/5=2) pseudo=read geom=check guess=(re
 ad,tcheck) scf=(maxcycle=1)\\title\\0,1\C,0,1.276347,-0.143704,0.\C,0,
 -0.094534,1.815947,0.\C,0,2.368941,0.714696,0.\C,0,1.065879,2.570549,0
 .\C,0,0.,0.420948,0.\C,0,-1.364098,-1.686589,0.\C,0,-2.811083,-2.13822
 8,0.\N,0,2.292696,2.045547,0.\N,0,-1.189731,-0.317431,0.\O,0,-0.446472
 ,-2.481401,0.\H,0,1.40831,-1.211468,0.\H,0,-1.059712,2.307235,0.\H,0,3
 .368384,0.294912,0.\H,0,1.004291,3.652813,0.\H,0,-2.977485,-2.760972,0

 Normal termination of Gaussian 16 at Sun Apr  6 08:08:46 2025.
