 Gaussian 16, Revision C.01,

 ----------------------------------------------------------------------
 #t hf aug-cc-pvdz symm=none int=(grid=ultrafine) guess=(read,tcheck) s
 table=(opt,rrhf)
 ----------------------------------------------------------------------
 -----
 title
 -----
 Symbolic Z-matrix:
 Charge =  0 Multiplicity = 1

 SCF Done:  E(RHF) =  -359.801244630     A.U. after   13 cycles
 Normal termination of Gaussian 16 at Sun Apr  6 08:08:20 2025.
 Gaussian 16:  ES64L-G16RevC.01  3-Jul-2019

 ----------------------------------------------------------------------
 #t hf aug-cc-pvdz iop(5/13=1,5/36=2,99/5=2) pseudo=read geom=check gue
 ss=(read,tcheck) scf=(maxcycle=1)
 ----------------------------------------------------------------------
 -----
 title
 -----
 Structure from the checkpoint file:  "N-acetylacetamide.chk"
 Charge =  0 Multiplicity = 1

                         Standard orientation:
 ---------------------------------------------------------------------
 Center     Atomic      Atomic             Coordinates (Angstroms)
 Number     Number       Type             X           Y           Z
 ---------------------------------------------------------------------
      1          6           0        0.000000    1.265036   -0.119107
      2          6           0       -0.000000   -1.265036   -0.119107
      3          6           0        0.000000    2.401004    0.887119
      4          6           0       -0.000000   -2.401004    0.887119
      5          7           0       -0.000000   -0.000000    0.490686
      6          8           0        0.000000    1.434626   -1.309734
      7          8           0       -0.000000   -1.434626   -1.309734
      8          1           0        0.000000    3.342860    0.347946
      9          1           0       -0.882484    2.352586    1.527823
     10          1           0        0.882484    2.352586    1.527823
     11          1           0       -0.882484   -2.352586    1.527823
     12          1           0        0.882484   -2.352586    1.527823
     13          1           0       -0.000000   -3.342860    0.347946
     14          1           0       -0.000000   -0.000000    1.497619
 ---------------------------------------------------------------------

 SCF Done:  E(RHF) =  -361.400808991     A.U. after    2 cycles

 The electronic state is 1-A1.
 Alpha  occ. eigenvalues --  -21.04379 -21.04368 -15.78870 -11.51852 -11.51828
 Alpha  occ. eigenvalues --  -11.40479 -11.40064  -1.73293  -1.70281  -1.40144
 Alpha  occ. eigenvalues --   -1.13750  -1.08643  -0.87706  -0.76775  -0.68969
 Alpha  occ. eigenvalues --   -0.64216  -0.63328  -0.60721  -0.58907  -0.54633
 Alpha  occ. eigenvalues --   -0.52751  -0.50507  -0.48704  -0.42893  -0.32876
 Alpha  occ. eigenvalues --   -0.32867  -0.26156
 Alpha virt. eigenvalues --    0.02440   0.04167   0.04876   0.05240   0.06239
 Alpha virt. eigenvalues --    0.06754   0.07457   0.08695   0.10563   0.12155
 Alpha virt. eigenvalues --    0.12422   0.13484   0.13557   0.14067   0.15582

 Mulliken charges:
               1
     1  C    4.972501
     2  C    4.972501
     3  C   -4.456571
     4  C   -4.456571
     5  N   -3.176687
     6  O   -3.151254
     7  O   -3.151254
     8  H    1.169031
     9  H    1.295794
    10  H    1.295794
    11  H    1.295794
    12  H    1.295794
    13  H    1.169031
    14  H    0.926099
 Sum of Mulliken charges =  -0.00000

 Dipole moment (field-independent basis, Debye):
    X=              0.0000    Y=             -0.0000    Z=              3.3576  Tot=              3.3576

 Test job not archived.
 1\1\GINC-SE009\SP\RHF\Aug-CC-pVDZ\C4H7N1O2\OHZDE\06-Apr-2025\0\\#t hf
 aug-cc-pvdz iop(5/13=1,5/36=2,99/5=2) pseudo=read geom=check guess=(re
 ad,tcheck) scf=(maxcycle=1)\\title\\0,1\C,0,0.,1.265036,-0.119107\C,0,
 0.,-1.265036,-0.119107\C,0,0.,2.401004,0.887119\C,0,0.,-2.401004,0.887
 119\N,0,0.,0.,0.490686\O,0,0.,1.434626,-1.309734\O,0,0.,-1.434626,-1.3
 09734\H,0,0.,3.34286,0.347946\H,0,-0.882484,2.352586,1.527823\H,0,0.88
 2484,2.352586,1.527823\H,0,-0.882484,-2.352586,1.527823\H,0,0.882484,-
 2.352586,1.527823\H,0,0.,-3.34286,0.347946\H,0,0.,0.,1.497619\\Version

 Normal termination of Gaussian 16 at Sun Apr  6 08:08:24 2025.
