 Gaussian 16, Revision C.01,

 ----------------------------------------------------------------------
 #t hf aug-cc-pvdz symm=none int=(grid=ultrafine) guess=(read,tcheck) s
 table=(opt,rrhf)
 ----------------------------------------------------------------------
 -----
 title
 -----
 Symbolic Z-matrix:
 Charge =  0 Multiplicity = 1

 SCF Done:  E(RHF) =  -677.306485142     A.U. after   16 cycles
 Normal termination of Gaussian 16 at Sun Apr  6 08:08:11 2025.
 Gaussian 16:  ES64L-G16RevC.01  3-Jul-2019

 ----------------------------------------------------------------------
 #t hf aug-cc-pvdz iop(5/13=1,5/36=2,99/5=2) pseudo=read geom=check gue
 ss=(read,tcheck) scf=(maxcycle=1)
 ----------------------------------------------------------------------
 -----
 title
 -----
 Structure from the checkpoint file:  "N-azido-2-3-dihydro-1-2-thiazole.chk"
 Charge =  0 Multiplicity = 1

                         Standard orientation:
 ---------------------------------------------------------------------
 Center     Atomic      Atomic             Coordinates (Angstroms)
 Number     Number       Type             X           Y           Z
 ---------------------------------------------------------------------
      1         16           0        0.865517   -1.220324    0.000033
      2          7           0       -0.472803   -0.109850    0.001005
      3          7           0       -1.693397   -0.595410   -0.000089
      4          7           0       -2.596092    0.285480   -0.000471
      5          6           0       -0.129116    1.320148    0.000374
      6          6           0        1.958652    0.149745   -0.000464
      7          6           0        1.366917    1.340992   -0.000208
      8          1           0       -3.475838   -0.230300   -0.001183
      9          1           0       -0.574130    1.802666   -0.877164
     10          1           0       -0.573436    1.803341    0.877870
     11          1           0        3.018570   -0.049441   -0.000901
     12          1           0        1.913894    2.272063   -0.000472
 ---------------------------------------------------------------------

 SCF Done:  E(RHF) =  -678.826373125     A.U. after    2 cycles

 The electronic state is 1-A.
 Alpha  occ. eigenvalues --  -75.73008 -15.83246 -15.77494 -15.75660 -13.21971
 Alpha  occ. eigenvalues --  -13.16767 -13.05363 -11.46728 -11.44254 -11.39737
 Alpha  occ. eigenvalues --   -8.07187  -1.63359  -1.39971  -1.19569  -1.13109
 Alpha  occ. eigenvalues --   -0.98914  -0.82349  -0.80471  -0.70190  -0.66873
 Alpha  occ. eigenvalues --   -0.65845  -0.59006  -0.54179  -0.52478  -0.47903
 Alpha  occ. eigenvalues --   -0.43822  -0.42378  -0.36258  -0.35803  -0.20237
 Alpha virt. eigenvalues --    0.02847   0.04609   0.05361   0.06496   0.06733
 Alpha virt. eigenvalues --    0.07486   0.09705   0.11220   0.11706   0.12418
 Alpha virt. eigenvalues --    0.13555   0.14351   0.14396   0.14586   0.15564

 Mulliken charges:
               1
     1  S    1.198196
     2  N   -0.236933
     3  N   -0.165334
     4  N   -1.367039
     5  C   -2.670379
     6  C   -2.125478
     7  C   -1.058406
     8  H    0.803209
     9  H    1.399403
    10  H    1.399355
    11  H    1.410405
    12  H    1.413000
 Sum of Mulliken charges =  -0.00000

 Dipole moment (field-independent basis, Debye):
    X=              1.8436    Y=             -0.8828    Z=             -0.0005  Tot=              2.0440

 Test job not archived.
 1\1\GINC-SE010\SP\RHF\Aug-CC-pVDZ\C3H5N3S1\OHZDE\06-Apr-2025\0\\#t hf
 aug-cc-pvdz iop(5/13=1,5/36=2,99/5=2) pseudo=read geom=check guess=(re
 ad,tcheck) scf=(maxcycle=1)\\title\\0,1\S,0,0.865517,-1.220324,0.00003
 3\N,0,-0.472803,-0.10985,0.001005\N,0,-1.693397,-0.59541,-0.000089\N,0
 ,-2.596092,0.285481,-0.000471\C,0,-0.129116,1.320148,0.000374\C,0,1.95
 8652,0.149745,-0.000464\C,0,1.366917,1.340992,-0.000208\H,0,-3.475838,
 -0.230299,-0.001183\H,0,-0.57413,1.802666,-0.877164\H,0,-0.573436,1.80
 3341,0.87787\H,0,3.01857,-0.049442,-0.000901\H,0,1.913895,2.272063,-0.

 Normal termination of Gaussian 16 at Sun Apr  6 08:08:16 2025.
