 Gaussian 16, Revision C.01,

 ----------------------------------------------------------------------
 #t hf aug-cc-pvdz symm=none int=(grid=ultrafine) guess=(read,tcheck) s
 table=(opt,rrhf)
 ----------------------------------------------------------------------
 -----
 title
 -----
 Symbolic Z-matrix:
 Charge =  0 Multiplicity = 1

 SCF Done:  E(RHF) =  -1178.32919937     A.U. after   15 cycles
 Normal termination of Gaussian 16 at Sun Apr  6 08:08:39 2025.
 Gaussian 16:  ES64L-G16RevC.01  3-Jul-2019

 ----------------------------------------------------------------------
 #t hf aug-cc-pvdz iop(5/13=1,5/36=2,99/5=2) pseudo=read geom=check gue
 ss=(read,tcheck) scf=(maxcycle=1)
 ----------------------------------------------------------------------
 -----
 title
 -----
 Structure from the checkpoint file:  "N-chlorocysteine.chk"
 Charge =  0 Multiplicity = 1

                         Standard orientation:
 ---------------------------------------------------------------------
 Center     Atomic      Atomic             Coordinates (Angstroms)
 Number     Number       Type             X           Y           Z
 ---------------------------------------------------------------------
      1         17           0        1.560711    1.893407   -0.220108
      2         16           0       -2.790812    0.329751   -0.047708
      3          8           0        1.341983   -2.035398   -1.015709
      4          8           0        1.598920   -1.268082    1.083308
      5          7           0        0.161310    1.041443    0.439465
      6          6           0       -0.069935   -0.213443   -0.269978
      7          6           0        1.035385   -1.265596   -0.146657
      8          6           0       -1.382089   -0.820778    0.246351
      9          1           0       -3.701568   -0.633058   -0.277035
     10          1           0        2.276249   -1.960533    1.095104
     11          1           0        0.436799    0.846291    1.397865
     12          1           0       -0.173273    0.009303   -1.329322
     13          1           0       -1.303752   -1.040723    1.310335
     14          1           0       -1.570111   -1.748572   -0.287123
 ---------------------------------------------------------------------

 SCF Done:  E(RHF) =  -1180.20435101     A.U. after    2 cycles

 The electronic state is 1-A.
 Alpha  occ. eigenvalues --  -99.91377 -75.69852 -21.14364 -21.07572 -15.80410
 Alpha  occ. eigenvalues --  -13.15832 -13.09473 -13.03092 -11.55117 -11.48080
 Alpha  occ. eigenvalues --  -11.42739 -10.48500  -9.68432  -9.67556  -9.67485
 Alpha  occ. eigenvalues --   -8.03667  -1.84954  -1.67746  -1.47420  -1.27536
 Alpha  occ. eigenvalues --   -1.16428  -1.05448  -0.92781  -0.83994  -0.70143
 Alpha  occ. eigenvalues --   -0.69335  -0.65345  -0.61663  -0.60885  -0.58108
 Alpha  occ. eigenvalues --   -0.55496  -0.52772  -0.52373  -0.48913  -0.46589
 Alpha  occ. eigenvalues --   -0.42210  -0.39844  -0.36083  -0.30471  -0.24956
 Alpha virt. eigenvalues --    0.02718   0.04429   0.04759   0.05327   0.05734
 Alpha virt. eigenvalues --    0.06198   0.06679   0.09005   0.10080   0.10861
 Alpha virt. eigenvalues --    0.11849   0.13066   0.13703   0.14076   0.15248

 Mulliken charges:
               1
     1  Cl   0.284608
     2  S   -0.621208
     3  O   -3.365709
     4  O   -3.213670
     5  N   -1.905973
     6  C   -1.514664
     7  C    7.047942
     8  C   -3.660204
     9  H    1.034736
    10  H    0.927486
    11  H    0.639813
    12  H    1.614792
    13  H    1.543520
    14  H    1.188532
 Sum of Mulliken charges =  -0.00000

 Dipole moment (field-independent basis, Debye):
    X=             -0.5501    Y=             -0.3856    Z=              1.9852  Tot=              2.0958

 Test job not archived.
 1\1\GINC-SE047\SP\RHF\Aug-CC-pVDZ\C3H6Cl1N1O2S1\OHZDE\06-Apr-2025\0\\#
 t hf aug-cc-pvdz iop(5/13=1,5/36=2,99/5=2) pseudo=read geom=check gues
 s=(read,tcheck) scf=(maxcycle=1)\\title\\0,1\Cl,0,1.560711,1.893407,-0
 .220108\S,0,-2.790812,0.329751,-0.047708\O,0,1.341983,-2.035398,-1.015
 709\O,0,1.59892,-1.268082,1.083308\N,0,0.16131,1.041443,0.439465\C,0,-
 0.069935,-0.213443,-0.269978\C,0,1.035385,-1.265596,-0.146657\C,0,-1.3
 82089,-0.820778,0.246351\H,0,-3.701568,-0.633058,-0.277035\H,0,2.27624
 9,-1.960533,1.095104\H,0,0.436799,0.846291,1.397865\H,0,-0.173273,0.00

 Normal termination of Gaussian 16 at Sun Apr  6 08:08:45 2025.
