 Gaussian 16, Revision C.01,

 ----------------------------------------------------------------------
 #t hf aug-cc-pvdz symm=none int=(grid=ultrafine) guess=(read,tcheck) s
 table=(opt,rrhf)
 ----------------------------------------------------------------------
 -----
 title
 -----
 Symbolic Z-matrix:
 Charge =  0 Multiplicity = 1

 SCF Done:  E(RHF) =  -758.594042926     A.U. after   15 cycles
 Normal termination of Gaussian 16 at Sun Apr  6 08:08:06 2025.
 Gaussian 16:  ES64L-G16RevC.01  3-Jul-2019

 ----------------------------------------------------------------------
 #t hf aug-cc-pvdz iop(5/13=1,5/36=2,99/5=2) pseudo=read geom=check gue
 ss=(read,tcheck) scf=(maxcycle=1)
 ----------------------------------------------------------------------
 -----
 title
 -----
 Structure from the checkpoint file:  "N-chloro-N-cyanomethylformamide.chk"
 Charge =  0 Multiplicity = 1

                         Standard orientation:
 ---------------------------------------------------------------------
 Center     Atomic      Atomic             Coordinates (Angstroms)
 Number     Number       Type             X           Y           Z
 ---------------------------------------------------------------------
      1         17           0       -0.701864    1.462003   -0.034783
      2          8           0       -2.283438   -0.979375   -0.549331
      3          7           0       -0.344081   -0.165493    0.372382
      4          7           0        2.914608   -0.191919   -0.838450
      5          6           0        0.978044   -0.423781    0.908893
      6          6           0       -1.224862   -1.151741   -0.010019
      7          6           0        2.060093   -0.287664   -0.076810
      8          1           0        1.172647    0.247397    1.745782
      9          1           0        0.982654   -1.443332    1.297214
     10          1           0       -0.829457   -2.142106    0.273049
 ---------------------------------------------------------------------

 SCF Done:  E(RHF) =  -760.147405173     A.U. after    2 cycles

 The electronic state is 1-A.
 Alpha  occ. eigenvalues --  -99.94995 -21.07145 -15.82910 -15.78841 -11.52667
 Alpha  occ. eigenvalues --  -11.52306 -11.45246 -10.52161  -9.72147  -9.71242
 Alpha  occ. eigenvalues --   -9.70916  -1.74421  -1.53375  -1.33899  -1.27138
 Alpha  occ. eigenvalues --   -1.10726  -0.88941  -0.78052  -0.74125  -0.71089
 Alpha  occ. eigenvalues --   -0.63501  -0.62735  -0.55442  -0.54849  -0.53144
 Alpha  occ. eigenvalues --   -0.51631  -0.46973  -0.46301  -0.35887  -0.33550
 Alpha virt. eigenvalues --    0.01955   0.03657   0.05106   0.05642   0.07522
 Alpha virt. eigenvalues --    0.08957   0.09761   0.10624   0.11077   0.11495
 Alpha virt. eigenvalues --    0.12644   0.13251   0.14720   0.14844   0.15620

 Mulliken charges:
               1
     1  Cl   0.530773
     2  O   -2.627891
     3  N   -1.721652
     4  N   -2.361582
     5  C   -2.622213
     6  C    1.859863
     7  C    2.521596
     8  H    1.282593
     9  H    1.644942
    10  H    1.493572
 Sum of Mulliken charges =  -0.00000

 Dipole moment (field-independent basis, Debye):
    X=             -0.4562    Y=             -1.4401    Z=              2.9609  Tot=              3.3240

 Test job not archived.
 1\1\GINC-SE046\SP\RHF\Aug-CC-pVDZ\C3H3Cl1N2O1\OHZDE\06-Apr-2025\0\\#t
 hf aug-cc-pvdz iop(5/13=1,5/36=2,99/5=2) pseudo=read geom=check guess=
 (read,tcheck) scf=(maxcycle=1)\\title\\0,1\Cl,0,-0.701864,1.462003,-0.
 034783\O,0,-2.283438,-0.979375,-0.549331\N,0,-0.344081,-0.165493,0.372
 382\N,0,2.914608,-0.191919,-0.83845\C,0,0.978044,-0.423781,0.908893\C,
 0,-1.224862,-1.151741,-0.010019\C,0,2.060093,-0.287664,-0.07681\H,0,1.
 172647,0.247397,1.745782\H,0,0.982654,-1.443332,1.297214\H,0,-0.829457
 ,-2.142106,0.273049\\Version=ES64L-G16RevC.01\State=1-A\HF=-760.147405

 Normal termination of Gaussian 16 at Sun Apr  6 08:08:10 2025.
