 Gaussian 16, Revision C.01,

 ----------------------------------------------------------------------
 #t hf aug-cc-pvdz symm=none int=(grid=ultrafine) guess=(read,tcheck) s
 table=(opt,rrhf)
 ----------------------------------------------------------------------
 -----
 title
 -----
 Symbolic Z-matrix:
 Charge =  0 Multiplicity = 1

 SCF Done:  E(RHF) =  -738.723799819     A.U. after   15 cycles
 Normal termination of Gaussian 16 at Sun Apr  6 08:08:09 2025.
 Gaussian 16:  ES64L-G16RevC.01  3-Jul-2019

 ----------------------------------------------------------------------
 #t hf aug-cc-pvdz iop(5/13=1,5/36=2,99/5=2) pseudo=read geom=check gue
 ss=(read,tcheck) scf=(maxcycle=1)
 ----------------------------------------------------------------------
 -----
 title
 -----
 Structure from the checkpoint file:  "N-chloro-N-cyano-N--methylimidoformamide.chk"
 Charge =  0 Multiplicity = 1

                         Standard orientation:
 ---------------------------------------------------------------------
 Center     Atomic      Atomic             Coordinates (Angstroms)
 Number     Number       Type             X           Y           Z
 ---------------------------------------------------------------------
      1         17           0       -0.857697    1.572767    0.000268
      2          7           0       -0.570057   -0.129205   -0.000081
      3          7           0        1.743589    0.140834    0.000082
      4          7           0       -2.544730   -1.638675   -0.000357
      5          6           0        0.749729   -0.615993   -0.000106
      6          6           0       -1.632177   -0.928384   -0.000224
      7          6           0        3.070199   -0.442365    0.000029
      8          1           0        0.755182   -1.709286   -0.000314
      9          1           0        3.613291   -0.089928    0.877506
     10          1           0        3.613351   -0.089629   -0.877292
     11          1           0        3.070905   -1.538419   -0.000158
 ---------------------------------------------------------------------

 SCF Done:  E(RHF) =  -740.236436031     A.U. after    2 cycles

 The electronic state is 1-A.
 Alpha  occ. eigenvalues --  -99.95810 -15.85541 -15.77616 -15.75374 -11.48946
 Alpha  occ. eigenvalues --  -11.48718 -11.40783 -10.52902  -9.72847  -9.71987
 Alpha  occ. eigenvalues --   -9.71623  -1.57894  -1.39998  -1.32615  -1.23959
 Alpha  occ. eigenvalues --   -1.04682  -0.88243  -0.81924  -0.70243  -0.68024
 Alpha  occ. eigenvalues --   -0.63486  -0.60790  -0.58248  -0.55816  -0.53475
 Alpha  occ. eigenvalues --   -0.53189  -0.46423  -0.46241  -0.40615  -0.34525
 Alpha virt. eigenvalues --    0.01837   0.03462   0.05261   0.05991   0.06108
 Alpha virt. eigenvalues --    0.08345   0.09476   0.10116   0.11537   0.11703
 Alpha virt. eigenvalues --    0.11962   0.12464   0.14093   0.14882   0.15465

 Mulliken charges:
               1
     1  Cl   0.512697
     2  N   -1.969192
     3  N   -2.848589
     4  N   -2.693769
     5  C    1.347097
     6  C    3.257554
     7  C   -3.578227
     8  H    2.037159
     9  H    1.369532
    10  H    1.369544
    11  H    1.196195
 Sum of Mulliken charges =   0.00000

 Dipole moment (field-independent basis, Debye):
    X=              3.3311    Y=             -0.2087    Z=              0.0000  Tot=              3.3377

 Test job not archived.
 1\1\GINC-SE014\SP\RHF\Aug-CC-pVDZ\C3H4Cl1N3\OHZDE\06-Apr-2025\0\\#t hf
  aug-cc-pvdz iop(5/13=1,5/36=2,99/5=2) pseudo=read geom=check guess=(r
 ead,tcheck) scf=(maxcycle=1)\\title\\0,1\Cl,0,-0.857697,1.572767,0.000
 268\N,0,-0.570057,-0.129205,-0.000081\N,0,1.743589,0.140834,0.000082\N
 ,0,-2.54473,-1.638675,-0.000357\C,0,0.749729,-0.615993,-0.000106\C,0,-
 1.632177,-0.928384,-0.000224\C,0,3.070199,-0.442365,0.000029\H,0,0.755
 182,-1.709286,-0.000314\H,0,3.613291,-0.089928,0.877506\H,0,3.613351,-
 0.089629,-0.877292\H,0,3.070905,-1.538419,-0.000158\\Version=ES64L-G16

 Normal termination of Gaussian 16 at Sun Apr  6 08:08:14 2025.
