 Gaussian 16, Revision C.01,

 ----------------------------------------------------------------------
 #t hf aug-cc-pvdz symm=none int=(grid=ultrafine) guess=(read,tcheck) s
 table=(opt,rrhf)
 ----------------------------------------------------------------------
 -----
 title
 -----
 Symbolic Z-matrix:
 Charge =  0 Multiplicity = 1

 SCF Done:  E(RHF) =  -817.518964835     A.U. after   13 cycles
 Normal termination of Gaussian 16 at Sun Apr  6 08:08:15 2025.
 Gaussian 16:  ES64L-G16RevC.01  3-Jul-2019

 ----------------------------------------------------------------------
 #t hf aug-cc-pvdz iop(5/13=1,5/36=2,99/5=2) pseudo=read geom=check gue
 ss=(read,tcheck) scf=(maxcycle=1)
 ----------------------------------------------------------------------
 -----
 title
 -----
 Structure from the checkpoint file:  "N-chlorosuccinimide.chk"
 Charge =  0 Multiplicity = 1

                         Standard orientation:
 ---------------------------------------------------------------------
 Center     Atomic      Atomic             Coordinates (Angstroms)
 Number     Number       Type             X           Y           Z
 ---------------------------------------------------------------------
      1          6           0       -0.000029   -1.883915    0.767287
      2          7           0        0.000023    0.323654    0.000000
      3          6           0        0.000000   -0.423893   -1.187980
      4          6           0       -0.000029   -1.883915   -0.767287
      5          6           0        0.000000   -0.423893    1.187980
      6         17           0        0.000020    2.020882    0.000000
      7          1           0        0.876572   -2.363854   -1.200021
      8          1           0       -0.876661   -2.363803   -1.200016
      9          1           0        0.876572   -2.363854    1.200021
     10          1           0       -0.876661   -2.363803    1.200016
     11          8           0        0.000000    0.033027   -2.295994
     12          8           0        0.000000    0.033027    2.295994
 ---------------------------------------------------------------------

 SCF Done:  E(RHF) =  -819.322315250     A.U. after    2 cycles

 The electronic state is 1-A'.
 Alpha  occ. eigenvalues --  -99.94502 -21.07265 -21.07253 -15.82558 -11.55656
 Alpha  occ. eigenvalues --  -11.53902 -11.47712 -11.41712 -10.51667  -9.71829
 Alpha  occ. eigenvalues --   -9.70752  -9.70382  -1.76354  -1.73673  -1.52173
 Alpha  occ. eigenvalues --   -1.32118  -1.16755  -1.03304  -0.88328  -0.82372
 Alpha  occ. eigenvalues --   -0.71872  -0.65022  -0.64245  -0.63536  -0.60275
 Alpha  occ. eigenvalues --   -0.58310  -0.53105  -0.52608  -0.51758  -0.51370
 Alpha  occ. eigenvalues --   -0.44705  -0.34798  -0.34621  -0.30064
 Alpha virt. eigenvalues --    0.02392   0.04619   0.05049   0.05450   0.05996
 Alpha virt. eigenvalues --    0.07730   0.09688   0.09872   0.09973   0.10745
 Alpha virt. eigenvalues --    0.12926   0.13512   0.14623   0.14872   0.15118

 Mulliken charges:
               1
     1  C   -3.144584
     2  N   -1.979842
     3  C    4.437483
     4  C   -3.144584
     5  C    4.437483
     6  Cl   0.637379
     7  H    1.375942
     8  H    1.375940
     9  H    1.375942
    10  H    1.375940
    11  O   -3.373549
    12  O   -3.373549
 Sum of Mulliken charges =   0.00000

 Dipole moment (field-independent basis, Debye):
    X=             -0.0000    Y=             -2.9519    Z=              0.0000  Tot=              2.9519

 Test job not archived.
 1\1\GINC-SE167\SP\RHF\Aug-CC-pVDZ\C4H4Cl1N1O2\OHZDE\06-Apr-2025\0\\#t
 hf aug-cc-pvdz iop(5/13=1,5/36=2,99/5=2) pseudo=read geom=check guess=
 (read,tcheck) scf=(maxcycle=1)\\title\\0,1\C,0,-0.000029,-1.883915,0.7
 67287\N,0,0.000023,0.323654,0.\C,0,0.,-0.423893,-1.18798\C,0,-0.000029
 ,-1.883915,-0.767287\C,0,0.,-0.423893,1.18798\Cl,0,0.00002,2.020882,0.
 \H,0,0.876572,-2.363854,-1.200021\H,0,-0.876661,-2.363803,-1.200016\H,
 0,0.876572,-2.363854,1.200021\H,0,-0.876661,-2.363803,1.200016\O,0,0.,
 0.033027,-2.295994\O,0,0.,0.033027,2.295994\\Version=ES64L-G16RevC.01\

 Normal termination of Gaussian 16 at Sun Apr  6 08:08:22 2025.
