 Gaussian 16, Revision C.01,

 ----------------------------------------------------------------------
 #t hf aug-cc-pvdz symm=none int=(grid=ultrafine) guess=(read,tcheck) s
 table=(opt,rrhf)
 ----------------------------------------------------------------------
 -----
 title
 -----
 Symbolic Z-matrix:
 Charge =  0 Multiplicity = 1

 SCF Done:  E(RHF) =  -240.830717288     A.U. after   15 cycles
 Normal termination of Gaussian 16 at Sun Apr  6 08:07:59 2025.
 Gaussian 16:  ES64L-G16RevC.01  3-Jul-2019

 ----------------------------------------------------------------------
 #t hf aug-cc-pvdz iop(5/13=1,5/36=2,99/5=2) pseudo=read geom=check gue
 ss=(read,tcheck) scf=(maxcycle=1)
 ----------------------------------------------------------------------
 -----
 title
 -----
 Structure from the checkpoint file:  "N-cyanoimidoformamide.chk"
 Charge =  0 Multiplicity = 1

                         Standard orientation:
 ---------------------------------------------------------------------
 Center     Atomic      Atomic             Coordinates (Angstroms)
 Number     Number       Type             X           Y           Z
 ---------------------------------------------------------------------
      1          7           0       -0.047335    0.494707    0.000095
      2          7           0       -2.426020   -0.243839   -0.000088
      3          7           0        2.256899   -0.124368    0.000008
      4          6           0       -1.325935    0.106762   -0.000003
      5          6           0        1.029441   -0.407626   -0.000048
      6          1           0        0.145193    1.485628    0.000247
      7          1           0        2.449675    0.876936    0.000174
      8          1           0        0.699288   -1.442885   -0.000220
 ---------------------------------------------------------------------

 SCF Done:  E(RHF) =  -241.898645799     A.U. after    2 cycles

 The electronic state is 1-A.
 Alpha  occ. eigenvalues --  -15.84359 -15.77238 -15.76192 -11.48743 -11.48211
 Alpha  occ. eigenvalues --   -1.51544  -1.34323  -1.26462  -0.93032  -0.83318
 Alpha  occ. eigenvalues --   -0.72255  -0.61370  -0.61336  -0.54302  -0.47484
 Alpha  occ. eigenvalues --   -0.47429  -0.41870  -0.35314
 Alpha virt. eigenvalues --    0.02680   0.05126   0.05556   0.09718   0.09757
 Alpha virt. eigenvalues --    0.10404   0.11433   0.12606   0.13491   0.14293
 Alpha virt. eigenvalues --    0.14441   0.15450   0.16853   0.18993   0.19521

 Mulliken charges:
               1
     1  N   -2.320051
     2  N   -2.550398
     3  N   -2.900264
     4  C    3.174784
     5  C    1.583007
     6  H    0.672677
     7  H    0.623690
     8  H    1.716555
 Sum of Mulliken charges =   0.00000

 Dipole moment (field-independent basis, Debye):
    X=              1.5478    Y=              2.1855    Z=              0.0004  Tot=              2.6781

 Test job not archived.
 1\1\GINC-SE167\SP\RHF\Aug-CC-pVDZ\C2H3N3\OHZDE\06-Apr-2025\0\\#t hf au
 g-cc-pvdz iop(5/13=1,5/36=2,99/5=2) pseudo=read geom=check guess=(read
 ,tcheck) scf=(maxcycle=1)\\title\\0,1\N,0,-0.047335,0.494707,0.000095\
 N,0,-2.42602,-0.243839,-0.000088\N,0,2.256899,-0.124368,0.000008\C,0,-
 1.325935,0.106762,-0.000003\C,0,1.029441,-0.407626,-0.000048\H,0,0.145
 193,1.485628,0.000247\H,0,2.449675,0.876936,0.000174\H,0,0.699288,-1.4
 42885,-0.00022\\Version=ES64L-G16RevC.01\State=1-A\HF=-241.8986458\RMS
 D=6.193e-02\Dipole=0.6089604,0.8598529,0.0001559\Quadrupole=-7.9843207

 Normal termination of Gaussian 16 at Sun Apr  6 08:08:01 2025.
