 Gaussian 16, Revision C.01,

 ----------------------------------------------------------------------
 #t hf aug-cc-pvdz symm=none int=(grid=ultrafine) guess=(read,tcheck) s
 table=(opt,rrhf)
 ----------------------------------------------------------------------
 -----
 title
 -----
 Symbolic Z-matrix:
 Charge =  0 Multiplicity = 1

 SCF Done:  E(RHF) =  -1003.06032824     A.U. after   14 cycles
 Normal termination of Gaussian 16 at Sun Apr  6 08:08:07 2025.
 Gaussian 16:  ES64L-G16RevC.01  3-Jul-2019

 ----------------------------------------------------------------------
 #t hf aug-cc-pvdz iop(5/13=1,5/36=2,99/5=2) pseudo=read geom=check gue
 ss=(read,tcheck) scf=(maxcycle=1)
 ----------------------------------------------------------------------
 -----
 title
 -----
 Structure from the checkpoint file:  "N-disulfanylacetamide.chk"
 Charge =  0 Multiplicity = 1

                         Standard orientation:
 ---------------------------------------------------------------------
 Center     Atomic      Atomic             Coordinates (Angstroms)
 Number     Number       Type             X           Y           Z
 ---------------------------------------------------------------------
      1         16           0       -0.977841    0.897750    0.426091
      2         16           0       -2.081995   -0.635586   -0.451951
      3          8           0        1.307860   -0.949315    1.030107
      4          7           0        0.582338    0.797816   -0.241341
      5          6           0        1.521372   -0.149599    0.148699
      6          6           0        2.812887   -0.107552   -0.640961
      7          1           0       -1.741791   -1.618901    0.408674
      8          1           0        0.761070    1.334091   -1.076406
      9          1           0        2.715102   -0.758963   -1.511499
     10          1           0        3.614677   -0.492310   -0.016893
     11          1           0        3.063516    0.894181   -0.987999
 ---------------------------------------------------------------------

 SCF Done:  E(RHF) =  -1004.43969341     A.U. after    2 cycles

 The electronic state is 1-A.
 Alpha  occ. eigenvalues --  -75.74356 -75.71715 -21.04182 -15.78869 -13.22169
 Alpha  occ. eigenvalues --  -13.14184 -13.10559 -13.09001 -13.08596 -13.04315
 Alpha  occ. eigenvalues --  -11.51206 -11.40085  -8.08181  -8.05534  -1.72166
 Alpha  occ. eigenvalues --   -1.41848  -1.19076  -1.10521  -0.97845  -0.80467
 Alpha  occ. eigenvalues --   -0.68254  -0.62718  -0.61880  -0.54773  -0.52429
 Alpha  occ. eigenvalues --   -0.50523  -0.48836  -0.39303  -0.32055  -0.30523
 Alpha  occ. eigenvalues --   -0.27737  -0.25566
 Alpha virt. eigenvalues --    0.02551   0.03635   0.04983   0.05777   0.06080
 Alpha virt. eigenvalues --    0.06799   0.09391   0.10861   0.12211   0.12490
 Alpha virt. eigenvalues --    0.13365   0.13558   0.14683   0.15232   0.15726

 Mulliken charges:
               1
     1  S    0.374733
     2  S   -1.182765
     3  O   -3.126096
     4  N   -2.393958
     5  C    4.725296
     6  C   -3.951814
     7  H    1.199709
     8  H    0.701852
     9  H    1.220129
    10  H    1.165429
    11  H    1.267485
 Sum of Mulliken charges =  -0.00000

 Dipole moment (field-independent basis, Debye):
    X=             -0.2160    Y=              1.5915    Z=             -1.6571  Tot=              2.3077

 Test job not archived.
 1\1\GINC-SE107\SP\RHF\Aug-CC-pVDZ\C2H5N1O1S2\OHZDE\06-Apr-2025\0\\#t h
 f aug-cc-pvdz iop(5/13=1,5/36=2,99/5=2) pseudo=read geom=check guess=(
 read,tcheck) scf=(maxcycle=1)\\title\\0,1\S,0,-0.977841,0.89775,0.4260
 91\S,0,-2.081995,-0.635586,-0.451951\O,0,1.30786,-0.949315,1.030107\N,
 0,0.582338,0.797816,-0.241341\C,0,1.521372,-0.149599,0.148699\C,0,2.81
 2887,-0.107552,-0.640961\H,0,-1.741791,-1.618901,0.408674\H,0,0.76107,
 1.334091,-1.076406\H,0,2.715102,-0.758963,-1.511499\H,0,3.614677,-0.49
 231,-0.016893\H,0,3.063516,0.894181,-0.987999\\Version=ES64L-G16RevC.0

 Normal termination of Gaussian 16 at Sun Apr  6 08:08:11 2025.
