 Gaussian 16, Revision C.01,

 ----------------------------------------------------------------------
 #t hf aug-cc-pvdz symm=none int=(grid=ultrafine) guess=(read,tcheck) s
 table=(opt,rrhf)
 ----------------------------------------------------------------------
 -----
 title
 -----
 Symbolic Z-matrix:
 Charge =  0 Multiplicity = 1

 SCF Done:  E(RHF) =  -363.839092038     A.U. after   15 cycles

 1\1\GINC-SE108\Stability\RHF\Aug-CC-pVDZ\C8H11N1\OHZDE\06-Apr-2025\0\\
 #t hf aug-cc-pvdz symm=none int=(grid=ultrafine) guess=(read,tcheck) s
 table=(opt,rrhf)\\title\\0,1\C,0,2.85544,0.252651,0.039517\C,0,1.95525
 1,1.308154,-0.00683\C,0,2.360141,-1.050018,0.041527\C,0,0.583533,1.082
 28,-0.050241\C,0,0.997959,-1.289253,-0.005941\C,0,0.08029,-0.226157,-0
 .05636\C,0,-3.683656,-0.105023,0.0191\C,0,-2.294319,0.511126,0.087695\
 N,0,-1.276349,-0.497538,-0.143162\H,0,3.919858,0.436494,0.075585\H,0,2
 .318186,2.327791,-0.005576\H,0,3.043134,-1.888633,0.080058\H,0,-0.0905

 Normal termination of Gaussian 16 at Sun Apr  6 08:09:18 2025.
 Gaussian 16:  ES64L-G16RevC.01  3-Jul-2019

 ----------------------------------------------------------------------
 #t hf aug-cc-pvdz iop(5/13=1,5/36=2,99/5=2) pseudo=read geom=check gue
 ss=(read,tcheck) scf=(maxcycle=1)
 ----------------------------------------------------------------------
 -----
 title
 -----
 Structure from the checkpoint file:  "N-ethylaniline.chk"
 Charge =  0 Multiplicity = 1

                         Standard orientation:
 ---------------------------------------------------------------------
 Center     Atomic      Atomic             Coordinates (Angstroms)
 Number     Number       Type             X           Y           Z
 ---------------------------------------------------------------------
      1          6           0        2.855440    0.252651    0.039517
      2          6           0        1.955251    1.308154   -0.006830
      3          6           0        2.360141   -1.050018    0.041527
      4          6           0        0.583533    1.082280   -0.050241
      5          6           0        0.997959   -1.289253   -0.005941
      6          6           0        0.080290   -0.226157   -0.056360
      7          6           0       -3.683656   -0.105023    0.019100
      8          6           0       -2.294319    0.511126    0.087695
      9          7           0       -1.276349   -0.497538   -0.143162
     10          1           0        3.919858    0.436494    0.075585
     11          1           0        2.318186    2.327791   -0.005576
     12          1           0        3.043134   -1.888633    0.080058
     13          1           0       -0.090520    1.925367   -0.082058
     14          1           0        0.628256   -2.307784   -0.011219
     15          1           0       -3.861554   -0.559934   -0.955872
     16          1           0       -3.812010   -0.873971    0.784186
     17          1           0       -4.445779    0.655703    0.185234
     18          1           0       -2.153505    1.006369    1.058333
     19          1           0       -2.204125    1.287273   -0.676443
     20          1           0       -1.535324   -1.428467    0.139104
 ---------------------------------------------------------------------

 SCF Done:  E(RHF) =  -365.622440756     A.U. after    2 cycles

 The electronic state is 1-A.
 Alpha  occ. eigenvalues --  -15.73549 -11.51707 -11.44246 -11.42934 -11.42088
 Alpha  occ. eigenvalues --  -11.39263 -11.39125 -11.37076 -11.35027  -1.43972
 Alpha  occ. eigenvalues --   -1.28601  -1.13301  -1.08355  -1.02969  -0.90234
 Alpha  occ. eigenvalues --   -0.85618  -0.82566  -0.71227  -0.66519  -0.64813
 Alpha  occ. eigenvalues --   -0.61921  -0.59770  -0.57092  -0.54388  -0.53144
 Alpha  occ. eigenvalues --   -0.50786  -0.49373  -0.48712  -0.44676  -0.43066
 Alpha  occ. eigenvalues --   -0.39867  -0.32426  -0.25737
 Alpha virt. eigenvalues --    0.03644   0.04549   0.04996   0.05797   0.06216
 Alpha virt. eigenvalues --    0.06275   0.06722   0.06732   0.06899   0.08644
 Alpha virt. eigenvalues --    0.09543   0.10622   0.12001   0.12987   0.13045

 Mulliken charges:
               1
     1  C   -2.947698
     2  C   -0.849684
     3  C   -0.297043
     4  C   -2.177658
     5  C   -3.347456
     6  C    5.198446
     7  C   -3.839036
     8  C   -2.856588
     9  N   -4.753585
    10  H    1.552094
    11  H    1.519568
    12  H    1.509882
    13  H    1.869989
    14  H    1.810930
    15  H    1.282707
    16  H    1.296691
    17  H    1.076712
    18  H    1.558876
    19  H    1.692117
    20  H    0.700736
 Sum of Mulliken charges =  -0.00000

 Dipole moment (field-independent basis, Debye):
    X=             -1.6046    Y=             -0.3006    Z=              0.3713  Tot=              1.6742

 Test job not archived.
 1\1\GINC-SE108\SP\RHF\Aug-CC-pVDZ\C8H11N1\OHZDE\06-Apr-2025\0\\#t hf a
 ug-cc-pvdz iop(5/13=1,5/36=2,99/5=2) pseudo=read geom=check guess=(rea
 d,tcheck) scf=(maxcycle=1)\\title\\0,1\C,0,2.85544,0.252651,0.039517\C
 ,0,1.955251,1.308154,-0.00683\C,0,2.360141,-1.050018,0.041527\C,0,0.58
 3533,1.08228,-0.050241\C,0,0.997959,-1.289253,-0.005941\C,0,0.08029,-0
 .226157,-0.05636\C,0,-3.683656,-0.105023,0.0191\C,0,-2.294319,0.511126
 ,0.087695\N,0,-1.276349,-0.497538,-0.143162\H,0,3.919858,0.436494,0.07
 5585\H,0,2.318186,2.327791,-0.005576\H,0,3.043134,-1.888633,0.080058\H

 Normal termination of Gaussian 16 at Sun Apr  6 08:10:14 2025.
