 Gaussian 16, Revision C.01,

 ----------------------------------------------------------------------
 #t hf aug-cc-pvdz symm=none int=(grid=ultrafine) guess=(read,tcheck) s
 table=(opt,rrhf)
 ----------------------------------------------------------------------
 -----
 title
 -----
 Symbolic Z-matrix:
 Charge =  0 Multiplicity = 1

 SCF Done:  E(RHF) =  -207.528981218     A.U. after   13 cycles
 Normal termination of Gaussian 16 at Sun Apr  6 08:07:58 2025.
 Gaussian 16:  ES64L-G16RevC.01  3-Jul-2019

 ----------------------------------------------------------------------
 #t hf aug-cc-pvdz iop(5/13=1,5/36=2,99/5=2) pseudo=read geom=check gue
 ss=(read,tcheck) scf=(maxcycle=1)
 ----------------------------------------------------------------------
 -----
 title
 -----
 Structure from the checkpoint file:  "N-ethynylacetylenamine.chk"
 Charge =  0 Multiplicity = 1

                         Standard orientation:
 ---------------------------------------------------------------------
 Center     Atomic      Atomic             Coordinates (Angstroms)
 Number     Number       Type             X           Y           Z
 ---------------------------------------------------------------------
      1          7           0       -0.000000    0.712570   -0.000004
      2          6           0        1.187127    0.077814   -0.000007
      3          6           0       -1.187127    0.077815   -0.000007
      4          6           0        2.251031   -0.475403    0.000008
      5          6           0       -2.251031   -0.475403    0.000009
      6          1           0       -0.000000    1.720650    0.000024
      7          1           0        3.189310   -0.968793   -0.000008
      8          1           0       -3.189310   -0.968793   -0.000007
 ---------------------------------------------------------------------

 SCF Done:  E(RHF) =  -208.483892802     A.U. after    2 cycles

 The electronic state is 1-A.
 Alpha  occ. eigenvalues --  -15.82692 -11.44991 -11.44948 -11.40974 -11.40064
 Alpha  occ. eigenvalues --   -1.45758  -1.10753  -1.04641  -0.82334  -0.77820
 Alpha  occ. eigenvalues --   -0.68961  -0.67185  -0.57278  -0.40206  -0.40193
 Alpha  occ. eigenvalues --   -0.38612  -0.29096
 Alpha virt. eigenvalues --    0.02683   0.04699   0.05580   0.10134   0.10848
 Alpha virt. eigenvalues --    0.11363   0.12113   0.12592   0.12874   0.12952
 Alpha virt. eigenvalues --    0.13128   0.13728   0.13949   0.16172   0.18625

 Mulliken charges:
               1
     1  N   -2.817382
     2  C    1.868796
     3  C    1.868796
     4  C   -1.617054
     5  C   -1.617053
     6  H    0.740378
     7  H    0.786760
     8  H    0.786760
 Sum of Mulliken charges =  -0.00000

 Dipole moment (field-independent basis, Debye):
    X=              0.0000    Y=              0.8856    Z=             -0.0000  Tot=              0.8856

 Test job not archived.
 1\1\GINC-SE106\SP\RHF\Aug-CC-pVDZ\C4H3N1\OHZDE\06-Apr-2025\0\\#t hf au
 g-cc-pvdz iop(5/13=1,5/36=2,99/5=2) pseudo=read geom=check guess=(read
 ,tcheck) scf=(maxcycle=1)\\title\\0,1\N,0,0.,0.71257,-0.000004\C,0,1.1
 87127,0.077814,-0.000007\C,0,-1.187127,0.077815,-0.000007\C,0,2.251031
 ,-0.475403,0.000008\C,0,-2.251031,-0.475403,0.000009\H,0,0.,1.72065,0.
 000024\H,0,3.18931,-0.968793,-0.000008\H,0,-3.18931,-0.968793,-0.00000
 7\\Version=ES64L-G16RevC.01\State=1-A\HF=-208.4838928\RMSD=9.371e-01\D
 ipole=0.0000016,0.3484186,-0.0000093\Quadrupole=2.8559144,1.1350493,-3

 Normal termination of Gaussian 16 at Sun Apr  6 08:08:00 2025.
