 Gaussian 16, Revision C.01,

 ----------------------------------------------------------------------
 #t hf aug-cc-pvdz symm=none int=(grid=ultrafine) guess=(read,tcheck) s
 table=(opt,rrhf)
 ----------------------------------------------------------------------
 -----
 title
 -----
 Symbolic Z-matrix:
 Charge =  0 Multiplicity = 1

 SCF Done:  E(RHF) =  -703.551335183     A.U. after   15 cycles
 Normal termination of Gaussian 16 at Sun Apr  6 08:08:01 2025.
 Gaussian 16:  ES64L-G16RevC.01  3-Jul-2019

 ----------------------------------------------------------------------
 #t hf aug-cc-pvdz iop(5/13=1,5/36=2,99/5=2) pseudo=read geom=check gue
 ss=(read,tcheck) scf=(maxcycle=1)
 ----------------------------------------------------------------------
 -----
 title
 -----
 Structure from the checkpoint file:  "N-ethynylcarbamoyl_chloride.chk"
 Charge =  0 Multiplicity = 1

                         Standard orientation:
 ---------------------------------------------------------------------
 Center     Atomic      Atomic             Coordinates (Angstroms)
 Number     Number       Type             X           Y           Z
 ---------------------------------------------------------------------
      1         17           0        2.020286   -0.360915    0.000049
      2          8           0        0.203450    1.555974   -0.000169
      3          7           0       -0.574181   -0.605015    0.000072
      4          6           0        0.376440    0.384407   -0.000039
      5          6           0       -1.897702   -0.346943    0.000026
      6          6           0       -3.075438   -0.133700   -0.000002
      7          1           0       -0.254865   -1.560965    0.000162
      8          1           0       -4.118136    0.061245   -0.000060
 ---------------------------------------------------------------------

 SCF Done:  E(RHF) =  -704.855129802     A.U. after    2 cycles

 The electronic state is 1-A.
 Alpha  occ. eigenvalues --  -99.92223 -21.09397 -15.84435 -11.57714 -11.46292
 Alpha  occ. eigenvalues --  -11.42528 -10.49548  -9.69452  -9.68686  -9.68537
 Alpha  occ. eigenvalues --   -1.77332  -1.47218  -1.32976  -1.10035  -0.91046
 Alpha  occ. eigenvalues --   -0.80776  -0.74009  -0.68623  -0.65006  -0.57568
 Alpha  occ. eigenvalues --   -0.54026  -0.53442  -0.44900  -0.41063  -0.36440
 Alpha  occ. eigenvalues --   -0.33207
 Alpha virt. eigenvalues --    0.02824   0.04801   0.06204   0.08331   0.10004
 Alpha virt. eigenvalues --    0.10246   0.11609   0.11797   0.12033   0.12749
 Alpha virt. eigenvalues --    0.14022   0.14284   0.14437   0.15277   0.16457

 Mulliken charges:
               1
     1  Cl   0.039900
     2  O   -2.337561
     3  N   -2.668009
     4  C    2.829852
     5  C    2.598852
     6  C   -2.087335
     7  H    0.845361
     8  H    0.778940
 Sum of Mulliken charges =   0.00000

 Dipole moment (field-independent basis, Debye):
    X=             -2.1876    Y=             -0.7228    Z=              0.0000  Tot=              2.3039

 Test job not archived.
 1\1\GINC-SE106\SP\RHF\Aug-CC-pVDZ\C3H2Cl1N1O1\OHZDE\06-Apr-2025\0\\#t
 hf aug-cc-pvdz iop(5/13=1,5/36=2,99/5=2) pseudo=read geom=check guess=
 (read,tcheck) scf=(maxcycle=1)\\title\\0,1\Cl,0,2.020286,-0.360915,0.0
 00049\O,0,0.20345,1.555974,-0.000169\N,0,-0.574181,-0.605015,0.000072\
 C,0,0.37644,0.384407,-0.000039\C,0,-1.897702,-0.346943,0.000026\C,0,-3
 .075438,-0.1337,-0.000002\H,0,-0.254865,-1.560965,0.000162\H,0,-4.1181
 36,0.061245,-0.00006\\Version=ES64L-G16RevC.01\State=1-A\HF=-704.85512
 98\RMSD=5.495e-01\Dipole=-0.8606533,-0.284369,0.0000037\Quadrupole=2.4

 Normal termination of Gaussian 16 at Sun Apr  6 08:08:04 2025.
