 Gaussian 16, Revision C.01,

 ----------------------------------------------------------------------
 #t hf aug-cc-pvdz symm=none int=(grid=ultrafine) guess=(read,tcheck) s
 table=(opt,rrhf)
 ----------------------------------------------------------------------
 -----
 title
 -----
 Symbolic Z-matrix:
 Charge =  0 Multiplicity = 1

 SCF Done:  E(RHF) =  -381.654026531     A.U. after   14 cycles
 Normal termination of Gaussian 16 at Sun Apr  6 08:08:03 2025.
 Gaussian 16:  ES64L-G16RevC.01  3-Jul-2019

 ----------------------------------------------------------------------
 #t hf aug-cc-pvdz iop(5/13=1,5/36=2,99/5=2) pseudo=read geom=check gue
 ss=(read,tcheck) scf=(maxcycle=1)
 ----------------------------------------------------------------------
 -----
 title
 -----
 Structure from the checkpoint file:  "N-fluoroglycine.chk"
 Charge =  0 Multiplicity = 1

                         Standard orientation:
 ---------------------------------------------------------------------
 Center     Atomic      Atomic             Coordinates (Angstroms)
 Number     Number       Type             X           Y           Z
 ---------------------------------------------------------------------
      1          9           0        2.523812   -0.000530    0.037332
      2          8           0       -1.881341   -1.007854   -0.239265
      3          8           0       -1.539739    1.170779    0.004238
      4          7           0        1.215026   -0.004014   -0.555021
      5          6           0       -1.136839   -0.128298    0.067470
      6          6           0        0.302592   -0.347682    0.537573
      7          1           0       -0.888066    1.766285    0.392635
      8          1           0        1.117050    0.980700   -0.797020
      9          1           0        0.422906   -1.402721    0.762868
     10          1           0        0.502739    0.241088    1.440632
 ---------------------------------------------------------------------

 SCF Done:  E(RHF) =  -383.192131213     A.U. after    2 cycles

 The electronic state is 1-A.
 Alpha  occ. eigenvalues --  -29.28128 -21.14816 -21.07711 -15.84074 -11.55281
 Alpha  occ. eigenvalues --  -11.45133  -1.84619  -1.67951  -1.45081  -1.08003
 Alpha  occ. eigenvalues --   -0.83750  -0.76241  -0.71617  -0.69095  -0.62667
 Alpha  occ. eigenvalues --   -0.55648  -0.54350  -0.49007  -0.47681  -0.38942
 Alpha  occ. eigenvalues --   -0.36279  -0.32781  -0.26604  -0.23785
 Alpha virt. eigenvalues --    0.02805   0.04614   0.05944   0.06212   0.10447
 Alpha virt. eigenvalues --    0.10982   0.11886   0.12282   0.12733   0.13442
 Alpha virt. eigenvalues --    0.15986   0.16115   0.18150   0.18596   0.19784

 Mulliken charges:
               1
     1  F   -0.146823
     2  O   -3.079533
     3  O   -2.908213
     4  N   -1.173255
     5  C    5.533020
     6  C   -2.692902
     7  H    0.982934
     8  H    0.683501
     9  H    1.354900
    10  H    1.446372
 Sum of Mulliken charges =  -0.00000

 Dipole moment (field-independent basis, Debye):
    X=              2.1868    Y=              1.8642    Z=              1.5218  Tot=              3.2517

 Test job not archived.
 1\1\GINC-SE084\SP\RHF\Aug-CC-pVDZ\C2H4F1N1O2\OHZDE\06-Apr-2025\0\\#t h
 f aug-cc-pvdz iop(5/13=1,5/36=2,99/5=2) pseudo=read geom=check guess=(
 read,tcheck) scf=(maxcycle=1)\\title\\0,1\F,0,2.523812,-0.00053,0.0373
 32\O,0,-1.881341,-1.007854,-0.239265\O,0,-1.539739,1.170779,0.004238\N
 ,0,1.215026,-0.004014,-0.555021\C,0,-1.136839,-0.128298,0.06747\C,0,0.
 302592,-0.347682,0.537573\H,0,-0.888066,1.766285,0.392635\H,0,1.11705,
 0.9807,-0.79702\H,0,0.422906,-1.402721,0.762868\H,0,0.502739,0.241088,
 1.440632\\Version=ES64L-G16RevC.01\State=1-A\HF=-383.1921312\RMSD=1.62

 Normal termination of Gaussian 16 at Sun Apr  6 08:08:07 2025.
