 Gaussian 16, Revision C.01,

 ----------------------------------------------------------------------
 #t hf aug-cc-pvdz symm=none int=(grid=ultrafine) guess=(read,tcheck) s
 table=(opt,rrhf)
 ----------------------------------------------------------------------
 -----
 title
 -----
 Symbolic Z-matrix:
 Charge =  0 Multiplicity = 1

 SCF Done:  E(RHF) =  -336.665489630     A.U. after   14 cycles
 Normal termination of Gaussian 16 at Sun Apr  6 08:08:03 2025.
 Gaussian 16:  ES64L-G16RevC.01  3-Jul-2019

 ----------------------------------------------------------------------
 #t hf aug-cc-pvdz iop(5/13=1,5/36=2,99/5=2) pseudo=read geom=check gue
 ss=(read,tcheck) scf=(maxcycle=1)
 ----------------------------------------------------------------------
 -----
 title
 -----
 Structure from the checkpoint file:  "N-formyloxyimidoformamide.chk"
 Charge =  0 Multiplicity = 1

                         Standard orientation:
 ---------------------------------------------------------------------
 Center     Atomic      Atomic             Coordinates (Angstroms)
 Number     Number       Type             X           Y           Z
 ---------------------------------------------------------------------
      1          8           0        0.398686   -0.658181    0.432310
      2          8           0        2.110858    0.540150   -0.435213
      3          7           0       -0.324934    0.558558    0.529684
      4          7           0       -2.184383   -0.564932   -0.359925
      5          6           0        1.635791   -0.499882   -0.069258
      6          6           0       -1.596806    0.501735   -0.024181
      7          1           0        0.269573    1.312628    0.194878
      8          1           0       -3.129950   -0.371180   -0.673543
      9          1           0        2.131567   -1.475260   -0.070979
     10          1           0       -2.016233    1.511565   -0.054807
 ---------------------------------------------------------------------

 SCF Done:  E(RHF) =  -338.103482703     A.U. after    2 cycles

 The electronic state is 1-A.
 Alpha  occ. eigenvalues --  -21.13649 -21.08228 -15.81057 -15.73827 -11.52888
 Alpha  occ. eigenvalues --  -11.45995  -1.90694  -1.70577  -1.39248  -1.23212
 Alpha  occ. eigenvalues --   -0.91041  -0.83057  -0.76605  -0.68106  -0.61217
 Alpha  occ. eigenvalues --   -0.59572  -0.58422  -0.51577  -0.46806  -0.40049
 Alpha  occ. eigenvalues --   -0.39071  -0.33676  -0.31118
 Alpha virt. eigenvalues --    0.03473   0.04919   0.05661   0.07245   0.10133
 Alpha virt. eigenvalues --    0.10473   0.11161   0.11553   0.13250   0.14467
 Alpha virt. eigenvalues --    0.14825   0.15313   0.15773   0.17506   0.18877

 Mulliken charges:
               1
     1  O   -2.560061
     2  O   -2.484436
     3  N   -0.856513
     4  N   -2.647117
     5  C    2.296689
     6  C    1.713205
     7  H    0.633121
     8  H    0.712734
     9  H    1.628295
    10  H    1.564083
 Sum of Mulliken charges =  -0.00000

 Dipole moment (field-independent basis, Debye):
    X=             -0.5359    Y=              1.2015    Z=             -0.0815  Tot=              1.3181

 Test job not archived.
 1\1\GINC-SE085\SP\RHF\Aug-CC-pVDZ\C2H4N2O2\OHZDE\06-Apr-2025\0\\#t hf
 aug-cc-pvdz iop(5/13=1,5/36=2,99/5=2) pseudo=read geom=check guess=(re
 ad,tcheck) scf=(maxcycle=1)\\title\\0,1\O,0,0.398686,-0.658181,0.43231
 \O,0,2.110858,0.54015,-0.435213\N,0,-0.324934,0.558558,0.529684\N,0,-2
 .184383,-0.564932,-0.359925\C,0,1.635791,-0.499882,-0.069258\C,0,-1.59
 6806,0.501735,-0.024181\H,0,0.269573,1.312628,0.194878\H,0,-3.12995,-0
 .37118,-0.673543\H,0,2.131567,-1.47526,-0.070979\H,0,-2.016233,1.51156
 5,-0.054807\\Version=ES64L-G16RevC.01\State=1-A\HF=-338.1034827\RMSD=4

 Normal termination of Gaussian 16 at Sun Apr  6 08:08:07 2025.
