 Gaussian 16, Revision C.01,

 ----------------------------------------------------------------------
 #t hf aug-cc-pvdz symm=none int=(grid=ultrafine) guess=(read,tcheck) s
 table=(opt,rrhf)
 ----------------------------------------------------------------------
 -----
 title
 -----
 Symbolic Z-matrix:
 Charge =  0 Multiplicity = 1

 SCF Done:  E(RHF) =  -243.766052625     A.U. after   14 cycles
 Normal termination of Gaussian 16 at Sun Apr  6 08:07:58 2025.
 Gaussian 16:  ES64L-G16RevC.01  3-Jul-2019

 ----------------------------------------------------------------------
 #t hf aug-cc-pvdz iop(5/13=1,5/36=2,99/5=2) pseudo=read geom=check gue
 ss=(read,tcheck) scf=(maxcycle=1)
 ----------------------------------------------------------------------
 -----
 title
 -----
 Structure from the checkpoint file:  "N-hydroxyformamide.chk"
 Charge =  0 Multiplicity = 1

                         Standard orientation:
 ---------------------------------------------------------------------
 Center     Atomic      Atomic             Coordinates (Angstroms)
 Number     Number       Type             X           Y           Z
 ---------------------------------------------------------------------
      1          6           0       -0.776157    0.482170    0.010862
      2          7           0        0.561163    0.638019   -0.078048
      3          8           0       -1.303837   -0.617381    0.001319
      4          8           0        1.345896   -0.512290    0.011708
      5          1           0       -1.318051    1.436615    0.052353
      6          1           0        1.043410    1.455182    0.258679
      7          1           0        0.666967   -1.213576    0.065911
 ---------------------------------------------------------------------

 SCF Done:  E(RHF) =  -244.787610258     A.U. after    2 cycles

 The electronic state is 1-A.
 Alpha  occ. eigenvalues --  -21.11576 -21.05338 -15.81927 -11.50193  -1.82862
 Alpha  occ. eigenvalues --   -1.69920  -1.27062  -0.87679  -0.76830  -0.64111
 Alpha  occ. eigenvalues --   -0.59617  -0.51634  -0.48349  -0.42020  -0.32445
 Alpha  occ. eigenvalues --   -0.28317
 Alpha virt. eigenvalues --    0.03198   0.05251   0.06670   0.10343   0.11352
 Alpha virt. eigenvalues --    0.12367   0.14357   0.15491   0.17565   0.18383
 Alpha virt. eigenvalues --    0.18925   0.21949   0.23979   0.24135   0.24779

 Mulliken charges:
               1
     1  C    2.058332
     2  N   -0.373199
     3  O   -2.513318
     4  O   -2.347587
     5  H    1.538837
     6  H    0.834846
     7  H    0.802089
 Sum of Mulliken charges =   0.00000

 Dipole moment (field-independent basis, Debye):
    X=              0.9320    Y=              1.6458    Z=              0.5549  Tot=              1.9711

 Test job not archived.
 1\1\GINC-SE249\SP\RHF\Aug-CC-pVDZ\C1H3N1O2\OHZDE\06-Apr-2025\0\\#t hf
 aug-cc-pvdz iop(5/13=1,5/36=2,99/5=2) pseudo=read geom=check guess=(re
 ad,tcheck) scf=(maxcycle=1)\\title\\0,1\C,0,-0.776157,0.48217,0.010862
 \N,0,0.561163,0.638019,-0.078048\O,0,-1.303837,-0.617381,0.001319\O,0,
 1.345896,-0.51229,0.011708\H,0,-1.318051,1.436615,0.052353\H,0,1.04341
 ,1.455182,0.258679\H,0,0.666967,-1.213576,0.065911\\Version=ES64L-G16R
 evC.01\State=1-A\HF=-244.7876103\RMSD=4.753e-02\Dipole=0.3666929,0.647
 4948,0.218329\Quadrupole=-1.656202,2.6769795,-1.0207775,-0.3928956,0.4

 Normal termination of Gaussian 16 at Sun Apr  6 08:08:01 2025.
