 Gaussian 16, Revision C.01,

 ----------------------------------------------------------------------
 #t hf aug-cc-pvdz symm=none int=(grid=ultrafine) guess=(read,tcheck) s
 table=(opt,rrhf)
 ----------------------------------------------------------------------
 -----
 title
 -----
 Symbolic Z-matrix:
 Charge =  0 Multiplicity = 1

 SCF Done:  E(RHF) =  -319.441403385     A.U. after   16 cycles
 Normal termination of Gaussian 16 at Sun Apr  6 08:08:02 2025.
 Gaussian 16:  ES64L-G16RevC.01  3-Jul-2019

 ----------------------------------------------------------------------
 #t hf aug-cc-pvdz iop(5/13=1,5/36=2,99/5=2) pseudo=read geom=check gue
 ss=(read,tcheck) scf=(maxcycle=1)
 ----------------------------------------------------------------------
 -----
 title
 -----
 Structure from the checkpoint file:  "N-hydroxy-2-propynamide.chk"
 Charge =  0 Multiplicity = 1

                         Standard orientation:
 ---------------------------------------------------------------------
 Center     Atomic      Atomic             Coordinates (Angstroms)
 Number     Number       Type             X           Y           Z
 ---------------------------------------------------------------------
      1          8           0        0.003808    1.878896   -0.058549
      2          8           0       -1.325093   -1.341271   -0.193926
      3          7           0       -1.242362    0.008951    0.182819
      4          6           0       -0.039394    0.667675    0.014547
      5          6           0        1.144130   -0.169618    0.016092
      6          6           0        2.171403   -0.787527    0.007182
      7          1           0       -1.418255   -1.824660    0.635941
      8          1           0       -2.054044    0.531650   -0.119875
      9          1           0        3.082284   -1.333822   -0.002916
 ---------------------------------------------------------------------

 SCF Done:  E(RHF) =  -320.809317655     A.U. after    2 cycles

 The electronic state is 1-A.
 Alpha  occ. eigenvalues --  -21.13252 -21.05694 -15.81249 -11.54976 -11.44915
 Alpha  occ. eigenvalues --  -11.42827  -1.82285  -1.72030  -1.26705  -1.13478
 Alpha  occ. eigenvalues --   -0.93387  -0.76169  -0.69065  -0.66817  -0.63443
 Alpha  occ. eigenvalues --   -0.53485  -0.51196  -0.40828  -0.39822  -0.38717
 Alpha  occ. eigenvalues --   -0.32951  -0.31309
 Alpha virt. eigenvalues --    0.03110   0.04860   0.05763   0.09545   0.09782
 Alpha virt. eigenvalues --    0.10780   0.11041   0.12170   0.12611   0.14323
 Alpha virt. eigenvalues --    0.14413   0.15541   0.16169   0.18006   0.19476

 Mulliken charges:
               1
     1  O   -3.220762
     2  O   -2.191429
     3  N   -0.813771
     4  C    5.015665
     5  C    1.546985
     6  C   -2.666155
     7  H    0.742078
     8  H    0.797653
     9  H    0.789735
 Sum of Mulliken charges =  -0.00000

 Dipole moment (field-independent basis, Debye):
    X=             -0.3723    Y=             -2.1576    Z=              0.1800  Tot=              2.1969

 Test job not archived.
 1\1\GINC-SE085\SP\RHF\Aug-CC-pVDZ\C3H3N1O2\OHZDE\06-Apr-2025\0\\#t hf
 aug-cc-pvdz iop(5/13=1,5/36=2,99/5=2) pseudo=read geom=check guess=(re
 ad,tcheck) scf=(maxcycle=1)\\title\\0,1\O,0,0.003809,1.878896,-0.05854
 9\O,0,-1.325094,-1.34127,-0.193926\N,0,-1.242362,0.008952,0.182819\C,0
 ,-0.039394,0.667675,0.014547\C,0,1.14413,-0.169619,0.016092\C,0,2.1714
 02,-0.787529,0.007182\H,0,-1.418256,-1.824659,0.635941\H,0,-2.054044,0
 .531652,-0.119875\H,0,3.082283,-1.333824,-0.002916\\Version=ES64L-G16R
 evC.01\State=1-A\HF=-320.8093177\RMSD=7.072e-01\Dipole=-0.1464903,-0.8

 Normal termination of Gaussian 16 at Sun Apr  6 08:08:05 2025.
