 Gaussian 16, Revision C.01,

 ----------------------------------------------------------------------
 #t hf aug-cc-pvdz symm=none int=(grid=ultrafine) guess=(read,tcheck) s
 table=(opt,rrhf)
 ----------------------------------------------------------------------
 -----
 title
 -----
 Symbolic Z-matrix:
 Charge =  0 Multiplicity = 1

 SCF Done:  E(RHF) =  -403.118617101     A.U. after   14 cycles
 Normal termination of Gaussian 16 at Sun Apr  6 08:09:42 2025.
 Gaussian 16:  ES64L-G16RevC.01  3-Jul-2019

 ----------------------------------------------------------------------
 #t hf aug-cc-pvdz iop(5/13=1,5/36=2,99/5=2) pseudo=read geom=check gue
 ss=(read,tcheck) scf=(maxcycle=1)
 ----------------------------------------------------------------------
 -----
 title
 -----
 Structure from the checkpoint file:  "N-hydroxyheptan-2-imine.chk"
 Charge =  0 Multiplicity = 1

                         Standard orientation:
 ---------------------------------------------------------------------
 Center     Atomic      Atomic             Coordinates (Angstroms)
 Number     Number       Type             X           Y           Z
 ---------------------------------------------------------------------
      1          8           0        3.657272   -0.908486    0.267264
      2          7           0        2.280419   -1.049466   -0.034086
      3          6           0        1.723395    0.078313   -0.240657
      4          6           0        0.252045    0.045182   -0.552072
      5          6           0       -0.612702    0.655783    0.563633
      6          6           0        2.452308    1.390511   -0.181512
      7          6           0       -2.104484    0.739914    0.222819
      8          6           0       -2.812872   -0.610021    0.085967
      9          6           0       -4.311099   -0.469861   -0.179030
     10          1           0        3.935602   -1.821933    0.382506
     11          1           0        0.079088    0.601638   -1.480057
     12          1           0       -0.033680   -0.989673   -0.733020
     13          1           0       -0.477778    0.065952    1.474702
     14          1           0       -0.249404    1.660864    0.792252
     15          1           0        1.801297    2.215730   -0.461660
     16          1           0        3.314651    1.372956   -0.848863
     17          1           0        2.840303    1.572750    0.821967
     18          1           0       -2.605873    1.318775    1.004289
     19          1           0       -2.232338    1.310663   -0.703449
     20          1           0       -2.358845   -1.189949   -0.720907
     21          1           0       -2.656457   -1.188678    1.001435
     22          1           0       -4.805958    0.071843    0.629774
     23          1           0       -4.498308    0.078583   -1.104556
     24          1           0       -4.792947   -1.444298   -0.268812
 ---------------------------------------------------------------------

 SCF Done:  E(RHF) =  -405.085188113     A.U. after    2 cycles

 The electronic state is 1-A.
 Alpha  occ. eigenvalues --  -21.08277 -15.75990 -11.46046 -11.43092 -11.41652
 Alpha  occ. eigenvalues --  -11.39331 -11.37571 -11.36459 -11.34454  -1.76758
 Alpha  occ. eigenvalues --   -1.32171  -1.23326  -1.11666  -1.05701  -0.99701
 Alpha  occ. eigenvalues --   -0.88983  -0.81907  -0.73725  -0.65869  -0.64268
 Alpha  occ. eigenvalues --   -0.63211  -0.60103  -0.58309  -0.57032  -0.55606
 Alpha  occ. eigenvalues --   -0.53547  -0.52133  -0.49547  -0.48462  -0.47371
 Alpha  occ. eigenvalues --   -0.46813  -0.44983  -0.43210  -0.41420  -0.33673
 Alpha  occ. eigenvalues --   -0.28429
 Alpha virt. eigenvalues --    0.04152   0.04796   0.05107   0.05363   0.05490
 Alpha virt. eigenvalues --    0.05842   0.06005   0.06483   0.06627   0.07478
 Alpha virt. eigenvalues --    0.07653   0.08318   0.09074   0.09846   0.10675

 Mulliken charges:
               1
     1  O   -2.457051
     2  N   -1.234556
     3  C    3.541357
     4  C   -3.165624
     5  C   -2.752991
     6  C   -5.021209
     7  C   -2.991959
     8  C   -2.855288
     9  C   -4.151432
    10  H    0.920878
    11  H    1.485530
    12  H    1.666041
    13  H    1.634140
    14  H    1.485036
    15  H    1.521621
    16  H    1.335545
    17  H    1.330327
    18  H    1.349530
    19  H    1.540376
    20  H    1.635714
    21  H    1.443760
    22  H    1.347874
    23  H    1.301324
    24  H    1.091056
 Sum of Mulliken charges =  -0.00000

 Dipole moment (field-independent basis, Debye):
    X=             -0.1231    Y=              0.8975    Z=              0.0591  Tot=              0.9079

 Test job not archived.
 1\1\GINC-SE412\SP\RHF\Aug-CC-pVDZ\C7H15N1O1\OHZDE\06-Apr-2025\0\\#t hf
  aug-cc-pvdz iop(5/13=1,5/36=2,99/5=2) pseudo=read geom=check guess=(r
 ead,tcheck) scf=(maxcycle=1)\\title\\0,1\O,0,3.657272,-0.908486,0.2672
 64\N,0,2.280419,-1.049466,-0.034086\C,0,1.723395,0.078313,-0.240657\C,
 0,0.252045,0.045182,-0.552072\C,0,-0.612702,0.655783,0.563633\C,0,2.45
 2308,1.390511,-0.181512\C,0,-2.104484,0.739914,0.222819\C,0,-2.812872,
 -0.610021,0.085967\C,0,-4.311099,-0.469861,-0.17903\H,0,3.935602,-1.82
 1933,0.382506\H,0,0.079088,0.601638,-1.480057\H,0,-0.03368,-0.989673,-

 Normal termination of Gaussian 16 at Sun Apr  6 08:10:16 2025.
