 Gaussian 16, Revision C.01,

 ----------------------------------------------------------------------
 #t hf aug-cc-pvdz symm=none int=(grid=ultrafine) guess=(read,tcheck) s
 table=(opt,rrhf)
 ----------------------------------------------------------------------
 -----
 title
 -----
 Symbolic Z-matrix:
 Charge =  0 Multiplicity = 1

 SCF Done:  E(RHF) =  -321.850245179     A.U. after   15 cycles
 Normal termination of Gaussian 16 at Sun Apr  6 08:08:15 2025.
 Gaussian 16:  ES64L-G16RevC.01  3-Jul-2019

 ----------------------------------------------------------------------
 #t hf aug-cc-pvdz iop(5/13=1,5/36=2,99/5=2) pseudo=read geom=check gue
 ss=(read,tcheck) scf=(maxcycle=1)
 ----------------------------------------------------------------------
 -----
 title
 -----
 Structure from the checkpoint file:  "N-hydroxy-N-methylacetamide.chk"
 Charge =  0 Multiplicity = 1

                         Standard orientation:
 ---------------------------------------------------------------------
 Center     Atomic      Atomic             Coordinates (Angstroms)
 Number     Number       Type             X           Y           Z
 ---------------------------------------------------------------------
      1          6           0        0.691531   -0.351810   -0.035843
      2          6           0        1.785942    0.685648    0.044153
      3          6           0       -1.753536   -0.709923    0.070079
      4          7           0       -0.596467    0.122694   -0.200791
      5          8           0        0.907289   -1.549850   -0.004258
      6          8           0       -0.805591    1.479569    0.133264
      7          1           0        2.738393    0.164728    0.040895
      8          1           0        1.688929    1.273709    0.956539
      9          1           0        1.741301    1.381719   -0.792856
     10          1           0       -2.070590   -0.610444    1.110769
     11          1           0       -1.471281   -1.739112   -0.127674
     12          1           0       -2.574605   -0.421529   -0.584996
     13          1           0       -1.034080    1.910829   -0.699522
 ---------------------------------------------------------------------

 SCF Done:  E(RHF) =  -323.284257967     A.U. after    2 cycles

 The electronic state is 1-A.
 Alpha  occ. eigenvalues --  -21.11862 -21.02771 -15.78048 -11.50341 -11.39962
 Alpha  occ. eigenvalues --  -11.38611  -1.81500  -1.69719  -1.29275  -1.11759
 Alpha  occ. eigenvalues --   -0.98817  -0.75351  -0.68955  -0.66216  -0.62404
 Alpha  occ. eigenvalues --   -0.58597  -0.56125  -0.53540  -0.52676  -0.46889
 Alpha  occ. eigenvalues --   -0.45229  -0.38032  -0.30129  -0.28251
 Alpha virt. eigenvalues --    0.03288   0.05173   0.05330   0.06115   0.06582
 Alpha virt. eigenvalues --    0.07045   0.07635   0.09741   0.12318   0.12950
 Alpha virt. eigenvalues --    0.13257   0.14350   0.15695   0.15775   0.16692

 Mulliken charges:
               1
     1  C    5.161768
     2  C   -4.173269
     3  C   -3.348803
     4  N   -0.838961
     5  O   -3.140485
     6  O   -2.237262
     7  H    1.196090
     8  H    1.285563
     9  H    1.290163
    10  H    1.336504
    11  H    1.410836
    12  H    1.341938
    13  H    0.715919
 Sum of Mulliken charges =  -0.00000

 Dipole moment (field-independent basis, Debye):
    X=             -1.1350    Y=              1.8182    Z=             -0.3329  Tot=              2.1691

 Test job not archived.
 1\1\GINC-SE086\SP\RHF\Aug-CC-pVDZ\C3H7N1O2\OHZDE\06-Apr-2025\0\\#t hf
 aug-cc-pvdz iop(5/13=1,5/36=2,99/5=2) pseudo=read geom=check guess=(re
 ad,tcheck) scf=(maxcycle=1)\\title\\0,1\C,0,0.691531,-0.35181,-0.03584
 3\C,0,1.785942,0.685648,0.044153\C,0,-1.753536,-0.709923,0.070079\N,0,
 -0.596467,0.122694,-0.200791\O,0,0.907289,-1.54985,-0.004258\O,0,-0.80
 5591,1.479569,0.133264\H,0,2.738393,0.164728,0.040895\H,0,1.688929,1.2
 73709,0.956539\H,0,1.741301,1.381719,-0.792856\H,0,-2.07059,-0.610444,
 1.110769\H,0,-1.471281,-1.739112,-0.127674\H,0,-2.574605,-0.421529,-0.

 Normal termination of Gaussian 16 at Sun Apr  6 08:08:19 2025.
