 Gaussian 16, Revision C.01,

 ----------------------------------------------------------------------
 #t hf aug-cc-pvdz symm=none int=(grid=ultrafine) guess=(read,tcheck) s
 table=(opt,rrhf)
 ----------------------------------------------------------------------
 -----
 title
 -----
 Symbolic Z-matrix:
 Charge =  0 Multiplicity = 1

 SCF Done:  E(RHF) =  -489.342430486     A.U. after   16 cycles
 Normal termination of Gaussian 16 at Sun Apr  6 08:09:02 2025.
 Gaussian 16:  ES64L-G16RevC.01  3-Jul-2019

 ----------------------------------------------------------------------
 #t hf aug-cc-pvdz iop(5/13=1,5/36=2,99/5=2) pseudo=read geom=check gue
 ss=(read,tcheck) scf=(maxcycle=1)
 ----------------------------------------------------------------------
 -----
 title
 -----
 Structure from the checkpoint file:  "N-hydroxy-3-pyridinecarboximidic_acid.chk"
 Charge =  0 Multiplicity = 1

                         Standard orientation:
 ---------------------------------------------------------------------
 Center     Atomic      Atomic             Coordinates (Angstroms)
 Number     Number       Type             X           Y           Z
 ---------------------------------------------------------------------
      1          6           0       -2.434690    1.007305    0.195988
      2          6           0       -1.066080    1.206618    0.141234
      3          6           0       -2.925749   -0.286900    0.055755
      4          6           0       -0.831663   -1.149867   -0.199198
      5          6           0       -0.234965    0.103590   -0.047113
      6          6           0        1.234805    0.320466   -0.099690
      7          7           0       -2.146220   -1.349895   -0.145302
      8          7           0        2.025184   -0.770786    0.116502
      9          8           0        1.753325    1.403823   -0.352026
     10          8           0        3.394425   -0.509645    0.206692
     11          1           0       -3.113977    1.834745    0.344733
     12          1           0       -0.627372    2.189562    0.238840
     13          1           0       -3.991491   -0.478121    0.101031
     14          1           0       -0.227759   -2.027390   -0.401000
     15          1           0        1.753487   -1.488411    0.769860
     16          1           0        3.422406    0.453688    0.028951
 ---------------------------------------------------------------------

 SCF Done:  E(RHF) =  -491.506237366     A.U. after    2 cycles

 The electronic state is 1-A.
 Alpha  occ. eigenvalues --  -21.10736 -21.05138 -15.81102 -15.75823 -11.53800
 Alpha  occ. eigenvalues --  -11.50785 -11.47623 -11.46199 -11.43949 -11.40395
 Alpha  occ. eigenvalues --   -1.82895  -1.70347  -1.47214  -1.28291  -1.21026
 Alpha  occ. eigenvalues --   -1.13986  -0.94719  -0.91597  -0.83909  -0.77101
 Alpha  occ. eigenvalues --   -0.71845  -0.65411  -0.63694  -0.63287  -0.58675
 Alpha  occ. eigenvalues --   -0.57483  -0.56133  -0.53086  -0.50269  -0.45731
 Alpha  occ. eigenvalues --   -0.43564  -0.38478  -0.38276  -0.35278  -0.31918
 Alpha  occ. eigenvalues --   -0.28606
 Alpha virt. eigenvalues --    0.02896   0.04945   0.05391   0.06176   0.06619
 Alpha virt. eigenvalues --    0.07158   0.08057   0.08488   0.09638   0.10846
 Alpha virt. eigenvalues --    0.11317   0.12014   0.12150   0.12512   0.12686

 Mulliken charges:
               1
     1  C   -1.179875
     2  C   -1.810315
     3  C   -1.419837
     4  C   -0.369746
     5  C    3.346583
     6  C    4.503712
     7  N   -3.877753
     8  N   -1.008889
     9  O   -3.640438
    10  O   -2.475997
    11  H    1.347746
    12  H    1.744485
    13  H    1.529251
    14  H    1.592341
    15  H    0.834603
    16  H    0.884129
 Sum of Mulliken charges =  -0.00000

 Dipole moment (field-independent basis, Debye):
    X=             -1.0826    Y=              0.5900    Z=              1.0893  Tot=              1.6452

 Test job not archived.
 1\1\GINC-SE086\SP\RHF\Aug-CC-pVDZ\C6H6N2O2\OHZDE\06-Apr-2025\0\\#t hf
 aug-cc-pvdz iop(5/13=1,5/36=2,99/5=2) pseudo=read geom=check guess=(re
 ad,tcheck) scf=(maxcycle=1)\\title\\0,1\C,0,-2.43469,1.007305,0.195988
 \C,0,-1.06608,1.206618,0.141234\C,0,-2.925749,-0.2869,0.055755\C,0,-0.
 831663,-1.149867,-0.199198\C,0,-0.234965,0.10359,-0.047113\C,0,1.23480
 5,0.320466,-0.09969\N,0,-2.14622,-1.349895,-0.145302\N,0,2.025184,-0.7
 70786,0.116502\O,0,1.753325,1.403823,-0.352026\O,0,3.394425,-0.509645,
 0.206692\H,0,-3.113977,1.834745,0.344733\H,0,-0.627372,2.189562,0.2388

 Normal termination of Gaussian 16 at Sun Apr  6 08:10:12 2025.
