 Gaussian 16, Revision C.01,

 ----------------------------------------------------------------------
 #t hf aug-cc-pvdz symm=none int=(grid=ultrafine) guess=(read,tcheck) s
 table=(opt,rrhf)
 ----------------------------------------------------------------------
 -----
 title
 -----
 Symbolic Z-matrix:
 Charge =  0 Multiplicity = 1

 SCF Done:  E(RHF) =  -699.486204724     A.U. after   15 cycles
 Normal termination of Gaussian 16 at Sun Apr  6 08:12:06 2025.
 Gaussian 16:  ES64L-G16RevC.01  3-Jul-2019

 ----------------------------------------------------------------------
 #t hf aug-cc-pvdz iop(5/13=1,5/36=2,99/5=2) pseudo=read geom=check gue
 ss=(read,tcheck) scf=(maxcycle=1)
 ----------------------------------------------------------------------
 -----
 title
 -----
 Structure from the checkpoint file:  "N-methyl-N-2-2-2-trifluoroethylaniline.chk"
 Charge =  0 Multiplicity = 1

                         Standard orientation:
 ---------------------------------------------------------------------
 Center     Atomic      Atomic             Coordinates (Angstroms)
 Number     Number       Type             X           Y           Z
 ---------------------------------------------------------------------
      1          6           0       -3.674067   -0.853951   -0.083418
      2          6           0       -2.544884   -1.650937    0.067775
      3          6           0       -3.509148    0.522321   -0.154373
      4          6           0       -1.279010   -1.090719    0.146626
      5          6           0       -2.248330    1.098967   -0.065846
      6          6           0       -1.102333    0.302544    0.091353
      7          6           0        0.314133    2.318038    0.012392
      8          6           0        1.235426    0.205711    0.866884
      9          6           0        2.316851   -0.367967   -0.044102
     10          7           0        0.170829    0.879498    0.166684
     11          9           0        3.284492   -0.950410    0.698778
     12          9           0        1.843375   -1.300588   -0.890331
     13          9           0        2.908950    0.584737   -0.794752
     14          1           0       -4.657463   -1.297035   -0.151204
     15          1           0       -2.643137   -2.727701    0.109315
     16          1           0       -4.370757    1.166188   -0.272823
     17          1           0       -0.425739   -1.747886    0.213334
     18          1           0       -2.166729    2.173555   -0.110469
     19          1           0       -0.155118    2.650083   -0.912697
     20          1           0        1.369780    2.566254   -0.050624
     21          1           0       -0.127388    2.879150    0.846120
     22          1           0        1.743693    0.891876    1.548447
     23          1           0        0.853873   -0.618659    1.466816
 ---------------------------------------------------------------------

 SCF Done:  E(RHF) =  -702.428819213     A.U. after    2 cycles

 The electronic state is 1-A.
 Alpha  occ. eigenvalues --  -29.30655 -29.30539 -29.30467 -15.74408 -11.61087
 Alpha  occ. eigenvalues --  -11.53285 -11.46008 -11.44735 -11.43265 -11.40835
 Alpha  occ. eigenvalues --  -11.40471 -11.40248 -11.36115  -1.50431  -1.39945
 Alpha  occ. eigenvalues --   -1.29946  -1.10400  -1.09888  -1.06534  -0.95727
 Alpha  occ. eigenvalues --   -0.88630  -0.88384  -0.86464  -0.81685  -0.73253
 Alpha  occ. eigenvalues --   -0.72013  -0.66694  -0.64167  -0.63054  -0.60608
 Alpha  occ. eigenvalues --   -0.58764  -0.55308  -0.53815  -0.53349  -0.51343
 Alpha  occ. eigenvalues --   -0.47912  -0.45943  -0.44524  -0.43559  -0.42920
 Alpha  occ. eigenvalues --   -0.40895  -0.35947  -0.35762  -0.33268  -0.30381
 Alpha  occ. eigenvalues --   -0.26234  -0.25179  -0.24868  -0.21169
 Alpha virt. eigenvalues --    0.03560   0.05052   0.05200   0.05571   0.05875
 Alpha virt. eigenvalues --    0.06121   0.06517   0.07403   0.08763   0.08996
 Alpha virt. eigenvalues --    0.09849   0.10619   0.11703   0.12439   0.12633

 Mulliken charges:
               1
     1  C   -3.285716
     2  C   -1.160567
     3  C   -0.551419
     4  C   -1.001363
     5  C   -3.082143
     6  C    4.694528
     7  C   -4.406357
     8  C   -4.215615
     9  C    0.666473
    10  N   -4.442885
    11  F    0.224316
    12  F    0.412275
    13  F    0.308988
    14  H    1.586841
    15  H    1.510071
    16  H    1.535740
    17  H    1.979164
    18  H    1.892053
    19  H    1.482946
    20  H    1.287551
    21  H    1.459520
    22  H    1.480168
    23  H    1.625432
 Sum of Mulliken charges =  -0.00000

 Dipole moment (field-independent basis, Debye):
    X=              1.3758    Y=              0.3244    Z=             -0.7920  Tot=              1.6203

 Test job not archived.
 1\1\GINC-SE273\SP\RHF\Aug-CC-pVDZ\C9H10F3N1\OHZDE\06-Apr-2025\0\\#t hf
  aug-cc-pvdz iop(5/13=1,5/36=2,99/5=2) pseudo=read geom=check guess=(r
 ead,tcheck) scf=(maxcycle=1)\\title\\0,1\C,0,-3.674067,-0.853951,-0.08
 3418\C,0,-2.544884,-1.650937,0.067775\C,0,-3.509148,0.522321,-0.154373
 \C,0,-1.27901,-1.090719,0.146626\C,0,-2.24833,1.098967,-0.065846\C,0,-
 1.102333,0.302544,0.091353\C,0,0.314133,2.318038,0.012392\C,0,1.235426
 ,0.205711,0.866884\C,0,2.316851,-0.367967,-0.044102\N,0,0.170829,0.879
 498,0.166684\F,0,3.284492,-0.95041,0.698778\F,0,1.843375,-1.300588,-0.

 Normal termination of Gaussian 16 at Sun Apr  6 08:12:27 2025.
