 Gaussian 16, Revision C.01,

 ----------------------------------------------------------------------
 #t hf aug-cc-pvdz symm=none int=(grid=ultrafine) guess=(read,tcheck) s
 table=(opt,rrhf)
 ----------------------------------------------------------------------
 -----
 title
 -----
 Symbolic Z-matrix:
 Charge =  0 Multiplicity = 1

 SCF Done:  E(RHF) =  -606.603713143     A.U. after   14 cycles
 Normal termination of Gaussian 16 at Sun Apr  6 08:08:04 2025.
 Gaussian 16:  ES64L-G16RevC.01  3-Jul-2019

 ----------------------------------------------------------------------
 #t hf aug-cc-pvdz iop(5/13=1,5/36=2,99/5=2) pseudo=read geom=check gue
 ss=(read,tcheck) scf=(maxcycle=1)
 ----------------------------------------------------------------------
 -----
 title
 -----
 Structure from the checkpoint file:  "N-methylmethanesulfinamide.chk"
 Charge =  0 Multiplicity = 1

                         Standard orientation:
 ---------------------------------------------------------------------
 Center     Atomic      Atomic             Coordinates (Angstroms)
 Number     Number       Type             X           Y           Z
 ---------------------------------------------------------------------
      1          6           0       -2.176225   -0.108634    0.025106
      2          6           0        1.750470   -0.864926    0.195527
      3          7           0       -0.860662   -0.714324    0.273353
      4          8           0        0.496434    1.481896    0.368384
      5         16           0        0.435590    0.228882   -0.434302
      6          1           0       -2.186081    0.887800    0.460796
      7          1           0       -2.927918   -0.708978    0.535442
      8          1           0       -2.441606   -0.034928   -1.035315
      9          1           0        1.646109   -0.917873    1.276493
     10          1           0        2.694683   -0.403665   -0.084828
     11          1           0        1.666868   -1.848965   -0.264591
     12          1           0       -0.813806   -1.649042   -0.123504
 ---------------------------------------------------------------------

 SCF Done:  E(RHF) =  -607.836567725     A.U. after    2 cycles

 The electronic state is 1-A.
 Alpha  occ. eigenvalues --  -75.80194 -21.00589 -15.75264 -13.34958 -13.24384
 Alpha  occ. eigenvalues --  -13.18979 -11.40531 -11.39503  -8.14423  -1.69801
 Alpha  occ. eigenvalues --   -1.38054  -1.14048  -0.98817  -0.88919  -0.67586
 Alpha  occ. eigenvalues --   -0.62726  -0.62176  -0.60194  -0.55169  -0.50215
 Alpha  occ. eigenvalues --   -0.49324  -0.40619  -0.36946  -0.34008  -0.25583
 Alpha virt. eigenvalues --    0.03126   0.03412   0.05336   0.05417   0.06992
 Alpha virt. eigenvalues --    0.07552   0.08223   0.09188   0.11797   0.12075
 Alpha virt. eigenvalues --    0.13507   0.13918   0.15521   0.15639   0.16413

 Mulliken charges:
               1
     1  C   -3.146590
     2  C   -4.566866
     3  N   -2.485867
     4  O   -2.364142
     5  S    3.654382
     6  H    1.369502
     7  H    1.327691
     8  H    1.333868
     9  H    1.319511
    10  H    1.355109
    11  H    1.482080
    12  H    0.721320
 Sum of Mulliken charges =  -0.00000

 Dipole moment (field-independent basis, Debye):
    X=             -0.5545    Y=             -1.7371    Z=             -1.4023  Tot=              2.3003

 Test job not archived.
 1\1\GINC-SE276\SP\RHF\Aug-CC-pVDZ\C2H7N1O1S1\OHZDE\06-Apr-2025\0\\#t h
 f aug-cc-pvdz iop(5/13=1,5/36=2,99/5=2) pseudo=read geom=check guess=(
 read,tcheck) scf=(maxcycle=1)\\title\\0,1\C,0,-2.176225,-0.108634,0.02
 5106\C,0,1.75047,-0.864926,0.195527\N,0,-0.860662,-0.714324,0.273353\O
 ,0,0.496434,1.481896,0.368384\S,0,0.43559,0.228882,-0.434302\H,0,-2.18
 6081,0.8878,0.460796\H,0,-2.927918,-0.708978,0.535442\H,0,-2.441606,-0
 .034928,-1.035315\H,0,1.646109,-0.917873,1.276493\H,0,2.694683,-0.4036
 65,-0.084828\H,0,1.666868,-1.848965,-0.264591\H,0,-0.813806,-1.649042,

 Normal termination of Gaussian 16 at Sun Apr  6 08:08:08 2025.
