 Gaussian 16, Revision C.01,

 ----------------------------------------------------------------------
 #t hf aug-cc-pvdz symm=none int=(grid=ultrafine) guess=(read,tcheck) s
 table=(opt,rrhf)
 ----------------------------------------------------------------------
 -----
 title
 -----
 Symbolic Z-matrix:
 Charge =  0 Multiplicity = 1

 SCF Done:  E(RHF) =  -645.650830533     A.U. after   14 cycles
 Normal termination of Gaussian 16 at Sun Apr  6 08:08:21 2025.
 Gaussian 16:  ES64L-G16RevC.01  3-Jul-2019

 ----------------------------------------------------------------------
 #t hf aug-cc-pvdz iop(5/13=1,5/36=2,99/5=2) pseudo=read geom=check gue
 ss=(read,tcheck) scf=(maxcycle=1)
 ----------------------------------------------------------------------
 -----
 title
 -----
 Structure from the checkpoint file:  "N-methylethanesulfinamide.chk"
 Charge =  0 Multiplicity = 1

                         Standard orientation:
 ---------------------------------------------------------------------
 Center     Atomic      Atomic             Coordinates (Angstroms)
 Number     Number       Type             X           Y           Z
 ---------------------------------------------------------------------
      1          6           0       -2.139834   -0.710922    0.596826
      2          6           0        1.068695   -0.883406   -0.030439
      3          7           0       -1.459776   -0.309985   -0.644054
      4          8           0        0.011483    1.442982    0.707174
      5         16           0        0.021665    0.552366   -0.498920
      6          1           0       -1.644773   -1.577025    1.031747
      7          1           0       -3.157132   -1.003061    0.342196
      8          1           0       -2.170598    0.089547    1.338748
      9          6           0        2.503165   -0.427132    0.192491
     10          1           0        0.977363   -1.601303   -0.844626
     11          1           0        0.639979   -1.306459    0.877147
     12          1           0       -2.062842    0.266509   -1.218062
     13          1           0        2.551572    0.320870    0.982347
     14          1           0        2.931112    0.002810   -0.714236
     15          1           0        3.123098   -1.274945    0.485174
 ---------------------------------------------------------------------

 SCF Done:  E(RHF) =  -647.084766723     A.U. after    2 cycles

 The electronic state is 1-A.
 Alpha  occ. eigenvalues --  -75.79348 -20.99863 -15.75344 -13.33752 -13.24669
 Alpha  occ. eigenvalues --  -13.18897 -11.42278 -11.39696 -11.37512  -8.13614
 Alpha  occ. eigenvalues --   -1.68992  -1.38482  -1.19470  -1.04694  -0.94358
 Alpha  occ. eigenvalues --   -0.84964  -0.67576  -0.64430  -0.62962  -0.60104
 Alpha  occ. eigenvalues --   -0.56103  -0.53126  -0.51554  -0.48117  -0.47500
 Alpha  occ. eigenvalues --   -0.42118  -0.34621  -0.32574  -0.25876
 Alpha virt. eigenvalues --    0.03393   0.03812   0.04906   0.05645   0.06205
 Alpha virt. eigenvalues --    0.06743   0.07440   0.08038   0.08745   0.10395
 Alpha virt. eigenvalues --    0.11252   0.13200   0.13681   0.14164   0.14539

 Mulliken charges:
               1
     1  C   -3.407544
     2  C   -4.185696
     3  N   -2.432244
     4  O   -2.417257
     5  S    4.136207
     6  H    1.452843
     7  H    1.244632
     8  H    1.405469
     9  C   -3.550444
    10  H    1.523042
    11  H    1.777831
    12  H    0.672627
    13  H    1.332618
    14  H    1.344885
    15  H    1.103032
 Sum of Mulliken charges =   0.00000

 Dipole moment (field-independent basis, Debye):
    X=             -0.5445    Y=             -0.8646    Z=             -0.7938  Tot=              1.2939

 Test job not archived.
 1\1\GINC-SE275\SP\RHF\Aug-CC-pVDZ\C3H9N1O1S1\OHZDE\06-Apr-2025\0\\#t h
 f aug-cc-pvdz iop(5/13=1,5/36=2,99/5=2) pseudo=read geom=check guess=(
 read,tcheck) scf=(maxcycle=1)\\title\\0,1\C,0,-2.139834,-0.710922,0.59
 6826\C,0,1.068695,-0.883406,-0.030439\N,0,-1.459776,-0.309985,-0.64405
 4\O,0,0.011483,1.442982,0.707174\S,0,0.021665,0.552366,-0.49892\H,0,-1
 .644773,-1.577025,1.031747\H,0,-3.157132,-1.003061,0.342196\H,0,-2.170
 598,0.089547,1.338748\C,0,2.503165,-0.427132,0.192491\H,0,0.977363,-1.
 601303,-0.844626\H,0,0.639979,-1.306459,0.877147\H,0,-2.062842,0.26650

 Normal termination of Gaussian 16 at Sun Apr  6 08:08:26 2025.
