 Gaussian 16, Revision C.01,

 ----------------------------------------------------------------------
 #t hf aug-cc-pvdz symm=none int=(grid=ultrafine) guess=(read,tcheck) s
 table=(opt,rrhf)
 ----------------------------------------------------------------------
 -----
 title
 -----
 Symbolic Z-matrix:
 Charge =  0 Multiplicity = 1

 SCF Done:  E(RHF) =  -681.467451593     A.U. after   13 cycles
 Normal termination of Gaussian 16 at Sun Apr  6 08:08:14 2025.
 Gaussian 16:  ES64L-G16RevC.01  3-Jul-2019

 ----------------------------------------------------------------------
 #t hf aug-cc-pvdz iop(5/13=1,5/36=2,99/5=2) pseudo=read geom=check gue
 ss=(read,tcheck) scf=(maxcycle=1)
 ----------------------------------------------------------------------
 -----
 title
 -----
 Structure from the checkpoint file:  "N-methylmethanesulfonamide.chk"
 Charge =  0 Multiplicity = 1

                         Standard orientation:
 ---------------------------------------------------------------------
 Center     Atomic      Atomic             Coordinates (Angstroms)
 Number     Number       Type             X           Y           Z
 ---------------------------------------------------------------------
      1          6           0        2.232485    0.157277   -0.013976
      2          6           0       -0.853826    1.545278   -0.325744
      3          7           0        1.037219   -0.489380   -0.546136
      4          8           0       -0.349336   -0.241094    1.524633
      5          8           0       -1.388574   -1.007151   -0.660628
      6         16           0       -0.465777   -0.166383    0.079766
      7          1           0        3.102438   -0.419526   -0.323302
      8          1           0        2.182272    0.139562    1.071682
      9          1           0        2.358894    1.190381   -0.351993
     10          1           0       -0.896515    1.650085   -1.406514
     11          1           0       -1.825830    1.753160    0.115159
     12          1           0       -0.099483    2.195057    0.110415
     13          1           0        1.001456   -0.650307   -1.542474
 ---------------------------------------------------------------------

 SCF Done:  E(RHF) =  -683.033438844     A.U. after    2 cycles

 The electronic state is 1-A.
 Alpha  occ. eigenvalues --  -75.89695 -21.04116 -21.04063 -15.76945 -13.51797
 Alpha  occ. eigenvalues --  -13.41781 -13.35706 -11.42620 -11.41750  -8.24782
 Alpha  occ. eigenvalues --   -1.83231  -1.64856  -1.40514  -1.14166  -1.02921
 Alpha  occ. eigenvalues --   -0.87946  -0.70525  -0.65265  -0.64178  -0.62636
 Alpha  occ. eigenvalues --   -0.60265  -0.57415  -0.52718  -0.43182  -0.40313
 Alpha  occ. eigenvalues --   -0.39746  -0.38903  -0.36759  -0.35098
 Alpha virt. eigenvalues --    0.02217   0.03833   0.04639   0.05387   0.06691
 Alpha virt. eigenvalues --    0.07048   0.07684   0.10747   0.11206   0.12524
 Alpha virt. eigenvalues --    0.13231   0.14345   0.14817   0.15133   0.16036

 Mulliken charges:
               1
     1  C   -3.290733
     2  C   -4.573746
     3  N   -2.826374
     4  O   -2.569250
     5  O   -2.562740
     6  S    6.957304
     7  H    1.268045
     8  H    1.440050
     9  H    1.445512
    10  H    1.359149
    11  H    1.349298
    12  H    1.401988
    13  H    0.601496
 Sum of Mulliken charges =  -0.00000

 Dipole moment (field-independent basis, Debye):
    X=              2.1025    Y=              1.8701    Z=             -1.4642  Tot=              3.1720

 Test job not archived.
 1\1\GINC-SE276\SP\RHF\Aug-CC-pVDZ\C2H7N1O2S1\OHZDE\06-Apr-2025\0\\#t h
 f aug-cc-pvdz iop(5/13=1,5/36=2,99/5=2) pseudo=read geom=check guess=(
 read,tcheck) scf=(maxcycle=1)\\title\\0,1\C,0,2.232485,0.157278,-0.013
 976\C,0,-0.853827,1.545278,-0.325744\N,0,1.037219,-0.48938,-0.546136\O
 ,0,-0.349336,-0.241094,1.524633\O,0,-1.388574,-1.007152,-0.660628\S,0,
 -0.465777,-0.166383,0.079766\H,0,3.102438,-0.419525,-0.323302\H,0,2.18
 2272,0.139563,1.071682\H,0,2.358894,1.190382,-0.351993\H,0,-0.896516,1
 .650085,-1.406514\H,0,-1.825831,1.753159,0.115159\H,0,-0.099484,2.1950

 Normal termination of Gaussian 16 at Sun Apr  6 08:08:19 2025.
