 Gaussian 16, Revision C.01,

 ----------------------------------------------------------------------
 #t hf aug-cc-pvdz symm=none int=(grid=ultrafine) guess=(read,tcheck) s
 table=(opt,rrhf)
 ----------------------------------------------------------------------
 -----
 title
 -----
 Symbolic Z-matrix:
 Charge =  0 Multiplicity = 1

 SCF Done:  E(RHF) =  -661.638173025     A.U. after   14 cycles
 Normal termination of Gaussian 16 at Sun Apr  6 08:08:19 2025.
 Gaussian 16:  ES64L-G16RevC.01  3-Jul-2019

 ----------------------------------------------------------------------
 #t hf aug-cc-pvdz iop(5/13=1,5/36=2,99/5=2) pseudo=read geom=check gue
 ss=(read,tcheck) scf=(maxcycle=1)
 ----------------------------------------------------------------------
 -----
 title
 -----
 Structure from the checkpoint file:  "N-methylsulfinamoylmethanamine.chk"
 Charge =  0 Multiplicity = 1

                         Standard orientation:
 ---------------------------------------------------------------------
 Center     Atomic      Atomic             Coordinates (Angstroms)
 Number     Number       Type             X           Y           Z
 ---------------------------------------------------------------------
      1          6           0        2.348792   -0.536780    0.248659
      2          6           0       -2.054949   -0.747002    0.633612
      3          7           0        0.953152   -0.827439   -0.095931
      4          7           0       -1.433378   -0.277244   -0.614256
      5          8           0        0.101328    1.411281    0.730744
      6         16           0        0.030842    0.587441   -0.500901
      7          1           0        2.820782   -1.466819    0.562554
      8          1           0        2.364292    0.153252    1.088342
      9          1           0        2.932278   -0.107281   -0.573544
     10          1           0       -2.298120    0.067754    1.317861
     11          1           0       -1.373670   -1.430882    1.131354
     12          1           0       -2.964289   -1.286454    0.373636
     13          1           0        0.877511   -1.467415   -0.879936
     14          1           0       -2.064357    0.284026   -1.174130
 ---------------------------------------------------------------------

 SCF Done:  E(RHF) =  -663.125663625     A.U. after    2 cycles

 The electronic state is 1-A.
 Alpha  occ. eigenvalues --  -75.81732 -21.01013 -15.75431 -15.74680 -13.36489
 Alpha  occ. eigenvalues --  -13.27085 -13.22609 -11.39298 -11.39177  -8.16004
 Alpha  occ. eigenvalues --   -1.71304  -1.41485  -1.34133  -1.06065  -0.97174
 Alpha  occ. eigenvalues --   -0.87696  -0.68287  -0.67225  -0.62497  -0.59983
 Alpha  occ. eigenvalues --   -0.56437  -0.55548  -0.50775  -0.49584  -0.45568
 Alpha  occ. eigenvalues --   -0.38139  -0.36562  -0.33561  -0.26225
 Alpha virt. eigenvalues --    0.03513   0.03636   0.04799   0.05760   0.06388
 Alpha virt. eigenvalues --    0.07215   0.08069   0.08278   0.09893   0.11632
 Alpha virt. eigenvalues --    0.12054   0.13378   0.14135   0.15230   0.15596

 Mulliken charges:
               1
     1  C   -3.336277
     2  C   -3.371530
     3  N   -2.409404
     4  N   -2.380667
     5  O   -2.448970
     6  S    4.380911
     7  H    1.310896
     8  H    1.410993
     9  H    1.341834
    10  H    1.391333
    11  H    1.464516
    12  H    1.245226
    13  H    0.712100
    14  H    0.689040
 Sum of Mulliken charges =  -0.00000

 Dipole moment (field-independent basis, Debye):
    X=             -0.2776    Y=             -1.0028    Z=             -1.2753  Tot=              1.6460

 Test job not archived.
 1\1\GINC-SE453\SP\RHF\Aug-CC-pVDZ\C2H8N2O1S1\OHZDE\06-Apr-2025\0\\#t h
 f aug-cc-pvdz iop(5/13=1,5/36=2,99/5=2) pseudo=read geom=check guess=(
 read,tcheck) scf=(maxcycle=1)\\title\\0,1\C,0,2.348792,-0.53678,0.2486
 59\C,0,-2.054949,-0.747002,0.633612\N,0,0.953152,-0.827439,-0.095931\N
 ,0,-1.433378,-0.277244,-0.614256\O,0,0.101328,1.411281,0.730744\S,0,0.
 030842,0.587441,-0.500901\H,0,2.820782,-1.466819,0.562554\H,0,2.364292
 ,0.153252,1.088342\H,0,2.932278,-0.107281,-0.573544\H,0,-2.29812,0.067
 754,1.317861\H,0,-1.37367,-1.430882,1.131354\H,0,-2.964289,-1.286453,0

 Normal termination of Gaussian 16 at Sun Apr  6 08:08:24 2025.
