 Gaussian 16, Revision C.01,

 ----------------------------------------------------------------------
 #t hf aug-cc-pvdz symm=none int=(grid=ultrafine) guess=(read,tcheck) s
 table=(opt,rrhf)
 ----------------------------------------------------------------------
 -----
 title
 -----
 Symbolic Z-matrix:
 Charge =  0 Multiplicity = 1

 SCF Done:  E(RHF) =  -247.042321938     A.U. after   13 cycles
 Normal termination of Gaussian 16 at Sun Apr  6 08:08:03 2025.
 Gaussian 16:  ES64L-G16RevC.01  3-Jul-2019

 ----------------------------------------------------------------------
 #t hf aug-cc-pvdz iop(5/13=1,5/36=2,99/5=2) pseudo=read geom=check gue
 ss=(read,tcheck) scf=(maxcycle=1)
 ----------------------------------------------------------------------
 -----
 title
 -----
 Structure from the checkpoint file:  "N-methylacetamide.chk"
 Charge =  0 Multiplicity = 1

                         Standard orientation:
 ---------------------------------------------------------------------
 Center     Atomic      Atomic             Coordinates (Angstroms)
 Number     Number       Type             X           Y           Z
 ---------------------------------------------------------------------
      1          6           0        0.484528    0.165592    0.000016
      2          6           0        1.812482   -0.565934   -0.000009
      3          6           0       -1.975116   -0.101915   -0.000016
      4          7           0       -0.623641   -0.629072    0.000038
      5          8           0        0.425955    1.384169   -0.000000
      6          1           0        2.378559   -0.258444   -0.878404
      7          1           0        2.378838   -0.257978    0.878038
      8          1           0        1.716856   -1.651294    0.000288
      9          1           0       -2.523186   -0.423664   -0.887098
     10          1           0       -1.906742    0.982265   -0.000850
     11          1           0       -2.522801   -0.422285    0.887811
     12          1           0       -0.495040   -1.624899    0.000005
 ---------------------------------------------------------------------

 SCF Done:  E(RHF) =  -248.185085262     A.U. after    2 cycles

 The electronic state is 1-A.
 Alpha  occ. eigenvalues --  -21.01122 -15.76072 -11.49185 -11.39464 -11.38522
 Alpha  occ. eigenvalues --   -1.69524  -1.38671  -1.10927  -0.98839  -0.78873
 Alpha  occ. eigenvalues --   -0.67948  -0.62698  -0.61644  -0.58092  -0.54589
 Alpha  occ. eigenvalues --   -0.52119  -0.46850  -0.46309  -0.30207  -0.28025
 Alpha virt. eigenvalues --    0.03241   0.04654   0.05453   0.05857   0.06720
 Alpha virt. eigenvalues --    0.06921   0.08262   0.10967   0.12264   0.12865
 Alpha virt. eigenvalues --    0.13113   0.14504   0.15447   0.15992   0.16670

 Mulliken charges:
               1
     1  C    4.983761
     2  C   -4.227893
     3  C   -3.278014
     4  N   -2.725392
     5  O   -3.300188
     6  H    1.218381
     7  H    1.218326
     8  H    1.347246
     9  H    1.296006
    10  H    1.411074
    11  H    1.296023
    12  H    0.760670
 Sum of Mulliken charges =  -0.00000

 Dipole moment (field-independent basis, Debye):
    X=             -0.7320    Y=             -2.4661    Z=             -0.0002  Tot=              2.5725

 Test job not archived.
 1\1\GINC-SE422\SP\RHF\Aug-CC-pVDZ\C3H7N1O1\OHZDE\06-Apr-2025\0\\#t hf
 aug-cc-pvdz iop(5/13=1,5/36=2,99/5=2) pseudo=read geom=check guess=(re
 ad,tcheck) scf=(maxcycle=1)\\title\\0,1\C,0,0.484528,0.165592,0.000016
 \C,0,1.812482,-0.565934,-0.000009\C,0,-1.975116,-0.101915,-0.000016\N,
 0,-0.623641,-0.629072,0.000038\O,0,0.425955,1.384169,0.\H,0,2.378559,-
 0.258444,-0.878404\H,0,2.378838,-0.257978,0.878038\H,0,1.716856,-1.651
 294,0.000288\H,0,-2.523186,-0.423664,-0.887098\H,0,-1.906742,0.982265,
 -0.00085\H,0,-2.522801,-0.422285,0.887811\H,0,-0.49504,-1.624899,0.000

 Normal termination of Gaussian 16 at Sun Apr  6 08:08:08 2025.
