 Gaussian 16, Revision C.01,

 ----------------------------------------------------------------------
 #t hf aug-cc-pvdz symm=none int=(grid=ultrafine) guess=(read,tcheck) s
 table=(opt,rrhf)
 ----------------------------------------------------------------------
 -----
 title
 -----
 Symbolic Z-matrix:
 Charge =  0 Multiplicity = 1

 SCF Done:  E(RHF) =  -829.123816591     A.U. after   16 cycles
 Normal termination of Gaussian 16 at Sun Apr  6 08:09:17 2025.
 Gaussian 16:  ES64L-G16RevC.01  3-Jul-2019

 ----------------------------------------------------------------------
 #t hf aug-cc-pvdz iop(5/13=1,5/36=2,99/5=2) pseudo=read geom=check gue
 ss=(read,tcheck) scf=(maxcycle=1)
 ----------------------------------------------------------------------
 -----
 title
 -----
 Structure from the checkpoint file:  "N-methylpyrimidine-5-sulfinamide.chk"
 Charge =  0 Multiplicity = 1

                         Standard orientation:
 ---------------------------------------------------------------------
 Center     Atomic      Atomic             Coordinates (Angstroms)
 Number     Number       Type             X           Y           Z
 ---------------------------------------------------------------------
      1          6           0       -1.066927    0.993447    0.503517
      2          6           0       -1.369945   -1.059353   -0.651102
      3          6           0       -3.086115   -0.027909    0.398756
      4          6           0       -0.518719   -0.048949   -0.236276
      5          6           0        3.264554   -0.589277    0.915395
      6          7           0       -2.356726    1.004528    0.828796
      7          7           0       -2.664799   -1.059267   -0.329369
      8          7           0        1.810425   -0.382266    0.877742
      9          8           0        1.609131    1.384777   -0.978583
     10         16           0        1.227894   -0.030720   -0.731013
     11          1           0       -0.454317    1.827531    0.822442
     12          1           0       -1.012893   -1.886063   -1.256520
     13          1           0       -4.135818   -0.021604    0.667155
     14          1           0        3.754433    0.313715    0.557523
     15          1           0        3.609015   -1.442093    0.321297
     16          1           0        3.556910   -0.741479    1.953119
     17          1           0        1.303932   -1.185425    1.237919
 ---------------------------------------------------------------------

 SCF Done:  E(RHF) =  -831.329368215     A.U. after    2 cycles

 The electronic state is 1-A.
 Alpha  occ. eigenvalues --  -75.82547 -21.02263 -15.76475 -15.76389 -15.76274
 Alpha  occ. eigenvalues --  -13.38191 -13.30871 -13.24133 -11.50289 -11.48932
 Alpha  occ. eigenvalues --  -11.45655 -11.42293 -11.40676  -8.16736  -1.71836
 Alpha  occ. eigenvalues --   -1.53441  -1.39268  -1.32358  -1.20782  -1.06155
 Alpha  occ. eigenvalues --   -0.95768  -0.94946  -0.89247  -0.76857  -0.69561
 Alpha  occ. eigenvalues --   -0.66938  -0.63037  -0.61217  -0.59496  -0.59118
 Alpha  occ. eigenvalues --   -0.57810  -0.55987  -0.52898  -0.45826  -0.42621
 Alpha  occ. eigenvalues --   -0.41937  -0.39393  -0.37729  -0.36594  -0.34604
 Alpha  occ. eigenvalues --   -0.27080
 Alpha virt. eigenvalues --    0.02919   0.03769   0.04688   0.05421   0.06080
 Alpha virt. eigenvalues --    0.06874   0.07684   0.08323   0.08692   0.09736
 Alpha virt. eigenvalues --    0.10105   0.10630   0.10687   0.11646   0.12312

 Mulliken charges:
               1
     1  C   -1.204933
     2  C   -0.653201
     3  C    1.144266
     4  C    1.459503
     5  C   -3.254691
     6  N   -3.373732
     7  N   -3.500836
     8  N   -2.375039
     9  O   -2.561574
    10  S    4.549585
    11  H    1.604894
    12  H    1.625819
    13  H    1.643758
    14  H    1.348359
    15  H    1.396488
    16  H    1.331803
    17  H    0.819531
 Sum of Mulliken charges =  -0.00000

 Dipole moment (field-independent basis, Debye):
    X=              1.2730    Y=             -2.0116    Z=              0.3712  Tot=              2.4094

 Test job not archived.
 1\1\GINC-SE344\SP\RHF\Aug-CC-pVDZ\C5H7N3O1S1\OHZDE\06-Apr-2025\0\\#t h
 f aug-cc-pvdz iop(5/13=1,5/36=2,99/5=2) pseudo=read geom=check guess=(
 read,tcheck) scf=(maxcycle=1)\\title\\0,1\C,0,-1.066927,0.993447,0.503
 517\C,0,-1.369945,-1.059353,-0.651102\C,0,-3.086115,-0.027909,0.398756
 \C,0,-0.518719,-0.048949,-0.236276\C,0,3.264554,-0.589277,0.915395\N,0
 ,-2.356726,1.004528,0.828796\N,0,-2.664799,-1.059267,-0.329369\N,0,1.8
 10425,-0.382266,0.877742\O,0,1.609131,1.384777,-0.978583\S,0,1.227894,
 -0.03072,-0.731013\H,0,-0.454317,1.827531,0.822442\H,0,-1.012893,-1.88

 Normal termination of Gaussian 16 at Sun Apr  6 08:10:13 2025.
