 Gaussian 16, Revision C.01,

 ----------------------------------------------------------------------
 #t hf aug-cc-pvdz symm=none int=(grid=ultrafine) guess=(read,tcheck) s
 table=(opt,rrhf)
 ----------------------------------------------------------------------
 -----
 title
 -----
 Symbolic Z-matrix:
 Charge =  0 Multiplicity = 1

 SCF Done:  E(RHF) =  -469.567695605     A.U. after   16 cycles
 Normal termination of Gaussian 16 at Sun Apr  6 08:08:57 2025.
 Gaussian 16:  ES64L-G16RevC.01  3-Jul-2019

 ----------------------------------------------------------------------
 #t hf aug-cc-pvdz iop(5/13=1,5/36=2,99/5=2) pseudo=read geom=check gue
 ss=(read,tcheck) scf=(maxcycle=1)
 ----------------------------------------------------------------------
 -----
 title
 -----
 Structure from the checkpoint file:  "N-methylpyrimidine-2-carboxamide.chk"
 Charge =  0 Multiplicity = 1

                         Standard orientation:
 ---------------------------------------------------------------------
 Center     Atomic      Atomic             Coordinates (Angstroms)
 Number     Number       Type             X           Y           Z
 ---------------------------------------------------------------------
      1          6           0       -2.911807   -0.353161    0.000000
      2          6           0       -1.970075   -1.370420    0.000028
      3          6           0       -2.420063    0.945020   -0.000029
      4          6           0       -0.295388    0.168403   -0.000001
      5          6           0        1.202333    0.467839    0.000009
      6          6           0        3.415957   -0.609641   -0.000010
      7          7           0       -0.663500   -1.117055    0.000026
      8          7           0       -1.117120    1.213429   -0.000028
      9          7           0        1.969122   -0.648818   -0.000052
     10          8           0        1.629250    1.606620    0.000055
     11          1           0       -3.971769   -0.560591    0.000002
     12          1           0       -2.264814   -2.413448    0.000052
     13          1           0       -3.089232    1.798175   -0.000054
     14          1           0        3.820894   -1.101243   -0.886355
     15          1           0        3.820882   -1.099999    0.887039
     16          1           0        3.726013    0.431675   -0.000714
     17          1           0        1.478770   -1.528660   -0.000016
 ---------------------------------------------------------------------

 SCF Done:  E(RHF) =  -471.691912862     A.U. after    2 cycles

 The electronic state is 1-A.
 Alpha  occ. eigenvalues --  -21.01737 -15.76253 -15.75611 -15.75453 -11.52655
 Alpha  occ. eigenvalues --  -11.49111 -11.47625 -11.45129 -11.41156 -11.39556
 Alpha  occ. eigenvalues --   -1.70160  -1.53041  -1.38729  -1.31969  -1.19003
 Alpha  occ. eigenvalues --   -1.03703  -0.94544  -0.93094  -0.80942  -0.76053
 Alpha  occ. eigenvalues --   -0.68411  -0.66246  -0.62649  -0.62024  -0.59315
 Alpha  occ. eigenvalues --   -0.58920  -0.56159  -0.54194  -0.49599  -0.48074
 Alpha  occ. eigenvalues --   -0.44178  -0.41742  -0.37470  -0.35884  -0.29883
 Alpha  occ. eigenvalues --   -0.28163
 Alpha virt. eigenvalues --    0.02792   0.04458   0.04824   0.05509   0.06283
 Alpha virt. eigenvalues --    0.07219   0.08265   0.08598   0.08770   0.09458
 Alpha virt. eigenvalues --    0.10357   0.11490   0.11752   0.13136   0.13656

 Mulliken charges:
               1
     1  C   -0.614063
     2  C   -0.112069
     3  C   -0.149397
     4  C    2.149759
     5  C    6.893207
     6  C   -3.239906
     7  N   -3.654786
     8  N   -3.908881
     9  N   -3.379693
    10  O   -3.750450
    11  H    1.418780
    12  H    1.680612
    13  H    1.664125
    14  H    1.372585
    15  H    1.372649
    16  H    1.449011
    17  H    0.808517
 Sum of Mulliken charges =  -0.00000

 Dipole moment (field-independent basis, Debye):
    X=             -2.3530    Y=             -2.7509    Z=             -0.0001  Tot=              3.6199

 Test job not archived.
 1\1\GINC-SE343\SP\RHF\Aug-CC-pVDZ\C6H7N3O1\OHZDE\06-Apr-2025\0\\#t hf
 aug-cc-pvdz iop(5/13=1,5/36=2,99/5=2) pseudo=read geom=check guess=(re
 ad,tcheck) scf=(maxcycle=1)\\title\\0,1\C,0,-2.911807,-0.353161,0.\C,0
 ,-1.970075,-1.37042,0.000028\C,0,-2.420063,0.94502,-0.000029\C,0,-0.29
 5388,0.168403,-0.000001\C,0,1.202333,0.467839,0.000009\C,0,3.415957,-0
 .609641,-0.00001\N,0,-0.6635,-1.117055,0.000026\N,0,-1.11712,1.213429,
 -0.000028\N,0,1.969122,-0.648818,-0.000052\O,0,1.62925,1.60662,0.00005
 5\H,0,-3.971769,-0.560591,0.000002\H,0,-2.264814,-2.413448,0.000052\H,

 Normal termination of Gaussian 16 at Sun Apr  6 08:10:12 2025.
