 Gaussian 16, Revision C.01,

 ----------------------------------------------------------------------
 #t hf aug-cc-pvdz symm=none int=(grid=ultrafine) guess=(read,tcheck) s
 table=(opt,rrhf)
 ----------------------------------------------------------------------
 -----
 title
 -----
 Symbolic Z-matrix:
 Charge =  0 Multiplicity = 1

 SCF Done:  E(RHF) =  -211.166847627     A.U. after   13 cycles
 Normal termination of Gaussian 16 at Sun Apr  6 08:08:11 2025.
 Gaussian 16:  ES64L-G16RevC.01  3-Jul-2019

 ----------------------------------------------------------------------
 #t hf aug-cc-pvdz iop(5/13=1,5/36=2,99/5=2) pseudo=read geom=check gue
 ss=(read,tcheck) scf=(maxcycle=1)
 ----------------------------------------------------------------------
 -----
 title
 -----
 Structure from the checkpoint file:  "N-methyl-2-propanimine.chk"
 Charge =  0 Multiplicity = 1

                         Standard orientation:
 ---------------------------------------------------------------------
 Center     Atomic      Atomic             Coordinates (Angstroms)
 Number     Number       Type             X           Y           Z
 ---------------------------------------------------------------------
      1          6           0        0.000000    0.400135    0.000000
      2          6           0       -0.559646    1.800763    0.000000
      3          6           0        1.512118    0.333612    0.000000
      4          6           0       -0.421806   -1.955288    0.000000
      5          7           0       -0.823365   -0.565462    0.000000
      6          1           0       -0.214550    2.354611    0.877083
      7          1           0       -0.214550    2.354611   -0.877083
      8          1           0       -1.645869    1.770131    0.000000
      9          1           0        1.903128    0.856799    0.875493
     10          1           0        1.903128    0.856799   -0.875493
     11          1           0        1.909280   -0.676287    0.000000
     12          1           0       -0.857799   -2.442000   -0.874888
     13          1           0       -0.857799   -2.442000    0.874888
     14          1           0        0.654591   -2.149764    0.000000
 ---------------------------------------------------------------------

 SCF Done:  E(RHF) =  -212.231016505     A.U. after    2 cycles

 The electronic state is 1-A'.
 Alpha  occ. eigenvalues --  -15.71000 -11.43845 -11.38418 -11.37468 -11.36089
 Alpha  occ. eigenvalues --   -1.38603  -1.13773  -1.02621  -0.96041  -0.72216
 Alpha  occ. eigenvalues --   -0.63610  -0.61157  -0.60877  -0.56515  -0.53831
 Alpha  occ. eigenvalues --   -0.53220  -0.50761  -0.47482  -0.36421  -0.33474
 Alpha virt. eigenvalues --    0.03398   0.05467   0.05794   0.05928   0.06363
 Alpha virt. eigenvalues --    0.06919   0.07163   0.07200   0.09178   0.10872
 Alpha virt. eigenvalues --    0.13282   0.14187   0.14431   0.15092   0.15406

 Mulliken charges:
               1
     1  C    3.191511
     2  C   -4.078163
     3  C   -4.279731
     4  C   -3.367568
     5  N   -3.451715
     6  H    1.235904
     7  H    1.235904
     8  H    1.379719
     9  H    1.251817
    10  H    1.251817
    11  H    1.502094
    12  H    1.304263
    13  H    1.304263
    14  H    1.519884
 Sum of Mulliken charges =  -0.00000

 Dipole moment (field-independent basis, Debye):
    X=              1.5167    Y=              0.2350    Z=             -0.0000  Tot=              1.5348

 Test job not archived.
 1\1\GINC-SE273\SP\RHF\Aug-CC-pVDZ\C4H9N1\OHZDE\06-Apr-2025\0\\#t hf au
 g-cc-pvdz iop(5/13=1,5/36=2,99/5=2) pseudo=read geom=check guess=(read
 ,tcheck) scf=(maxcycle=1)\\title\\0,1\C,0,0.,0.400135,0.\C,0,-0.559646
 ,1.800763,0.\C,0,1.512118,0.333612,0.\C,0,-0.421806,-1.955288,0.\N,0,-
 0.823365,-0.565462,0.\H,0,-0.21455,2.354611,0.877083\H,0,-0.21455,2.35
 4611,-0.877083\H,0,-1.645869,1.770131,0.\H,0,1.903128,0.856799,0.87549
 3\H,0,1.903128,0.856799,-0.875493\H,0,1.90928,-0.676287,0.\H,0,-0.8577
 99,-2.442,-0.874888\H,0,-0.857799,-2.442,0.874888\H,0,0.654591,-2.1497

 Normal termination of Gaussian 16 at Sun Apr  6 08:08:14 2025.
