 Gaussian 16, Revision C.01,

 ----------------------------------------------------------------------
 #t hf aug-cc-pvdz symm=none int=(grid=ultrafine) guess=(read,tcheck) s
 table=(opt,rrhf)
 ----------------------------------------------------------------------
 -----
 title
 -----
 Symbolic Z-matrix:
 Charge =  0 Multiplicity = 1

 SCF Done:  E(RHF) =  -324.797636762     A.U. after   15 cycles
 Normal termination of Gaussian 16 at Sun Apr  6 08:08:42 2025.
 Gaussian 16:  ES64L-G16RevC.01  3-Jul-2019

 ----------------------------------------------------------------------
 #t hf aug-cc-pvdz iop(5/13=1,5/36=2,99/5=2) pseudo=read geom=check gue
 ss=(read,tcheck) scf=(maxcycle=1)
 ----------------------------------------------------------------------
 -----
 title
 -----
 Structure from the checkpoint file:  "N-methylaniline.chk"
 Charge =  0 Multiplicity = 1

                         Standard orientation:
 ---------------------------------------------------------------------
 Center     Atomic      Atomic             Coordinates (Angstroms)
 Number     Number       Type             X           Y           Z
 ---------------------------------------------------------------------
      1          6           0        2.308280    0.333913    0.032715
      2          6           0        1.874791   -0.990670    0.036977
      3          6           0        1.359701    1.346306   -0.009499
      4          6           0        0.525138   -1.293489   -0.004025
      5          6           0       -0.000206    1.056554   -0.046565
      6          6           0       -0.440752   -0.273922   -0.049701
      7          6           0       -2.835641    0.363095    0.089889
      8          7           0       -1.783597   -0.606016   -0.128315
      9          1           0        3.363058    0.567419    0.063881
     10          1           0        2.596525   -1.796291    0.072123
     11          1           0        1.674892    2.381687   -0.010024
     12          1           0        0.202937   -2.328068   -0.007472
     13          1           0       -0.713687    1.866797   -0.075478
     14          1           0       -2.839553    1.117185   -0.699380
     15          1           0       -2.751251    0.880801    1.053410
     16          1           0       -3.794605   -0.149894    0.057667
     17          1           0       -2.001002   -1.548246    0.144734
 ---------------------------------------------------------------------

 SCF Done:  E(RHF) =  -326.376873066     A.U. after    2 cycles

 The electronic state is 1-A.
 Alpha  occ. eigenvalues --  -15.73965 -11.51519 -11.44114 -11.42093 -11.39685
 Alpha  occ. eigenvalues --  -11.39218 -11.39082 -11.35036  -1.43505  -1.27968
 Alpha  occ. eigenvalues --   -1.08890  -1.07641  -0.96786  -0.86108  -0.82719
 Alpha  occ. eigenvalues --   -0.71285  -0.67125  -0.62860  -0.60772  -0.58852
 Alpha  occ. eigenvalues --   -0.57105  -0.52882  -0.52407  -0.50561  -0.45082
 Alpha  occ. eigenvalues --   -0.43268  -0.40125  -0.32498  -0.25744
 Alpha virt. eigenvalues --    0.03479   0.04720   0.05010   0.05906   0.06232
 Alpha virt. eigenvalues --    0.06567   0.06989   0.07893   0.09404   0.10387
 Alpha virt. eigenvalues --    0.11828   0.13076   0.13337   0.13491   0.13852

 Mulliken charges:
               1
     1  C   -2.869115
     2  C   -0.028750
     3  C   -0.509216
     4  C   -3.385847
     5  C   -2.148459
     6  C    4.294471
     7  C   -3.911635
     8  N   -4.404260
     9  H    1.550030
    10  H    1.489702
    11  H    1.512714
    12  H    1.722090
    13  H    1.846851
    14  H    1.419990
    15  H    1.329179
    16  H    1.383335
    17  H    0.708920
 Sum of Mulliken charges =  -0.00000

 Dipole moment (field-independent basis, Debye):
    X=             -1.5183    Y=             -0.4649    Z=              0.3856  Tot=              1.6340

 Test job not archived.
 1\1\GINC-SE275\SP\RHF\Aug-CC-pVDZ\C7H9N1\OHZDE\06-Apr-2025\0\\#t hf au
 g-cc-pvdz iop(5/13=1,5/36=2,99/5=2) pseudo=read geom=check guess=(read
 ,tcheck) scf=(maxcycle=1)\\title\\0,1\C,0,2.30828,0.333913,0.032715\C,
 0,1.874791,-0.99067,0.036977\C,0,1.359701,1.346306,-0.009499\C,0,0.525
 138,-1.293489,-0.004025\C,0,-0.000206,1.056554,-0.046565\C,0,-0.440752
 ,-0.273922,-0.049701\C,0,-2.835641,0.363095,0.089889\N,0,-1.783597,-0.
 606016,-0.128315\H,0,3.363058,0.567419,0.063881\H,0,2.596525,-1.796291
 ,0.072123\H,0,1.674892,2.381687,-0.010024\H,0,0.202937,-2.328068,-0.00

 Normal termination of Gaussian 16 at Sun Apr  6 08:08:48 2025.
