 Gaussian 16, Revision C.01,

 ----------------------------------------------------------------------
 #t hf aug-cc-pvdz symm=none int=(grid=ultrafine) guess=(read,tcheck) s
 table=(opt,rrhf)
 ----------------------------------------------------------------------
 -----
 title
 -----
 Symbolic Z-matrix:
 Charge =  0 Multiplicity = 1

 SCF Done:  E(RHF) =  -133.080427865     A.U. after   12 cycles
 Normal termination of Gaussian 16 at Sun Apr  6 08:07:53 2025.
 Gaussian 16:  ES64L-G16RevC.01  3-Jul-2019

 ----------------------------------------------------------------------
 #t hf aug-cc-pvdz iop(5/13=1,5/36=2,99/5=2) pseudo=read geom=check gue
 ss=(read,tcheck) scf=(maxcycle=1)
 ----------------------------------------------------------------------
 -----
 title
 -----
 Structure from the checkpoint file:  "N-methylmethanimine.chk"
 Charge =  0 Multiplicity = 1

                         Standard orientation:
 ---------------------------------------------------------------------
 Center     Atomic      Atomic             Coordinates (Angstroms)
 Number     Number       Type             X           Y           Z
 ---------------------------------------------------------------------
      1          6           0       -1.074952   -0.423350    0.000000
      2          7           0        0.000000    0.548631    0.000000
      3          6           0        1.187443    0.128587    0.000000
      4          1           0       -0.726044   -1.464229    0.000000
      5          1           0       -1.702940   -0.256325    0.876539
      6          1           0       -1.702940   -0.256325   -0.876539
      7          1           0        1.449451   -0.937256    0.000000
      8          1           0        2.007530    0.842294    0.000000
 ---------------------------------------------------------------------

 SCF Done:  E(RHF) =  -133.727910912     A.U. after    2 cycles

 The electronic state is 1-A'.
 Alpha  occ. eigenvalues --  -15.73669 -11.40916 -11.38221  -1.37786  -1.02369
 Alpha  occ. eigenvalues --   -0.82029  -0.65609  -0.59940  -0.58880  -0.51787
 Alpha  occ. eigenvalues --   -0.39851  -0.36778
 Alpha virt. eigenvalues --    0.03677   0.05404   0.05936   0.06722   0.07222
 Alpha virt. eigenvalues --    0.10500   0.11053   0.13915   0.14893   0.16077
 Alpha virt. eigenvalues --    0.16087   0.18166   0.19484   0.19708   0.21685

 Mulliken charges:
               1
     1  C   -3.022345
     2  N   -2.244537
     3  C   -1.363697
     4  H    1.257238
     5  H    1.277127
     6  H    1.277127
     7  H    1.454519
     8  H    1.364569
 Sum of Mulliken charges =  -0.00000

 Dipole moment (field-independent basis, Debye):
    X=              0.4111    Y=             -1.1987    Z=             -0.0000  Tot=              1.2672

 Test job not archived.
 1\1\GINC-SE343\SP\RHF\Aug-CC-pVDZ\C2H5N1\OHZDE\06-Apr-2025\0\\#t hf au
 g-cc-pvdz iop(5/13=1,5/36=2,99/5=2) pseudo=read geom=check guess=(read
 ,tcheck) scf=(maxcycle=1)\\title\\0,1\C,0,-1.074952,-0.42335,0.\N,0,0.
 ,0.548631,0.\C,0,1.187443,0.128587,0.\H,0,-0.726044,-1.464229,0.\H,0,-
 1.70294,-0.256326,0.876539\H,0,-1.70294,-0.256326,-0.876539\H,0,1.4494
 51,-0.937256,0.\H,0,2.00753,0.842294,0.\\Version=ES64L-G16RevC.01\Stat
 e=1-A'\HF=-133.7279109\RMSD=6.070e-02\Dipole=0.1617197,-0.4716024,0.\Q
 uadrupole=1.8452734,-1.4379886,-0.4072848,0.3325115,0.,0.\PG=CS [SG(C2

 Normal termination of Gaussian 16 at Sun Apr  6 08:07:59 2025.
