 Gaussian 16, Revision C.01,

 ----------------------------------------------------------------------
 #t hf aug-cc-pvdz symm=none int=(grid=ultrafine) guess=(read,tcheck) s
 table=(opt,rrhf)
 ----------------------------------------------------------------------
 -----
 title
 -----
 Symbolic Z-matrix:
 Charge =  0 Multiplicity = 1

 SCF Done:  E(RHF) =  -903.986667154     A.U. after   15 cycles
 Normal termination of Gaussian 16 at Sun Apr  6 08:09:34 2025.
 Gaussian 16:  ES64L-G16RevC.01  3-Jul-2019

 ----------------------------------------------------------------------
 #t hf aug-cc-pvdz iop(5/13=1,5/36=2,99/5=2) pseudo=read geom=check gue
 ss=(read,tcheck) scf=(maxcycle=1)
 ----------------------------------------------------------------------
 -----
 title
 -----
 Structure from the checkpoint file:  "N-methylpyrimidine-5-sulfonamide.chk"
 Charge =  0 Multiplicity = 1

                         Standard orientation:
 ---------------------------------------------------------------------
 Center     Atomic      Atomic             Coordinates (Angstroms)
 Number     Number       Type             X           Y           Z
 ---------------------------------------------------------------------
      1          6           0       -1.325488   -1.023014   -0.620671
      2          6           0       -1.153772    0.908207    0.754322
      3          6           0       -3.123935    0.272789   -0.162363
      4          6           0       -0.530909   -0.169977    0.137241
      5          6           0        1.986994    1.737827   -1.056432
      6          7           0       -2.628272   -0.802402   -0.775809
      7          7           0       -2.457181    1.136617    0.601107
      8          7           0        1.994174    0.281587   -0.935689
      9          8           0        1.635439    0.218540    1.535945
     10          8           0        1.440056   -1.889346    0.122330
     11         16           0        1.229691   -0.470095    0.327322
     12          1           0       -0.905378   -1.902771   -1.092500
     13          1           0       -0.596738    1.583105    1.391696
     14          1           0       -4.183013    0.459325   -0.293879
     15          1           0        1.020179    2.141933   -1.369626
     16          1           0        2.740545    2.019831   -1.789059
     17          1           0        2.264660    2.168978   -0.098408
     18          1           0        1.902340   -0.248049   -1.791428
 ---------------------------------------------------------------------

 SCF Done:  E(RHF) =  -906.525896521     A.U. after    2 cycles

 The electronic state is 1-A.
 Alpha  occ. eigenvalues --  -75.91808 -21.05885 -21.05829 -15.78129 -15.77094
 Alpha  occ. eigenvalues --  -15.77058 -13.54541 -13.44476 -13.41448 -11.51069
 Alpha  occ. eigenvalues --  -11.50085 -11.46560 -11.43529 -11.42567  -8.26872
 Alpha  occ. eigenvalues --   -1.85208  -1.66899  -1.54194  -1.41636  -1.33154
 Alpha  occ. eigenvalues --   -1.21524  -1.06161  -0.98169  -0.95950  -0.88800
 Alpha  occ. eigenvalues --   -0.78025  -0.72510  -0.67859  -0.65988  -0.64845
 Alpha  occ. eigenvalues --   -0.60907  -0.60590  -0.60145  -0.58768  -0.55009
 Alpha  occ. eigenvalues --   -0.48695  -0.45684  -0.44051  -0.43010  -0.41571
 Alpha  occ. eigenvalues --   -0.40979  -0.38229  -0.37087  -0.36796  -0.36416
 Alpha virt. eigenvalues --    0.02465   0.04093   0.04791   0.05419   0.06018
 Alpha virt. eigenvalues --    0.06775   0.07317   0.07897   0.08444   0.09016
 Alpha virt. eigenvalues --    0.10016   0.10662   0.10840   0.12028   0.12226

 Mulliken charges:
               1
     1  C   -1.078886
     2  C   -0.765232
     3  C    1.044254
     4  C    1.510314
     5  C   -3.548704
     6  N   -3.399097
     7  N   -3.467904
     8  N   -2.759983
     9  O   -2.795255
    10  O   -2.793662
    11  S    8.061078
    12  H    1.680729
    13  H    1.765371
    14  H    1.665107
    15  H    1.548415
    16  H    1.294111
    17  H    1.431847
    18  H    0.607495
 Sum of Mulliken charges =   0.00000

 Dipole moment (field-independent basis, Debye):
    X=              0.2054    Y=              1.6180    Z=             -2.1399  Tot=              2.6906

 Test job not archived.
 1\1\GINC-SE344\SP\RHF\Aug-CC-pVDZ\C5H7N3O2S1\OHZDE\06-Apr-2025\0\\#t h
 f aug-cc-pvdz iop(5/13=1,5/36=2,99/5=2) pseudo=read geom=check guess=(
 read,tcheck) scf=(maxcycle=1)\\title\\0,1\C,0,-1.325488,-1.023014,-0.6
 20671\C,0,-1.153772,0.908207,0.754322\C,0,-3.123935,0.272789,-0.162363
 \C,0,-0.530909,-0.169977,0.137241\C,0,1.986994,1.737827,-1.056432\N,0,
 -2.628272,-0.802402,-0.775809\N,0,-2.457181,1.136617,0.601107\N,0,1.99
 4174,0.281587,-0.935689\O,0,1.635439,0.21854,1.535945\O,0,1.440056,-1.
 889346,0.12233\S,0,1.229691,-0.470095,0.327322\H,0,-0.905378,-1.902771

 Normal termination of Gaussian 16 at Sun Apr  6 08:10:14 2025.
