 Gaussian 16, Revision C.01,

 ----------------------------------------------------------------------
 #t hf aug-cc-pvdz symm=none int=(grid=ultrafine) guess=(read,tcheck) s
 table=(opt,rrhf)
 ----------------------------------------------------------------------
 -----
 title
 -----
 Symbolic Z-matrix:
 Charge =  0 Multiplicity = 1

 SCF Done:  E(RHF) =  -330.669169225     A.U. after   14 cycles
 Normal termination of Gaussian 16 at Sun Apr  6 08:07:59 2025.
 Gaussian 16:  ES64L-G16RevC.01  3-Jul-2019

 ----------------------------------------------------------------------
 #t hf aug-cc-pvdz iop(5/13=1,5/36=2,99/5=2) pseudo=read geom=check gue
 ss=(read,tcheck) scf=(maxcycle=1)
 ----------------------------------------------------------------------
 -----
 title
 -----
 Structure from the checkpoint file:  "N-N-difluoroethenamine.chk"
 Charge =  0 Multiplicity = 1

                         Standard orientation:
 ---------------------------------------------------------------------
 Center     Atomic      Atomic             Coordinates (Angstroms)
 Number     Number       Type             X           Y           Z
 ---------------------------------------------------------------------
      1          9           0        1.116105    1.093260    0.040175
      2          9           0        1.116118   -1.093252    0.040168
      3          7           0        0.345864   -0.000000   -0.426963
      4          6           0       -0.813920   -0.000009    0.420336
      5          6           0       -2.001377   -0.000000   -0.157052
      6          1           0       -0.622645   -0.000022    1.485320
      7          1           0       -2.091523    0.000012   -1.234028
      8          1           0       -2.905105   -0.000005    0.434659
 ---------------------------------------------------------------------

 SCF Done:  E(RHF) =  -331.959441192     A.U. after    2 cycles

 The electronic state is 1-A.
 Alpha  occ. eigenvalues --  -29.29187 -29.29171 -15.89991 -11.46371 -11.41748
 Alpha  occ. eigenvalues --   -1.54223  -1.15161  -0.88117  -0.82171  -0.76107
 Alpha  occ. eigenvalues --   -0.64988  -0.59407  -0.53912  -0.43541  -0.43332
 Alpha  occ. eigenvalues --   -0.37968  -0.31246  -0.28071  -0.23188  -0.20321
 Alpha virt. eigenvalues --    0.03435   0.05433   0.05904   0.10212   0.11044
 Alpha virt. eigenvalues --    0.13120   0.13518   0.14139   0.16512   0.17432
 Alpha virt. eigenvalues --    0.18365   0.18925   0.20606   0.20972   0.21547

 Mulliken charges:
               1
     1  F   -0.171756
     2  F   -0.171757
     3  N   -0.691315
     4  C   -0.455512
     5  C   -2.642850
     6  H    1.435735
     7  H    1.338193
     8  H    1.359262
 Sum of Mulliken charges =   0.00000

 Dipole moment (field-independent basis, Debye):
    X=              0.7733    Y=              0.0000    Z=              1.1110  Tot=              1.3537

 Test job not archived.
 1\1\GINC-SE169\SP\RHF\Aug-CC-pVDZ\C2H3F2N1\OHZDE\06-Apr-2025\0\\#t hf
 aug-cc-pvdz iop(5/13=1,5/36=2,99/5=2) pseudo=read geom=check guess=(re
 ad,tcheck) scf=(maxcycle=1)\\title\\0,1\F,0,1.116105,1.09326,0.040175\
 F,0,1.116118,-1.093252,0.040168\N,0,0.345864,0.,-0.426963\C,0,-0.81392
 ,-0.000009,0.420336\C,0,-2.001377,0.,-0.157052\H,0,-0.622645,-0.000022
 ,1.48532\H,0,-2.091523,0.000012,-1.234028\H,0,-2.905105,-0.000005,0.43
 4659\\Version=ES64L-G16RevC.01\State=1-A\HF=-331.9594412\RMSD=3.618e-0
 1\Dipole=0.304255,0.0000031,0.437118\Quadrupole=1.9976675,-1.6274666,-

 Normal termination of Gaussian 16 at Sun Apr  6 08:08:01 2025.
