 Gaussian 16, Revision C.01,

 ----------------------------------------------------------------------
 #t hf aug-cc-pvdz symm=none int=(grid=ultrafine) guess=(read,tcheck) s
 table=(opt,rrhf)
 ----------------------------------------------------------------------
 -----
 title
 -----
 Symbolic Z-matrix:
 Charge =  0 Multiplicity = 1

 SCF Done:  E(RHF) =  -305.222886156     A.U. after   14 cycles

 1\1\GINC-SE049\Stability\RHF\Aug-CC-pVDZ\C5H12N2\OHZDE\06-Apr-2025\0\\
 #t hf aug-cc-pvdz symm=none int=(grid=ultrafine) guess=(read,tcheck) s
 table=(opt,rrhf)\\title\\0,1\C,0,-0.187905,0.651224,0.062869\C,0,0.516
 351,1.963676,0.319752\C,0,-2.243533,-0.480238,-0.361032\C,0,0.408532,-
 1.679218,0.623345\C,0,2.013376,-0.300958,-0.547808\N,0,-1.463119,0.665
 717,0.054242\N,0,0.62009,-0.477546,-0.174016\H,0,-0.225648,2.696922,0.
 619317\H,0,1.012868,2.331307,-0.580297\H,0,1.278208,1.87296,1.096432\H
 ,0,-3.133483,-0.114305,-0.874912\H,0,-2.599264,-1.057251,0.498552\H,0,

 Normal termination of Gaussian 16 at Sun Apr  6 08:08:47 2025.
 Gaussian 16:  ES64L-G16RevC.01  3-Jul-2019

 ----------------------------------------------------------------------
 #t hf aug-cc-pvdz iop(5/13=1,5/36=2,99/5=2) pseudo=read geom=check gue
 ss=(read,tcheck) scf=(maxcycle=1)
 ----------------------------------------------------------------------
 -----
 title
 -----
 Structure from the checkpoint file:  "N-N-N--trimethylethanimidamide.chk"
 Charge =  0 Multiplicity = 1

                         Standard orientation:
 ---------------------------------------------------------------------
 Center     Atomic      Atomic             Coordinates (Angstroms)
 Number     Number       Type             X           Y           Z
 ---------------------------------------------------------------------
      1          6           0       -0.187905    0.651224    0.062869
      2          6           0        0.516349    1.963676    0.319752
      3          6           0       -2.243533   -0.480240   -0.361032
      4          6           0        0.408533   -1.679218    0.623345
      5          6           0        2.013376   -0.300956   -0.547808
      6          7           0       -1.463120    0.665716    0.054242
      7          7           0        0.620090   -0.477546   -0.174016
      8          1           0       -0.225650    2.696922    0.619317
      9          1           0        1.012866    2.331308   -0.580297
     10          1           0        1.278207    1.872961    1.096432
     11          1           0       -3.133483   -0.114307   -0.874912
     12          1           0       -2.599263   -1.057253    0.498552
     13          1           0       -1.707656   -1.161889   -1.031043
     14          1           0        1.084453   -1.699901    1.489156
     15          1           0        0.600245   -2.572869    0.025300
     16          1           0       -0.607802   -1.727618    0.994091
     17          1           0        2.367241   -1.220178   -1.017111
     18          1           0        2.668083   -0.091651    0.309584
     19          1           0        2.123038    0.500367   -1.273403
 ---------------------------------------------------------------------

 SCF Done:  E(RHF) =  -306.746661843     A.U. after    2 cycles

 The electronic state is 1-A.
 Alpha  occ. eigenvalues --  -15.72096 -15.69140 -11.46133 -11.39894 -11.39088
 Alpha  occ. eigenvalues --  -11.36781 -11.36716  -1.47332  -1.31331  -1.10999
 Alpha  occ. eigenvalues --   -1.03958  -0.97367  -0.92052  -0.72770  -0.65652
 Alpha  occ. eigenvalues --   -0.64589  -0.63199  -0.58740  -0.57182  -0.55608
 Alpha  occ. eigenvalues --   -0.54961  -0.54826  -0.51441  -0.50898  -0.47666
 Alpha  occ. eigenvalues --   -0.39869  -0.33718  -0.28683
 Alpha virt. eigenvalues --    0.03646   0.05337   0.05393   0.05745   0.05880
 Alpha virt. eigenvalues --    0.06023   0.06712   0.07012   0.07067   0.08519
 Alpha virt. eigenvalues --    0.08834   0.09473   0.10752   0.12329   0.13126

 Mulliken charges:
               1
     1  C    5.208180
     2  C   -4.268479
     3  C   -3.646403
     4  C   -3.821030
     5  C   -3.632089
     6  N   -3.432220
     7  N   -3.197120
     8  H    1.206552
     9  H    1.242228
    10  H    1.361491
    11  H    1.304819
    12  H    1.336273
    13  H    1.494205
    14  H    1.329788
    15  H    1.270818
    16  H    1.741733
    17  H    1.460851
    18  H    1.498813
    19  H    1.541589
 Sum of Mulliken charges =   0.00000

 Dipole moment (field-independent basis, Debye):
    X=              1.9882    Y=             -1.1553    Z=             -0.0693  Tot=              2.3006

 Test job not archived.
 1\1\GINC-SE049\SP\RHF\Aug-CC-pVDZ\C5H12N2\OHZDE\06-Apr-2025\0\\#t hf a
 ug-cc-pvdz iop(5/13=1,5/36=2,99/5=2) pseudo=read geom=check guess=(rea
 d,tcheck) scf=(maxcycle=1)\\title\\0,1\C,0,-0.187905,0.651224,0.062869
 \C,0,0.516351,1.963676,0.319752\C,0,-2.243533,-0.480238,-0.361032\C,0,
 0.408532,-1.679218,0.623345\C,0,2.013376,-0.300958,-0.547808\N,0,-1.46
 3119,0.665717,0.054242\N,0,0.62009,-0.477546,-0.174016\H,0,-0.225648,2
 .696922,0.619317\H,0,1.012868,2.331307,-0.580297\H,0,1.278208,1.87296,
 1.096432\H,0,-3.133483,-0.114305,-0.874912\H,0,-2.599264,-1.057251,0.4

 Normal termination of Gaussian 16 at Sun Apr  6 08:08:55 2025.
