 Gaussian 16, Revision C.01,

 ----------------------------------------------------------------------
 #t hf aug-cc-pvdz symm=none int=(grid=ultrafine) guess=(read,tcheck) s
 table=(opt,rrhf)
 ----------------------------------------------------------------------
 -----
 title
 -----
 Symbolic Z-matrix:
 Charge =  0 Multiplicity = 1

 SCF Done:  E(RHF) =  -407.548258953     A.U. after   15 cycles
 Normal termination of Gaussian 16 at Sun Apr  6 08:08:10 2025.
 Gaussian 16:  ES64L-G16RevC.01  3-Jul-2019

 ----------------------------------------------------------------------
 #t hf aug-cc-pvdz iop(5/13=1,5/36=2,99/5=2) pseudo=read geom=check gue
 ss=(read,tcheck) scf=(maxcycle=1)
 ----------------------------------------------------------------------
 -----
 title
 -----
 Structure from the checkpoint file:  "N-N-difluorobut-2-yn-1-amine.chk"
 Charge =  0 Multiplicity = 1

                         Standard orientation:
 ---------------------------------------------------------------------
 Center     Atomic      Atomic             Coordinates (Angstroms)
 Number     Number       Type             X           Y           Z
 ---------------------------------------------------------------------
      1          9           0        2.662788   -0.389952   -0.184145
      2          9           0        1.350478    1.307291    0.242723
      3          7           0        1.365233    0.093381   -0.468109
      4          6           0        0.486442   -0.814523    0.318269
      5          6           0       -0.906899   -0.447656    0.149345
      6          6           0       -3.460800    0.209456   -0.144708
      7          6           0       -2.062686   -0.155069    0.017364
      8          1           0        0.689215   -1.805176   -0.090461
      9          1           0        0.800414   -0.789621    1.363966
     10          1           0       -3.548554    1.185872   -0.623577
     11          1           0       -3.988577   -0.517719   -0.763260
     12          1           0       -3.964868    0.263674    0.821272
 ---------------------------------------------------------------------

 SCF Done:  E(RHF) =  -409.215671148     A.U. after    2 cycles

 The electronic state is 1-A.
 Alpha  occ. eigenvalues --  -29.29216 -29.29106 -15.89472 -11.51454 -11.45360
 Alpha  occ. eigenvalues --  -11.41018 -11.40237  -1.53749  -1.20208  -1.10370
 Alpha  occ. eigenvalues --   -0.97212  -0.83829  -0.73413  -0.70521  -0.64438
 Alpha  occ. eigenvalues --   -0.59940  -0.59587  -0.58617  -0.54794  -0.43917
 Alpha  occ. eigenvalues --   -0.39607  -0.37650  -0.36716  -0.31261  -0.28854
 Alpha  occ. eigenvalues --   -0.22823  -0.20471
 Alpha virt. eigenvalues --    0.02758   0.05115   0.06075   0.06165   0.06401
 Alpha virt. eigenvalues --    0.08712   0.11453   0.12091   0.12474   0.14037
 Alpha virt. eigenvalues --    0.14394   0.15408   0.16109   0.16461   0.17236

 Mulliken charges:
               1
     1  F   -0.175425
     2  F   -0.033781
     3  N   -0.270480
     4  C   -4.333144
     5  C    2.929119
     6  C   -4.963311
     7  C    2.158796
     8  H    1.015324
     9  H    1.057783
    10  H    0.874895
    11  H    0.872944
    12  H    0.867281
 Sum of Mulliken charges =   0.00000

 Dipole moment (field-independent basis, Debye):
    X=             -0.3130    Y=              0.5975    Z=              1.0916  Tot=              1.2832

 Test job not archived.
 1\1\GINC-SE165\SP\RHF\Aug-CC-pVDZ\C4H5F2N1\OHZDE\06-Apr-2025\0\\#t hf
 aug-cc-pvdz iop(5/13=1,5/36=2,99/5=2) pseudo=read geom=check guess=(re
 ad,tcheck) scf=(maxcycle=1)\\title\\0,1\F,0,2.662788,-0.389952,-0.1841
 45\F,0,1.350478,1.307291,0.242723\N,0,1.365233,0.093381,-0.468109\C,0,
 0.486442,-0.814523,0.318269\C,0,-0.906899,-0.447656,0.149345\C,0,-3.46
 08,0.209456,-0.144708\C,0,-2.062686,-0.155069,0.017364\H,0,0.689215,-1
 .805176,-0.090461\H,0,0.800414,-0.789621,1.363966\H,0,-3.548554,1.1858
 72,-0.623577\H,0,-3.988577,-0.517719,-0.76326\H,0,-3.964868,0.263674,0

 Normal termination of Gaussian 16 at Sun Apr  6 08:08:14 2025.
