 Gaussian 16, Revision C.01,

 ----------------------------------------------------------------------
 #t hf aug-cc-pvdz symm=none int=(grid=ultrafine) guess=(read,tcheck) s
 table=(opt,rrhf)
 ----------------------------------------------------------------------
 -----
 title
 -----
 Symbolic Z-matrix:
 Charge =  0 Multiplicity = 1

 SCF Done:  E(RHF) =  -1239.67519726     A.U. after   15 cycles
 Normal termination of Gaussian 16 at Sun Apr  6 08:08:33 2025.
 Gaussian 16:  ES64L-G16RevC.01  3-Jul-2019

 ----------------------------------------------------------------------
 #t hf aug-cc-pvdz iop(5/13=1,5/36=2,99/5=2) pseudo=read geom=check gue
 ss=(read,tcheck) scf=(maxcycle=1)
 ----------------------------------------------------------------------
 -----
 title
 -----
 Structure from the checkpoint file:  "N-N-dichloro-beta-alanine.chk"
 Charge =  0 Multiplicity = 1

                         Standard orientation:
 ---------------------------------------------------------------------
 Center     Atomic      Atomic             Coordinates (Angstroms)
 Number     Number       Type             X           Y           Z
 ---------------------------------------------------------------------
      1         17           0       -1.403966    1.580358   -0.186597
      2         17           0       -2.213265   -1.174993   -0.243708
      3          8           0        2.873057    0.758059   -0.738556
      4          8           0        2.277698   -1.354913   -0.264765
      5          7           0       -0.804970   -0.095332   -0.210337
      6          6           0       -0.056679   -0.361932    1.040612
      7          6           0        1.277873    0.375527    1.029972
      8          6           0        2.216236   -0.012637   -0.091722
      9          1           0        2.900728   -1.522198   -0.987239
     10          1           0        0.107577   -1.437333    1.044710
     11          1           0       -0.639389   -0.090423    1.923058
     12          1           0        1.143470    1.452829    0.989941
     13          1           0        1.784708    0.142322    1.970482
 ---------------------------------------------------------------------

 SCF Done:  E(RHF) =  -1241.57415218     A.U. after    2 cycles

 The electronic state is 1-A.
 Alpha  occ. eigenvalues --  -99.92748 -99.92614 -21.13102 -21.06295 -15.84622
 Alpha  occ. eigenvalues --  -11.53800 -11.47466 -11.41468 -10.49880 -10.49731
 Alpha  occ. eigenvalues --   -9.69837  -9.69510  -9.68972  -9.68846  -9.68773
 Alpha  occ. eigenvalues --   -9.68665  -1.83734  -1.66349  -1.52449  -1.30760
 Alpha  occ. eigenvalues --   -1.24049  -1.10781  -0.93941  -0.81557  -0.71651
 Alpha  occ. eigenvalues --   -0.70419  -0.67397  -0.62524  -0.61900  -0.59907
 Alpha  occ. eigenvalues --   -0.58007  -0.54971  -0.53226  -0.51994  -0.50716
 Alpha  occ. eigenvalues --   -0.48903  -0.46267  -0.41112  -0.34880  -0.30447
 Alpha virt. eigenvalues --    0.00383   0.03481   0.05243   0.05635   0.05919
 Alpha virt. eigenvalues --    0.06230   0.07470   0.08335   0.10315   0.11277
 Alpha virt. eigenvalues --    0.11643   0.13085   0.13687   0.14154   0.14905

 Mulliken charges:
               1
     1  Cl   0.289196
     2  Cl   0.327188
     3  O   -3.138881
     4  O   -3.064729
     5  N   -1.275910
     6  C   -2.195227
     7  C   -3.658882
     8  C    6.222814
     9  H    0.952378
    10  H    1.572009
    11  H    1.261678
    12  H    1.360835
    13  H    1.347533
 Sum of Mulliken charges =   0.00000

 Dipole moment (field-independent basis, Debye):
    X=              1.1158    Y=             -1.4480    Z=              1.8036  Tot=              2.5680

 Test job not archived.
 1\1\GINC-SE136\SP\RHF\Aug-CC-pVDZ\C3H5Cl2N1O2\OHZDE\06-Apr-2025\0\\#t
 hf aug-cc-pvdz iop(5/13=1,5/36=2,99/5=2) pseudo=read geom=check guess=
 (read,tcheck) scf=(maxcycle=1)\\title\\0,1\Cl,0,-1.403966,1.580358,-0.
 186597\Cl,0,-2.213265,-1.174993,-0.243708\O,0,2.873057,0.758059,-0.738
 556\O,0,2.277698,-1.354913,-0.264765\N,0,-0.80497,-0.095332,-0.210337\
 C,0,-0.056679,-0.361932,1.040612\C,0,1.277873,0.375527,1.029972\C,0,2.
 216236,-0.012637,-0.091722\H,0,2.900728,-1.522198,-0.987239\H,0,0.1075
 77,-1.437333,1.04471\H,0,-0.639389,-0.090423,1.923058\H,0,1.14347,1.45

 Normal termination of Gaussian 16 at Sun Apr  6 08:08:38 2025.
