 Gaussian 16, Revision C.01,

 ----------------------------------------------------------------------
 #t hf aug-cc-pvdz symm=none int=(grid=ultrafine) guess=(read,tcheck) s
 table=(opt,rrhf)
 ----------------------------------------------------------------------
 -----
 title
 -----
 Symbolic Z-matrix:
 Charge =  0 Multiplicity = 1

 SCF Done:  E(RHF) =  -302.084663494     A.U. after   13 cycles
 Normal termination of Gaussian 16 at Sun Apr  6 08:08:17 2025.
 Gaussian 16:  ES64L-G16RevC.01  3-Jul-2019

 ----------------------------------------------------------------------
 #t hf aug-cc-pvdz iop(5/13=1,5/36=2,99/5=2) pseudo=read geom=check gue
 ss=(read,tcheck) scf=(maxcycle=1)
 ----------------------------------------------------------------------
 -----
 title
 -----
 Structure from the checkpoint file:  "N-N-dimethylurea.chk"
 Charge =  0 Multiplicity = 1

                         Standard orientation:
 ---------------------------------------------------------------------
 Center     Atomic      Atomic             Coordinates (Angstroms)
 Number     Number       Type             X           Y           Z
 ---------------------------------------------------------------------
      1          1           0        2.546292    0.664510    0.165310
      2          8           0        1.231997   -1.340449   -0.051260
      3          6           0        0.759803   -0.212659   -0.016985
      4          7           0       -0.589131    0.040718   -0.042504
      5          1           0        1.276432    1.747193    0.451488
      6          7           0        1.584512    0.906330   -0.005452
      7          1           0       -2.218134   -1.068197   -0.768577
      8          1           0       -2.090342   -1.011668    0.999406
      9          1           0       -0.951852   -1.996650    0.058184
     10          6           0       -1.517068   -1.071094    0.069328
     11          1           0       -1.231220    1.809057    0.957610
     12          1           0       -2.152797    1.337971   -0.470531
     13          1           0       -0.559592    2.045476   -0.673917
     14          6           0       -1.149808    1.378179   -0.047877
 ---------------------------------------------------------------------

 SCF Done:  E(RHF) =  -303.482870056     A.U. after    2 cycles

 The electronic state is 1-A.
 Alpha  occ. eigenvalues --  -21.00123 -15.76636 -15.73934 -11.49115 -11.40905
 Alpha  occ. eigenvalues --  -11.38877  -1.70439  -1.43713  -1.31517  -1.05469
 Alpha  occ. eigenvalues --   -0.98554  -0.76913  -0.72028  -0.65933  -0.65814
 Alpha  occ. eigenvalues --   -0.60187  -0.56390  -0.53850  -0.53068  -0.52366
 Alpha  occ. eigenvalues --   -0.46695  -0.36154  -0.28751  -0.28354
 Alpha virt. eigenvalues --    0.03099   0.04831   0.05243   0.05481   0.06483
 Alpha virt. eigenvalues --    0.06609   0.07899   0.08496   0.10075   0.12734
 Alpha virt. eigenvalues --    0.13235   0.13721   0.13943   0.15299   0.15968

 Mulliken charges:
               1
     1  H    0.502575
     2  O   -2.885187
     3  C    5.402056
     4  N   -2.583506
     5  H    0.705133
     6  N   -2.637080
     7  H    1.325343
     8  H    1.370800
     9  H    1.335616
    10  C   -3.391952
    11  H    1.346377
    12  H    1.454123
    13  H    1.378110
    14  C   -3.322408
 Sum of Mulliken charges =  -0.00000

 Dipole moment (field-independent basis, Debye):
    X=             -1.4553    Y=              2.4633    Z=              0.7685  Tot=              2.9624

 Test job not archived.
 1\1\GINC-SE223\SP\RHF\Aug-CC-pVDZ\C3H8N2O1\OHZDE\06-Apr-2025\0\\#t hf
 aug-cc-pvdz iop(5/13=1,5/36=2,99/5=2) pseudo=read geom=check guess=(re
 ad,tcheck) scf=(maxcycle=1)\\title\\0,1\H,0,2.546292,0.66451,0.16531\O
 ,0,1.231997,-1.340449,-0.05126\C,0,0.759803,-0.212659,-0.016985\N,0,-0
 .589131,0.040718,-0.042504\H,0,1.276432,1.747193,0.451488\N,0,1.584512
 ,0.90633,-0.005452\H,0,-2.218134,-1.068197,-0.768577\H,0,-2.090342,-1.
 011668,0.999406\H,0,-0.951852,-1.99665,0.058184\C,0,-1.517068,-1.07109
 4,0.069328\H,0,-1.23122,1.809057,0.95761\H,0,-2.152797,1.337971,-0.470

 Normal termination of Gaussian 16 at Sun Apr  6 08:08:21 2025.
