 Gaussian 16, Revision C.01,

 ----------------------------------------------------------------------
 #t hf aug-cc-pvdz symm=none int=(grid=ultrafine) guess=(read,tcheck) s
 table=(opt,rrhf)
 ----------------------------------------------------------------------
 -----
 title
 -----
 Symbolic Z-matrix:
 Charge =  0 Multiplicity = 1

 SCF Done:  E(RHF) =  -302.088889654     A.U. after   13 cycles
 Normal termination of Gaussian 16 at Sun Apr  6 08:08:16 2025.
 Gaussian 16:  ES64L-G16RevC.01  3-Jul-2019

 ----------------------------------------------------------------------
 #t hf aug-cc-pvdz iop(5/13=1,5/36=2,99/5=2) pseudo=read geom=check gue
 ss=(read,tcheck) scf=(maxcycle=1)
 ----------------------------------------------------------------------
 -----
 title
 -----
 Structure from the checkpoint file:  "N-N--dimethylurea.chk"
 Charge =  0 Multiplicity = 1

                         Standard orientation:
 ---------------------------------------------------------------------
 Center     Atomic      Atomic             Coordinates (Angstroms)
 Number     Number       Type             X           Y           Z
 ---------------------------------------------------------------------
      1          6           0       -0.000000    0.000000    0.096002
      2          6           0        0.000000    2.447119    0.009890
      3          6           0       -0.000000   -2.447119    0.009890
      4          7           0        0.094200    1.156237   -0.651588
      5          7           0       -0.094200   -1.156237   -0.651588
      6          8           0       -0.000000    0.000000    1.316825
      7          1           0       -1.012864    2.672349    0.355132
      8          1           0        0.320580    3.222188   -0.683998
      9          1           0        0.658299    2.453848    0.874307
     10          1           0        1.012864   -2.672349    0.355132
     11          1           0       -0.320580   -3.222188   -0.683998
     12          1           0       -0.658299   -2.453848    0.874307
     13          1           0       -0.241505    1.113406   -1.598970
     14          1           0        0.241505   -1.113406   -1.598970
 ---------------------------------------------------------------------

 SCF Done:  E(RHF) =  -303.481558020     A.U. after    2 cycles

 The electronic state is 1-A.
 Alpha  occ. eigenvalues --  -21.00632 -15.75095 -15.75060 -11.48842 -11.39235
 Alpha  occ. eigenvalues --  -11.38930  -1.70640  -1.41364  -1.34113  -1.04305
 Alpha  occ. eigenvalues --   -0.95104  -0.79558  -0.73444  -0.63799  -0.63416
 Alpha  occ. eigenvalues --   -0.59154  -0.55946  -0.54677  -0.52157  -0.50427
 Alpha  occ. eigenvalues --   -0.47188  -0.33976  -0.31123  -0.28531
 Alpha virt. eigenvalues --    0.03355   0.04526   0.04965   0.06152   0.06631
 Alpha virt. eigenvalues --    0.06972   0.07641   0.07937   0.10911   0.12195
 Alpha virt. eigenvalues --    0.13096   0.14138   0.14546   0.15140   0.16402

 Mulliken charges:
               1
     1  C    5.862149
     2  C   -3.698458
     3  C   -3.698458
     4  N   -2.442840
     5  N   -2.442840
     6  O   -2.880614
     7  H    1.272993
     8  H    1.314423
     9  H    1.338113
    10  H    1.272993
    11  H    1.314423
    12  H    1.338113
    13  H    0.725001
    14  H    0.725001
 Sum of Mulliken charges =  -0.00000

 Dipole moment (field-independent basis, Debye):
    X=             -0.0000    Y=             -0.0000    Z=             -2.5622  Tot=              2.5622

 Test job not archived.
 1\1\GINC-SE038\SP\RHF\Aug-CC-pVDZ\C3H8N2O1\OHZDE\06-Apr-2025\0\\#t hf
 aug-cc-pvdz iop(5/13=1,5/36=2,99/5=2) pseudo=read geom=check guess=(re
 ad,tcheck) scf=(maxcycle=1)\\title\\0,1\C,0,0.,0.,0.096002\C,0,0.,2.44
 7119,0.00989\C,0,0.,-2.447119,0.00989\N,0,0.0942,1.156237,-0.651588\N,
 0,-0.0942,-1.156237,-0.651588\O,0,0.,0.,1.316825\H,0,-1.012864,2.67234
 9,0.355132\H,0,0.32058,3.222188,-0.683998\H,0,0.658299,2.453848,0.8743
 07\H,0,1.012864,-2.672349,0.355132\H,0,-0.32058,-3.222188,-0.683998\H,
 0,-0.658299,-2.453848,0.874307\H,0,-0.241505,1.113406,-1.59897\H,0,0.2

 Normal termination of Gaussian 16 at Sun Apr  6 08:08:19 2025.
