 Gaussian 16, Revision C.01,

 ----------------------------------------------------------------------
 #t hf aug-cc-pvdz symm=none int=(grid=ultrafine) guess=(read,tcheck) s
 table=(opt,rrhf)
 ----------------------------------------------------------------------
 -----
 title
 -----
 Symbolic Z-matrix:
 Charge =  0 Multiplicity = 1

 SCF Done:  E(RHF) =  -1239.66724574     A.U. after   15 cycles
 Normal termination of Gaussian 16 at Sun Apr  6 08:08:35 2025.
 Gaussian 16:  ES64L-G16RevC.01  3-Jul-2019

 ----------------------------------------------------------------------
 #t hf aug-cc-pvdz iop(5/13=1,5/36=2,99/5=2) pseudo=read geom=check gue
 ss=(read,tcheck) scf=(maxcycle=1)
 ----------------------------------------------------------------------
 -----
 title
 -----
 Structure from the checkpoint file:  "N-N-dichloroalanine.chk"
 Charge =  0 Multiplicity = 1

                         Standard orientation:
 ---------------------------------------------------------------------
 Center     Atomic      Atomic             Coordinates (Angstroms)
 Number     Number       Type             X           Y           Z
 ---------------------------------------------------------------------
      1         17           0        0.728531    1.497292    0.772640
      2         17           0        2.223389   -0.562465   -0.591632
      3          8           0       -2.668641   -0.240390    0.519523
      4          8           0       -1.881708    0.532517   -1.435981
      5          7           0        0.638389    0.232441   -0.474123
      6          6           0       -0.389595   -0.778712   -0.100354
      7          6           0       -1.770143   -0.126666   -0.269201
      8          6           0       -0.253722   -1.474534    1.243293
      9          1           0       -2.779254    0.895548   -1.477125
     10          1           0       -0.305243   -1.508256   -0.910817
     11          1           0        0.726260   -1.938756    1.327217
     12          1           0       -0.395120   -0.777206    2.064971
     13          1           0       -1.014466   -2.248024    1.326727
 ---------------------------------------------------------------------

 SCF Done:  E(RHF) =  -1241.57065307     A.U. after    2 cycles

 The electronic state is 1-A.
 Alpha  occ. eigenvalues --  -99.93103 -99.92831 -21.13672 -21.07277 -15.84826
 Alpha  occ. eigenvalues --  -11.55204 -11.47861 -11.39301 -10.50216 -10.49948
 Alpha  occ. eigenvalues --   -9.70172  -9.69754  -9.69281  -9.69213  -9.69088
 Alpha  occ. eigenvalues --   -9.68946  -1.84642  -1.67426  -1.52379  -1.31167
 Alpha  occ. eigenvalues --   -1.24258  -1.08286  -0.96495  -0.81010  -0.72833
 Alpha  occ. eigenvalues --   -0.69498  -0.66958  -0.63498  -0.61755  -0.56771
 Alpha  occ. eigenvalues --   -0.56098  -0.55002  -0.53941  -0.52709  -0.51126
 Alpha  occ. eigenvalues --   -0.50670  -0.46343  -0.40281  -0.35429  -0.31540
 Alpha virt. eigenvalues --    0.00295   0.03612   0.05425   0.05592   0.06115
 Alpha virt. eigenvalues --    0.06698   0.07870   0.08677   0.10455   0.11124
 Alpha virt. eigenvalues --    0.11595   0.12323   0.14173   0.14401   0.14927

 Mulliken charges:
               1
     1  Cl   0.234850
     2  Cl   0.278149
     3  O   -3.140762
     4  O   -3.268575
     5  N   -1.431981
     6  C   -2.399560
     7  C    6.285874
     8  C   -2.894640
     9  H    0.960112
    10  H    1.808035
    11  H    1.195643
    12  H    1.137940
    13  H    1.234914
 Sum of Mulliken charges =   0.00000

 Dipole moment (field-independent basis, Debye):
    X=             -1.2714    Y=             -1.0049    Z=             -0.7221  Tot=              1.7742

 Test job not archived.
 1\1\GINC-SE150\SP\RHF\Aug-CC-pVDZ\C3H5Cl2N1O2\OHZDE\06-Apr-2025\0\\#t
 hf aug-cc-pvdz iop(5/13=1,5/36=2,99/5=2) pseudo=read geom=check guess=
 (read,tcheck) scf=(maxcycle=1)\\title\\0,1\Cl,0,0.728531,1.497292,0.77
 264\Cl,0,2.223389,-0.562465,-0.591632\O,0,-2.668641,-0.24039,0.519523\
 O,0,-1.881708,0.532517,-1.435981\N,0,0.638389,0.232441,-0.474123\C,0,-
 0.389595,-0.778712,-0.100354\C,0,-1.770143,-0.126666,-0.269201\C,0,-0.
 253722,-1.474534,1.243293\H,0,-2.779254,0.895548,-1.477125\H,0,-0.3052
 43,-1.508256,-0.910817\H,0,0.72626,-1.938756,1.327217\H,0,-0.39512,-0.

 Normal termination of Gaussian 16 at Sun Apr  6 08:08:41 2025.
