 Gaussian 16, Revision C.01,

 ----------------------------------------------------------------------
 #t hf aug-cc-pvdz symm=none int=(grid=ultrafine) guess=(read,tcheck) s
 table=(opt,rrhf)
 ----------------------------------------------------------------------
 -----
 title
 -----
 Symbolic Z-matrix:
 Charge =  0 Multiplicity = 1

 SCF Done:  E(RHF) =  -569.668412858     A.U. after   13 cycles
 Normal termination of Gaussian 16 at Sun Apr  6 08:08:04 2025.
 Gaussian 16:  ES64L-G16RevC.01  3-Jul-2019

 ----------------------------------------------------------------------
 #t hf aug-cc-pvdz iop(5/13=1,5/36=2,99/5=2) pseudo=read geom=check gue
 ss=(read,tcheck) scf=(maxcycle=1)
 ----------------------------------------------------------------------
 -----
 title
 -----
 Structure from the checkpoint file:  "N-N-dimethylthioformamide.chk"
 Charge =  0 Multiplicity = 1

                         Standard orientation:
 ---------------------------------------------------------------------
 Center     Atomic      Atomic             Coordinates (Angstroms)
 Number     Number       Type             X           Y           Z
 ---------------------------------------------------------------------
      1          6           0        0.000000    0.771893    0.000000
      2         16           0        1.640420    0.979773    0.000000
      3          7           0       -0.700922   -0.369480    0.000000
      4          6           0       -0.070945   -1.678921    0.000000
      5          6           0       -2.154440   -0.362728    0.000000
      6          1           0       -0.648724    1.645722    0.000000
      7          1           0       -0.374521   -2.239525    0.886803
      8          1           0       -0.374521   -2.239525   -0.886803
      9          1           0        1.006974   -1.550438    0.000000
     10          1           0       -2.539090   -0.874548   -0.885289
     11          1           0       -2.539090   -0.874548    0.885289
     12          1           0       -2.518989    0.661390    0.000000
 ---------------------------------------------------------------------

 SCF Done:  E(RHF) =  -570.741903418     A.U. after    2 cycles

 The electronic state is 1-A'.
 Alpha  occ. eigenvalues --  -75.62987 -15.78361 -13.11427 -12.99110 -12.94130
 Alpha  occ. eigenvalues --  -11.47194 -11.42476 -11.40550  -7.97140  -1.49200
 Alpha  occ. eigenvalues --   -1.14591  -1.07521  -0.97729  -0.79552  -0.68694
 Alpha  occ. eigenvalues --   -0.66901  -0.62822  -0.57464  -0.55959  -0.53827
 Alpha  occ. eigenvalues --   -0.45193  -0.44037  -0.23775  -0.20967
 Alpha virt. eigenvalues --    0.02275   0.04804   0.05256   0.05299   0.06606
 Alpha virt. eigenvalues --    0.06841   0.07189   0.09943   0.10674   0.11035
 Alpha virt. eigenvalues --    0.12962   0.13025   0.13309   0.14423   0.16408

 Mulliken charges:
               1
     1  C   -1.644899
     2  S    0.927817
     3  N   -2.749144
     4  C   -3.385100
     5  C   -3.091692
     6  H    1.439624
     7  H    1.389451
     8  H    1.389451
     9  H    1.525085
    10  H    1.436076
    11  H    1.436076
    12  H    1.327256
 Sum of Mulliken charges =   0.00000

 Dipole moment (field-independent basis, Debye):
    X=             -1.9248    Y=             -1.5847    Z=             -0.0000  Tot=              2.4932

 Test job not archived.
 1\1\GINC-SE212\SP\RHF\Aug-CC-pVDZ\C3H7N1S1\OHZDE\06-Apr-2025\0\\#t hf
 aug-cc-pvdz iop(5/13=1,5/36=2,99/5=2) pseudo=read geom=check guess=(re
 ad,tcheck) scf=(maxcycle=1)\\title\\0,1\C,0,0.,0.771893,0.\S,0,1.64042
 ,0.979773,0.\N,0,-0.700922,-0.36948,0.\C,0,-0.070945,-1.678921,0.\C,0,
 -2.15444,-0.362728,0.\H,0,-0.648724,1.645722,0.\H,0,-0.374521,-2.23952
 5,0.886803\H,0,-0.374521,-2.239525,-0.886803\H,0,1.006974,-1.550438,0.
 \H,0,-2.53909,-0.874548,-0.885289\H,0,-2.53909,-0.874548,0.885289\H,0,
 -2.518989,0.66139,0.\\Version=ES64L-G16RevC.01\State=1-A'\HF=-570.7419

 Normal termination of Gaussian 16 at Sun Apr  6 08:08:09 2025.
