 Gaussian 16, Revision C.01,

 ----------------------------------------------------------------------
 #t hf aug-cc-pvdz symm=none int=(grid=ultrafine) guess=(read,tcheck) s
 table=(opt,rrhf)
 ----------------------------------------------------------------------
 -----
 title
 -----
 Symbolic Z-matrix:
 Charge =  0 Multiplicity = 1

 SCF Done:  E(RHF) =  -369.713854884     A.U. after   14 cycles
 Normal termination of Gaussian 16 at Sun Apr  6 08:08:05 2025.
 Gaussian 16:  ES64L-G16RevC.01  3-Jul-2019

 ----------------------------------------------------------------------
 #t hf aug-cc-pvdz iop(5/13=1,5/36=2,99/5=2) pseudo=read geom=check gue
 ss=(read,tcheck) scf=(maxcycle=1)
 ----------------------------------------------------------------------
 -----
 title
 -----
 Structure from the checkpoint file:  "N-N-difluoro-2-propen-1-amine.chk"
 Charge =  0 Multiplicity = 1

                         Standard orientation:
 ---------------------------------------------------------------------
 Center     Atomic      Atomic             Coordinates (Angstroms)
 Number     Number       Type             X           Y           Z
 ---------------------------------------------------------------------
      1          9           0       -1.941746   -0.828965   -0.048656
      2          9           0       -1.207342    1.234561    0.002398
      3          7           0       -0.837230   -0.049645   -0.459202
      4          6           0        0.253975   -0.468738    0.449582
      5          6           0        1.490150    0.334470    0.186438
      6          6           0        2.628245   -0.194799   -0.239489
      7          1           0        0.410259   -1.522526    0.224676
      8          1           0       -0.096603   -0.362385    1.478991
      9          1           0        1.421730    1.396780    0.385841
     10          1           0        2.723117   -1.253412   -0.447875
     11          1           0        3.509677    0.413089   -0.390093
 ---------------------------------------------------------------------

 SCF Done:  E(RHF) =  -371.204611347     A.U. after    2 cycles

 The electronic state is 1-A.
 Alpha  occ. eigenvalues --  -29.28976 -29.28916 -15.89107 -11.46475 -11.42803
 Alpha  occ. eigenvalues --  -11.39306  -1.53374  -1.20367  -1.01579  -0.86153
 Alpha  occ. eigenvalues --   -0.78985  -0.72834  -0.69208  -0.60561  -0.58606
 Alpha  occ. eigenvalues --   -0.53017  -0.50327  -0.43296  -0.39416  -0.37968
 Alpha  occ. eigenvalues --   -0.30688  -0.28649  -0.22648  -0.20503
 Alpha virt. eigenvalues --    0.03531   0.05474   0.05787   0.06217   0.06843
 Alpha virt. eigenvalues --    0.09516   0.11650   0.12247   0.13237   0.14530
 Alpha virt. eigenvalues --    0.15226   0.15932   0.17455   0.18006   0.18221

 Mulliken charges:
               1
     1  F   -0.100602
     2  F   -0.116728
     3  N   -0.319591
     4  C   -3.478532
     5  C   -0.272291
     6  C   -2.763229
     7  H    1.424227
     8  H    1.440773
     9  H    1.388529
    10  H    1.431802
    11  H    1.365640
 Sum of Mulliken charges =  -0.00000

 Dipole moment (field-independent basis, Debye):
    X=             -0.4068    Y=              0.3384    Z=              1.0886  Tot=              1.2104

 Test job not archived.
 1\1\GINC-SE155\SP\RHF\Aug-CC-pVDZ\C3H5F2N1\OHZDE\06-Apr-2025\0\\#t hf
 aug-cc-pvdz iop(5/13=1,5/36=2,99/5=2) pseudo=read geom=check guess=(re
 ad,tcheck) scf=(maxcycle=1)\\title\\0,1\F,0,-1.941746,-0.828965,-0.048
 656\F,0,-1.207342,1.234561,0.002398\N,0,-0.83723,-0.049645,-0.459202\C
 ,0,0.253975,-0.468738,0.449582\C,0,1.49015,0.33447,0.186438\C,0,2.6282
 45,-0.194799,-0.239489\H,0,0.410259,-1.522526,0.224676\H,0,-0.096603,-
 0.362385,1.478991\H,0,1.42173,1.39678,0.385841\H,0,2.723117,-1.253412,
 -0.447875\H,0,3.509677,0.413089,-0.390093\\Version=ES64L-G16RevC.01\St

 Normal termination of Gaussian 16 at Sun Apr  6 08:08:08 2025.
