 Gaussian 16, Revision C.01,

 ----------------------------------------------------------------------
 #t hf aug-cc-pvdz symm=none int=(grid=ultrafine) guess=(read,tcheck) s
 table=(opt,rrhf)
 ----------------------------------------------------------------------
 -----
 title
 -----
 Symbolic Z-matrix:
 Charge =  0 Multiplicity = 1

 SCF Done:  E(RHF) =  -515.634516859     A.U. after   16 cycles
 Normal termination of Gaussian 16 at Sun Apr  6 08:12:06 2025.
 Gaussian 16:  ES64L-G16RevC.01  3-Jul-2019

 ----------------------------------------------------------------------
 #t hf aug-cc-pvdz iop(5/13=1,5/36=2,99/5=2) pseudo=read geom=check gue
 ss=(read,tcheck) scf=(maxcycle=1)
 ----------------------------------------------------------------------
 -----
 title
 -----
 Structure from the checkpoint file:  "N-N-4-trimethylbenzamide.chk"
 Charge =  0 Multiplicity = 1

                         Standard orientation:
 ---------------------------------------------------------------------
 Center     Atomic      Atomic             Coordinates (Angstroms)
 Number     Number       Type             X           Y           Z
 ---------------------------------------------------------------------
      1          6           0       -0.824709    1.228044    0.516573
      2          6           0       -0.551689   -0.837659   -0.670034
      3          6           0       -2.192547    1.016290    0.567183
      4          6           0       -1.928178   -1.033187   -0.636809
      5          6           0        0.016971    0.292751   -0.088553
      6          6           0       -2.771189   -0.118200   -0.009775
      7          6           0        1.480040    0.615826   -0.196992
      8          6           0       -4.260063   -0.333800    0.047428
      9          6           0        3.800000   -0.087883   -0.163135
     10          6           0        2.129735   -1.553398    0.876092
     11          7           0        2.392421   -0.372582    0.069758
     12          8           0        1.827343    1.734039   -0.557225
     13          1           0       -0.393860    2.126909    0.935086
     14          1           0        0.076121   -1.560776   -1.173451
     15          1           0       -2.825569    1.749761    1.051454
     16          1           0       -2.351256   -1.910030   -1.110565
     17          1           0       -4.560652   -1.194770   -0.547754
     18          1           0       -4.593447   -0.504188    1.073579
     19          1           0       -4.800270    0.538795   -0.323928
     20          1           0        4.294841   -0.991603   -0.522094
     21          1           0        4.298732    0.238192    0.755175
     22          1           0        3.890077    0.701076   -0.901854
     23          1           0        2.743352   -1.528530    1.781764
     24          1           0        2.377510   -2.465691    0.327084
     25          1           0        1.088513   -1.596087    1.173131
 ---------------------------------------------------------------------

 SCF Done:  E(RHF) =  -518.085941119     A.U. after    2 cycles

 The electronic state is 1-A.
 Alpha  occ. eigenvalues --  -21.01131 -15.74221 -11.52269 -11.50337 -11.44787
 Alpha  occ. eigenvalues --  -11.44159 -11.43744 -11.41120 -11.40517 -11.39277
 Alpha  occ. eigenvalues --  -11.38954 -11.36501  -1.69875  -1.42661  -1.35246
 Alpha  occ. eigenvalues --   -1.16291  -1.09787  -1.05173  -1.02740  -0.97410
 Alpha  occ. eigenvalues --   -0.87400  -0.85262  -0.76348  -0.69676  -0.65808
 Alpha  occ. eigenvalues --   -0.65222  -0.62168  -0.61320  -0.60140  -0.58135
 Alpha  occ. eigenvalues --   -0.58068  -0.55573  -0.53621  -0.53326  -0.51840
 Alpha  occ. eigenvalues --   -0.50297  -0.47568  -0.46297  -0.43727  -0.43249
 Alpha  occ. eigenvalues --   -0.33528  -0.32491  -0.29314  -0.26675
 Alpha virt. eigenvalues --    0.03183   0.04396   0.04731   0.05118   0.05622
 Alpha virt. eigenvalues --    0.05931   0.06282   0.06744   0.07006   0.07142
 Alpha virt. eigenvalues --    0.07587   0.08252   0.09474   0.10489   0.10738

 Mulliken charges:
               1
     1  C   -3.678202
     2  C   -1.869903
     3  C   -1.405856
     4  C   -1.923704
     5  C    2.216632
     6  C    2.522418
     7  C    4.670686
     8  C   -6.147333
     9  C   -3.689634
    10  C   -3.925870
    11  N   -3.434716
    12  O   -3.626916
    13  H    1.800037
    14  H    2.190071
    15  H    1.837329
    16  H    1.851233
    17  H    1.325734
    18  H    1.104033
    19  H    1.071454
    20  H    1.531681
    21  H    1.386095
    22  H    1.482760
    23  H    1.406499
    24  H    1.360195
    25  H    1.945277
 Sum of Mulliken charges =   0.00000

 Dipole moment (field-independent basis, Debye):
    X=             -0.6810    Y=             -2.0814    Z=              0.8702  Tot=              2.3566

 Test job not archived.
 1\1\GINC-SE041\SP\RHF\Aug-CC-pVDZ\C10H13N1O1\OHZDE\06-Apr-2025\0\\#t h
 f aug-cc-pvdz iop(5/13=1,5/36=2,99/5=2) pseudo=read geom=check guess=(
 read,tcheck) scf=(maxcycle=1)\\title\\0,1\C,0,-0.824709,1.228044,0.516
 573\C,0,-0.551689,-0.837659,-0.670034\C,0,-2.192547,1.01629,0.567183\C
 ,0,-1.928178,-1.033187,-0.636809\C,0,0.016971,0.292751,-0.088553\C,0,-
 2.771189,-0.1182,-0.009775\C,0,1.48004,0.615826,-0.196992\C,0,-4.26006
 3,-0.3338,0.047428\C,0,3.8,-0.087883,-0.163135\C,0,2.129735,-1.553398,
 0.876092\N,0,2.392421,-0.372582,0.069758\O,0,1.827343,1.734039,-0.5572

 Normal termination of Gaussian 16 at Sun Apr  6 08:12:25 2025.
