 Gaussian 16, Revision C.01,

 ----------------------------------------------------------------------
 #t hf aug-cc-pvdz symm=none int=(grid=ultrafine) guess=(read,tcheck) s
 table=(opt,rrhf)
 ----------------------------------------------------------------------
 -----
 title
 -----
 Symbolic Z-matrix:
 Charge =  0 Multiplicity = 1

 SCF Done:  E(RHF) =  -736.500568424     A.U. after   13 cycles
 Normal termination of Gaussian 16 at Sun Apr  6 08:07:58 2025.
 Gaussian 16:  ES64L-G16RevC.01  3-Jul-2019

 ----------------------------------------------------------------------
 #t hf aug-cc-pvdz iop(5/13=1,5/36=2,99/5=2) pseudo=read geom=check gue
 ss=(read,tcheck) scf=(maxcycle=1)
 ----------------------------------------------------------------------
 -----
 title
 -----
 Structure from the checkpoint file:  "N-N--dimethylsulfamide.chk"
 Charge =  0 Multiplicity = 1

                         Standard orientation:
 ---------------------------------------------------------------------
 Center     Atomic      Atomic             Coordinates (Angstroms)
 Number     Number       Type             X           Y           Z
 ---------------------------------------------------------------------
      1          6           0       -2.061141    1.167898    0.047427
      2          6           0        2.042644    1.195619   -0.057100
      3          7           0       -0.984023    0.568342   -0.743304
      4          7           0        1.205917    0.297792    0.735190
      5          8           0       -0.706460   -1.214268    1.093487
      6          8           0        0.585495   -1.313495   -1.089732
      7         16           0        0.003297   -0.568296    0.006116
      8          1           0       -2.593209    1.870367   -0.591540
      9          1           0       -1.635479    1.730384    0.877392
     10          1           0       -2.760962    0.433271    0.448081
     11          1           0        1.506342    2.078498   -0.412353
     12          1           0        2.430424    0.647758   -0.912276
     13          1           0        2.883696    1.505789    0.560159
     14          1           0       -1.279673    0.182618   -1.630608
     15          1           0        0.921539    0.622114    1.648067
 ---------------------------------------------------------------------

 SCF Done:  E(RHF) =  -738.318611466     A.U. after    2 cycles

 The electronic state is 1-A.
 Alpha  occ. eigenvalues --  -75.90923 -21.04533 -21.04477 -15.76850 -15.76696
 Alpha  occ. eigenvalues --  -13.53292 -13.43077 -13.38830 -11.41469 -11.41077
 Alpha  occ. eigenvalues --   -8.26163  -1.84418  -1.65719  -1.42366  -1.37852
 Alpha  occ. eigenvalues --   -1.05811  -1.00555  -0.88346  -0.71828  -0.68050
 Alpha  occ. eigenvalues --   -0.64973  -0.63331  -0.60942  -0.58888  -0.54779
 Alpha  occ. eigenvalues --   -0.54219  -0.45947  -0.42465  -0.40667  -0.39607
 Alpha  occ. eigenvalues --   -0.39020  -0.36136  -0.35174
 Alpha virt. eigenvalues --    0.02628   0.03625   0.04698   0.05569   0.06510
 Alpha virt. eigenvalues --    0.06870   0.07483   0.08026   0.10612   0.11333
 Alpha virt. eigenvalues --    0.12319   0.13531   0.14397   0.14962   0.15284

 Mulliken charges:
               1
     1  C   -3.323458
     2  C   -3.358453
     3  N   -2.768639
     4  N   -2.882095
     5  O   -2.605899
     6  O   -2.680965
     7  S    8.254322
     8  H    1.322082
     9  H    1.375306
    10  H    1.362321
    11  H    1.460028
    12  H    1.412086
    13  H    1.296349
    14  H    0.545540
    15  H    0.591476
 Sum of Mulliken charges =   0.00000

 Dipole moment (field-independent basis, Debye):
    X=             -0.4495    Y=              3.0033    Z=              0.0625  Tot=              3.0374

 Test job not archived.
 1\1\GINC-SE412\SP\RHF\Aug-CC-pVDZ\C2H8N2O2S1\OHZDE\06-Apr-2025\0\\#t h
 f aug-cc-pvdz iop(5/13=1,5/36=2,99/5=2) pseudo=read geom=check guess=(
 read,tcheck) scf=(maxcycle=1)\\title\\0,1\C,0,-2.061141,1.167898,0.047
 427\C,0,2.042644,1.195619,-0.0571\N,0,-0.984023,0.568342,-0.743304\N,0
 ,1.205917,0.297792,0.73519\O,0,-0.70646,-1.214268,1.093487\O,0,0.58549
 5,-1.313495,-1.089732\S,0,0.003297,-0.568296,0.006116\H,0,-2.593209,1.
 870367,-0.59154\H,0,-1.635479,1.730384,0.877392\H,0,-2.760962,0.433271
 ,0.448081\H,0,1.506342,2.078498,-0.412353\H,0,2.430424,0.647758,-0.912

 Normal termination of Gaussian 16 at Sun Apr  6 08:08:04 2025.
