 Gaussian 16, Revision C.01,

 ----------------------------------------------------------------------
 #t hf aug-cc-pvdz symm=none int=(grid=ultrafine) guess=(read,tcheck) s
 table=(opt,rrhf)
 ----------------------------------------------------------------------
 -----
 title
 -----
 Symbolic Z-matrix:
 Charge =  0 Multiplicity = 1

 SCF Done:  E(RHF) =  -247.023993251     A.U. after   13 cycles
 Normal termination of Gaussian 16 at Sun Apr  6 08:08:02 2025.
 Gaussian 16:  ES64L-G16RevC.01  3-Jul-2019

 ----------------------------------------------------------------------
 #t hf aug-cc-pvdz iop(5/13=1,5/36=2,99/5=2) pseudo=read geom=check gue
 ss=(read,tcheck) scf=(maxcycle=1)
 ----------------------------------------------------------------------
 -----
 title
 -----
 Structure from the checkpoint file:  "N-N-dimethylformamide.chk"
 Charge =  0 Multiplicity = 1

                         Standard orientation:
 ---------------------------------------------------------------------
 Center     Atomic      Atomic             Coordinates (Angstroms)
 Number     Number       Type             X           Y           Z
 ---------------------------------------------------------------------
      1          6           0       -0.691463   -0.825035    0.000000
      2          6           0        1.451045    0.342396    0.000000
      3          6           0       -0.673160    1.625303    0.000000
      4          7           0        0.000000    0.344183    0.000000
      5          8           0       -0.204681   -1.939050    0.000000
      6          1           0       -1.782485   -0.660464    0.000000
      7          1           0        1.835600    0.852868    0.886378
      8          1           0        1.835600    0.852868   -0.886378
      9          1           0        1.793661   -0.687964    0.000000
     10          1           0       -0.406192    2.208353    0.885441
     11          1           0       -1.751076    1.473118    0.000000
     12          1           0       -0.406192    2.208353   -0.885441
 ---------------------------------------------------------------------

 SCF Done:  E(RHF) =  -248.167435868     A.U. after    2 cycles

 The electronic state is 1-A'.
 Alpha  occ. eigenvalues --  -21.02157 -15.75213 -11.47480 -11.41389 -11.39595
 Alpha  occ. eigenvalues --   -1.69582  -1.43477  -1.06550  -0.99981  -0.79663
 Alpha  occ. eigenvalues --   -0.68690  -0.65887  -0.61896  -0.56492  -0.55156
 Alpha  occ. eigenvalues --   -0.52811  -0.48327  -0.47947  -0.29207  -0.29031
 Alpha virt. eigenvalues --    0.02992   0.05100   0.05489   0.05495   0.06985
 Alpha virt. eigenvalues --    0.07036   0.08023   0.10668   0.11206   0.12735
 Alpha virt. eigenvalues --    0.13522   0.14373   0.15060   0.16372   0.16482

 Mulliken charges:
               1
     1  C    2.248787
     2  C   -3.327617
     3  C   -3.273528
     4  N   -2.861125
     5  O   -2.763277
     6  H    1.640769
     7  H    1.384146
     8  H    1.384146
     9  H    1.376282
    10  H    1.390992
    11  H    1.409435
    12  H    1.390992
 Sum of Mulliken charges =  -0.00000

 Dipole moment (field-independent basis, Debye):
    X=              0.0766    Y=              2.7387    Z=             -0.0000  Tot=              2.7398

 Test job not archived.
 1\1\GINC-SE209\SP\RHF\Aug-CC-pVDZ\C3H7N1O1\OHZDE\06-Apr-2025\0\\#t hf
 aug-cc-pvdz iop(5/13=1,5/36=2,99/5=2) pseudo=read geom=check guess=(re
 ad,tcheck) scf=(maxcycle=1)\\title\\0,1\C,0,-0.691463,-0.825035,0.\C,0
 ,1.451045,0.342396,0.\C,0,-0.67316,1.625303,0.\N,0,0.,0.344183,0.\O,0,
 -0.204681,-1.93905,0.\H,0,-1.782485,-0.660464,0.\H,0,1.8356,0.852868,0
 .886378\H,0,1.8356,0.852868,-0.886378\H,0,1.793661,-0.687964,0.\H,0,-0
 .406192,2.208353,0.885441\H,0,-1.751076,1.473118,0.\H,0,-0.406192,2.20
 8353,-0.885441\\Version=ES64L-G16RevC.01\State=1-A'\HF=-248.1674359\RM

 Normal termination of Gaussian 16 at Sun Apr  6 08:08:06 2025.
