 Gaussian 16, Revision C.01,

 ----------------------------------------------------------------------
 #t hf aug-cc-pvdz symm=none int=(grid=ultrafine) guess=(read,tcheck) s
 table=(opt,rrhf)
 ----------------------------------------------------------------------
 -----
 title
 -----
 Symbolic Z-matrix:
 Charge =  0 Multiplicity = 1

 SCF Done:  E(RHF) =  -363.821016017     A.U. after   15 cycles

 1\1\GINC-SE200\Stability\RHF\Aug-CC-pVDZ\C8H11N1\OHZDE\06-Apr-2025\0\\
 #t hf aug-cc-pvdz symm=none int=(grid=ultrafine) guess=(read,tcheck) s
 table=(opt,rrhf)\\title\\0,1\C,0,-0.060027,-2.648826,0.\C,0,-0.034335,
 -1.937551,1.193561\C,0,-0.034335,-1.937551,-1.193561\C,0,0.022378,-0.5
 51433,1.203052\C,0,0.022378,-0.551433,-1.203052\C,0,0.066946,0.18052,0
 .\C,0,-0.034335,2.290729,1.239444\C,0,-0.034335,2.290729,-1.239444\N,0
 ,0.163911,1.564753,0.\H,0,-0.106296,-3.728607,0.\H,0,-0.063515,-2.4650
 3,2.138258\H,0,-0.063515,-2.46503,-2.138258\H,0,0.033546,-0.040931,2.1

 Normal termination of Gaussian 16 at Sun Apr  6 08:09:28 2025.
 Gaussian 16:  ES64L-G16RevC.01  3-Jul-2019

 ----------------------------------------------------------------------
 #t hf aug-cc-pvdz iop(5/13=1,5/36=2,99/5=2) pseudo=read geom=check gue
 ss=(read,tcheck) scf=(maxcycle=1)
 ----------------------------------------------------------------------
 -----
 title
 -----
 Structure from the checkpoint file:  "N-N-dimethylaniline.chk"
 Charge =  0 Multiplicity = 1

                         Standard orientation:
 ---------------------------------------------------------------------
 Center     Atomic      Atomic             Coordinates (Angstroms)
 Number     Number       Type             X           Y           Z
 ---------------------------------------------------------------------
      1          6           0       -0.060027   -2.648826    0.000000
      2          6           0       -0.034335   -1.937551    1.193561
      3          6           0       -0.034335   -1.937551   -1.193561
      4          6           0        0.022378   -0.551433    1.203052
      5          6           0        0.022378   -0.551433   -1.203052
      6          6           0        0.066946    0.180520   -0.000000
      7          6           0       -0.034335    2.290729    1.239444
      8          6           0       -0.034335    2.290729   -1.239444
      9          7           0        0.163911    1.564753   -0.000000
     10          1           0       -0.106296   -3.728607    0.000000
     11          1           0       -0.063515   -2.465030    2.138258
     12          1           0       -0.063515   -2.465030   -2.138258
     13          1           0        0.033546   -0.040931    2.153087
     14          1           0        0.033546   -0.040931   -2.153087
     15          1           0       -1.037990    2.148981    1.661823
     16          1           0        0.110493    3.352219    1.055557
     17          1           0        0.693922    1.986879    1.992824
     18          1           0        0.110493    3.352219   -1.055557
     19          1           0       -1.037990    2.148981   -1.661823
     20          1           0        0.693922    1.986879   -1.992824
 ---------------------------------------------------------------------

 SCF Done:  E(RHF) =  -365.610263250     A.U. after    2 cycles

 The electronic state is 1-A'.
 Alpha  occ. eigenvalues --  -15.72476 -11.51912 -11.44395 -11.42236 -11.39696
 Alpha  occ. eigenvalues --  -11.39410 -11.39291 -11.38848 -11.34902  -1.46417
 Alpha  occ. eigenvalues --   -1.28944  -1.09288  -1.08400  -1.04136  -0.93164
 Alpha  occ. eigenvalues --   -0.85298  -0.80259  -0.71254  -0.65336  -0.63827
 Alpha  occ. eigenvalues --   -0.62029  -0.61647  -0.57592  -0.56031  -0.52432
 Alpha  occ. eigenvalues --   -0.52094  -0.51031  -0.49916  -0.44691  -0.42657
 Alpha  occ. eigenvalues --   -0.38392  -0.32330  -0.24863
 Alpha virt. eigenvalues --    0.03435   0.04903   0.04993   0.05889   0.06156
 Alpha virt. eigenvalues --    0.06284   0.06487   0.07055   0.07199   0.09364
 Alpha virt. eigenvalues --    0.09373   0.10675   0.12437   0.12705   0.12764

 Mulliken charges:
               1
     1  C   -3.301710
     2  C   -0.706125
     3  C   -0.706125
     4  C   -2.328737
     5  C   -2.328737
     6  C    5.646179
     7  C   -4.242862
     8  C   -4.242862
     9  N   -4.747154
    10  H    1.577364
    11  H    1.523468
    12  H    1.523468
    13  H    1.877516
    14  H    1.877516
    15  H    1.404998
    16  H    1.387684
    17  H    1.496718
    18  H    1.387684
    19  H    1.404998
    20  H    1.496718
 Sum of Mulliken charges =   0.00000

 Dipole moment (field-independent basis, Debye):
    X=             -0.0864    Y=              1.7444    Z=             -0.0000  Tot=              1.7465

 Test job not archived.
 1\1\GINC-SE200\SP\RHF\Aug-CC-pVDZ\C8H11N1\OHZDE\06-Apr-2025\0\\#t hf a
 ug-cc-pvdz iop(5/13=1,5/36=2,99/5=2) pseudo=read geom=check guess=(rea
 d,tcheck) scf=(maxcycle=1)\\title\\0,1\C,0,-0.060027,-2.648826,0.\C,0,
 -0.034335,-1.937551,1.193561\C,0,-0.034335,-1.937551,-1.193561\C,0,0.0
 22378,-0.551433,1.203052\C,0,0.022378,-0.551433,-1.203052\C,0,0.066946
 ,0.18052,0.\C,0,-0.034335,2.290729,1.239444\C,0,-0.034335,2.290729,-1.
 239444\N,0,0.163911,1.564753,0.\H,0,-0.106296,-3.728607,0.\H,0,-0.0635
 15,-2.46503,2.138258\H,0,-0.063515,-2.46503,-2.138258\H,0,0.033546,-0.

 Normal termination of Gaussian 16 at Sun Apr  6 08:10:11 2025.
