 Gaussian 16, Revision C.01,

 ----------------------------------------------------------------------
 #t hf aug-cc-pvdz symm=none int=(grid=ultrafine) guess=(read,tcheck) s
 table=(opt,rrhf)
 ----------------------------------------------------------------------
 -----
 title
 -----
 Symbolic Z-matrix:
 Charge =  0 Multiplicity = 1

 SCF Done:  E(RHF) =  -817.539466011     A.U. after   15 cycles
 Normal termination of Gaussian 16 at Sun Apr  6 08:08:14 2025.
 Gaussian 16:  ES64L-G16RevC.01  3-Jul-2019

 ----------------------------------------------------------------------
 #t hf aug-cc-pvdz iop(5/13=1,5/36=2,99/5=2) pseudo=read geom=check gue
 ss=(read,tcheck) scf=(maxcycle=1)
 ----------------------------------------------------------------------
 -----
 title
 -----
 Structure from the checkpoint file:  "N-oxomethylene-beta-alanyl_chloride.chk"
 Charge =  0 Multiplicity = 1

                         Standard orientation:
 ---------------------------------------------------------------------
 Center     Atomic      Atomic             Coordinates (Angstroms)
 Number     Number       Type             X           Y           Z
 ---------------------------------------------------------------------
      1         17           0       -3.060401   -0.655123   -0.000036
      2          8           0       -1.695936    1.586291    0.000019
      3          8           0        4.467584   -0.178785   -0.000057
      4          7           0        2.105957   -0.328874    0.000063
      5          6           0       -0.315239   -0.391161    0.000014
      6          6           0        0.924008    0.501299    0.000045
      7          6           0       -1.585387    0.409377    0.000004
      8          6           0        3.297525   -0.188848   -0.000003
      9          1           0       -0.325259   -1.048562    0.871003
     10          1           0       -0.325232   -1.048540   -0.870992
     11          1           0        0.918478    1.146124    0.879487
     12          1           0        0.918511    1.146144   -0.879383
 ---------------------------------------------------------------------

 SCF Done:  E(RHF) =  -819.330575572     A.U. after    2 cycles

 The electronic state is 1-A.
 Alpha  occ. eigenvalues --  -99.90975 -21.12568 -21.11657 -15.77713 -11.59669
 Alpha  occ. eigenvalues --  -11.57009 -11.49078 -11.43434 -10.48284  -9.68199
 Alpha  occ. eigenvalues --   -9.67433  -9.67336  -1.77981  -1.77262  -1.43042
 Alpha  occ. eigenvalues --   -1.33305  -1.19525  -1.00786  -0.81493  -0.75924
 Alpha  occ. eigenvalues --   -0.71014  -0.66291  -0.63418  -0.62441  -0.61185
 Alpha  occ. eigenvalues --   -0.58600  -0.57329  -0.53534  -0.53175  -0.50322
 Alpha  occ. eigenvalues --   -0.46071  -0.37783  -0.35247  -0.34077
 Alpha virt. eigenvalues --    0.02934   0.05511   0.05527   0.06256   0.06898
 Alpha virt. eigenvalues --    0.07623   0.09163   0.10235   0.10270   0.10630
 Alpha virt. eigenvalues --    0.11552   0.11684   0.12751   0.13819   0.14131

 Mulliken charges:
               1
     1  Cl  -0.131913
     2  O   -2.674140
     3  O   -2.891598
     4  N   -2.074435
     5  C   -2.491387
     6  C   -1.844528
     7  C    1.883647
     8  C    4.047987
     9  H    1.555784
    10  H    1.555779
    11  H    1.532377
    12  H    1.532427
 Sum of Mulliken charges =  -0.00000

 Dipole moment (field-independent basis, Debye):
    X=              1.9591    Y=              1.7051    Z=             -0.0000  Tot=              2.5972

 Test job not archived.
 1\1\GINC-SE454\SP\RHF\Aug-CC-pVDZ\C4H4Cl1N1O2\OHZDE\06-Apr-2025\0\\#t
 hf aug-cc-pvdz iop(5/13=1,5/36=2,99/5=2) pseudo=read geom=check guess=
 (read,tcheck) scf=(maxcycle=1)\\title\\0,1\Cl,0,-3.060401,-0.655123,-0
 .000036\O,0,-1.695936,1.586291,0.000019\O,0,4.467584,-0.178785,-0.0000
 57\N,0,2.105957,-0.328874,0.000063\C,0,-0.315239,-0.391161,0.000014\C,
 0,0.924008,0.501299,0.000045\C,0,-1.585387,0.409377,0.000004\C,0,3.297
 525,-0.188848,-0.000003\H,0,-0.325259,-1.048562,0.871003\H,0,-0.325232
 ,-1.04854,-0.870992\H,0,0.918478,1.146124,0.879487\H,0,0.918511,1.1461

 Normal termination of Gaussian 16 at Sun Apr  6 08:08:20 2025.
