 Gaussian 16, Revision C.01,

 ----------------------------------------------------------------------
 #t hf aug-cc-pvdz symm=none int=(grid=ultrafine) guess=(read,tcheck) s
 table=(opt,rrhf)
 ----------------------------------------------------------------------
 -----
 title
 -----
 Symbolic Z-matrix:
 Charge =  0 Multiplicity = 1

 SCF Done:  E(RHF) =  -793.054177044     A.U. after   17 cycles
 Normal termination of Gaussian 16 at Sun Apr  6 08:08:29 2025.
 Gaussian 16:  ES64L-G16RevC.01  3-Jul-2019

 ----------------------------------------------------------------------
 #t hf aug-cc-pvdz iop(5/13=1,5/36=2,99/5=2) pseudo=read geom=check gue
 ss=(read,tcheck) scf=(maxcycle=1)
 ----------------------------------------------------------------------
 -----
 title
 -----
 Structure from the checkpoint file:  "N-oxocysteine.chk"
 Charge =  0 Multiplicity = 1

                         Standard orientation:
 ---------------------------------------------------------------------
 Center     Atomic      Atomic             Coordinates (Angstroms)
 Number     Number       Type             X           Y           Z
 ---------------------------------------------------------------------
      1         16           0        2.138126   -0.471424   -0.497762
      2          8           0       -1.262728    1.239322   -1.123753
      3          8           0       -0.184106    2.173393    0.574489
      4          8           0       -2.195916   -1.611940    0.020091
      5          7           0       -1.071021   -1.335428   -0.264211
      6          6           0       -0.489680   -0.243773    0.615987
      7          6           0       -0.694454    1.099412   -0.085165
      8          6           0        0.973673   -0.594469    0.910781
      9          1           0        2.200865    0.872262   -0.543734
     10          1           0        0.192088    1.925376    1.427496
     11          1           0       -1.071763   -0.233746    1.544268
     12          1           0        1.349553   -0.008418    1.748575
     13          1           0        1.021152   -1.637918    1.220832
 ---------------------------------------------------------------------

 SCF Done:  E(RHF) =  -794.961194854     A.U. after    2 cycles

 The electronic state is 1-A.
 Alpha  occ. eigenvalues --  -75.71199 -21.15033 -21.14981 -21.07693 -15.88142
 Alpha  occ. eigenvalues --  -13.16050 -13.12461 -13.06259 -11.56210 -11.50273
 Alpha  occ. eigenvalues --  -11.44307  -8.05041  -1.89257  -1.84329  -1.68173
 Alpha  occ. eigenvalues --   -1.30306  -1.15069  -0.98678  -0.94054  -0.80358
 Alpha  occ. eigenvalues --   -0.73676  -0.68243  -0.66251  -0.61582  -0.55661
 Alpha  occ. eigenvalues --   -0.55226  -0.53351  -0.53022  -0.50228  -0.46850
 Alpha  occ. eigenvalues --   -0.41792  -0.36379  -0.33112  -0.29364  -0.25409
 Alpha virt. eigenvalues --    0.01984   0.03852   0.04525   0.05091   0.05993
 Alpha virt. eigenvalues --    0.08646   0.10042   0.10753   0.11581   0.12249
 Alpha virt. eigenvalues --    0.12447   0.13459   0.13570   0.14614   0.14722

 Mulliken charges:
               1
     1  S   -0.440598
     2  O   -3.126990
     3  O   -3.129650
     4  O   -2.001840
     5  N    0.453360
     6  C   -0.546395
     7  C    5.916684
     8  C   -3.598236
     9  H    0.959251
    10  H    1.026119
    11  H    1.715221
    12  H    1.282784
    13  H    1.490290
 Sum of Mulliken charges =  -0.00000

 Dipole moment (field-independent basis, Debye):
    X=              1.5005    Y=             -0.9521    Z=              1.9595  Tot=              2.6454

 Test job not archived.
 1\1\GINC-SE453\SP\RHF\Aug-CC-pVDZ\C3H5N1O3S1\OHZDE\06-Apr-2025\0\\#t h
 f aug-cc-pvdz iop(5/13=1,5/36=2,99/5=2) pseudo=read geom=check guess=(
 read,tcheck) scf=(maxcycle=1)\\title\\0,1\S,0,2.138126,-0.471424,-0.49
 7762\O,0,-1.262728,1.239322,-1.123753\O,0,-0.184106,2.173393,0.574489\
 O,0,-2.195916,-1.61194,0.020091\N,0,-1.071021,-1.335428,-0.264211\C,0,
 -0.48968,-0.243773,0.615987\C,0,-0.694454,1.099412,-0.085165\C,0,0.973
 673,-0.594469,0.910781\H,0,2.200865,0.872262,-0.543734\H,0,0.192088,1.
 925376,1.427496\H,0,-1.071763,-0.233746,1.544268\H,0,1.349553,-0.00841

 Normal termination of Gaussian 16 at Sun Apr  6 08:08:34 2025.
