 Gaussian 16, Revision C.01,

 ----------------------------------------------------------------------
 #t hf aug-cc-pvdz symm=none int=(grid=ultrafine) guess=(read,tcheck) s
 table=(opt,rrhf)
 ----------------------------------------------------------------------
 -----
 title
 -----
 Symbolic Z-matrix:
 Charge =  0 Multiplicity = 1

 SCF Done:  E(RHF) =  -344.966752626     A.U. after   13 cycles

 1\1\GINC-SE023\Stability\RHF\Aug-CC-pVDZ\C5H10O2\OHZDE\06-Apr-2025\0\\
 #t hf aug-cc-pvdz symm=none int=(grid=ultrafine) guess=(read,tcheck) s
 table=(opt,rrhf)\\title\\0,1\C,0,-1.505345,0.854261,0.\C,0,2.618558,-2
 .127663,0.\C,0,0.,0.771586,0.\C,0,2.06835,-0.70264,0.\C,0,0.540531,-0.
 653982,0.\O,0,-2.272406,-0.073756,0.\O,0,-1.931154,2.143966,0.\H,0,3.7
 09158,-2.132876,0.\H,0,2.28356,-2.679277,0.880542\H,0,2.28356,-2.67927
 7,-0.880542\H,0,0.357515,1.331075,-0.869047\H,0,0.357515,1.331075,0.86
 9047\H,0,2.448656,-0.165278,-0.874152\H,0,2.448656,-0.165278,0.874152\

 Normal termination of Gaussian 16 at Sun Apr  6 08:25:22 2025.
 Gaussian 16:  ES64L-G16RevC.01  3-Jul-2019

 ----------------------------------------------------------------------
 #t hf aug-cc-pvdz iop(5/13=1,5/36=2,99/5=2) pseudo=read geom=check gue
 ss=(read,tcheck) scf=(maxcycle=1)
 ----------------------------------------------------------------------
 -----
 title
 -----
 Structure from the checkpoint file:  "n-pentanoic_acid.chk"
 Charge =  0 Multiplicity = 1

                         Standard orientation:
 ---------------------------------------------------------------------
 Center     Atomic      Atomic             Coordinates (Angstroms)
 Number     Number       Type             X           Y           Z
 ---------------------------------------------------------------------
      1          6           0       -1.505345    0.854261    0.000000
      2          6           0        2.618558   -2.127663    0.000000
      3          6           0        0.000000    0.771586    0.000000
      4          6           0        2.068350   -0.702640    0.000000
      5          6           0        0.540531   -0.653982    0.000000
      6          8           0       -2.272406   -0.073756    0.000000
      7          8           0       -1.931154    2.143966    0.000000
      8          1           0        3.709158   -2.132876    0.000000
      9          1           0        2.283560   -2.679277    0.880542
     10          1           0        2.283560   -2.679277   -0.880542
     11          1           0        0.357515    1.331075   -0.869047
     12          1           0        0.357515    1.331075    0.869047
     13          1           0        2.448656   -0.165278   -0.874152
     14          1           0        2.448656   -0.165278    0.874152
     15          1           0        0.153343   -1.186524   -0.871351
     16          1           0        0.153343   -1.186524    0.871351
     17          1           0       -2.899395    2.121831    0.000000
 ---------------------------------------------------------------------

 SCF Done:  E(RHF) =  -346.555687835     A.U. after    2 cycles

 The electronic state is 1-A'.
 Alpha  occ. eigenvalues --  -21.11956 -21.05233 -11.52838 -11.43318 -11.41396
 Alpha  occ. eigenvalues --  -11.37928 -11.35186  -1.82524  -1.65082  -1.25342
 Alpha  occ. eigenvalues --   -1.10953  -0.96240  -0.84524  -0.77923  -0.66933
 Alpha  occ. eigenvalues --   -0.63888  -0.60975  -0.60551  -0.57760  -0.53299
 Alpha  occ. eigenvalues --   -0.52747  -0.48469  -0.46415  -0.45975  -0.45703
 Alpha  occ. eigenvalues --   -0.42661  -0.33910  -0.29642
 Alpha virt. eigenvalues --    0.03855   0.04938   0.05376   0.05531   0.06035
 Alpha virt. eigenvalues --    0.06243   0.07431   0.07579   0.07813   0.09576
 Alpha virt. eigenvalues --    0.10176   0.11943   0.13195   0.14076   0.14287

 Mulliken charges:
               1
     1  C    6.118982
     2  C   -4.236406
     3  C   -4.094012
     4  C   -2.844668
     5  C   -2.154923
     6  O   -3.054418
     7  O   -3.245617
     8  H    1.069888
     9  H    1.281825
    10  H    1.281825
    11  H    1.469623
    12  H    1.469623
    13  H    1.392871
    14  H    1.392871
    15  H    1.569198
    16  H    1.569198
    17  H    1.014140
 Sum of Mulliken charges =  -0.00000

 Dipole moment (field-independent basis, Debye):
    X=              0.8649    Y=              0.7513    Z=              0.0000  Tot=              1.1456

 Test job not archived.
 1\1\GINC-SE023\SP\RHF\Aug-CC-pVDZ\C5H10O2\OHZDE\06-Apr-2025\0\\#t hf a
 ug-cc-pvdz iop(5/13=1,5/36=2,99/5=2) pseudo=read geom=check guess=(rea
 d,tcheck) scf=(maxcycle=1)\\title\\0,1\C,0,-1.505345,0.854261,0.\C,0,2
 .618558,-2.127663,0.\C,0,0.,0.771586,0.\C,0,2.06835,-0.70264,0.\C,0,0.
 540531,-0.653982,0.\O,0,-2.272406,-0.073756,0.\O,0,-1.931154,2.143966,
 0.\H,0,3.709158,-2.132876,0.\H,0,2.28356,-2.679277,0.880542\H,0,2.2835
 6,-2.679277,-0.880542\H,0,0.357515,1.331075,-0.869047\H,0,0.357515,1.3
 31075,0.869047\H,0,2.448656,-0.165278,-0.874152\H,0,2.448656,-0.165278

 Normal termination of Gaussian 16 at Sun Apr  6 08:25:38 2025.
