 Gaussian 16, Revision C.01,

 ----------------------------------------------------------------------
 #t hf aug-cc-pvdz symm=none int=(grid=ultrafine) guess=(read,tcheck) s
 table=(opt,rrhf)
 ----------------------------------------------------------------------
 -----
 title
 -----
 Symbolic Z-matrix:
 Charge =  0 Multiplicity = 1

 SCF Done:  E(RHF) =  -401.705390514     A.U. after   15 cycles

 1\1\GINC-SE454\Stability\RHF\Aug-CC-pVDZ\C9H11N1\OHZDE\06-Apr-2025\0\\
 #t hf aug-cc-pvdz symm=none int=(grid=ultrafine) guess=(read,tcheck) s
 table=(opt,rrhf)\\title\\0,1\C,0,2.998166,-0.117026,0.186742\C,0,2.250
 26,-1.206555,-0.245165\C,0,2.377431,1.12006,0.32829\C,0,0.896545,-1.06
 7455,-0.525584\C,0,1.027004,1.269555,0.042344\C,0,0.267676,0.172124,-0
 .374549\C,0,-2.052493,0.014676,0.007335\C,0,-3.450793,0.232807,-0.5032
 77\C,0,-1.944865,-0.58286,1.389174\N,0,-1.07882,0.35005,-0.736188\H,0,
 4.051545,-0.228318,0.403476\H,0,2.72157,-2.173091,-0.366506\H,0,2.9491

 Normal termination of Gaussian 16 at Sun Apr  6 08:10:33 2025.
 Gaussian 16:  ES64L-G16RevC.01  3-Jul-2019

 ----------------------------------------------------------------------
 #t hf aug-cc-pvdz iop(5/13=1,5/36=2,99/5=2) pseudo=read geom=check gue
 ss=(read,tcheck) scf=(maxcycle=1)
 ----------------------------------------------------------------------
 -----
 title
 -----
 Structure from the checkpoint file:  "N-phenylpropan-2-imine.chk"
 Charge =  0 Multiplicity = 1

                         Standard orientation:
 ---------------------------------------------------------------------
 Center     Atomic      Atomic             Coordinates (Angstroms)
 Number     Number       Type             X           Y           Z
 ---------------------------------------------------------------------
      1          6           0        2.998166   -0.117026    0.186742
      2          6           0        2.250260   -1.206555   -0.245165
      3          6           0        2.377431    1.120060    0.328290
      4          6           0        0.896545   -1.067455   -0.525584
      5          6           0        1.027004    1.269555    0.042344
      6          6           0        0.267676    0.172124   -0.374549
      7          6           0       -2.052493    0.014676    0.007335
      8          6           0       -3.450793    0.232807   -0.503277
      9          6           0       -1.944865   -0.582860    1.389174
     10          7           0       -1.078820    0.350050   -0.736188
     11          1           0        4.051545   -0.228318    0.403476
     12          1           0        2.721570   -2.173091   -0.366506
     13          1           0        2.949124    1.977574    0.658099
     14          1           0        0.319634   -1.913528   -0.874264
     15          1           0        0.548756    2.235247    0.134308
     16          1           0       -4.006387    0.889434    0.170715
     17          1           0       -3.995891   -0.713622   -0.539447
     18          1           0       -3.427654    0.672409   -1.496672
     19          1           0       -2.429938   -1.561221    1.412890
     20          1           0       -2.478210    0.046473    2.105055
     21          1           0       -0.914394   -0.693657    1.713800
 ---------------------------------------------------------------------

 SCF Done:  E(RHF) =  -403.661852983     A.U. after    2 cycles

 The electronic state is 1-A.
 Alpha  occ. eigenvalues --  -15.72346 -11.51733 -11.46471 -11.43833 -11.41847
 Alpha  occ. eigenvalues --  -11.39832 -11.39282 -11.39201 -11.37285 -11.35350
 Alpha  occ. eigenvalues --   -1.43641  -1.29795  -1.14813  -1.08602  -1.04430
 Alpha  occ. eigenvalues --   -1.02372  -0.86289  -0.85962  -0.75351  -0.68971
 Alpha  occ. eigenvalues --   -0.64931  -0.61966  -0.61658  -0.59833  -0.57524
 Alpha  occ. eigenvalues --   -0.56661  -0.54691  -0.53043  -0.51208  -0.48984
 Alpha  occ. eigenvalues --   -0.45646  -0.45001  -0.38644  -0.37342  -0.32565
 Alpha  occ. eigenvalues --   -0.28258
 Alpha virt. eigenvalues --    0.03234   0.04917   0.05147   0.05516   0.05820
 Alpha virt. eigenvalues --    0.06030   0.06581   0.06772   0.07184   0.07230
 Alpha virt. eigenvalues --    0.08292   0.10730   0.11678   0.11898   0.12590

 Mulliken charges:
               1
     1  C   -2.561999
     2  C    0.142980
     3  C    0.167072
     4  C   -3.016362
     5  C   -3.036423
     6  C    4.008459
     7  C    2.577636
     8  C   -4.641995
     9  C   -4.868922
    10  N   -5.161273
    11  H    1.560137
    12  H    1.553774
    13  H    1.555275
    14  H    1.844697
    15  H    1.807329
    16  H    1.253329
    17  H    1.256294
    18  H    1.415535
    19  H    1.209780
    20  H    1.223936
    21  H    1.710741
 Sum of Mulliken charges =  -0.00000

 Dipole moment (field-independent basis, Debye):
    X=             -1.1175    Y=             -0.5901    Z=              1.3469  Tot=              1.8469

 Test job not archived.
 1\1\GINC-SE454\SP\RHF\Aug-CC-pVDZ\C9H11N1\OHZDE\06-Apr-2025\0\\#t hf a
 ug-cc-pvdz iop(5/13=1,5/36=2,99/5=2) pseudo=read geom=check guess=(rea
 d,tcheck) scf=(maxcycle=1)\\title\\0,1\C,0,2.998166,-0.117026,0.186742
 \C,0,2.25026,-1.206555,-0.245165\C,0,2.377431,1.12006,0.32829\C,0,0.89
 6545,-1.067455,-0.525584\C,0,1.027004,1.269555,0.042344\C,0,0.267676,0
 .172124,-0.374549\C,0,-2.052493,0.014676,0.007335\C,0,-3.450793,0.2328
 07,-0.503277\C,0,-1.944865,-0.58286,1.389174\N,0,-1.07882,0.35005,-0.7
 36188\H,0,4.051545,-0.228318,0.403476\H,0,2.72157,-2.173091,-0.366506\

 Normal termination of Gaussian 16 at Sun Apr  6 08:10:56 2025.
