 Gaussian 16, Revision C.01,

 ----------------------------------------------------------------------
 #t hf aug-cc-pvdz symm=none int=(grid=ultrafine) guess=(read,tcheck) s
 table=(opt,rrhf)
 ----------------------------------------------------------------------
 -----
 title
 -----
 Symbolic Z-matrix:
 Charge =  0 Multiplicity = 1

 SCF Done:  E(RHF) =  -305.904589175     A.U. after   13 cycles
 Normal termination of Gaussian 16 at Sun Apr  6 08:25:16 2025.
 Gaussian 16:  ES64L-G16RevC.01  3-Jul-2019

 ----------------------------------------------------------------------
 #t hf aug-cc-pvdz iop(5/13=1,5/36=2,99/5=2) pseudo=read geom=check gue
 ss=(read,tcheck) scf=(maxcycle=1)
 ----------------------------------------------------------------------
 -----
 title
 -----
 Structure from the checkpoint file:  "n-propyl_formate.chk"
 Charge =  0 Multiplicity = 1

                         Standard orientation:
 ---------------------------------------------------------------------
 Center     Atomic      Atomic             Coordinates (Angstroms)
 Number     Number       Type             X           Y           Z
 ---------------------------------------------------------------------
      1          6           0       -1.071395   -1.776836    0.000000
      2          6           0        1.414442    2.421868    0.000000
      3          6           0        1.409577    0.893657    0.000000
      4          6           0        0.000000    0.338803    0.000000
      5          8           0       -2.169335   -1.290400    0.000000
      6          8           0        0.086608   -1.109139    0.000000
      7          1           0       -0.866386   -2.854791    0.000000
      8          1           0        0.909790    2.821701    0.881287
      9          1           0        2.434143    2.805918    0.000000
     10          1           0        0.909790    2.821701   -0.881287
     11          1           0        1.940343    0.515991    0.876316
     12          1           0        1.940343    0.515991   -0.876316
     13          1           0       -0.560976    0.652422    0.881239
     14          1           0       -0.560976    0.652422   -0.881239
 ---------------------------------------------------------------------

 SCF Done:  E(RHF) =  -307.286426173     A.U. after    2 cycles

 The electronic state is 1-A'.
 Alpha  occ. eigenvalues --  -21.09586 -21.05757 -11.50550 -11.45165 -11.40401
 Alpha  occ. eigenvalues --  -11.36395  -1.84174  -1.66511  -1.20632  -1.00952
 Alpha  occ. eigenvalues --   -0.87542  -0.81978  -0.68073  -0.67688  -0.59834
 Alpha  occ. eigenvalues --   -0.58447  -0.56267  -0.51416  -0.49625  -0.47636
 Alpha  occ. eigenvalues --   -0.46658  -0.42135  -0.32435  -0.30756
 Alpha virt. eigenvalues --    0.03616   0.04979   0.05639   0.05876   0.06040
 Alpha virt. eigenvalues --    0.06074   0.07719   0.08296   0.10396   0.11137
 Alpha virt. eigenvalues --    0.11725   0.13133   0.14458   0.15272   0.15888

 Mulliken charges:
               1
     1  C    2.258016
     2  C   -3.528637
     3  C   -3.300129
     4  C   -1.335122
     5  O   -2.479335
     6  O   -2.953905
     7  H    1.681736
     8  H    1.271411
     9  H    1.129256
    10  H    1.271411
    11  H    1.386602
    12  H    1.386602
    13  H    1.606047
    14  H    1.606047
 Sum of Mulliken charges =  -0.00000

 Dipole moment (field-independent basis, Debye):
    X=              1.6656    Y=              0.7209    Z=              0.0000  Tot=              1.8149

 Test job not archived.
 1\1\GINC-SE044\SP\RHF\Aug-CC-pVDZ\C4H8O2\OHZDE\06-Apr-2025\0\\#t hf au
 g-cc-pvdz iop(5/13=1,5/36=2,99/5=2) pseudo=read geom=check guess=(read
 ,tcheck) scf=(maxcycle=1)\\title\\0,1\C,0,-1.071395,-1.776836,0.\C,0,1
 .414442,2.421868,0.\C,0,1.409577,0.893657,0.\C,0,0.,0.338803,0.\O,0,-2
 .169335,-1.2904,0.\O,0,0.086608,-1.109139,0.\H,0,-0.866386,-2.854791,0
 .\H,0,0.90979,2.821701,0.881287\H,0,2.434143,2.805918,0.\H,0,0.90979,2
 .821701,-0.881287\H,0,1.940343,0.515991,0.876316\H,0,1.940343,0.515991
 ,-0.876316\H,0,-0.560976,0.652422,0.881239\H,0,-0.560976,0.652422,-0.8

 Normal termination of Gaussian 16 at Sun Apr  6 08:25:37 2025.
