 Gaussian 16, Revision C.01,

 ----------------------------------------------------------------------
 #t hf aug-cc-pvdz symm=none int=(grid=ultrafine) guess=(read,tcheck) s
 table=(opt,rrhf)
 ----------------------------------------------------------------------
 -----
 title
 -----
 Symbolic Z-matrix:
 Charge =  0 Multiplicity = 1

 SCF Done:  E(RHF) =  -344.955610930     A.U. after   13 cycles

 1\1\GINC-SE038\Stability\RHF\Aug-CC-pVDZ\C5H10O2\OHZDE\06-Apr-2025\0\\
 #t hf aug-cc-pvdz symm=none int=(grid=ultrafine) guess=(read,tcheck) s
 table=(opt,rrhf)\\title\\0,1\C,0,-1.603643,0.174878,-0.000006\C,0,-2.7
 67397,-0.780438,0.000006\C,0,3.283501,0.155432,0.000008\C,0,1.963727,-
 0.615105,-0.000005\C,0,0.76915,0.317432,-0.000001\O,0,-1.68809,1.37780
 8,-0.000001\O,0,-0.429939,-0.489876,-0.000012\H,0,-2.721291,-1.424419,
 0.878141\H,0,-2.721158,-1.424638,-0.877958\H,0,-3.696732,-0.219858,-0.
 000125\H,0,3.372308,0.793346,0.88123\H,0,4.132141,-0.528255,0.000005\H

 Normal termination of Gaussian 16 at Sun Apr  6 08:25:34 2025.
 Gaussian 16:  ES64L-G16RevC.01  3-Jul-2019

 ----------------------------------------------------------------------
 #t hf aug-cc-pvdz iop(5/13=1,5/36=2,99/5=2) pseudo=read geom=check gue
 ss=(read,tcheck) scf=(maxcycle=1)
 ----------------------------------------------------------------------
 -----
 title
 -----
 Structure from the checkpoint file:  "n-propyl_acetate.chk"
 Charge =  0 Multiplicity = 1

                         Standard orientation:
 ---------------------------------------------------------------------
 Center     Atomic      Atomic             Coordinates (Angstroms)
 Number     Number       Type             X           Y           Z
 ---------------------------------------------------------------------
      1          6           0       -1.603643    0.174878   -0.000006
      2          6           0       -2.767397   -0.780438    0.000006
      3          6           0        3.283501    0.155432    0.000008
      4          6           0        1.963727   -0.615105   -0.000005
      5          6           0        0.769150    0.317432   -0.000001
      6          8           0       -1.688090    1.377808   -0.000001
      7          8           0       -0.429939   -0.489876   -0.000012
      8          1           0       -2.721291   -1.424419    0.878141
      9          1           0       -2.721158   -1.424638   -0.877958
     10          1           0       -3.696732   -0.219858   -0.000125
     11          1           0        3.372308    0.793346    0.881230
     12          1           0        4.132141   -0.528255    0.000005
     13          1           0        3.372315    0.793363   -0.881202
     14          1           0        1.908444   -1.264592    0.876224
     15          1           0        1.908451   -1.264576   -0.876246
     16          1           0        0.758862    0.961481    0.880478
     17          1           0        0.758869    0.961496   -0.880469
 ---------------------------------------------------------------------

 SCF Done:  E(RHF) =  -346.541492504     A.U. after    2 cycles

 The electronic state is 1-A.
 Alpha  occ. eigenvalues --  -21.08264 -21.04316 -11.51652 -11.44757 -11.40035
 Alpha  occ. eigenvalues --  -11.39092 -11.36098  -1.83708  -1.65564  -1.20467
 Alpha  occ. eigenvalues --   -1.10684  -0.98613  -0.85890  -0.75844  -0.67396
 Alpha  occ. eigenvalues --   -0.64682  -0.61002  -0.60789  -0.56888  -0.56683
 Alpha  occ. eigenvalues --   -0.53413  -0.48862  -0.48695  -0.46016  -0.45326
 Alpha  occ. eigenvalues --   -0.41124  -0.31902  -0.29022
 Alpha virt. eigenvalues --    0.03614   0.04601   0.05182   0.05727   0.06070
 Alpha virt. eigenvalues --    0.06075   0.06999   0.07243   0.07916   0.08858
 Alpha virt. eigenvalues --    0.09988   0.10790   0.13601   0.13982   0.14400

 Mulliken charges:
               1
     1  C    5.569237
     2  C   -4.805417
     3  C   -3.570402
     4  C   -3.453710
     5  C   -1.084417
     6  O   -3.052481
     7  O   -3.361387
     8  H    1.299788
     9  H    1.299829
    10  H    1.249370
    11  H    1.281504
    12  H    1.117923
    13  H    1.281500
    14  H    1.451941
    15  H    1.451938
    16  H    1.662390
    17  H    1.662394
 Sum of Mulliken charges =   0.00000

 Dipole moment (field-independent basis, Debye):
    X=              0.9127    Y=             -1.3689    Z=              0.0000  Tot=              1.6453

 Test job not archived.
 1\1\GINC-SE038\SP\RHF\Aug-CC-pVDZ\C5H10O2\OHZDE\06-Apr-2025\0\\#t hf a
 ug-cc-pvdz iop(5/13=1,5/36=2,99/5=2) pseudo=read geom=check guess=(rea
 d,tcheck) scf=(maxcycle=1)\\title\\0,1\C,0,-1.603643,0.174878,-0.00000
 6\C,0,-2.767397,-0.780438,0.000006\C,0,3.283501,0.155432,0.000008\C,0,
 1.963727,-0.615105,-0.000005\C,0,0.76915,0.317432,-0.000001\O,0,-1.688
 09,1.377808,-0.000001\O,0,-0.429939,-0.489876,-0.000012\H,0,-2.721291,
 -1.424419,0.878141\H,0,-2.721158,-1.424638,-0.877958\H,0,-3.696732,-0.
 219858,-0.000125\H,0,3.372308,0.793346,0.88123\H,0,4.132141,-0.528255,

 Normal termination of Gaussian 16 at Sun Apr  6 08:26:32 2025.
