 Gaussian 16, Revision C.01,

 ----------------------------------------------------------------------
 #t hf aug-cc-pvdz symm=none int=(grid=ultrafine) guess=(read,tcheck) s
 table=(opt,rrhf)
 ----------------------------------------------------------------------
 -----
 title
 -----
 Symbolic Z-matrix:
 Charge =  0 Multiplicity = 1

 SCF Done:  E(RHF) =  -903.993346583     A.U. after   15 cycles
 Normal termination of Gaussian 16 at Sun Apr  6 08:09:38 2025.
 Gaussian 16:  ES64L-G16RevC.01  3-Jul-2019

 ----------------------------------------------------------------------
 #t hf aug-cc-pvdz iop(5/13=1,5/36=2,99/5=2) pseudo=read geom=check gue
 ss=(read,tcheck) scf=(maxcycle=1)
 ----------------------------------------------------------------------
 -----
 title
 -----
 Structure from the checkpoint file:  "N-pyrazin-2-ylmethanesulfonamide.chk"
 Charge =  0 Multiplicity = 1

                         Standard orientation:
 ---------------------------------------------------------------------
 Center     Atomic      Atomic             Coordinates (Angstroms)
 Number     Number       Type             X           Y           Z
 ---------------------------------------------------------------------
      1          6           0        3.364850    0.398763    0.150943
      2          6           0        2.326412    1.312586    0.065958
      3          6           0        1.891085   -1.300109   -0.147133
      4          6           0        0.842900   -0.369826   -0.242482
      5          6           0       -2.122614    1.334764   -0.896648
      6          7           0        3.141045   -0.913697    0.037962
      7          7           0        1.065571    0.934122   -0.143705
      8          7           0       -0.461515   -0.797266   -0.495355
      9          8           0       -2.884414   -1.071196   -0.072187
     10          8           0       -1.587626    0.402262    1.509475
     11         16           0       -1.856311   -0.074094    0.169128
     12          1           0        4.385597    0.718852    0.312895
     13          1           0        2.507994    2.376178    0.160123
     14          1           0        1.700423   -2.365075   -0.225096
     15          1           0       -3.002391    1.842073   -0.507181
     16          1           0       -1.240827    1.965017   -0.832434
     17          1           0       -2.293340    0.973464   -1.906154
     18          1           0       -0.611669   -1.792707   -0.582644
 ---------------------------------------------------------------------

 SCF Done:  E(RHF) =  -906.538553695     A.U. after    2 cycles

 The electronic state is 1-A.
 Alpha  occ. eigenvalues --  -75.91161 -21.05360 -21.05254 -15.79272 -15.78013
 Alpha  occ. eigenvalues --  -15.77125 -13.53341 -13.43929 -13.37409 -11.52971
 Alpha  occ. eigenvalues --  -11.48233 -11.43661 -11.42806 -11.41488  -8.26171
 Alpha  occ. eigenvalues --   -1.84275  -1.65812  -1.55273  -1.41240  -1.33613
 Alpha  occ. eigenvalues --   -1.16444  -1.12194  -0.96452  -0.94918  -0.87714
 Alpha  occ. eigenvalues --   -0.76518  -0.71264  -0.69283  -0.64723  -0.63968
 Alpha  occ. eigenvalues --   -0.63581  -0.62639  -0.58840  -0.56973  -0.53883
 Alpha  occ. eigenvalues --   -0.50345  -0.47719  -0.43823  -0.43010  -0.41966
 Alpha  occ. eigenvalues --   -0.39558  -0.38067  -0.35785  -0.35438  -0.32495
 Alpha virt. eigenvalues --    0.02854   0.04155   0.04805   0.05140   0.05776
 Alpha virt. eigenvalues --    0.06865   0.07932   0.08650   0.09701   0.10105
 Alpha virt. eigenvalues --    0.10496   0.10893   0.11856   0.12239   0.12753

 Mulliken charges:
               1
     1  C    0.044854
     2  C    0.576713
     3  C   -0.482692
     4  C    5.144725
     5  C   -4.622007
     6  N   -3.818694
     7  N   -4.295170
     8  N   -3.564838
     9  O   -2.562661
    10  O   -2.566488
    11  S    6.328993
    12  H    1.497851
    13  H    1.686435
    14  H    1.763220
    15  H    1.331342
    16  H    1.617487
    17  H    1.413643
    18  H    0.507288
 Sum of Mulliken charges =   0.00000

 Dipole moment (field-independent basis, Debye):
    X=              1.0550    Y=              0.9608    Z=             -1.3190  Tot=              1.9432

 Test job not archived.
 1\1\GINC-SE270\SP\RHF\Aug-CC-pVDZ\C5H7N3O2S1\OHZDE\06-Apr-2025\0\\#t h
 f aug-cc-pvdz iop(5/13=1,5/36=2,99/5=2) pseudo=read geom=check guess=(
 read,tcheck) scf=(maxcycle=1)\\title\\0,1\C,0,3.36485,0.398763,0.15094
 3\C,0,2.326412,1.312586,0.065958\C,0,1.891085,-1.300109,-0.147133\C,0,
 0.8429,-0.369826,-0.242482\C,0,-2.122614,1.334764,-0.896648\N,0,3.1410
 45,-0.913697,0.037962\N,0,1.065571,0.934122,-0.143705\N,0,-0.461515,-0
 .797266,-0.495355\O,0,-2.884414,-1.071196,-0.072187\O,0,-1.587626,0.40
 2262,1.509475\S,0,-1.856311,-0.074094,0.169128\H,0,4.385597,0.718852,0

 Normal termination of Gaussian 16 at Sun Apr  6 08:10:14 2025.
