 Gaussian 16, Revision C.01,

 ----------------------------------------------------------------------
 #t hf aug-cc-pvdz symm=none int=(grid=ultrafine) guess=(read,tcheck) s
 table=(opt,rrhf)
 ----------------------------------------------------------------------
 -----
 title
 -----
 Symbolic Z-matrix:
 Charge =  0 Multiplicity = 1

 SCF Done:  E(RHF) =  -829.138059445     A.U. after   16 cycles
 Normal termination of Gaussian 16 at Sun Apr  6 08:09:15 2025.
 Gaussian 16:  ES64L-G16RevC.01  3-Jul-2019

 ----------------------------------------------------------------------
 #t hf aug-cc-pvdz iop(5/13=1,5/36=2,99/5=2) pseudo=read geom=check gue
 ss=(read,tcheck) scf=(maxcycle=1)
 ----------------------------------------------------------------------
 -----
 title
 -----
 Structure from the checkpoint file:  "N-pyrazin-2-ylmethanesulfinamide.chk"
 Charge =  0 Multiplicity = 1

                         Standard orientation:
 ---------------------------------------------------------------------
 Center     Atomic      Atomic             Coordinates (Angstroms)
 Number     Number       Type             X           Y           Z
 ---------------------------------------------------------------------
      1          6           0        3.276469   -0.292227    0.099087
      2          6           0        2.790514    0.999064    0.229996
      3          6           0        1.181024   -1.031756   -0.375895
      4          6           0        0.688197    0.275288   -0.221938
      5          6           0       -3.203955    0.336431   -0.890716
      6          7           0        2.463709   -1.307293   -0.206599
      7          7           0        1.497661    1.284923    0.078596
      8          7           0       -0.655790    0.607184   -0.433652
      9          8           0       -2.260256   -0.137191    1.534977
     10         16           0       -1.909653   -0.449316    0.121673
     11          1           0        4.326381   -0.516346    0.234552
     12          1           0        3.449330    1.825368    0.467782
     13          1           0        0.524349   -1.850733   -0.640400
     14          1           0       -4.132247   -0.170891   -0.639919
     15          1           0       -2.965474    0.215129   -1.944190
     16          1           0       -3.270616    1.387654   -0.614934
     17          1           0       -0.827771    1.581914   -0.201099
 ---------------------------------------------------------------------

 SCF Done:  E(RHF) =  -831.350342656     A.U. after    2 cycles

 The electronic state is 1-A.
 Alpha  occ. eigenvalues --  -75.82412 -21.02093 -15.77909 -15.77092 -15.76200
 Alpha  occ. eigenvalues --  -13.37416 -13.26725 -13.22364 -11.51776 -11.47097
 Alpha  occ. eigenvalues --  -11.42168 -11.41978 -11.40544  -8.16604  -1.71433
 Alpha  occ. eigenvalues --   -1.54220  -1.40371  -1.32627  -1.16590  -1.10070
 Alpha  occ. eigenvalues --   -0.96174  -0.94160  -0.88868  -0.73760  -0.70373
 Alpha  occ. eigenvalues --   -0.67667  -0.63302  -0.62819  -0.61755  -0.60440
 Alpha  occ. eigenvalues --   -0.56339  -0.53900  -0.50814  -0.48196  -0.46376
 Alpha  occ. eigenvalues --   -0.42578  -0.39566  -0.36086  -0.35042  -0.30550
 Alpha  occ. eigenvalues --   -0.28294
 Alpha virt. eigenvalues --    0.03026   0.03809   0.04966   0.05466   0.05696
 Alpha virt. eigenvalues --    0.06398   0.07927   0.09171   0.09471   0.10427
 Alpha virt. eigenvalues --    0.10645   0.11003   0.12017   0.12760   0.13255

 Mulliken charges:
               1
     1  C   -0.009007
     2  C    0.641621
     3  C   -0.143738
     4  C    4.940568
     5  C   -4.877225
     6  N   -3.712126
     7  N   -4.714774
     8  N   -3.509924
     9  O   -2.465266
    10  S    3.819664
    11  H    1.492047
    12  H    1.654596
    13  H    1.876631
    14  H    1.349451
    15  H    1.497810
    16  H    1.375612
    17  H    0.784060
 Sum of Mulliken charges =  -0.00000

 Dipole moment (field-independent basis, Debye):
    X=             -0.4320    Y=              0.1924    Z=             -1.2496  Tot=              1.3360

 Test job not archived.
 1\1\GINC-SE269\SP\RHF\Aug-CC-pVDZ\C5H7N3O1S1\OHZDE\06-Apr-2025\0\\#t h
 f aug-cc-pvdz iop(5/13=1,5/36=2,99/5=2) pseudo=read geom=check guess=(
 read,tcheck) scf=(maxcycle=1)\\title\\0,1\C,0,3.276469,-0.292227,0.099
 087\C,0,2.790514,0.999064,0.229996\C,0,1.181024,-1.031756,-0.375895\C,
 0,0.688197,0.275288,-0.221938\C,0,-3.203955,0.336431,-0.890716\N,0,2.4
 63709,-1.307293,-0.206599\N,0,1.497661,1.284923,0.078596\N,0,-0.65579,
 0.607184,-0.433652\O,0,-2.260256,-0.137191,1.534977\S,0,-1.909653,-0.4
 49316,0.121673\H,0,4.326381,-0.516346,0.234552\H,0,3.44933,1.825368,0.

 Normal termination of Gaussian 16 at Sun Apr  6 08:10:13 2025.
