 Gaussian 16, Revision C.01,

 ----------------------------------------------------------------------
 #t hf aug-cc-pvdz symm=none int=(grid=ultrafine) guess=(read,tcheck) s
 table=(opt,rrhf)
 ----------------------------------------------------------------------
 -----
 title
 -----
 Symbolic Z-matrix:
 Charge =  0 Multiplicity = 1

 SCF Done:  E(RHF) =  -375.812352180     A.U. after   14 cycles
 Normal termination of Gaussian 16 at Sun Apr  6 08:08:19 2025.
 Gaussian 16:  ES64L-G16RevC.01  3-Jul-2019

 ----------------------------------------------------------------------
 #t hf aug-cc-pvdz iop(5/13=1,5/36=2,99/5=2) pseudo=read geom=check gue
 ss=(read,tcheck) scf=(maxcycle=1)
 ----------------------------------------------------------------------
 -----
 title
 -----
 Structure from the checkpoint file:  "N2-formylglycinamide.chk"
 Charge =  0 Multiplicity = 1

                         Standard orientation:
 ---------------------------------------------------------------------
 Center     Atomic      Atomic             Coordinates (Angstroms)
 Number     Number       Type             X           Y           Z
 ---------------------------------------------------------------------
      1          6           0        2.188329   -0.578455    0.000000
      2          6           0       -1.460704    0.073620    0.000000
      3          6           0        0.000000    0.510660    0.000000
      4          7           0       -2.360917    1.087263    0.000000
      5          7           0        0.840666   -0.658435    0.000000
      6          8           0        2.817916    0.462897    0.000000
      7          8           0       -1.784599   -1.100738    0.000000
      8          1           0        2.671946   -1.568981    0.000000
      9          1           0        0.198935    1.134237    0.876265
     10          1           0        0.198935    1.134237   -0.876265
     11          1           0       -3.341011    0.863104    0.000000
     12          1           0       -2.082734    2.051773    0.000000
     13          1           0        0.363396   -1.548392    0.000000
 ---------------------------------------------------------------------

 SCF Done:  E(RHF) =  -377.456047320     A.U. after    2 cycles

 The electronic state is 1-A'.
 Alpha  occ. eigenvalues --  -21.04542 -21.02944 -15.79843 -15.76871 -11.52736
 Alpha  occ. eigenvalues --  -11.48372 -11.43841  -1.73188  -1.69857  -1.40618
 Alpha  occ. eigenvalues --   -1.36146  -1.08042  -0.86088  -0.81323  -0.75736
 Alpha  occ. eigenvalues --   -0.70887  -0.66929  -0.63209  -0.57432  -0.53961
 Alpha  occ. eigenvalues --   -0.50903  -0.48795  -0.48509  -0.34852  -0.32186
 Alpha  occ. eigenvalues --   -0.31389  -0.28895
 Alpha virt. eigenvalues --    0.02898   0.05075   0.05169   0.05955   0.06275
 Alpha virt. eigenvalues --    0.07639   0.10682   0.11205   0.11976   0.12298
 Alpha virt. eigenvalues --    0.12710   0.13553   0.14948   0.16256   0.16700

 Mulliken charges:
               1
     1  C    2.103033
     2  C    5.184326
     3  C   -2.662650
     4  N   -3.226355
     5  N   -2.398161
     6  O   -2.691630
     7  O   -3.177572
     8  H    1.644591
     9  H    1.478567
    10  H    1.478567
    11  H    0.797834
    12  H    0.796167
    13  H    0.673284
 Sum of Mulliken charges =   0.00000

 Dipole moment (field-independent basis, Debye):
    X=             -2.7059    Y=              1.0958    Z=             -0.0000  Tot=              2.9194

 Test job not archived.
 1\1\GINC-SE271\SP\RHF\Aug-CC-pVDZ\C3H6N2O2\OHZDE\06-Apr-2025\0\\#t hf
 aug-cc-pvdz iop(5/13=1,5/36=2,99/5=2) pseudo=read geom=check guess=(re
 ad,tcheck) scf=(maxcycle=1)\\title\\0,1\C,0,2.188329,-0.578455,0.\C,0,
 -1.460704,0.07362,0.\C,0,0.,0.51066,0.\N,0,-2.360917,1.087263,0.\N,0,0
 .840666,-0.658435,0.\O,0,2.817916,0.462897,0.\O,0,-1.784599,-1.100738,
 0.\H,0,2.671946,-1.568981,0.\H,0,0.198935,1.134237,0.876265\H,0,0.1989
 35,1.134237,-0.876265\H,0,-3.341011,0.863104,0.\H,0,-2.082734,2.051773
 ,0.\H,0,0.363396,-1.548392,0.\\Version=ES64L-G16RevC.01\State=1-A'\HF=

 Normal termination of Gaussian 16 at Sun Apr  6 08:08:23 2025.
