 Gaussian 16, Revision C.01,

 ----------------------------------------------------------------------
 #t hf aug-cc-pvdz symm=none int=(grid=ultrafine) guess=(read,tcheck) s
 table=(opt,rrhf)
 ----------------------------------------------------------------------
 -----
 title
 -----
 Symbolic Z-matrix:
 Charge =  0 Multiplicity = 1

 SCF Done:  E(RHF) =  -554.392954651     A.U. after   16 cycles
 Normal termination of Gaussian 16 at Sun Apr  6 08:08:47 2025.
 Gaussian 16:  ES64L-G16RevC.01  3-Jul-2019

 ----------------------------------------------------------------------
 #t hf aug-cc-pvdz iop(5/13=1,5/36=2,99/5=2) pseudo=read geom=check gue
 ss=(read,tcheck) scf=(maxcycle=1)
 ----------------------------------------------------------------------
 -----
 title
 -----
 Structure from the checkpoint file:  "N3-N3-difluoro-3-4-pyridinediamine.chk"
 Charge =  0 Multiplicity = 1

                         Standard orientation:
 ---------------------------------------------------------------------
 Center     Atomic      Atomic             Coordinates (Angstroms)
 Number     Number       Type             X           Y           Z
 ---------------------------------------------------------------------
      1          9           0       -2.192510   -0.268440    1.108615
      2          9           0       -2.196021   -0.431782   -1.071868
      3          7           0       -1.580972    0.316470   -0.035136
      4          7           0        1.505260   -1.737413    0.024215
      5          7           0        0.347175    2.296354    0.002544
      6          6           0       -0.202650   -0.061410   -0.009063
      7          6           0        0.727919    0.992051   -0.013556
      8          6           0        0.228543   -1.384447    0.013005
      9          6           0        2.079236    0.604782   -0.004927
     10          6           0        2.400219   -0.735610    0.013200
     11          1           0        1.025447    3.014652   -0.169637
     12          1           0       -0.622485    2.526037   -0.124140
     13          1           0       -0.507894   -2.178420    0.017074
     14          1           0        2.859819    1.353746   -0.007846
     15          1           0        3.442048   -1.034086    0.020506
 ---------------------------------------------------------------------

 SCF Done:  E(RHF) =  -556.703344951     A.U. after    2 cycles

 The electronic state is 1-A.
 Alpha  occ. eigenvalues --  -29.29345 -29.29115 -15.90203 -15.79561 -15.73808
 Alpha  occ. eigenvalues --  -11.53475 -11.47298 -11.46998 -11.44529 -11.39997
 Alpha  occ. eigenvalues --   -1.56728  -1.44734  -1.38343  -1.15041  -1.12072
 Alpha  occ. eigenvalues --   -0.93759  -0.90328  -0.82558  -0.75639  -0.74137
 Alpha  occ. eigenvalues --   -0.72949  -0.64363  -0.62169  -0.59674  -0.57767
 Alpha  occ. eigenvalues --   -0.57018  -0.50402  -0.48749  -0.43282  -0.41094
 Alpha  occ. eigenvalues --   -0.37541  -0.37199  -0.32046  -0.31741  -0.26058
 Alpha  occ. eigenvalues --   -0.22774  -0.20094
 Alpha virt. eigenvalues --    0.03059   0.04585   0.05029   0.06617   0.07437
 Alpha virt. eigenvalues --    0.09544   0.10154   0.11410   0.11804   0.12683
 Alpha virt. eigenvalues --    0.12919   0.13461   0.13690   0.14557   0.14614

 Mulliken charges:
               1
     1  F   -0.397656
     2  F   -0.395890
     3  N   -0.676945
     4  N   -3.747258
     5  N   -4.032693
     6  C    1.837296
     7  C    3.045831
     8  C   -0.707960
     9  C   -0.174911
    10  C   -1.055386
    11  H    0.721824
    12  H    0.767750
    13  H    1.692340
    14  H    1.582065
    15  H    1.541593
 Sum of Mulliken charges =  -0.00000

 Dipole moment (field-independent basis, Debye):
    X=             -1.1701    Y=              2.1225    Z=             -0.2695  Tot=              2.4386

 Test job not archived.
 1\1\GINC-SE271\SP\RHF\Aug-CC-pVDZ\C5H5F2N3\OHZDE\06-Apr-2025\0\\#t hf
 aug-cc-pvdz iop(5/13=1,5/36=2,99/5=2) pseudo=read geom=check guess=(re
 ad,tcheck) scf=(maxcycle=1)\\title\\0,1\F,0,-2.19251,-0.26844,1.108615
 \F,0,-2.196021,-0.431782,-1.071868\N,0,-1.580972,0.31647,-0.035136\N,0
 ,1.50526,-1.737413,0.024215\N,0,0.347175,2.296354,0.002544\C,0,-0.2026
 5,-0.06141,-0.009063\C,0,0.727919,0.992051,-0.013556\C,0,0.228543,-1.3
 84447,0.013005\C,0,2.079236,0.604782,-0.004927\C,0,2.400219,-0.73561,0
 .0132\H,0,1.025447,3.014652,-0.169637\H,0,-0.622485,2.526037,-0.12414\

 Normal termination of Gaussian 16 at Sun Apr  6 08:08:53 2025.
