 Gaussian 16, Revision C.01,

 ----------------------------------------------------------------------
 #t hf aug-cc-pvdz symm=none int=(grid=ultrafine) guess=(read,tcheck) s
 table=(opt,rrhf)
 ----------------------------------------------------------------------
 -----
 title
 -----
 Symbolic Z-matrix:
 Charge =  0 Multiplicity = 1

 SCF Done:  E(RHF) =  -383.394278297     A.U. after   13 cycles
 Normal termination of Gaussian 16 at Sun Apr  6 08:26:10 2025.
 Gaussian 16:  ES64L-G16RevC.01  3-Jul-2019

 ----------------------------------------------------------------------
 #t hf aug-cc-pvdz iop(5/13=1,5/36=2,99/5=2) pseudo=read geom=check gue
 ss=(read,tcheck) scf=(maxcycle=1)
 ----------------------------------------------------------------------
 -----
 title
 -----
 Structure from the checkpoint file:  "naphthalene.chk"
 Charge =  0 Multiplicity = 1

                         Standard orientation:
 ---------------------------------------------------------------------
 Center     Atomic      Atomic             Coordinates (Angstroms)
 Number     Number       Type             X           Y           Z
 ---------------------------------------------------------------------
      1          6           0        0.000000    0.000000    0.713923
      2          6           0        0.000000    1.240542    1.396864
      3          6           0       -0.000000   -1.240542    1.396864
      4          6           0        0.000000    2.423616    0.705779
      5          6           0        0.000000    2.423616   -0.705779
      6          6           0        0.000000    1.240542   -1.396864
      7          6           0       -0.000000   -2.423616    0.705779
      8          6           0       -0.000000   -2.423616   -0.705779
      9          6           0       -0.000000   -1.240542   -1.396864
     10          6           0        0.000000    0.000000   -0.713923
     11          1           0        0.000000   -3.364265    1.240162
     12          1           0        0.000000   -3.364265   -1.240162
     13          1           0        0.000000    3.364265   -1.240162
     14          1           0        0.000000    3.364265    1.240162
     15          1           0        0.000000    1.239118   -2.479712
     16          1           0       -0.000000   -1.239118    2.479712
     17          1           0       -0.000000   -1.239118   -2.479712
     18          1           0       -0.000000    1.239118    2.479712
 ---------------------------------------------------------------------

 SCF Done:  E(RHF) =  -385.235167354     A.U. after    2 cycles

 The electronic state is 1-AG.
 Alpha  occ. eigenvalues --  -11.51977 -11.49319 -11.44525 -11.43277 -11.42555
 Alpha  occ. eigenvalues --  -11.41282 -11.41224 -11.40760 -11.38795 -11.36066
 Alpha  occ. eigenvalues --   -1.39607  -1.23721  -1.14204  -1.07891  -1.04243
 Alpha  occ. eigenvalues --   -0.89423  -0.87020  -0.84660  -0.72415  -0.70306
 Alpha  occ. eigenvalues --   -0.67396  -0.63133  -0.57198  -0.57157  -0.54447
 Alpha  occ. eigenvalues --   -0.53459  -0.53409  -0.48358  -0.44409  -0.42114
 Alpha  occ. eigenvalues --   -0.42089  -0.38181  -0.31299  -0.27468
 Alpha virt. eigenvalues --    0.03364   0.04635   0.05062   0.05808   0.06229
 Alpha virt. eigenvalues --    0.06579   0.06867   0.09158   0.09327   0.10218
 Alpha virt. eigenvalues --    0.10276   0.11466   0.11766   0.12508   0.12529

 Mulliken charges:
               1
     1  C    5.740185
     2  C   -2.111058
     3  C   -2.111058
     4  C   -3.932119
     5  C   -3.932119
     6  C   -2.111058
     7  C   -3.932119
     8  C   -3.932119
     9  C   -2.111058
    10  C    5.740185
    11  H    1.482758
    12  H    1.482758
    13  H    1.482758
    14  H    1.482758
    15  H    1.690327
    16  H    1.690327
    17  H    1.690327
    18  H    1.690327
 Sum of Mulliken charges =  -0.00000

 Dipole moment (field-independent basis, Debye):
    X=              0.0000    Y=             -0.0000    Z=             -0.0000  Tot=              0.0000

 Test job not archived.
 1\1\GINC-SE150\SP\RHF\Aug-CC-pVDZ\C10H8\OHZDE\06-Apr-2025\0\\#t hf aug
 -cc-pvdz iop(5/13=1,5/36=2,99/5=2) pseudo=read geom=check guess=(read,
 tcheck) scf=(maxcycle=1)\\title\\0,1\C,0,0.,0.,0.713923\C,0,0.,1.24054
 2,1.396864\C,0,0.,-1.240542,1.396864\C,0,0.,2.423616,0.705779\C,0,0.,2
 .423616,-0.705779\C,0,0.,1.240542,-1.396864\C,0,0.,-2.423616,0.705779\
 C,0,0.,-2.423616,-0.705779\C,0,0.,-1.240542,-1.396864\C,0,0.,0.,-0.713
 923\H,0,0.,-3.364265,1.240162\H,0,0.,-3.364265,-1.240162\H,0,0.,3.3642
 65,-1.240162\H,0,0.,3.364265,1.240162\H,0,0.,1.239118,-2.479712\H,0,0.

 Normal termination of Gaussian 16 at Sun Apr  6 08:26:36 2025.
