 Gaussian 16, Revision C.01,

 ----------------------------------------------------------------------
 #t hf aug-cc-pvdz symm=none int=(grid=ultrafine) guess=(read,tcheck) s
 table=(opt,rrhf)
 ----------------------------------------------------------------------
 -----
 title
 -----
 Symbolic Z-matrix:
 Charge =  0 Multiplicity = 1

 SCF Done:  E(RHF) =  -438.434376605     A.U. after   17 cycles

 1\1\GINC-SE055\Stability\RHF\Aug-CC-pVDZ\C10H9N1\OHZDE\06-Apr-2025\0\\
 #t hf aug-cc-pvdz symm=none int=(grid=ultrafine) guess=(read,tcheck) s
 table=(opt,rrhf)\\title\\0,1\C,0,-2.745482,-0.250488,0.015139\C,0,-2.3
 50376,1.101274,-0.020876\C,0,1.89462,-1.629753,-0.016536\C,0,-1.798435
 ,-1.240778,0.025645\C,0,-1.018277,1.430836,-0.033362\C,0,0.565283,-1.9
 5962,0.002317\C,0,2.304363,-0.285408,-0.011578\C,0,-0.414684,-0.938347
 ,0.010052\C,0,-0.013885,0.433355,-0.006243\C,0,1.383991,0.743412,-0.00
 0677\N,0,1.805666,2.071855,-0.042792\H,0,-3.797274,-0.503107,0.026539\

 Normal termination of Gaussian 16 at Sun Apr  6 08:27:11 2025.
 Gaussian 16:  ES64L-G16RevC.01  3-Jul-2019

 ----------------------------------------------------------------------
 #t hf aug-cc-pvdz iop(5/13=1,5/36=2,99/5=2) pseudo=read geom=check gue
 ss=(read,tcheck) scf=(maxcycle=1)
 ----------------------------------------------------------------------
 -----
 title
 -----
 Structure from the checkpoint file:  "naphthalen-1-amine.chk"
 Charge =  0 Multiplicity = 1

                         Standard orientation:
 ---------------------------------------------------------------------
 Center     Atomic      Atomic             Coordinates (Angstroms)
 Number     Number       Type             X           Y           Z
 ---------------------------------------------------------------------
      1          6           0       -2.745482   -0.250488    0.015139
      2          6           0       -2.350376    1.101274   -0.020876
      3          6           0        1.894620   -1.629753   -0.016536
      4          6           0       -1.798435   -1.240778    0.025645
      5          6           0       -1.018277    1.430836   -0.033362
      6          6           0        0.565283   -1.959620    0.002317
      7          6           0        2.304363   -0.285408   -0.011578
      8          6           0       -0.414684   -0.938347    0.010052
      9          6           0       -0.013885    0.433355   -0.006243
     10          6           0        1.383991    0.743412   -0.000677
     11          7           0        1.805666    2.071855   -0.042792
     12          1           0       -3.797274   -0.503107    0.026539
     13          1           0       -3.099801    1.880731   -0.046991
     14          1           0        2.647310   -2.406938   -0.024601
     15          1           0       -2.097908   -2.281072    0.043095
     16          1           0       -0.742879    2.474995   -0.088131
     17          1           0        0.249676   -2.994190    0.010295
     18          1           0        3.361776   -0.050767   -0.011365
     19          1           0        2.778199    2.210429    0.179331
     20          1           0        1.218530    2.740032    0.428091
 ---------------------------------------------------------------------

 SCF Done:  E(RHF) =  -440.532918048     A.U. after    2 cycles

 The electronic state is 1-A.
 Alpha  occ. eigenvalues --  -15.75864 -11.52689 -11.49417 -11.45852 -11.44263
 Alpha  occ. eigenvalues --  -11.42804 -11.41206 -11.41139 -11.40464 -11.38549
 Alpha  occ. eigenvalues --  -11.35864  -1.43499  -1.31678  -1.22164  -1.11352
 Alpha  occ. eigenvalues --   -1.07903  -1.02661  -0.89119  -0.87644  -0.83210
 Alpha  occ. eigenvalues --   -0.73029  -0.71167  -0.67369  -0.65771  -0.62902
 Alpha  occ. eigenvalues --   -0.57758  -0.55721  -0.54947  -0.53569  -0.52679
 Alpha  occ. eigenvalues --   -0.49024  -0.47031  -0.42854  -0.41903  -0.41531
 Alpha  occ. eigenvalues --   -0.34388  -0.31372  -0.24653
 Alpha virt. eigenvalues --    0.03368   0.04527   0.04787   0.05847   0.06293
 Alpha virt. eigenvalues --    0.06357   0.06866   0.08150   0.08797   0.09792
 Alpha virt. eigenvalues --    0.10657   0.11167   0.11503   0.12417   0.12524

 Mulliken charges:
               1
     1  C   -4.328321
     2  C   -4.088211
     3  C   -2.718863
     4  C   -2.348970
     5  C   -0.658597
     6  C   -4.057139
     7  C   -4.658838
     8  C    5.416989
     9  C    5.962503
    10  C    2.935029
    11  N   -4.101157
    12  H    1.510033
    13  H    1.478336
    14  H    1.508335
    15  H    1.651922
    16  H    1.932370
    17  H    1.719591
    18  H    1.657280
    19  H    0.652080
    20  H    0.535626
 Sum of Mulliken charges =  -0.00000

 Dipole moment (field-independent basis, Debye):
    X=              0.3776    Y=              1.0506    Z=              0.7054  Tot=              1.3206

 Test job not archived.
 1\1\GINC-SE055\SP\RHF\Aug-CC-pVDZ\C10H9N1\OHZDE\06-Apr-2025\0\\#t hf a
 ug-cc-pvdz iop(5/13=1,5/36=2,99/5=2) pseudo=read geom=check guess=(rea
 d,tcheck) scf=(maxcycle=1)\\title\\0,1\C,0,-2.745482,-0.250488,0.01513
 9\C,0,-2.350376,1.101274,-0.020876\C,0,1.89462,-1.629753,-0.016536\C,0
 ,-1.798435,-1.240778,0.025645\C,0,-1.018277,1.430836,-0.033362\C,0,0.5
 65283,-1.95962,0.002317\C,0,2.304363,-0.285408,-0.011578\C,0,-0.414684
 ,-0.938347,0.010052\C,0,-0.013885,0.433355,-0.006243\C,0,1.383991,0.74
 3412,-0.000677\N,0,1.805666,2.071855,-0.042792\H,0,-3.797274,-0.503107

 Normal termination of Gaussian 16 at Sun Apr  6 08:27:58 2025.
