 Gaussian 16, Revision C.01,

 ----------------------------------------------------------------------
 #t hf aug-cc-pvdz symm=none int=(grid=ultrafine) guess=(read,tcheck) s
 table=(opt,rrhf)
 ----------------------------------------------------------------------
 -----
 title
 -----
 Symbolic Z-matrix:
 Charge =  0 Multiplicity = 1

 SCF Done:  E(RHF) =  -458.267079723     A.U. after   16 cycles

 1\1\GINC-SE136\Stability\RHF\Aug-CC-pVDZ\C10H8O1\OHZDE\06-Apr-2025\0\\
 #t hf aug-cc-pvdz symm=none int=(grid=ultrafine) guess=(read,tcheck) s
 table=(opt,rrhf)\\title\\0,1\C,0,-2.810255,0.874015,0.\C,0,-2.014183,2
 .040128,0.\C,0,-2.216594,-0.361309,0.\C,0,-0.646606,1.950634,0.\C,0,-0
 .160779,-1.748178,0.\C,0,1.205234,-1.842363,0.\C,0,1.407649,0.566607,0
 .\C,0,-0.807166,-0.489734,0.\C,0,0.,0.689037,0.\C,0,1.997415,-0.671969
 ,0.\O,0,3.364255,-0.741235,0.\H,0,-3.888286,0.960491,0.\H,0,-2.491116,
 3.011227,0.\H,0,-2.821658,-1.259354,0.\H,0,-0.040456,2.847562,0.\H,0,-

 Normal termination of Gaussian 16 at Sun Apr  6 08:27:09 2025.
 Gaussian 16:  ES64L-G16RevC.01  3-Jul-2019

 ----------------------------------------------------------------------
 #t hf aug-cc-pvdz iop(5/13=1,5/36=2,99/5=2) pseudo=read geom=check gue
 ss=(read,tcheck) scf=(maxcycle=1)
 ----------------------------------------------------------------------
 -----
 title
 -----
 Structure from the checkpoint file:  "naphthalen-2-ol.chk"
 Charge =  0 Multiplicity = 1

                         Standard orientation:
 ---------------------------------------------------------------------
 Center     Atomic      Atomic             Coordinates (Angstroms)
 Number     Number       Type             X           Y           Z
 ---------------------------------------------------------------------
      1          6           0       -2.810255    0.874016    0.000000
      2          6           0       -2.014183    2.040128    0.000000
      3          6           0       -2.216594   -0.361309    0.000000
      4          6           0       -0.646606    1.950634    0.000000
      5          6           0       -0.160779   -1.748178    0.000000
      6          6           0        1.205234   -1.842363   -0.000000
      7          6           0        1.407649    0.566607   -0.000000
      8          6           0       -0.807166   -0.489734    0.000000
      9          6           0        0.000000    0.689037    0.000000
     10          6           0        1.997415   -0.671969   -0.000000
     11          8           0        3.364255   -0.741236   -0.000000
     12          1           0       -3.888286    0.960492    0.000000
     13          1           0       -2.491116    3.011227    0.000000
     14          1           0       -2.821658   -1.259353    0.000000
     15          1           0       -0.040456    2.847562    0.000000
     16          1           0       -0.762743   -2.647866    0.000000
     17          1           0        1.687193   -2.813217   -0.000000
     18          1           0        2.030075    1.451183   -0.000000
     19          1           0        3.644668   -1.661358   -0.000000
 ---------------------------------------------------------------------

 SCF Done:  E(RHF) =  -460.400144693     A.U. after    2 cycles

 The electronic state is 1-A'.
 Alpha  occ. eigenvalues --  -21.10424 -11.52541 -11.50042 -11.45780 -11.44745
 Alpha  occ. eigenvalues --  -11.43391 -11.42249 -11.41235 -11.40977 -11.39441
 Alpha  occ. eigenvalues --  -11.36327  -1.75760  -1.38704  -1.22553  -1.14252
 Alpha  occ. eigenvalues --   -1.07323  -1.04074  -0.90056  -0.86750  -0.85068
 Alpha  occ. eigenvalues --   -0.73234  -0.70772  -0.66494  -0.63463  -0.61808
 Alpha  occ. eigenvalues --   -0.57344  -0.55852  -0.55323  -0.53414  -0.51599
 Alpha  occ. eigenvalues --   -0.48956  -0.44380  -0.42624  -0.41321  -0.40422
 Alpha  occ. eigenvalues --   -0.36937  -0.29763  -0.25328
 Alpha virt. eigenvalues --    0.03245   0.04842   0.04934   0.05683   0.06308
 Alpha virt. eigenvalues --    0.06528   0.07343   0.08923   0.09289   0.09996
 Alpha virt. eigenvalues --    0.10517   0.11188   0.11661   0.12543   0.13074

 Mulliken charges:
               1
     1  C   -3.773876
     2  C   -4.036578
     3  C   -2.072454
     4  C   -2.774820
     5  C   -1.299425
     6  C   -6.869258
     7  C   -3.136283
     8  C    5.294586
     9  C    6.941336
    10  C    3.712995
    11  O   -4.521266
    12  H    1.490466
    13  H    1.469929
    14  H    1.712416
    15  H    1.690124
    16  H    1.684747
    17  H    1.686847
    18  H    1.796601
    19  H    1.003914
 Sum of Mulliken charges =  -0.00000

 Dipole moment (field-independent basis, Debye):
    X=              0.3192    Y=             -0.9748    Z=              0.0000  Tot=              1.0257

 Test job not archived.
 1\1\GINC-SE136\SP\RHF\Aug-CC-pVDZ\C10H8O1\OHZDE\06-Apr-2025\0\\#t hf a
 ug-cc-pvdz iop(5/13=1,5/36=2,99/5=2) pseudo=read geom=check guess=(rea
 d,tcheck) scf=(maxcycle=1)\\title\\0,1\C,0,-2.810255,0.874015,0.\C,0,-
 2.014183,2.040128,0.\C,0,-2.216594,-0.361309,0.\C,0,-0.646606,1.950634
 ,0.\C,0,-0.160779,-1.748178,0.\C,0,1.205234,-1.842363,0.\C,0,1.407649,
 0.566607,0.\C,0,-0.807166,-0.489734,0.\C,0,0.,0.689037,0.\C,0,1.997415
 ,-0.671969,0.\O,0,3.364255,-0.741235,0.\H,0,-3.888286,0.960491,0.\H,0,
 -2.491116,3.011227,0.\H,0,-2.821658,-1.259354,0.\H,0,-0.040456,2.84756

 Normal termination of Gaussian 16 at Sun Apr  6 08:27:56 2025.
