 Gaussian 16, Revision C.01,

 ----------------------------------------------------------------------
 #t hf aug-cc-pvdz symm=none int=(grid=ultrafine) guess=(read,tcheck) s
 table=(opt,rrhf)
 ----------------------------------------------------------------------
 -----
 title
 -----
 Symbolic Z-matrix:
 Charge =  0 Multiplicity = 1

 SCF Done:  E(RHF) =  -438.436975970     A.U. after   16 cycles

 1\1\GINC-SE104\Stability\RHF\Aug-CC-pVDZ\C10H9N1\OHZDE\06-Apr-2025\0\\
 #t hf aug-cc-pvdz symm=none int=(grid=ultrafine) guess=(read,tcheck) s
 table=(opt,rrhf)\\title\\0,1\C,0,2.93475,0.367685,0.004894\C,0,2.68748
 1,-1.021705,0.002229\C,0,1.883651,1.248979,0.00421\C,0,1.403115,-1.502
 176,-0.001292\C,0,-0.563413,1.664514,-0.000104\C,0,-1.844909,1.18994,-
 0.005795\C,0,-1.040095,-1.082969,-0.003076\C,0,0.547644,0.786363,0.000
 56\C,0,0.294326,-0.618925,-0.002537\C,0,-2.104204,-0.206518,-0.005473\
 N,0,-3.423722,-0.650874,-0.06787\H,0,3.95287,0.732442,0.0072\H,0,3.520

 Normal termination of Gaussian 16 at Sun Apr  6 08:27:07 2025.
 Gaussian 16:  ES64L-G16RevC.01  3-Jul-2019

 ----------------------------------------------------------------------
 #t hf aug-cc-pvdz iop(5/13=1,5/36=2,99/5=2) pseudo=read geom=check gue
 ss=(read,tcheck) scf=(maxcycle=1)
 ----------------------------------------------------------------------
 -----
 title
 -----
 Structure from the checkpoint file:  "naphthalen-2-amine.chk"
 Charge =  0 Multiplicity = 1

                         Standard orientation:
 ---------------------------------------------------------------------
 Center     Atomic      Atomic             Coordinates (Angstroms)
 Number     Number       Type             X           Y           Z
 ---------------------------------------------------------------------
      1          6           0        2.934750    0.367685    0.004894
      2          6           0        2.687481   -1.021705    0.002229
      3          6           0        1.883651    1.248979    0.004210
      4          6           0        1.403115   -1.502176   -0.001292
      5          6           0       -0.563413    1.664514   -0.000104
      6          6           0       -1.844909    1.189940   -0.005795
      7          6           0       -1.040095   -1.082969   -0.003076
      8          6           0        0.547644    0.786363    0.000560
      9          6           0        0.294326   -0.618925   -0.002537
     10          6           0       -2.104204   -0.206518   -0.005473
     11          7           0       -3.423722   -0.650874   -0.067870
     12          1           0        3.952870    0.732442    0.007200
     13          1           0        3.520954   -1.711733    0.002509
     14          1           0        2.064878    2.316734    0.006029
     15          1           0        1.220915   -2.569562   -0.003920
     16          1           0       -0.385911    2.732646    0.001922
     17          1           0       -2.680007    1.879584   -0.016198
     18          1           0       -1.221281   -2.151525   -0.006138
     19          1           0       -4.116285   -0.020662    0.301917
     20          1           0       -3.580151   -1.602931    0.220075
 ---------------------------------------------------------------------

 SCF Done:  E(RHF) =  -440.532967525     A.U. after    2 cycles

 The electronic state is 1-A.
 Alpha  occ. eigenvalues --  -15.75914 -11.51682 -11.49238 -11.44959 -11.44283
 Alpha  occ. eigenvalues --  -11.42719 -11.41680 -11.40755 -11.40467 -11.38716
 Alpha  occ. eigenvalues --  -11.35651  -1.42718  -1.33276  -1.19873  -1.13334
 Alpha  occ. eigenvalues --   -1.06249  -1.02862  -0.89391  -0.86078  -0.84580
 Alpha  occ. eigenvalues --   -0.72445  -0.70251  -0.68215  -0.64956  -0.62795
 Alpha  occ. eigenvalues --   -0.56688  -0.56156  -0.55339  -0.54083  -0.52646
 Alpha  occ. eigenvalues --   -0.48437  -0.47661  -0.42460  -0.41534  -0.40058
 Alpha  occ. eigenvalues --   -0.36749  -0.29233  -0.25205
 Alpha virt. eigenvalues --    0.03401   0.04595   0.04906   0.05709   0.06254
 Alpha virt. eigenvalues --    0.06512   0.06691   0.08702   0.09431   0.09986
 Alpha virt. eigenvalues --    0.10530   0.10771   0.11504   0.11984   0.12603

 Mulliken charges:
               1
     1  C   -3.834579
     2  C   -4.316924
     3  C   -2.136209
     4  C   -2.496428
     5  C   -2.684868
     6  C   -4.770876
     7  C   -1.065661
     8  C    5.963629
     9  C    7.216092
    10  C   -0.739954
    11  N   -4.047779
    12  H    1.492042
    13  H    1.465123
    14  H    1.711310
    15  H    1.682410
    16  H    1.822159
    17  H    1.657812
    18  H    1.830081
    19  H    0.617899
    20  H    0.634721
 Sum of Mulliken charges =  -0.00000

 Dipole moment (field-independent basis, Debye):
    X=             -1.4456    Y=             -0.0409    Z=              0.7339  Tot=              1.6218

 Test job not archived.
 1\1\GINC-SE104\SP\RHF\Aug-CC-pVDZ\C10H9N1\OHZDE\06-Apr-2025\0\\#t hf a
 ug-cc-pvdz iop(5/13=1,5/36=2,99/5=2) pseudo=read geom=check guess=(rea
 d,tcheck) scf=(maxcycle=1)\\title\\0,1\C,0,2.93475,0.367685,0.004894\C
 ,0,2.687481,-1.021705,0.002229\C,0,1.883651,1.248979,0.00421\C,0,1.403
 115,-1.502176,-0.001292\C,0,-0.563413,1.664514,-0.000104\C,0,-1.844909
 ,1.18994,-0.005795\C,0,-1.040095,-1.082969,-0.003076\C,0,0.547644,0.78
 6363,0.00056\C,0,0.294326,-0.618925,-0.002537\C,0,-2.104204,-0.206518,
 -0.005473\N,0,-3.423722,-0.650874,-0.06787\H,0,3.95287,0.732442,0.0072

 Normal termination of Gaussian 16 at Sun Apr  6 08:27:57 2025.
