 Gaussian 16, Revision C.01,

 ----------------------------------------------------------------------
 #t hf aug-cc-pvdz symm=none int=(grid=ultrafine) guess=(read,tcheck) s
 table=(opt,rrhf)
 ----------------------------------------------------------------------
 -----
 title
 -----
 Symbolic Z-matrix:
 Charge =  0 Multiplicity = 1

 SCF Done:  E(RHF) =  -458.264109761     A.U. after   17 cycles

 1\1\GINC-SE101\Stability\RHF\Aug-CC-pVDZ\C10H8O1\OHZDE\06-Apr-2025\0\\
 #t hf aug-cc-pvdz symm=none int=(grid=ultrafine) guess=(read,tcheck) s
 table=(opt,rrhf)\\title\\0,1\C,0,-2.727109,-0.326483,0.\C,0,-2.37526,1
 .03839,0.\C,0,1.957686,-1.557474,0.\C,0,-1.750278,-1.28697,0.\C,0,-1.0
 55155,1.409855,0.\C,0,0.63811,-1.927342,0.\C,0,2.326734,-0.200714,0.\C
 ,0,-0.376443,-0.941789,0.\C,0,-0.019952,0.443553,0.\C,0,1.365002,0.779
 883,0.\O,0,1.794772,2.076411,0.\H,0,-3.770509,-0.611247,0.\H,0,-3.1488
 62,1.793966,0.\H,0,2.733146,-2.31155,0.\H,0,-2.017573,-2.335991,0.\H,0

 Normal termination of Gaussian 16 at Sun Apr  6 08:27:09 2025.
 Gaussian 16:  ES64L-G16RevC.01  3-Jul-2019

 ----------------------------------------------------------------------
 #t hf aug-cc-pvdz iop(5/13=1,5/36=2,99/5=2) pseudo=read geom=check gue
 ss=(read,tcheck) scf=(maxcycle=1)
 ----------------------------------------------------------------------
 -----
 title
 -----
 Structure from the checkpoint file:  "naphthalen-1-ol.chk"
 Charge =  0 Multiplicity = 1

                         Standard orientation:
 ---------------------------------------------------------------------
 Center     Atomic      Atomic             Coordinates (Angstroms)
 Number     Number       Type             X           Y           Z
 ---------------------------------------------------------------------
      1          6           0       -2.727109   -0.326483   -0.000000
      2          6           0       -2.375260    1.038390   -0.000000
      3          6           0        1.957686   -1.557474   -0.000000
      4          6           0       -1.750278   -1.286970   -0.000000
      5          6           0       -1.055155    1.409855   -0.000000
      6          6           0        0.638110   -1.927342   -0.000000
      7          6           0        2.326734   -0.200714   -0.000000
      8          6           0       -0.376443   -0.941789   -0.000000
      9          6           0       -0.019952    0.443553   -0.000000
     10          6           0        1.365002    0.779883   -0.000000
     11          8           0        1.794772    2.076411   -0.000000
     12          1           0       -3.770509   -0.611247   -0.000000
     13          1           0       -3.148862    1.793966   -0.000000
     14          1           0        2.733146   -2.311550   -0.000000
     15          1           0       -2.017573   -2.335991   -0.000000
     16          1           0       -0.825143    2.468776   -0.000000
     17          1           0        0.356325   -2.971639   -0.000000
     18          1           0        3.367436    0.091086   -0.000000
     19          1           0        1.046996    2.679866    0.000001
 ---------------------------------------------------------------------

 SCF Done:  E(RHF) =  -460.398441832     A.U. after    2 cycles

 The electronic state is 1-A.
 Alpha  occ. eigenvalues --  -21.10411 -11.53547 -11.50418 -11.46737 -11.44932
 Alpha  occ. eigenvalues --  -11.43825 -11.42190 -11.42008 -11.41029 -11.39350
 Alpha  occ. eigenvalues --  -11.36866  -1.76089  -1.38493  -1.23846  -1.13277
 Alpha  occ. eigenvalues --   -1.08754  -1.04064  -0.89948  -0.88634  -0.83638
 Alpha  occ. eigenvalues --   -0.73235  -0.72258  -0.67651  -0.63997  -0.61517
 Alpha  occ. eigenvalues --   -0.57884  -0.56041  -0.54617  -0.54388  -0.49590
 Alpha  occ. eigenvalues --   -0.47889  -0.47397  -0.42896  -0.42758  -0.40726
 Alpha  occ. eigenvalues --   -0.34701  -0.32042  -0.24811
 Alpha virt. eigenvalues --    0.03227   0.04679   0.04867   0.05924   0.06196
 Alpha virt. eigenvalues --    0.06507   0.07429   0.08770   0.08797   0.09969
 Alpha virt. eigenvalues --    0.10304   0.11209   0.11980   0.12070   0.12638

 Mulliken charges:
               1
     1  C   -3.852030
     2  C   -3.883948
     3  C   -2.448569
     4  C   -2.785741
     5  C   -0.334278
     6  C   -4.258210
     7  C   -5.663467
     8  C    6.545697
     9  C    1.315977
    10  C    7.581741
    11  O   -4.756209
    12  H    1.510794
    13  H    1.445378
    14  H    1.464310
    15  H    1.652341
    16  H    2.042281
    17  H    1.684062
    18  H    1.678335
    19  H    1.061535
 Sum of Mulliken charges =   0.00000

 Dipole moment (field-independent basis, Debye):
    X=             -0.7282    Y=              0.4460    Z=              0.0000  Tot=              0.8539

 Test job not archived.
 1\1\GINC-SE101\SP\RHF\Aug-CC-pVDZ\C10H8O1\OHZDE\06-Apr-2025\0\\#t hf a
 ug-cc-pvdz iop(5/13=1,5/36=2,99/5=2) pseudo=read geom=check guess=(rea
 d,tcheck) scf=(maxcycle=1)\\title\\0,1\C,0,-2.727109,-0.326483,0.\C,0,
 -2.37526,1.03839,0.\C,0,1.957686,-1.557474,0.\C,0,-1.750278,-1.28697,0
 .\C,0,-1.055155,1.409855,0.\C,0,0.63811,-1.927342,0.\C,0,2.326734,-0.2
 00714,0.\C,0,-0.376443,-0.941789,0.\C,0,-0.019952,0.443553,0.\C,0,1.36
 5002,0.779883,0.\O,0,1.794772,2.076411,0.\H,0,-3.770509,-0.611247,0.\H
 ,0,-3.148862,1.793966,0.\H,0,2.733146,-2.31155,0.\H,0,-2.017573,-2.335

 Normal termination of Gaussian 16 at Sun Apr  6 08:27:56 2025.
