 Gaussian 16, Revision C.01,

 ----------------------------------------------------------------------
 #t hf aug-cc-pvdz symm=none int=(grid=ultrafine) guess=(read,tcheck) s
 table=(opt,rrhf)
 ----------------------------------------------------------------------
 -----
 title
 -----
 Symbolic Z-matrix:
 Charge =  0 Multiplicity = 1

 SCF Done:  E(RHF) =  -434.233337450     A.U. after   15 cycles
 Normal termination of Gaussian 16 at Sun Apr  6 08:25:32 2025.
 Gaussian 16:  ES64L-G16RevC.01  3-Jul-2019

 ----------------------------------------------------------------------
 #t hf aug-cc-pvdz iop(5/13=1,5/36=2,99/5=2) pseudo=read geom=check gue
 ss=(read,tcheck) scf=(maxcycle=1)
 ----------------------------------------------------------------------
 -----
 title
 -----
 Structure from the checkpoint file:  "nitrobenzene.chk"
 Charge =  0 Multiplicity = 1

                         Standard orientation:
 ---------------------------------------------------------------------
 Center     Atomic      Atomic             Coordinates (Angstroms)
 Number     Number       Type             X           Y           Z
 ---------------------------------------------------------------------
      1          6           0        0.000000    0.000000   -2.509568
      2          6           0        0.000000    1.206952   -1.817042
      3          6           0       -0.000000   -1.206952   -1.817042
      4          6           0        0.000000    1.215022   -0.429244
      5          6           0       -0.000000   -1.215022   -0.429244
      6          6           0        0.000000   -0.000000    0.241376
      7          7           0        0.000000   -0.000000    1.718131
      8          8           0        0.000000    1.082390    2.285939
      9          8           0       -0.000000   -1.082390    2.285939
     10          1           0        0.000000    0.000000   -3.590995
     11          1           0        0.000000    2.143267   -2.357131
     12          1           0       -0.000000   -2.143267   -2.357131
     13          1           0        0.000000    2.134833    0.133951
     14          1           0       -0.000000   -2.134833    0.133951
 ---------------------------------------------------------------------

 SCF Done:  E(RHF) =  -436.174548524     A.U. after    2 cycles

 The electronic state is 1-A1.
 Alpha  occ. eigenvalues --  -21.09398 -21.09294 -16.00020 -11.55228 -11.47553
 Alpha  occ. eigenvalues --  -11.46580 -11.44795 -11.43633 -11.40021  -1.99997
 Alpha  occ. eigenvalues --   -1.69093  -1.38137  -1.18291  -1.12865  -1.00147
 Alpha  occ. eigenvalues --   -0.90246  -0.83516  -0.75636  -0.69447  -0.67733
 Alpha  occ. eigenvalues --   -0.64757  -0.63879  -0.61733  -0.57251  -0.52885
 Alpha  occ. eigenvalues --   -0.50499  -0.47876  -0.36384  -0.36238  -0.35803
 Alpha  occ. eigenvalues --   -0.31301  -0.31132
 Alpha virt. eigenvalues --    0.02765   0.04628   0.04634   0.06487   0.06735
 Alpha virt. eigenvalues --    0.07250   0.09769   0.10011   0.12447   0.12483
 Alpha virt. eigenvalues --    0.13069   0.13183   0.13293   0.13348   0.13875

 Mulliken charges:
               1
     1  C   -2.937538
     2  C   -0.141267
     3  C   -0.141267
     4  C   -2.745890
     5  C   -2.745890
     6  C    3.430582
     7  N    3.170918
     8  O   -2.991622
     9  O   -2.991622
    10  H    1.518441
    11  H    1.494647
    12  H    1.494647
    13  H    1.792930
    14  H    1.792930
 Sum of Mulliken charges =   0.00000

 Dipole moment (field-independent basis, Debye):
    X=             -0.0000    Y=             -0.0000    Z=             -3.3526  Tot=              3.3526

 Test job not archived.
 1\1\GINC-SE155\SP\RHF\Aug-CC-pVDZ\C6H5N1O2\OHZDE\06-Apr-2025\0\\#t hf
 aug-cc-pvdz iop(5/13=1,5/36=2,99/5=2) pseudo=read geom=check guess=(re
 ad,tcheck) scf=(maxcycle=1)\\title\\0,1\C,0,0.,0.,-2.509568\C,0,0.,1.2
 06952,-1.817042\C,0,0.,-1.206952,-1.817042\C,0,0.,1.215022,-0.429244\C
 ,0,0.,-1.215022,-0.429244\C,0,0.,0.,0.241376\N,0,0.,0.,1.718131\O,0,0.
 ,1.08239,2.285939\O,0,0.,-1.08239,2.285939\H,0,0.,0.,-3.590995\H,0,0.,
 2.143267,-2.357131\H,0,0.,-2.143267,-2.357131\H,0,0.,2.134833,0.133951
 \H,0,0.,-2.134833,0.133951\\Version=ES64L-G16RevC.01\State=1-A1\HF=-43

 Normal termination of Gaussian 16 at Sun Apr  6 08:25:37 2025.
