 Gaussian 16, Revision C.01,

 ----------------------------------------------------------------------
 #t hf aug-cc-pvdz symm=none int=(grid=ultrafine) guess=(read,tcheck) s
 table=(opt,rrhf)
 ----------------------------------------------------------------------
 -----
 title
 -----
 Symbolic Z-matrix:
 Charge =  0 Multiplicity = 1

 SCF Done:  E(RHF) =  -243.704488945     A.U. after   13 cycles
 Normal termination of Gaussian 16 at Sun Apr  6 08:24:50 2025.
 Gaussian 16:  ES64L-G16RevC.01  3-Jul-2019

 ----------------------------------------------------------------------
 #t hf aug-cc-pvdz iop(5/13=1,5/36=2,99/5=2) pseudo=read geom=check gue
 ss=(read,tcheck) scf=(maxcycle=1)
 ----------------------------------------------------------------------
 -----
 title
 -----
 Structure from the checkpoint file:  "nitromethane.chk"
 Charge =  0 Multiplicity = 1

                         Standard orientation:
 ---------------------------------------------------------------------
 Center     Atomic      Atomic             Coordinates (Angstroms)
 Number     Number       Type             X           Y           Z
 ---------------------------------------------------------------------
      1          6           0        0.000229   -1.324841   -0.000000
      2          7           0       -0.009436    0.173920    0.000000
      3          8           0        0.000229    0.730465    1.084390
      4          8           0        0.000229    0.730465   -1.084390
      5          1           0       -0.491970   -1.664331   -0.903741
      6          1           0       -0.491970   -1.664331    0.903741
      7          1           0        1.044943   -1.627166   -0.000000
 ---------------------------------------------------------------------

 SCF Done:  E(RHF) =  -244.753310145     A.U. after    2 cycles

 The electronic state is 1-A'.
 Alpha  occ. eigenvalues --  -21.09981 -21.09811 -15.99913 -11.45192  -2.00033
 Alpha  occ. eigenvalues --   -1.69406  -1.19859  -0.87402  -0.71057  -0.69320
 Alpha  occ. eigenvalues --   -0.67242  -0.57053  -0.56955  -0.36206  -0.31818
 Alpha  occ. eigenvalues --   -0.31349
 Alpha virt. eigenvalues --    0.02831   0.05409   0.05737   0.09254   0.13442
 Alpha virt. eigenvalues --    0.13884   0.14203   0.14840   0.15824   0.15929
 Alpha virt. eigenvalues --    0.19783   0.23508   0.24095   0.24708   0.26038

 Mulliken charges:
               1
     1  C   -3.109100
     2  N    4.404755
     3  O   -2.663007
     4  O   -2.663007
     5  H    1.342170
     6  H    1.342170
     7  H    1.346020
 Sum of Mulliken charges =   0.00000

 Dipole moment (field-independent basis, Debye):
    X=              0.0042    Y=             -2.4357    Z=              0.0000  Tot=              2.4357

 Test job not archived.
 1\1\GINC-SE177\SP\RHF\Aug-CC-pVDZ\C1H3N1O2\OHZDE\06-Apr-2025\0\\#t hf
 aug-cc-pvdz iop(5/13=1,5/36=2,99/5=2) pseudo=read geom=check guess=(re
 ad,tcheck) scf=(maxcycle=1)\\title\\0,1\C,0,0.000229,-1.324841,0.\N,0,
 -0.009436,0.17392,0.\O,0,0.000229,0.730465,1.08439\O,0,0.000229,0.7304
 65,-1.08439\H,0,-0.49197,-1.664331,-0.903741\H,0,-0.49197,-1.664331,0.
 903741\H,0,1.044943,-1.627166,0.\\Version=ES64L-G16RevC.01\State=1-A'\
 HF=-244.7533101\RMSD=9.106e-02\Dipole=0.0016623,-0.9582865,0.\Quadrupo
 le=1.0394247,0.6908095,-1.7302342,-0.0600757,0.,0.\PG=CS [SG(C1H1N1),X

 Normal termination of Gaussian 16 at Sun Apr  6 08:24:52 2025.
