 Gaussian 16, Revision C.01,

 ----------------------------------------------------------------------
 #t hf aug-cc-pvdz symm=none int=(grid=ultrafine) guess=(read,tcheck) s
 table=(opt,rrhf)
 ----------------------------------------------------------------------
 -----
 title
 -----
 Symbolic Z-matrix:
 Charge =  0 Multiplicity = 1

 SCF Done:  E(RHF) =  -282.746878838     A.U. after   13 cycles
 Normal termination of Gaussian 16 at Sun Apr  6 08:24:53 2025.
 Gaussian 16:  ES64L-G16RevC.01  3-Jul-2019

 ----------------------------------------------------------------------
 #t hf aug-cc-pvdz iop(5/13=1,5/36=2,99/5=2) pseudo=read geom=check gue
 ss=(read,tcheck) scf=(maxcycle=1)
 ----------------------------------------------------------------------
 -----
 title
 -----
 Structure from the checkpoint file:  "nitroethane.chk"
 Charge =  0 Multiplicity = 1

                         Standard orientation:
 ---------------------------------------------------------------------
 Center     Atomic      Atomic             Coordinates (Angstroms)
 Number     Number       Type             X           Y           Z
 ---------------------------------------------------------------------
      1          6           0       -0.252099   -1.864578    0.000000
      2          6           0        0.698505   -0.690619    0.000000
      3          7           0        0.000000    0.657769    0.000000
      4          8           0        0.728213    1.635752    0.000000
      5          8           0       -1.217324    0.683616    0.000000
      6          1           0       -0.889475   -1.861633    0.881474
      7          1           0       -0.889475   -1.861633   -0.881474
      8          1           0        0.333045   -2.784908    0.000000
      9          1           0        1.340180   -0.659983   -0.878434
     10          1           0        1.340180   -0.659983    0.878434
 ---------------------------------------------------------------------

 SCF Done:  E(RHF) =  -283.999696534     A.U. after    2 cycles

 The electronic state is 1-A'.
 Alpha  occ. eigenvalues --  -21.09659 -21.09071 -15.99041 -11.47151 -11.39790
 Alpha  occ. eigenvalues --   -1.99606  -1.68965  -1.24288  -1.02756  -0.83651
 Alpha  occ. eigenvalues --   -0.71875  -0.70276  -0.62856  -0.60491  -0.56373
 Alpha  occ. eigenvalues --   -0.53297  -0.52193  -0.35233  -0.31298  -0.31035
 Alpha virt. eigenvalues --    0.03016   0.05235   0.05508   0.05607   0.06525
 Alpha virt. eigenvalues --    0.10126   0.11856   0.13141   0.13706   0.14204
 Alpha virt. eigenvalues --    0.15601   0.16229   0.17317   0.17895   0.18046

 Mulliken charges:
               1
     1  C   -3.055983
     2  C   -2.661832
     3  N    4.422513
     4  O   -2.836204
     5  O   -2.623205
     6  H    1.230435
     7  H    1.230435
     8  H    1.157002
     9  H    1.568419
    10  H    1.568419
 Sum of Mulliken charges =   0.00000

 Dipole moment (field-independent basis, Debye):
    X=              0.7634    Y=             -2.4513    Z=              0.0000  Tot=              2.5674

 Test job not archived.
 1\1\GINC-SE165\SP\RHF\Aug-CC-pVDZ\C2H5N1O2\OHZDE\06-Apr-2025\0\\#t hf
 aug-cc-pvdz iop(5/13=1,5/36=2,99/5=2) pseudo=read geom=check guess=(re
 ad,tcheck) scf=(maxcycle=1)\\title\\0,1\C,0,-0.252099,-1.864578,0.\C,0
 ,0.698505,-0.690619,0.\N,0,0.,0.657769,0.\O,0,0.728213,1.635752,0.\O,0
 ,-1.217324,0.683616,0.\H,0,-0.889475,-1.861633,0.881474\H,0,-0.889475,
 -1.861633,-0.881474\H,0,0.333046,-2.784908,0.\H,0,1.34018,-0.659983,-0
 .878434\H,0,1.34018,-0.659983,0.878434\\Version=ES64L-G16RevC.01\State
 =1-A'\HF=-283.9996965\RMSD=2.163e-01\Dipole=0.3003418,-0.964424,0.\Qua

 Normal termination of Gaussian 16 at Sun Apr  6 08:24:57 2025.
