 Gaussian 16, Revision C.01,

 ----------------------------------------------------------------------
 #t hf aug-cc-pvdz symm=none int=(grid=ultrafine) guess=(read,tcheck) s
 table=(opt,rrhf)
 ----------------------------------------------------------------------
 -----
 title
 -----
 Symbolic Z-matrix:
 Charge =  0 Multiplicity = 1

 SCF Done:  E(RHF) =  -351.319576444     A.U. after   13 cycles
 Normal termination of Gaussian 16 at Sun Apr  6 08:27:45 2025.
 Gaussian 16:  ES64L-G16RevC.01  3-Jul-2019

 ----------------------------------------------------------------------
 #t hf aug-cc-pvdz iop(5/13=1,5/36=2,99/5=2) pseudo=read geom=check gue
 ss=(read,tcheck) scf=(maxcycle=1)
 ----------------------------------------------------------------------
 -----
 title
 -----
 Structure from the checkpoint file:  "non-1-ene.chk"
 Charge =  0 Multiplicity = 1

                         Standard orientation:
 ---------------------------------------------------------------------
 Center     Atomic      Atomic             Coordinates (Angstroms)
 Number     Number       Type             X           Y           Z
 ---------------------------------------------------------------------
      1          6           0        4.970457   -0.129620    0.573340
      2          6           0        3.980470   -0.194879   -0.308575
      3          6           0       -3.651956   -0.553136    0.088042
      4          6           0        2.695911    0.573157   -0.232484
      5          6           0       -2.411683    0.337221    0.003428
      6          6           0        1.456682   -0.330273   -0.147562
      7          6           0       -1.096612   -0.441957   -0.031602
      8          6           0        0.142340    0.449970   -0.118069
      9          6           0       -4.960299    0.234816    0.126740
     10          1           0        5.870978   -0.718575    0.461701
     11          1           0        4.915733    0.519817    1.439288
     12          1           0        4.082499   -0.862497   -1.160575
     13          1           0       -3.662992   -1.236357   -0.766511
     14          1           0       -3.581017   -1.184624    0.978831
     15          1           0        2.603275    1.205727   -1.122753
     16          1           0        2.721293    1.246627    0.628130
     17          1           0       -2.482102    0.968002   -0.889247
     18          1           0       -2.402836    1.023095    0.857279
     19          1           0        1.452629   -1.017103   -0.999926
     20          1           0        1.532776   -0.955399    0.746703
     21          1           0       -1.106759   -1.128904   -0.884359
     22          1           0       -1.026517   -1.070974    0.862031
     23          1           0        0.074720    1.076852   -1.013503
     24          1           0        0.150888    1.138809    0.733091
     25          1           0       -5.824377   -0.428184    0.188857
     26          1           0       -5.077618    0.848983   -0.768541
     27          1           0       -4.992428    0.902909    0.989943
 ---------------------------------------------------------------------

 SCF Done:  E(RHF) =  -353.150079061     A.U. after    2 cycles

 The electronic state is 1-A.
 Alpha  occ. eigenvalues --  -11.43586 -11.42356 -11.41634 -11.40139 -11.38830
 Alpha  occ. eigenvalues --  -11.37246 -11.36306 -11.35378 -11.33624  -1.29134
 Alpha  occ. eigenvalues --   -1.22018  -1.13715  -1.05479  -0.97501  -0.89474
 Alpha  occ. eigenvalues --   -0.83125  -0.81842  -0.78153  -0.66866  -0.64268
 Alpha  occ. eigenvalues --   -0.61543  -0.58900  -0.57999  -0.55662  -0.55604
 Alpha  occ. eigenvalues --   -0.52845  -0.50654  -0.49558  -0.47471  -0.46147
 Alpha  occ. eigenvalues --   -0.45375  -0.45086  -0.44751  -0.44110  -0.38251
 Alpha  occ. eigenvalues --   -0.33167
 Alpha virt. eigenvalues --    0.04126   0.04598   0.04687   0.05548   0.05682
 Alpha virt. eigenvalues --    0.05867   0.06110   0.06380   0.06570   0.06786
 Alpha virt. eigenvalues --    0.07329   0.07813   0.08102   0.09018   0.09548

 Mulliken charges:
               1
     1  C   -3.618554
     2  C   -0.549617
     3  C   -3.503749
     4  C   -4.104727
     5  C   -2.547511
     6  C   -2.830772
     7  C   -2.066557
     8  C   -2.531635
     9  C   -4.742337
    10  H    1.405741
    11  H    1.400972
    12  H    1.456306
    13  H    1.485287
    14  H    1.484754
    15  H    1.402870
    16  H    1.438381
    17  H    1.618424
    18  H    1.585549
    19  H    1.576911
    20  H    1.579606
    21  H    1.600324
    22  H    1.575384
    23  H    1.524656
    24  H    1.581778
    25  H    1.081963
    26  H    1.343119
    27  H    1.353434
 Sum of Mulliken charges =  -0.00000

 Dipole moment (field-independent basis, Debye):
    X=             -0.4169    Y=             -0.0249    Z=             -0.1485  Tot=              0.4433

 Test job not archived.
 1\1\GINC-SE200\SP\RHF\Aug-CC-pVDZ\C9H18\OHZDE\06-Apr-2025\0\\#t hf aug
 -cc-pvdz iop(5/13=1,5/36=2,99/5=2) pseudo=read geom=check guess=(read,
 tcheck) scf=(maxcycle=1)\\title\\0,1\C,0,4.970457,-0.12962,0.57334\C,0
 ,3.98047,-0.194879,-0.308575\C,0,-3.651956,-0.553136,0.088042\C,0,2.69
 5911,0.573157,-0.232484\C,0,-2.411683,0.337221,0.003428\C,0,1.456682,-
 0.330273,-0.147562\C,0,-1.096612,-0.441957,-0.031602\C,0,0.14234,0.449
 97,-0.118069\C,0,-4.960299,0.234816,0.12674\H,0,5.870978,-0.718575,0.4
 61701\H,0,4.915733,0.519817,1.439288\H,0,4.082499,-0.862497,-1.160575\

 Normal termination of Gaussian 16 at Sun Apr  6 08:28:01 2025.
