 Gaussian 16, Revision C.01,

 ----------------------------------------------------------------------
 #t hf aug-cc-pvdz symm=none int=(grid=ultrafine) guess=(read,tcheck) s
 table=(opt,rrhf)
 ----------------------------------------------------------------------
 -----
 title
 -----
 Symbolic Z-matrix:
 Charge =  0 Multiplicity = 1

 SCF Done:  E(RHF) =  -427.377137982     A.U. after   12 cycles

 1\1\GINC-SE013\Stability\RHF\Aug-CC-pVDZ\C9H20O1\OHZDE\06-Apr-2025\0\\
 #t hf aug-cc-pvdz symm=none int=(grid=ultrafine) guess=(read,tcheck) s
 table=(opt,rrhf)\\title\\0,1\C,0,5.737654,0.300711,0.011156\C,0,4.4481
 92,-0.518362,-0.011562\C,0,3.184431,0.342309,0.009963\C,0,1.888085,-0.
 468013,-0.011393\C,0,0.625303,0.394075,0.008474\C,0,-0.671025,-0.41650
 6,-0.012685\C,0,-1.93292,0.447391,0.006322\C,0,-3.22854,-0.365266,-0.0
 19608\C,0,-4.476648,0.508022,0.005687\O,0,-5.690067,-0.238804,-0.07533
 2\H,0,6.619389,-0.341382,-0.00638\H,0,5.796144,0.967682,-0.851502\H,0,

 Normal termination of Gaussian 16 at Sun Apr  6 08:28:58 2025.
 Gaussian 16:  ES64L-G16RevC.01  3-Jul-2019

 ----------------------------------------------------------------------
 #t hf aug-cc-pvdz iop(5/13=1,5/36=2,99/5=2) pseudo=read geom=check gue
 ss=(read,tcheck) scf=(maxcycle=1)
 ----------------------------------------------------------------------
 -----
 title
 -----
 Structure from the checkpoint file:  "nonan-1-ol.chk"
 Charge =  0 Multiplicity = 1

                         Standard orientation:
 ---------------------------------------------------------------------
 Center     Atomic      Atomic             Coordinates (Angstroms)
 Number     Number       Type             X           Y           Z
 ---------------------------------------------------------------------
      1          6           0        5.737654    0.300711    0.011156
      2          6           0        4.448192   -0.518362   -0.011562
      3          6           0        3.184431    0.342309    0.009963
      4          6           0        1.888085   -0.468013   -0.011393
      5          6           0        0.625303    0.394075    0.008474
      6          6           0       -0.671025   -0.416506   -0.012685
      7          6           0       -1.932920    0.447391    0.006322
      8          6           0       -3.228540   -0.365266   -0.019608
      9          6           0       -4.476648    0.508022    0.005687
     10          8           0       -5.690067   -0.238804   -0.075332
     11          1           0        6.619389   -0.341382   -0.006380
     12          1           0        5.796144    0.967682   -0.851502
     13          1           0        5.795907    0.919276    0.909188
     14          1           0        4.433983   -1.199317    0.844790
     15          1           0        4.435354   -1.153265   -0.902627
     16          1           0        3.198187    0.979052    0.901047
     17          1           0        3.198984    1.023585   -0.847491
     18          1           0        1.874006   -1.148349    0.846661
     19          1           0        1.875740   -1.105201   -0.901950
     20          1           0        0.637718    1.031678    0.898752
     21          1           0        0.639314    1.073915   -0.849865
     22          1           0       -0.686189   -1.095875    0.845940
     23          1           0       -0.684331   -1.053895   -0.902720
     24          1           0       -1.919452    1.084161    0.897002
     25          1           0       -1.916317    1.126849   -0.852022
     26          1           0       -3.259860   -0.993407   -0.913658
     27          1           0       -3.249682   -1.044442    0.840338
     28          1           0       -4.476569    1.142168    0.900551
     29          1           0       -4.490512    1.170814   -0.860513
     30          1           0       -5.748466   -0.819778    0.688990
 ---------------------------------------------------------------------

 SCF Done:  E(RHF) =  -429.536567907     A.U. after    2 cycles

 The electronic state is 1-A.
 Alpha  occ. eigenvalues --  -21.06173 -11.43652 -11.42943 -11.42106 -11.41191
 Alpha  occ. eigenvalues --  -11.39778 -11.37844 -11.36325 -11.35306 -11.33650
 Alpha  occ. eigenvalues --   -1.69894  -1.29071  -1.21764  -1.13221  -1.04714
 Alpha  occ. eigenvalues --   -0.96853  -0.89728  -0.84552  -0.82395  -0.81828
 Alpha  occ. eigenvalues --   -0.67941  -0.65847  -0.62611  -0.59515  -0.58923
 Alpha  occ. eigenvalues --   -0.57650  -0.56895  -0.55153  -0.53193  -0.51266
 Alpha  occ. eigenvalues --   -0.49858  -0.48513  -0.47032  -0.46502  -0.45257
 Alpha  occ. eigenvalues --   -0.44829  -0.44708  -0.44181  -0.40906  -0.36461
 Alpha  occ. eigenvalues --   -0.30329
 Alpha virt. eigenvalues --    0.04159   0.04292   0.04623   0.05427   0.05482
 Alpha virt. eigenvalues --    0.05823   0.05939   0.06240   0.06372   0.06580
 Alpha virt. eigenvalues --    0.06734   0.07357   0.08403   0.08730   0.08746

 Mulliken charges:
               1
     1  C   -4.778462
     2  C   -3.655833
     3  C   -2.971517
     4  C   -2.339025
     5  C   -2.368215
     6  C   -1.989878
     7  C   -3.160524
     8  C   -3.471375
     9  C   -1.898974
    10  O   -2.755819
    11  H    1.083242
    12  H    1.353165
    13  H    1.353102
    14  H    1.497047
    15  H    1.496343
    16  H    1.616856
    17  H    1.616062
    18  H    1.638007
    19  H    1.645259
    20  H    1.612232
    21  H    1.615893
    22  H    1.596776
    23  H    1.578090
    24  H    1.577766
    25  H    1.590131
    26  H    1.468724
    27  H    1.535125
    28  H    1.343014
    29  H    1.397495
    30  H    0.775295
 Sum of Mulliken charges =   0.00000

 Dipole moment (field-independent basis, Debye):
    X=              0.7770    Y=             -0.1170    Z=              0.4748  Tot=              0.9180

 Test job not archived.
 1\1\GINC-SE013\SP\RHF\Aug-CC-pVDZ\C9H20O1\OHZDE\06-Apr-2025\0\\#t hf a
 ug-cc-pvdz iop(5/13=1,5/36=2,99/5=2) pseudo=read geom=check guess=(rea
 d,tcheck) scf=(maxcycle=1)\\title\\0,1\C,0,5.737654,0.300711,0.011156\
 C,0,4.448192,-0.518362,-0.011562\C,0,3.184431,0.342309,0.009963\C,0,1.
 888085,-0.468013,-0.011393\C,0,0.625303,0.394075,0.008474\C,0,-0.67102
 5,-0.416506,-0.012685\C,0,-1.93292,0.447391,0.006322\C,0,-3.22854,-0.3
 65266,-0.019608\C,0,-4.476648,0.508022,0.005687\O,0,-5.690067,-0.23880
 4,-0.075332\H,0,6.619389,-0.341382,-0.00638\H,0,5.796144,0.967682,-0.8

 Normal termination of Gaussian 16 at Sun Apr  6 08:30:47 2025.
