 Gaussian 16, Revision C.01,

 ----------------------------------------------------------------------
 #t hf aug-cc-pvdz symm=none int=(grid=ultrafine) guess=(read,tcheck) s
 table=(opt,rrhf)
 ----------------------------------------------------------------------
 -----
 title
 -----
 Symbolic Z-matrix:
 Charge =  0 Multiplicity = 1

 SCF Done:  E(RHF) =  -352.509218687     A.U. after   11 cycles
 Normal termination of Gaussian 16 at Sun Apr  6 08:27:53 2025.
 Gaussian 16:  ES64L-G16RevC.01  3-Jul-2019

 ----------------------------------------------------------------------
 #t hf aug-cc-pvdz iop(5/13=1,5/36=2,99/5=2) pseudo=read geom=check gue
 ss=(read,tcheck) scf=(maxcycle=1)
 ----------------------------------------------------------------------
 -----
 title
 -----
 Structure from the checkpoint file:  "nonane.chk"
 Charge =  0 Multiplicity = 1

                         Standard orientation:
 ---------------------------------------------------------------------
 Center     Atomic      Atomic             Coordinates (Angstroms)
 Number     Number       Type             X           Y           Z
 ---------------------------------------------------------------------
      1          6           0        0.000000    5.113451    0.369764
      2          6           0       -0.000000   -5.113451    0.369764
      3          6           0        0.000000    3.841175   -0.476207
      4          6           0       -0.000000   -3.841175   -0.476207
      5          6           0        0.000000    2.559853    0.358568
      6          6           0       -0.000000   -2.559853    0.358568
      7          6           0        0.000000    1.280240   -0.478345
      8          6           0       -0.000000   -1.280240   -0.478345
      9          6           0        0.000000   -0.000000    0.358018
     10          1           0        0.880614    5.158370    1.014023
     11          1           0        0.000000    6.008632   -0.253795
     12          1           0       -0.880614    5.158370    1.014023
     13          1           0       -0.000000   -6.008632   -0.253795
     14          1           0       -0.880614   -5.158370    1.014023
     15          1           0        0.880614   -5.158370    1.014023
     16          1           0       -0.873886    3.841226   -1.134700
     17          1           0        0.873886    3.841226   -1.134700
     18          1           0       -0.873886   -3.841226   -1.134700
     19          1           0        0.873886   -3.841226   -1.134700
     20          1           0        0.874404    2.560551    1.018190
     21          1           0       -0.874404    2.560551    1.018190
     22          1           0       -0.874404   -2.560551    1.018190
     23          1           0        0.874404   -2.560551    1.018190
     24          1           0        0.874440    1.280475   -1.137677
     25          1           0       -0.874440    1.280475   -1.137677
     26          1           0       -0.874440   -1.280475   -1.137677
     27          1           0        0.874440   -1.280475   -1.137677
     28          1           0        0.874372   -0.000000    1.017387
     29          1           0       -0.874372    0.000000    1.017387
 ---------------------------------------------------------------------

 SCF Done:  E(RHF) =  -354.377964713     A.U. after    2 cycles

 The electronic state is 1-A1.
 Alpha  occ. eigenvalues --  -11.42360 -11.42226 -11.40791 -11.40083 -11.38274
 Alpha  occ. eigenvalues --  -11.36615 -11.35577 -11.34636 -11.33110  -1.28924
 Alpha  occ. eigenvalues --   -1.22045  -1.13817  -1.05424  -0.97531  -0.90117
 Alpha  occ. eigenvalues --   -0.83967  -0.81640  -0.81360  -0.66706  -0.64073
 Alpha  occ. eigenvalues --   -0.60294  -0.58845  -0.58339  -0.56127  -0.54796
 Alpha  occ. eigenvalues --   -0.53985  -0.51967  -0.50074  -0.48237  -0.45981
 Alpha  occ. eigenvalues --   -0.45631  -0.44970  -0.44531  -0.44506  -0.43836
 Alpha  occ. eigenvalues --   -0.43827  -0.36075
 Alpha virt. eigenvalues --    0.04228   0.04592   0.04609   0.05507   0.05553
 Alpha virt. eigenvalues --    0.05941   0.06099   0.06423   0.06569   0.06621
 Alpha virt. eigenvalues --    0.06885   0.06984   0.08346   0.08878   0.09099

 Mulliken charges:
               1
     1  C   -4.760943
     2  C   -4.760943
     3  C   -3.626925
     4  C   -3.626925
     5  C   -2.923479
     6  C   -2.923479
     7  C   -2.237373
     8  C   -2.237373
     9  C   -2.548472
    10  H    1.351627
    11  H    1.082431
    12  H    1.351627
    13  H    1.082431
    14  H    1.351627
    15  H    1.351627
    16  H    1.493027
    17  H    1.493027
    18  H    1.493027
    19  H    1.493027
    20  H    1.616269
    21  H    1.616269
    22  H    1.616269
    23  H    1.616269
    24  H    1.617730
    25  H    1.617730
    26  H    1.617730
    27  H    1.617730
    28  H    1.583216
    29  H    1.583216
 Sum of Mulliken charges =   0.00000

 Dipole moment (field-independent basis, Debye):
    X=              0.0000    Y=             -0.0000    Z=             -0.1381  Tot=              0.1381

 Test job not archived.
 1\1\GINC-SE013\SP\RHF\Aug-CC-pVDZ\C9H20\OHZDE\06-Apr-2025\0\\#t hf aug
 -cc-pvdz iop(5/13=1,5/36=2,99/5=2) pseudo=read geom=check guess=(read,
 tcheck) scf=(maxcycle=1)\\title\\0,1\C,0,0.,5.113451,0.369764\C,0,0.,-
 5.113451,0.369764\C,0,0.,3.841175,-0.476207\C,0,0.,-3.841175,-0.476207
 \C,0,0.,2.559853,0.358568\C,0,0.,-2.559853,0.358568\C,0,0.,1.28024,-0.
 478345\C,0,0.,-1.28024,-0.478345\C,0,0.,0.,0.358018\H,0,0.880614,5.158
 37,1.014023\H,0,0.,6.008632,-0.253795\H,0,-0.880614,5.15837,1.014023\H
 ,0,0.,-6.008632,-0.253795\H,0,-0.880614,-5.15837,1.014023\H,0,0.880614

 Normal termination of Gaussian 16 at Sun Apr  6 08:28:09 2025.
