 Gaussian 16, Revision C.01,

 ----------------------------------------------------------------------
 #t hf aug-cc-pvdz symm=none int=(grid=ultrafine) guess=(read,tcheck) s
 table=(opt,rrhf)
 ----------------------------------------------------------------------
 -----
 title
 -----
 Symbolic Z-matrix:
 Charge =  0 Multiplicity = 1

 SCF Done:  E(RHF) =  -272.088437544     A.U. after   11 cycles
 Normal termination of Gaussian 16 at Sun Apr  6 08:25:36 2025.
 Gaussian 16:  ES64L-G16RevC.01  3-Jul-2019

 ----------------------------------------------------------------------
 #t hf aug-cc-pvdz iop(5/13=1,5/36=2,99/5=2) pseudo=read geom=check gue
 ss=(read,tcheck) scf=(maxcycle=1)
 ----------------------------------------------------------------------
 -----
 title
 -----
 Structure from the checkpoint file:  "norborane.chk"
 Charge =  0 Multiplicity = 1

                         Standard orientation:
 ---------------------------------------------------------------------
 Center     Atomic      Atomic             Coordinates (Angstroms)
 Number     Number       Type             X           Y           Z
 ---------------------------------------------------------------------
      1          6           0        0.000000    0.000000    1.385266
      2          6           0        0.000000    1.130265    0.339297
      3          6           0       -0.000000   -1.130265    0.339297
      4          6           0        1.252143    0.780951   -0.492266
      5          6           0       -1.252143    0.780951   -0.492266
      6          6           0       -1.252143   -0.780951   -0.492266
      7          6           0        1.252143   -0.780951   -0.492266
      8          1           0       -0.887352    0.000000    2.020515
      9          1           0        0.887352   -0.000000    2.020515
     10          1           0        0.000000    2.146851    0.729171
     11          1           0       -0.000000   -2.146851    0.729171
     12          1           0        2.153759    1.172887   -0.019845
     13          1           0       -2.153759   -1.172887   -0.019845
     14          1           0        2.153759   -1.172887   -0.019845
     15          1           0       -2.153759    1.172887   -0.019845
     16          1           0        1.204295   -1.201509   -1.497189
     17          1           0       -1.204295    1.201509   -1.497189
     18          1           0        1.204295    1.201509   -1.497189
     19          1           0       -1.204295   -1.201509   -1.497189
 ---------------------------------------------------------------------

 SCF Done:  E(RHF) =  -273.489986849     A.U. after    2 cycles

 The electronic state is 1-A1.
 Alpha  occ. eigenvalues --  -11.48196 -11.45286 -11.41054 -11.37876 -11.36299
 Alpha  occ. eigenvalues --  -11.35983 -11.32364  -1.39945  -1.09001  -1.05612
 Alpha  occ. eigenvalues --   -1.00934  -0.87074  -0.79259  -0.76225  -0.70076
 Alpha  occ. eigenvalues --   -0.64945  -0.63558  -0.54529  -0.53937  -0.48843
 Alpha  occ. eigenvalues --   -0.47700  -0.46774  -0.43835  -0.42266  -0.40357
 Alpha  occ. eigenvalues --   -0.38928  -0.37357
 Alpha virt. eigenvalues --    0.04239   0.04844   0.05168   0.05205   0.05356
 Alpha virt. eigenvalues --    0.05410   0.06420   0.06833   0.06903   0.08537
 Alpha virt. eigenvalues --    0.08723   0.09172   0.11809   0.13002   0.13872

 Mulliken charges:
               1
     1  C   -2.938935
     2  C   -1.933197
     3  C   -1.933197
     4  C   -2.766721
     5  C   -2.766721
     6  C   -2.766721
     7  C   -2.766721
     8  H    1.352529
     9  H    1.352529
    10  H    1.933285
    11  H    1.933285
    12  H    1.300987
    13  H    1.300987
    14  H    1.300987
    15  H    1.300987
    16  H    1.524159
    17  H    1.524159
    18  H    1.524159
    19  H    1.524159
 Sum of Mulliken charges =  -0.00000

 Dipole moment (field-independent basis, Debye):
    X=              0.0000    Y=              0.0000    Z=              0.1591  Tot=              0.1591

 Test job not archived.
 1\1\GINC-SE041\SP\RHF\Aug-CC-pVDZ\C7H12\OHZDE\06-Apr-2025\0\\#t hf aug
 -cc-pvdz iop(5/13=1,5/36=2,99/5=2) pseudo=read geom=check guess=(read,
 tcheck) scf=(maxcycle=1)\\title\\0,1\C,0,0.,0.,1.385266\C,0,0.,1.13026
 5,0.339297\C,0,0.,-1.130265,0.339297\C,0,1.252143,0.780951,-0.492266\C
 ,0,-1.252143,0.780951,-0.492266\C,0,-1.252143,-0.780951,-0.492266\C,0,
 1.252143,-0.780951,-0.492266\H,0,-0.887352,0.,2.020515\H,0,0.887352,0.
 ,2.020515\H,0,0.,2.146851,0.729171\H,0,0.,-2.146851,0.729171\H,0,2.153
 759,1.172887,-0.019845\H,0,-2.153759,-1.172887,-0.019845\H,0,2.153759,

 Normal termination of Gaussian 16 at Sun Apr  6 08:26:32 2025.
