 Gaussian 16, Revision C.01,

 ----------------------------------------------------------------------
 #t hf aug-cc-pvdz symm=none int=(grid=ultrafine) guess=(read,tcheck) s
 table=(opt,rrhf)
 ----------------------------------------------------------------------
 -----
 title
 -----
 Symbolic Z-matrix:
 Charge =  0 Multiplicity = 1

 SCF Done:  E(RHF) =  -269.682847108     A.U. after   12 cycles
 Normal termination of Gaussian 16 at Sun Apr  6 08:25:31 2025.
 Gaussian 16:  ES64L-G16RevC.01  3-Jul-2019

 ----------------------------------------------------------------------
 #t hf aug-cc-pvdz iop(5/13=1,5/36=2,99/5=2) pseudo=read geom=check gue
 ss=(read,tcheck) scf=(maxcycle=1)
 ----------------------------------------------------------------------
 -----
 title
 -----
 Structure from the checkpoint file:  "norbornadiene.chk"
 Charge =  0 Multiplicity = 1

                         Standard orientation:
 ---------------------------------------------------------------------
 Center     Atomic      Atomic             Coordinates (Angstroms)
 Number     Number       Type             X           Y           Z
 ---------------------------------------------------------------------
      1          6           0        0.000000    0.000000    1.353978
      2          6           0        0.000000    1.120429    0.272438
      3          6           0       -0.000000   -1.120429    0.272438
      4          6           0        1.240122    0.664758   -0.520057
      5          6           0        1.240122   -0.664758   -0.520057
      6          6           0       -1.240122    0.664758   -0.520057
      7          6           0       -1.240122   -0.664758   -0.520057
      8          1           0       -0.896605    0.000000    1.972745
      9          1           0        0.896605   -0.000000    1.972745
     10          1           0        0.000000    2.152954    0.608976
     11          1           0       -0.000000   -2.152954    0.608976
     12          1           0        1.927551    1.330663   -1.018798
     13          1           0        1.927551   -1.330663   -1.018798
     14          1           0       -1.927551    1.330663   -1.018798
     15          1           0       -1.927551   -1.330663   -1.018798
 ---------------------------------------------------------------------

 SCF Done:  E(RHF) =  -271.026177460     A.U. after    2 cycles

 The electronic state is 1-A1.
 Alpha  occ. eigenvalues --  -11.46210 -11.44905 -11.41084 -11.39116 -11.38301
 Alpha  occ. eigenvalues --  -11.37221 -11.34052  -1.42251  -1.09056  -1.02809
 Alpha  occ. eigenvalues --   -1.00339  -0.80987  -0.79927  -0.72426  -0.71315
 Alpha  occ. eigenvalues --   -0.66347  -0.55864  -0.52284  -0.50158  -0.48681
 Alpha  occ. eigenvalues --   -0.45256  -0.42855  -0.42212  -0.33361  -0.29671
 Alpha virt. eigenvalues --    0.03958   0.04984   0.05183   0.05245   0.05535
 Alpha virt. eigenvalues --    0.06349   0.06666   0.06832   0.10713   0.11531
 Alpha virt. eigenvalues --    0.12374   0.13123   0.13504   0.14720   0.15082

 Mulliken charges:
               1
     1  C   -2.385116
     2  C   -4.086735
     3  C   -4.086735
     4  C   -0.223147
     5  C   -0.223147
     6  C   -0.223147
     7  C   -0.223147
     8  H    1.490200
     9  H    1.490200
    10  H    1.572819
    11  H    1.572819
    12  H    1.331284
    13  H    1.331284
    14  H    1.331284
    15  H    1.331284
 Sum of Mulliken charges =   0.00000

 Dipole moment (field-independent basis, Debye):
    X=              0.0000    Y=              0.0000    Z=             -0.0417  Tot=              0.0417

 Test job not archived.
 1\1\GINC-SE042\SP\RHF\Aug-CC-pVDZ\C7H8\OHZDE\06-Apr-2025\0\\#t hf aug-
 cc-pvdz iop(5/13=1,5/36=2,99/5=2) pseudo=read geom=check guess=(read,t
 check) scf=(maxcycle=1)\\title\\0,1\C,0,0.,0.,1.353978\C,0,0.,1.120429
 ,0.272438\C,0,0.,-1.120429,0.272438\C,0,1.240122,0.664758,-0.520057\C,
 0,1.240122,-0.664758,-0.520057\C,0,-1.240122,0.664758,-0.520057\C,0,-1
 .240122,-0.664758,-0.520057\H,0,-0.896605,0.,1.972745\H,0,0.896605,0.,
 1.972745\H,0,0.,2.152954,0.608976\H,0,0.,-2.152954,0.608976\H,0,1.9275
 51,1.330663,-1.018798\H,0,1.927551,-1.330663,-1.018798\H,0,-1.927551,1

 Normal termination of Gaussian 16 at Sun Apr  6 08:25:38 2025.
