 Gaussian 16, Revision C.01,

 ----------------------------------------------------------------------
 #t hf aug-cc-pvdz symm=none int=(grid=ultrafine) guess=(read,tcheck) s
 table=(opt,rrhf)
 ----------------------------------------------------------------------
 -----
 title
 -----
 Symbolic Z-matrix:
 Charge =  0 Multiplicity = 1

 SCF Done:  E(RHF) =  -272.063922666     A.U. after   12 cycles
 Normal termination of Gaussian 16 at Sun Apr  6 08:25:39 2025.
 Gaussian 16:  ES64L-G16RevC.01  3-Jul-2019

 ----------------------------------------------------------------------
 #t hf aug-cc-pvdz iop(5/13=1,5/36=2,99/5=2) pseudo=read geom=check gue
 ss=(read,tcheck) scf=(maxcycle=1)
 ----------------------------------------------------------------------
 -----
 title
 -----
 Structure from the checkpoint file:  "norcarane.chk"
 Charge =  0 Multiplicity = 1

                         Standard orientation:
 ---------------------------------------------------------------------
 Center     Atomic      Atomic             Coordinates (Angstroms)
 Number     Number       Type             X           Y           Z
 ---------------------------------------------------------------------
      1          6           0        0.975299    0.827111   -0.352809
      2          6           0        1.037330   -0.681581   -0.465009
      3          6           0        1.707835    0.013482    0.686561
      4          6           0       -0.339639    1.518890    0.000186
      5          6           0       -0.218086   -1.511099   -0.270848
      6          6           0       -1.568408    0.613209   -0.153427
      7          6           0       -1.336768   -0.765176    0.466692
      8          1           0        1.606840    1.375880   -1.039268
      9          1           0        1.707047   -1.069245   -1.223026
     10          1           0        2.788502    0.048694    0.705499
     11          1           0        1.251515   -0.062096    1.665475
     12          1           0       -0.295481    1.889223    1.028594
     13          1           0       -0.460026    2.400340   -0.631932
     14          1           0       -0.593963   -1.797410   -1.258217
     15          1           0        0.025275   -2.442322    0.248361
     16          1           0       -2.438162    1.095924    0.297128
     17          1           0       -1.797265    0.485618   -1.216378
     18          1           0       -2.251524   -1.359759    0.428994
     19          1           0       -1.088138   -0.653867    1.526702
 ---------------------------------------------------------------------

 SCF Done:  E(RHF) =  -273.456791713     A.U. after    2 cycles

 The electronic state is 1-A.
 Alpha  occ. eigenvalues --  -11.44592 -11.42558 -11.40709 -11.40010 -11.37381
 Alpha  occ. eigenvalues --  -11.35514 -11.33835  -1.35741  -1.17173  -1.09499
 Alpha  occ. eigenvalues --   -0.93696  -0.86494  -0.82398  -0.73956  -0.68999
 Alpha  occ. eigenvalues --   -0.61957  -0.59579  -0.59258  -0.56497  -0.52119
 Alpha  occ. eigenvalues --   -0.49823  -0.46937  -0.44812  -0.43100  -0.40073
 Alpha  occ. eigenvalues --   -0.35914  -0.34561
 Alpha virt. eigenvalues --    0.04238   0.05141   0.05282   0.05369   0.05467
 Alpha virt. eigenvalues --    0.05720   0.06223   0.06548   0.06924   0.08373
 Alpha virt. eigenvalues --    0.08824   0.09110   0.12465   0.13139   0.13485

 Mulliken charges:
               1
     1  C   -0.633345
     2  C   -0.102645
     3  C   -2.393534
     4  C   -3.122396
     5  C   -3.622504
     6  C   -2.967943
     7  C   -2.843617
     8  H    1.197446
     9  H    1.174226
    10  H    1.181611
    11  H    1.499728
    12  H    1.286806
    13  H    1.306941
    14  H    1.347620
    15  H    1.264951
    16  H    1.271534
    17  H    1.415652
    18  H    1.208504
    19  H    1.530963
 Sum of Mulliken charges =  -0.00000

 Dipole moment (field-independent basis, Debye):
    X=             -0.0884    Y=              0.0392    Z=             -0.1263  Tot=              0.1591

 Test job not archived.
 1\1\GINC-SE049\SP\RHF\Aug-CC-pVDZ\C7H12\OHZDE\06-Apr-2025\0\\#t hf aug
 -cc-pvdz iop(5/13=1,5/36=2,99/5=2) pseudo=read geom=check guess=(read,
 tcheck) scf=(maxcycle=1)\\title\\0,1\C,0,0.975299,0.827111,-0.352809\C
 ,0,1.03733,-0.681581,-0.465009\C,0,1.707835,0.013482,0.686561\C,0,-0.3
 39639,1.51889,0.000186\C,0,-0.218086,-1.511099,-0.270848\C,0,-1.568408
 ,0.613209,-0.153427\C,0,-1.336768,-0.765176,0.466692\H,0,1.60684,1.375
 88,-1.039268\H,0,1.707047,-1.069245,-1.223026\H,0,2.788502,0.048694,0.
 705499\H,0,1.251515,-0.062096,1.665475\H,0,-0.295481,1.889223,1.028594

 Normal termination of Gaussian 16 at Sun Apr  6 08:26:34 2025.
