 Gaussian 16, Revision C.01,

 ----------------------------------------------------------------------
 #t hf aug-cc-pvdz symm=none int=(grid=ultrafine) guess=(read,tcheck) s
 table=(opt,rrhf)
 ----------------------------------------------------------------------
 -----
 title
 -----
 Symbolic Z-matrix:
 Charge =  0 Multiplicity = 1

 SCF Done:  E(RHF) =  -344.642693108     A.U. after   15 cycles
 Normal termination of Gaussian 16 at Sun Apr  6 08:25:38 2025.
 Gaussian 16:  ES64L-G16RevC.01  3-Jul-2019

 ----------------------------------------------------------------------
 #t hf aug-cc-pvdz iop(5/13=1,5/36=2,99/5=2) pseudo=read geom=check gue
 ss=(read,tcheck) scf=(maxcycle=1)
 ----------------------------------------------------------------------
 -----
 title
 -----
 Structure from the checkpoint file:  "o-cresol.chk"
 Charge =  0 Multiplicity = 1

                         Standard orientation:
 ---------------------------------------------------------------------
 Center     Atomic      Atomic             Coordinates (Angstroms)
 Number     Number       Type             X           Y           Z
 ---------------------------------------------------------------------
      1          6           0        1.183630   -1.657236    0.000000
      2          6           0        1.978197   -0.519415    0.000000
      3          6           0       -0.201692   -1.524488    0.000000
      4          6           0        1.385481    0.737927    0.000000
      5          6           0       -0.822901   -0.278622    0.000000
      6          6           0        0.000000    0.854617    0.000000
      7          6           0       -2.318300   -0.130060    0.000000
      8          8           0       -0.625320    2.075643    0.000000
      9          1           0        1.634666   -2.639701    0.000000
     10          1           0        3.056498   -0.602769    0.000000
     11          1           0       -0.822640   -2.411682    0.000000
     12          1           0        1.999453    1.631427    0.000000
     13          1           0       -2.661652    0.425255    0.874779
     14          1           0       -2.661652    0.425255   -0.874779
     15          1           0       -2.803146   -1.104999    0.000000
     16          1           0        0.034538    2.775735    0.000000
 ---------------------------------------------------------------------

 SCF Done:  E(RHF) =  -346.260397035     A.U. after    2 cycles

 The electronic state is 1-A'.
 Alpha  occ. eigenvalues --  -21.09996 -11.51473 -11.45450 -11.42678 -11.40747
 Alpha  occ. eigenvalues --  -11.40214 -11.38026 -11.35946  -1.75522  -1.32684
 Alpha  occ. eigenvalues --   -1.14355  -1.07013  -0.98906  -0.86845  -0.82568
 Alpha  occ. eigenvalues --   -0.69963  -0.65682  -0.62732  -0.57944  -0.57057
 Alpha  occ. eigenvalues --   -0.56115  -0.52479  -0.51138  -0.47879  -0.44278
 Alpha  occ. eigenvalues --   -0.42520  -0.40676  -0.32322  -0.26588
 Alpha virt. eigenvalues --    0.03418   0.04715   0.05157   0.05975   0.06255
 Alpha virt. eigenvalues --    0.07103   0.07314   0.07744   0.10338   0.11568
 Alpha virt. eigenvalues --    0.12902   0.12970   0.13118   0.13902   0.13958

 Mulliken charges:
               1
     1  C   -2.866930
     2  C   -1.378687
     3  C   -0.415654
     4  C   -5.274947
     5  C    1.404537
     6  C    7.573226
     7  C   -5.150729
     8  O   -4.678473
     9  H    1.496178
    10  H    1.472973
    11  H    1.711734
    12  H    1.723125
    13  H    1.080564
    14  H    1.080564
    15  H    1.199679
    16  H    1.022839
 Sum of Mulliken charges =  -0.00000

 Dipole moment (field-independent basis, Debye):
    X=              0.0977    Y=              0.6885    Z=             -0.0000  Tot=              0.6954

 Test job not archived.
 1\1\GINC-SE050\SP\RHF\Aug-CC-pVDZ\C7H8O1\OHZDE\06-Apr-2025\0\\#t hf au
 g-cc-pvdz iop(5/13=1,5/36=2,99/5=2) pseudo=read geom=check guess=(read
 ,tcheck) scf=(maxcycle=1)\\title\\0,1\C,0,1.18363,-1.657236,0.\C,0,1.9
 78197,-0.519415,0.\C,0,-0.201692,-1.524488,0.\C,0,1.385481,0.737927,0.
 \C,0,-0.822901,-0.278622,0.\C,0,0.,0.854617,0.\C,0,-2.3183,-0.13006,0.
 \O,0,-0.62532,2.075643,0.\H,0,1.634666,-2.639701,0.\H,0,3.056498,-0.60
 2769,0.\H,0,-0.82264,-2.411682,0.\H,0,1.999453,1.631427,0.\H,0,-2.6616
 52,0.425255,0.874779\H,0,-2.661652,0.425255,-0.874779\H,0,-2.803146,-1

 Normal termination of Gaussian 16 at Sun Apr  6 08:26:32 2025.
