 Gaussian 16, Revision C.01,

 ----------------------------------------------------------------------
 #t hf aug-cc-pvdz symm=none int=(grid=ultrafine) guess=(read,tcheck) s
 table=(opt,rrhf)
 ----------------------------------------------------------------------
 -----
 title
 -----
 Symbolic Z-matrix:
 Charge =  0 Multiplicity = 1

 SCF Done:  E(RHF) =  -1148.56655675     A.U. after   15 cycles

 1\1\GINC-SE146\Stability\RHF\Aug-CC-pVDZ\C6H4Cl2\OHZDE\06-Apr-2025\0\\
 #t hf aug-cc-pvdz symm=none int=(grid=ultrafine) guess=(read,tcheck) s
 table=(opt,rrhf)\\title\\0,1\C,0,0.,0.694844,2.382562\C,0,0.,-0.694844
 ,2.382562\C,0,0.,1.388047,1.181404\C,0,0.,-1.388047,1.181404\C,0,0.,0.
 697332,-0.025757\C,0,0.,-0.697332,-0.025757\Cl,0,0.,1.60509,-1.512263\
 Cl,0,0.,-1.60509,-1.512263\H,0,0.,1.242555,3.314599\H,0,0.,-1.242555,3
 .314599\H,0,0.,2.468014,1.164618\H,0,0.,-2.468014,1.164618\\Version=ES
 64L-G16RevC.01\HF=-1148.5665568\RMSD=4.222e-09\Dipole=0.,0.,1.166877\Q

 Normal termination of Gaussian 16 at Sun Apr  6 08:25:14 2025.
 Gaussian 16:  ES64L-G16RevC.01  3-Jul-2019

 ----------------------------------------------------------------------
 #t hf aug-cc-pvdz iop(5/13=1,5/36=2,99/5=2) pseudo=read geom=check gue
 ss=(read,tcheck) scf=(maxcycle=1)
 ----------------------------------------------------------------------
 -----
 title
 -----
 Structure from the checkpoint file:  "o-dichlorobenzene.chk"
 Charge =  0 Multiplicity = 1

                         Standard orientation:
 ---------------------------------------------------------------------
 Center     Atomic      Atomic             Coordinates (Angstroms)
 Number     Number       Type             X           Y           Z
 ---------------------------------------------------------------------
      1          6           0        0.000000    0.694844    2.382562
      2          6           0       -0.000000   -0.694844    2.382562
      3          6           0        0.000000    1.388047    1.181404
      4          6           0       -0.000000   -1.388047    1.181404
      5          6           0        0.000000    0.697332   -0.025757
      6          6           0       -0.000000   -0.697332   -0.025757
      7         17           0        0.000000    1.605090   -1.512263
      8         17           0       -0.000000   -1.605090   -1.512263
      9          1           0        0.000000    1.242555    3.314599
     10          1           0       -0.000000   -1.242555    3.314599
     11          1           0        0.000000    2.468014    1.164618
     12          1           0       -0.000000   -2.468014    1.164618
 ---------------------------------------------------------------------

 SCF Done:  E(RHF) =  -1150.15484848     A.U. after    2 cycles

 The electronic state is 1-A1.
 Alpha  occ. eigenvalues --  -99.90210 -99.90190 -11.54422 -11.48184 -11.47549
 Alpha  occ. eigenvalues --  -11.44081 -11.43427 -11.39101 -10.47618 -10.47595
 Alpha  occ. eigenvalues --   -9.67802  -9.67461  -9.66826  -9.66571  -9.66558
 Alpha  occ. eigenvalues --   -9.66491  -1.44398  -1.32802  -1.27857  -1.11182
 Alpha  occ. eigenvalues --   -1.08887  -0.90020  -0.87919  -0.73954  -0.68851
 Alpha  occ. eigenvalues --   -0.65171  -0.61674  -0.61155  -0.60745  -0.54663
 Alpha  occ. eigenvalues --   -0.52670  -0.51978  -0.49501  -0.47590  -0.47554
 Alpha  occ. eigenvalues --   -0.35306  -0.34776
 Alpha virt. eigenvalues --    0.02866   0.04898   0.05073   0.06247   0.06907
 Alpha virt. eigenvalues --    0.09020   0.09044   0.09466   0.09636   0.12099
 Alpha virt. eigenvalues --    0.12427   0.13443   0.13502   0.13657   0.13962

 Mulliken charges:
               1
     1  C   -1.073420
     2  C   -1.073420
     3  C   -0.610947
     4  C   -0.610947
     5  C   -0.982861
     6  C   -0.982861
     7  Cl  -0.606403
     8  Cl  -0.606403
     9  H    1.530991
    10  H    1.530991
    11  H    1.742641
    12  H    1.742641
 Sum of Mulliken charges =   0.00000

 Dipole moment (field-independent basis, Debye):
    X=             -0.0000    Y=             -0.0000    Z=              3.5985  Tot=              3.5985

 Test job not archived.
 1\1\GINC-SE146\SP\RHF\Aug-CC-pVDZ\C6H4Cl2\OHZDE\06-Apr-2025\0\\#t hf a
 ug-cc-pvdz iop(5/13=1,5/36=2,99/5=2) pseudo=read geom=check guess=(rea
 d,tcheck) scf=(maxcycle=1)\\title\\0,1\C,0,0.,0.694844,2.382562\C,0,0.
 ,-0.694844,2.382562\C,0,0.,1.388047,1.181404\C,0,0.,-1.388047,1.181404
 \C,0,0.,0.697332,-0.025757\C,0,0.,-0.697332,-0.025757\Cl,0,0.,1.60509,
 -1.512263\Cl,0,0.,-1.60509,-1.512263\H,0,0.,1.242555,3.314599\H,0,0.,-
 1.242555,3.314599\H,0,0.,2.468014,1.164618\H,0,0.,-2.468014,1.164618\\
 Version=ES64L-G16RevC.01\State=1-A1\HF=-1150.1548485\RMSD=2.853e+00\Di

 Normal termination of Gaussian 16 at Sun Apr  6 08:25:38 2025.
