 Gaussian 16, Revision C.01,

 ----------------------------------------------------------------------
 #t hf aug-cc-pvdz symm=none int=(grid=ultrafine) guess=(read,tcheck) s
 table=(opt,rrhf)
 ----------------------------------------------------------------------
 -----
 title
 -----
 Symbolic Z-matrix:
 Charge =  0 Multiplicity = 1

 SCF Done:  E(RHF) =  -428.449720642     A.U. after   14 cycles
 Normal termination of Gaussian 16 at Sun Apr  6 08:25:02 2025.
 Gaussian 16:  ES64L-G16RevC.01  3-Jul-2019

 ----------------------------------------------------------------------
 #t hf aug-cc-pvdz iop(5/13=1,5/36=2,99/5=2) pseudo=read geom=check gue
 ss=(read,tcheck) scf=(maxcycle=1)
 ----------------------------------------------------------------------
 -----
 title
 -----
 Structure from the checkpoint file:  "o-difluorobenzene.chk"
 Charge =  0 Multiplicity = 1

                         Standard orientation:
 ---------------------------------------------------------------------
 Center     Atomic      Atomic             Coordinates (Angstroms)
 Number     Number       Type             X           Y           Z
 ---------------------------------------------------------------------
      1          6           0        0.000000    0.694295   -0.532279
      2          6           0        0.000000    1.395728    0.658951
      3          6           0        0.000000    0.694955    1.860549
      4          6           0       -0.000000   -0.694955    1.860549
      5          6           0       -0.000000   -1.395728    0.658951
      6          6           0       -0.000000   -0.694295   -0.532279
      7          9           0        0.000000   -1.349838   -1.705237
      8          9           0        0.000000    1.349838   -1.705237
      9          1           0        0.000000    2.476041    0.629411
     10          1           0        0.000000    1.238774    2.794390
     11          1           0       -0.000000   -1.238774    2.794390
     12          1           0       -0.000000   -2.476041    0.629411
 ---------------------------------------------------------------------

 SCF Done:  E(RHF) =  -430.206166161     A.U. after    2 cycles

 The electronic state is 1-A1.
 Alpha  occ. eigenvalues --  -29.29553 -29.29494 -11.55802 -11.47644 -11.47490
 Alpha  occ. eigenvalues --  -11.43741 -11.42646 -11.38933  -1.40584  -1.17845
 Alpha  occ. eigenvalues --   -1.16272  -0.96455  -0.92877  -0.80817  -0.74146
 Alpha  occ. eigenvalues --   -0.65580  -0.63987  -0.62782  -0.59389  -0.51452
 Alpha  occ. eigenvalues --   -0.49809  -0.42979  -0.42935  -0.40307  -0.39483
 Alpha  occ. eigenvalues --   -0.29085  -0.28328  -0.27111  -0.21075
 Alpha virt. eigenvalues --    0.03441   0.05031   0.05261   0.06367   0.10491
 Alpha virt. eigenvalues --    0.11187   0.11444   0.12029   0.12399   0.13367
 Alpha virt. eigenvalues --    0.13496   0.13800   0.13940   0.14548   0.15008

 Mulliken charges:
               1
     1  C    0.210686
     2  C   -3.460852
     3  C   -0.776242
     4  C   -0.776242
     5  C   -3.460852
     6  C    0.210686
     7  F    0.914035
     8  F    0.914035
     9  H    1.649944
    10  H    1.462429
    11  H    1.462429
    12  H    1.649944
 Sum of Mulliken charges =  -0.00000

 Dipole moment (field-independent basis, Debye):
    X=              0.0000    Y=              0.0000    Z=             -3.1646  Tot=              3.1646

 Test job not archived.
 1\1\GINC-SE146\SP\RHF\Aug-CC-pVDZ\C6H4F2\OHZDE\06-Apr-2025\0\\#t hf au
 g-cc-pvdz iop(5/13=1,5/36=2,99/5=2) pseudo=read geom=check guess=(read
 ,tcheck) scf=(maxcycle=1)\\title\\0,1\C,0,0.,0.694295,-0.532279\C,0,0.
 ,1.395728,0.658951\C,0,0.,0.694955,1.860549\C,0,0.,-0.694955,1.860549\
 C,0,0.,-1.395728,0.658951\C,0,0.,-0.694295,-0.532279\F,0,0.,-1.349838,
 -1.705237\F,0,0.,1.349838,-1.705237\H,0,0.,2.476041,0.629411\H,0,0.,1.
 238774,2.79439\H,0,0.,-1.238774,2.79439\H,0,0.,-2.476041,0.629411\\Ver
 sion=ES64L-G16RevC.01\State=1-A1\HF=-430.2061662\RMSD=1.701e+00\Dipole

 Normal termination of Gaussian 16 at Sun Apr  6 08:25:37 2025.
