 Gaussian 16, Revision C.01,

 ----------------------------------------------------------------------
 #t hf aug-cc-pvdz symm=none int=(grid=ultrafine) guess=(read,tcheck) s
 table=(opt,rrhf)
 ----------------------------------------------------------------------
 -----
 title
 -----
 Symbolic Z-matrix:
 Charge =  0 Multiplicity = 1

 SCF Done:  E(RHF) =  -206.660609626     A.U. after   14 cycles
 Normal termination of Gaussian 16 at Sun Apr  6 08:07:58 2025.
 Gaussian 16:  ES64L-G16RevC.01  3-Jul-2019

 ----------------------------------------------------------------------
 #t hf aug-cc-pvdz iop(5/13=1,5/36=2,99/5=2) pseudo=read geom=check gue
 ss=(read,tcheck) scf=(maxcycle=1)
 ----------------------------------------------------------------------
 -----
 title
 -----
 Structure from the checkpoint file:  "O-ethynylhydroxylamine.chk"
 Charge =  0 Multiplicity = 1

                         Standard orientation:
 ---------------------------------------------------------------------
 Center     Atomic      Atomic             Coordinates (Angstroms)
 Number     Number       Type             X           Y           Z
 ---------------------------------------------------------------------
      1          8           0       -0.485466    0.609325    0.000033
      2          7           0       -1.490658   -0.472251   -0.000012
      3          6           0        0.723672    0.132472    0.000000
      4          6           0        1.867234   -0.225589   -0.000026
      5          1           0       -2.052385   -0.232984   -0.814329
      6          1           0       -2.052359   -0.233078    0.814350
      7          1           0        2.877638   -0.544080   -0.000049
 ---------------------------------------------------------------------

 SCF Done:  E(RHF) =  -207.561215716     A.U. after    2 cycles

 The electronic state is 1-A.
 Alpha  occ. eigenvalues --  -21.13297 -15.82029 -11.44266 -11.38679  -1.84105
 Alpha  occ. eigenvalues --   -1.23483  -1.05189  -0.73221  -0.70342  -0.62981
 Alpha  occ. eigenvalues --   -0.62172  -0.50177  -0.41084  -0.35117  -0.29522
 Alpha virt. eigenvalues --    0.03271   0.04894   0.05923   0.09434   0.11863
 Alpha virt. eigenvalues --    0.12969   0.13557   0.14461   0.15797   0.16056
 Alpha virt. eigenvalues --    0.16268   0.17454   0.19088   0.21227   0.23681

 Mulliken charges:
               1
     1  O   -2.732242
     2  N   -0.501878
     3  C    2.101346
     4  C   -0.922138
     5  H    0.708975
     6  H    0.708974
     7  H    0.636964
 Sum of Mulliken charges =  -0.00000

 Dipole moment (field-independent basis, Debye):
    X=             -1.8914    Y=              0.2281    Z=              0.0000  Tot=              1.9051

 Test job not archived.
 1\1\GINC-SE253\SP\RHF\Aug-CC-pVDZ\C2H3N1O1\OHZDE\06-Apr-2025\0\\#t hf
 aug-cc-pvdz iop(5/13=1,5/36=2,99/5=2) pseudo=read geom=check guess=(re
 ad,tcheck) scf=(maxcycle=1)\\title\\0,1\O,0,-0.485466,0.609325,0.00003
 3\N,0,-1.490658,-0.472251,-0.000012\C,0,0.723672,0.132472,0.\C,0,1.867
 234,-0.225589,-0.000026\H,0,-2.052385,-0.232984,-0.814329\H,0,-2.05235
 9,-0.233078,0.81435\H,0,2.877638,-0.54408,-0.000049\\Version=ES64L-G16
 RevC.01\State=1-A\HF=-207.5612157\RMSD=4.999e-01\Dipole=-0.7441438,0.0
 897316,0.0000162\Quadrupole=4.6900478,-3.4685152,-1.2215326,-1.1050408

 Normal termination of Gaussian 16 at Sun Apr  6 08:08:00 2025.
