 Gaussian 16, Revision C.01,

 ----------------------------------------------------------------------
 #t hf aug-cc-pvdz symm=none int=(grid=ultrafine) guess=(read,tcheck) s
 table=(opt,rrhf)
 ----------------------------------------------------------------------
 -----
 title
 -----
 Symbolic Z-matrix:
 Charge =  0 Multiplicity = 1

 SCF Done:  E(RHF) =  -324.810578270     A.U. after   15 cycles
 Normal termination of Gaussian 16 at Sun Apr  6 08:25:39 2025.
 Gaussian 16:  ES64L-G16RevC.01  3-Jul-2019

 ----------------------------------------------------------------------
 #t hf aug-cc-pvdz iop(5/13=1,5/36=2,99/5=2) pseudo=read geom=check gue
 ss=(read,tcheck) scf=(maxcycle=1)
 ----------------------------------------------------------------------
 -----
 title
 -----
 Structure from the checkpoint file:  "o-toluidine.chk"
 Charge =  0 Multiplicity = 1

                         Standard orientation:
 ---------------------------------------------------------------------
 Center     Atomic      Atomic             Coordinates (Angstroms)
 Number     Number       Type             X           Y           Z
 ---------------------------------------------------------------------
      1          6           0       -1.885447   -0.818105    0.007501
      2          6           0       -1.975051    0.568351   -0.000697
      3          6           0       -0.628774   -1.412605    0.008802
      4          6           0       -0.822932    1.340246   -0.004708
      5          6           0        0.543272   -0.661462    0.000704
      6          6           0        0.440882    0.742403   -0.003804
      7          6           0        1.892339   -1.326343   -0.010307
      8          7           0        1.590034    1.533681   -0.069114
      9          1           0       -2.777857   -1.428092    0.012258
     10          1           0       -2.942118    1.053385   -0.001815
     11          1           0       -0.550202   -2.492945    0.013468
     12          1           0       -0.896227    2.421222   -0.012731
     13          1           0        2.483420   -1.022759   -0.878512
     14          1           0        2.479480   -1.078546    0.880504
     15          1           0        1.791170   -2.409860   -0.037583
     16          1           0        2.429428    1.133050    0.315391
     17          1           0        1.466927    2.493869    0.207873
 ---------------------------------------------------------------------

 SCF Done:  E(RHF) =  -326.393907602     A.U. after    2 cycles

 The electronic state is 1-A.
 Alpha  occ. eigenvalues --  -15.75409 -11.50530 -11.44710 -11.42266 -11.40200
 Alpha  occ. eigenvalues --  -11.39370 -11.38385 -11.35037  -1.41344  -1.26336
 Alpha  occ. eigenvalues --   -1.13911  -1.05275  -0.98753  -0.85647  -0.82332
 Alpha  occ. eigenvalues --   -0.69386  -0.67745  -0.64456  -0.58503  -0.57787
 Alpha  occ. eigenvalues --   -0.56624  -0.54321  -0.51165  -0.50509  -0.44369
 Alpha  occ. eigenvalues --   -0.42627  -0.42008  -0.31725  -0.26590
 Alpha virt. eigenvalues --    0.03548   0.04648   0.05024   0.05822   0.06173
 Alpha virt. eigenvalues --    0.06729   0.07100   0.07629   0.09081   0.11212
 Alpha virt. eigenvalues --    0.12056   0.12838   0.13021   0.13401   0.14084

 Mulliken charges:
               1
     1  C   -2.698801
     2  C   -1.423592
     3  C   -0.736268
     4  C   -3.029172
     5  C    3.630603
     6  C    2.387979
     7  C   -5.133426
     8  N   -4.146010
     9  H    1.528589
    10  H    1.518499
    11  H    1.759256
    12  H    1.692262
    13  H    1.068385
    14  H    1.040325
    15  H    1.224673
    16  H    0.643347
    17  H    0.673352
 Sum of Mulliken charges =  -0.00000

 Dipole moment (field-independent basis, Debye):
    X=              1.1008    Y=              0.5589    Z=              0.7000  Tot=              1.4192

 Test job not archived.
 1\1\GINC-SE208\SP\RHF\Aug-CC-pVDZ\C7H9N1\OHZDE\06-Apr-2025\0\\#t hf au
 g-cc-pvdz iop(5/13=1,5/36=2,99/5=2) pseudo=read geom=check guess=(read
 ,tcheck) scf=(maxcycle=1)\\title\\0,1\C,0,-1.885447,-0.818106,0.007501
 \C,0,-1.975051,0.56835,-0.000697\C,0,-0.628773,-1.412605,0.008802\C,0,
 -0.822932,1.340246,-0.004708\C,0,0.543272,-0.661462,0.000704\C,0,0.440
 882,0.742403,-0.003804\C,0,1.89234,-1.326342,-0.010307\N,0,1.590034,1.
 533681,-0.069114\H,0,-2.777856,-1.428093,0.012258\H,0,-2.942118,1.0533
 84,-0.001815\H,0,-0.550201,-2.492945,0.013468\H,0,-0.896228,2.421222,-

 Normal termination of Gaussian 16 at Sun Apr  6 08:26:33 2025.
