 Gaussian 16, Revision C.01,

 ----------------------------------------------------------------------
 #t hf aug-cc-pvdz symm=none int=(grid=ultrafine) guess=(read,tcheck) s
 table=(opt,rrhf)
 ----------------------------------------------------------------------
 -----
 title
 -----
 Symbolic Z-matrix:
 Charge =  0 Multiplicity = 1

 SCF Done:  E(RHF) =  -308.808365752     A.U. after   14 cycles
 Normal termination of Gaussian 16 at Sun Apr  6 08:25:43 2025.
 Gaussian 16:  ES64L-G16RevC.01  3-Jul-2019

 ----------------------------------------------------------------------
 #t hf aug-cc-pvdz iop(5/13=1,5/36=2,99/5=2) pseudo=read geom=check gue
 ss=(read,tcheck) scf=(maxcycle=1)
 ----------------------------------------------------------------------
 -----
 title
 -----
 Structure from the checkpoint file:  "o-xylene.chk"
 Charge =  0 Multiplicity = 1

                         Standard orientation:
 ---------------------------------------------------------------------
 Center     Atomic      Atomic             Coordinates (Angstroms)
 Number     Number       Type             X           Y           Z
 ---------------------------------------------------------------------
      1          6           0        0.000000    0.693498    1.952555
      2          6           0       -0.000000   -0.693498    1.952555
      3          6           0        0.000000    1.377876    0.743109
      4          6           0       -0.000000   -1.377876    0.743109
      5          6           0        0.000000    0.703110   -0.476273
      6          6           0       -0.000000   -0.703110   -0.476273
      7          6           0        0.000000    1.477433   -1.768050
      8          6           0       -0.000000   -1.477433   -1.768050
      9          1           0        0.000000    1.241957    2.885153
     10          1           0       -0.000000   -1.241957    2.885153
     11          1           0        0.000000    2.461031    0.743277
     12          1           0       -0.000000   -2.461031    0.743277
     13          1           0        0.876446    1.245249   -2.378000
     14          1           0       -0.876446    1.245249   -2.378000
     15          1           0        0.000000    2.550074   -1.580471
     16          1           0        0.876446   -1.245249   -2.378000
     17          1           0       -0.000000   -2.550074   -1.580471
     18          1           0       -0.876446   -1.245249   -2.378000
 ---------------------------------------------------------------------

 SCF Done:  E(RHF) =  -310.341772647     A.U. after    2 cycles

 The electronic state is 1-A1.
 Alpha  occ. eigenvalues --  -11.50632 -11.44548 -11.42005 -11.40278 -11.39881
 Alpha  occ. eigenvalues --  -11.39331 -11.37601 -11.34863  -1.35669  -1.14863
 Alpha  occ. eigenvalues --   -1.12563  -1.01212  -0.96936  -0.84475  -0.81196
 Alpha  occ. eigenvalues --   -0.68273  -0.62757  -0.61812  -0.59195  -0.56501
 Alpha  occ. eigenvalues --   -0.54826  -0.53321  -0.53151  -0.50038  -0.47489
 Alpha  occ. eigenvalues --   -0.42319  -0.41778  -0.31765  -0.30631
 Alpha virt. eigenvalues --    0.03513   0.04546   0.05220   0.05828   0.06265
 Alpha virt. eigenvalues --    0.06577   0.07087   0.07112   0.07513   0.09674
 Alpha virt. eigenvalues --    0.09763   0.11880   0.12682   0.12862   0.13135

 Mulliken charges:
               1
     1  C   -2.771308
     2  C   -2.771308
     3  C   -2.045964
     4  C   -2.045964
     5  C    3.700776
     6  C    3.700776
     7  C   -5.531526
     8  C   -5.531526
     9  H    1.527696
    10  H    1.527696
    11  H    1.791096
    12  H    1.791096
    13  H    1.006595
    14  H    1.006595
    15  H    1.316041
    16  H    1.006595
    17  H    1.316041
    18  H    1.006595
 Sum of Mulliken charges =   0.00000

 Dipole moment (field-independent basis, Debye):
    X=              0.0000    Y=              0.0000    Z=             -0.4818  Tot=              0.4818

 Test job not archived.
 1\1\GINC-SE209\SP\RHF\Aug-CC-pVDZ\C8H10\OHZDE\06-Apr-2025\0\\#t hf aug
 -cc-pvdz iop(5/13=1,5/36=2,99/5=2) pseudo=read geom=check guess=(read,
 tcheck) scf=(maxcycle=1)\\title\\0,1\C,0,0.,0.693498,1.952555\C,0,0.,-
 0.693498,1.952555\C,0,0.,1.377876,0.743109\C,0,0.,-1.377876,0.743109\C
 ,0,0.,0.70311,-0.476273\C,0,0.,-0.70311,-0.476273\C,0,0.,1.477433,-1.7
 6805\C,0,0.,-1.477433,-1.76805\H,0,0.,1.241957,2.885153\H,0,0.,-1.2419
 57,2.885153\H,0,0.,2.461031,0.743277\H,0,0.,-2.461031,0.743277\H,0,0.8
 76446,1.245249,-2.378\H,0,-0.876446,1.245249,-2.378\H,0,0.,2.550074,-1

 Normal termination of Gaussian 16 at Sun Apr  6 08:26:32 2025.
