 Gaussian 16, Revision C.01,

 ----------------------------------------------------------------------
 #t hf aug-cc-pvdz symm=none int=(grid=ultrafine) guess=(read,tcheck) s
 table=(opt,rrhf)
 ----------------------------------------------------------------------
 -----
 title
 -----
 Symbolic Z-matrix:
 Charge =  0 Multiplicity = 1

 SCF Done:  E(RHF) =  -387.172529376     A.U. after   13 cycles

 1\1\GINC-SE046\Stability\RHF\Aug-CC-pVDZ\C8H16O1\OHZDE\06-Apr-2025\0\\
 #t hf aug-cc-pvdz symm=none int=(grid=ultrafine) guess=(read,tcheck) s
 table=(opt,rrhf)\\title\\0,1\C,0,3.802531,1.530625,0.\C,0,-4.637584,-1
 .541445,0.\C,0,2.306092,1.687856,0.\C,0,-3.126767,-1.767415,0.\C,0,1.5
 12129,0.387412,0.\C,0,-2.319569,-0.468725,0.\C,0,0.,0.612534,0.\C,0,-0
 .806536,-0.686509,0.\O,0,4.392118,0.479692,0.\H,0,4.367576,2.486731,0.
 \H,0,-4.952565,-0.978042,0.880795\H,0,-5.181814,-2.486837,0.\H,0,-4.95
 2565,-0.978042,-0.880795\H,0,2.054742,2.311831,-0.867367\H,0,2.054742,

 Normal termination of Gaussian 16 at Sun Apr  6 08:27:07 2025.
 Gaussian 16:  ES64L-G16RevC.01  3-Jul-2019

 ----------------------------------------------------------------------
 #t hf aug-cc-pvdz iop(5/13=1,5/36=2,99/5=2) pseudo=read geom=check gue
 ss=(read,tcheck) scf=(maxcycle=1)
 ----------------------------------------------------------------------
 -----
 title
 -----
 Structure from the checkpoint file:  "octanal.chk"
 Charge =  0 Multiplicity = 1

                         Standard orientation:
 ---------------------------------------------------------------------
 Center     Atomic      Atomic             Coordinates (Angstroms)
 Number     Number       Type             X           Y           Z
 ---------------------------------------------------------------------
      1          6           0        3.802531    1.530625    0.000000
      2          6           0       -4.637584   -1.541445    0.000000
      3          6           0        2.306092    1.687856    0.000000
      4          6           0       -3.126767   -1.767415    0.000000
      5          6           0        1.512129    0.387412    0.000000
      6          6           0       -2.319569   -0.468725    0.000000
      7          6           0        0.000000    0.612534    0.000000
      8          6           0       -0.806536   -0.686509    0.000000
      9          8           0        4.392118    0.479693    0.000000
     10          1           0        4.367576    2.486732    0.000000
     11          1           0       -4.952565   -0.978042    0.880795
     12          1           0       -5.181814   -2.486837    0.000000
     13          1           0       -4.952565   -0.978042   -0.880795
     14          1           0        2.054742    2.311831   -0.867367
     15          1           0        2.054742    2.311831    0.867367
     16          1           0       -2.848014   -2.363887   -0.873950
     17          1           0       -2.848014   -2.363887    0.873950
     18          1           0        1.799348   -0.206318    0.870716
     19          1           0        1.799348   -0.206318   -0.870716
     20          1           0       -2.599270    0.128270   -0.874711
     21          1           0       -2.599270    0.128270    0.874711
     22          1           0       -0.279114    1.209821    0.874730
     23          1           0       -0.279114    1.209821   -0.874730
     24          1           0       -0.527370   -1.283394   -0.874398
     25          1           0       -0.527370   -1.283394    0.874398
 ---------------------------------------------------------------------

 SCF Done:  E(RHF) =  -389.085888521     A.U. after    2 cycles

 The electronic state is 1-A'.
 Alpha  occ. eigenvalues --  -21.06003 -11.48811 -11.43117 -11.42574 -11.41352
 Alpha  occ. eigenvalues --  -11.39571 -11.37421 -11.35986 -11.34074  -1.70719
 Alpha  occ. eigenvalues --   -1.28659  -1.20217  -1.10678  -1.01222  -0.92207
 Alpha  occ. eigenvalues --   -0.84763  -0.82165  -0.78731  -0.67315  -0.64954
 Alpha  occ. eigenvalues --   -0.63947  -0.59185  -0.58633  -0.56868  -0.53985
 Alpha  occ. eigenvalues --   -0.52667  -0.50129  -0.49109  -0.48509  -0.46012
 Alpha  occ. eigenvalues --   -0.45353  -0.45057  -0.44466  -0.42195  -0.38693
 Alpha  occ. eigenvalues --   -0.29041
 Alpha virt. eigenvalues --    0.03887   0.04384   0.04509   0.05304   0.05842
 Alpha virt. eigenvalues --    0.05919   0.05935   0.06482   0.06872   0.07154
 Alpha virt. eigenvalues --    0.07785   0.08468   0.09028   0.09456   0.10584

 Mulliken charges:
               1
     1  C    0.707840
     2  C   -4.719713
     3  C   -3.447210
     4  C   -3.525911
     5  C   -2.726306
     6  C   -2.625393
     7  C   -2.298616
     8  C   -2.347040
     9  O   -2.794902
    10  H    1.339974
    11  H    1.344057
    12  H    1.080252
    13  H    1.344057
    14  H    1.548121
    15  H    1.548121
    16  H    1.487497
    17  H    1.487497
    18  H    1.585045
    19  H    1.585045
    20  H    1.601818
    21  H    1.601818
    22  H    1.541959
    23  H    1.541959
    24  H    1.570013
    25  H    1.570013
 Sum of Mulliken charges =   0.00000

 Dipole moment (field-independent basis, Debye):
    X=             -1.1137    Y=              0.6179    Z=             -0.0000  Tot=              1.2737

 Test job not archived.
 1\1\GINC-SE046\SP\RHF\Aug-CC-pVDZ\C8H16O1\OHZDE\06-Apr-2025\0\\#t hf a
 ug-cc-pvdz iop(5/13=1,5/36=2,99/5=2) pseudo=read geom=check guess=(rea
 d,tcheck) scf=(maxcycle=1)\\title\\0,1\C,0,3.802531,1.530625,0.\C,0,-4
 .637584,-1.541445,0.\C,0,2.306092,1.687856,0.\C,0,-3.126767,-1.767415,
 0.\C,0,1.512129,0.387412,0.\C,0,-2.319569,-0.468725,0.\C,0,0.,0.612534
 ,0.\C,0,-0.806536,-0.686509,0.\O,0,4.392118,0.479692,0.\H,0,4.367576,2
 .486731,0.\H,0,-4.952565,-0.978042,0.880795\H,0,-5.181814,-2.486837,0.
 \H,0,-4.952565,-0.978042,-0.880795\H,0,2.054742,2.311831,-0.867367\H,0

 Normal termination of Gaussian 16 at Sun Apr  6 08:27:54 2025.
