 Gaussian 16, Revision C.01,

 ----------------------------------------------------------------------
 #t hf aug-cc-pvdz symm=none int=(grid=ultrafine) guess=(read,tcheck) s
 table=(opt,rrhf)
 ----------------------------------------------------------------------
 -----
 title
 -----
 Symbolic Z-matrix:
 Charge =  0 Multiplicity = 1

 SCF Done:  E(RHF) =  -368.505435032     A.U. after   12 cycles

 1\1\GINC-SE047\Stability\RHF\Aug-CC-pVDZ\C8H19N1\OHZDE\06-Apr-2025\0\\
 #t hf aug-cc-pvdz symm=none int=(grid=ultrafine) guess=(read,tcheck) s
 table=(opt,rrhf)\\title\\0,1\C,0,5.101251,-0.357927,-0.007494\C,0,3.82
 5718,0.482347,0.025964\C,0,2.547647,-0.356251,-0.014566\C,0,1.264914,0
 .475125,0.016833\C,0,-0.011971,-0.365198,-0.021296\C,0,-1.294964,0.466
 445,0.009286\C,0,-2.568842,-0.377394,-0.031588\C,0,-3.845971,0.454973,
 0.002143\N,0,-5.033409,-0.402959,-0.068536\H,0,5.152333,-0.96061,-0.91
 6686\H,0,5.145033,-1.041786,0.842745\H,0,5.99378,0.268535,0.02509\H,0,

 Normal termination of Gaussian 16 at Sun Apr  6 08:27:29 2025.
 Gaussian 16:  ES64L-G16RevC.01  3-Jul-2019

 ----------------------------------------------------------------------
 #t hf aug-cc-pvdz iop(5/13=1,5/36=2,99/5=2) pseudo=read geom=check gue
 ss=(read,tcheck) scf=(maxcycle=1)
 ----------------------------------------------------------------------
 -----
 title
 -----
 Structure from the checkpoint file:  "octanamine.chk"
 Charge =  0 Multiplicity = 1

                         Standard orientation:
 ---------------------------------------------------------------------
 Center     Atomic      Atomic             Coordinates (Angstroms)
 Number     Number       Type             X           Y           Z
 ---------------------------------------------------------------------
      1          6           0        5.101251   -0.357927   -0.007494
      2          6           0        3.825718    0.482347    0.025964
      3          6           0        2.547647   -0.356251   -0.014566
      4          6           0        1.264914    0.475125    0.016833
      5          6           0       -0.011971   -0.365198   -0.021296
      6          6           0       -1.294964    0.466445    0.009286
      7          6           0       -2.568842   -0.377394   -0.031588
      8          6           0       -3.845971    0.454973    0.002143
      9          7           0       -5.033409   -0.402959   -0.068536
     10          1           0        5.152333   -0.960610   -0.916686
     11          1           0        5.145033   -1.041786    0.842745
     12          1           0        5.993780    0.268535    0.025090
     13          1           0        3.820683    1.101568    0.928131
     14          1           0        3.825838    1.178470   -0.818216
     15          1           0        2.553701   -0.977563   -0.916520
     16          1           0        2.547940   -1.052494    0.830938
     17          1           0        1.260595    1.097575    0.917951
     18          1           0        1.264843    1.169787   -0.829777
     19          1           0       -0.007756   -0.987992   -0.921778
     20          1           0       -0.012300   -1.059295    0.825700
     21          1           0       -1.298111    1.089499    0.909813
     22          1           0       -1.294044    1.159823   -0.838338
     23          1           0       -2.580405   -0.997246   -0.931668
     24          1           0       -2.571992   -1.069529    0.818063
     25          1           0       -3.867157    1.118505   -0.865912
     26          1           0       -3.829717    1.101269    0.891642
     27          1           0       -5.881430    0.149049   -0.095245
     28          1           0       -5.094663   -0.999577    0.748129
 ---------------------------------------------------------------------

 SCF Done:  E(RHF) =  -370.420280491     A.U. after    2 cycles

 The electronic state is 1-A.
 Alpha  occ. eigenvalues --  -15.72237 -11.42667 -11.42252 -11.41155 -11.40194
 Alpha  occ. eigenvalues --  -11.38104 -11.36245 -11.35014 -11.33303  -1.34106
 Alpha  occ. eigenvalues --   -1.26822  -1.18176  -1.08933  -1.00125  -0.91994
 Alpha  occ. eigenvalues --   -0.85153  -0.82044  -0.81624  -0.67198  -0.65169
 Alpha  occ. eigenvalues --   -0.62977  -0.60519  -0.58699  -0.57054  -0.55374
 Alpha  occ. eigenvalues --   -0.54706  -0.52210  -0.50115  -0.47752  -0.46753
 Alpha  occ. eigenvalues --   -0.46132  -0.44926  -0.44589  -0.44478  -0.43923
 Alpha  occ. eigenvalues --   -0.36908  -0.34357
 Alpha virt. eigenvalues --    0.04226   0.04669   0.04691   0.05418   0.05484
 Alpha virt. eigenvalues --    0.05929   0.06117   0.06354   0.06632   0.06731
 Alpha virt. eigenvalues --    0.07023   0.07822   0.08537   0.09081   0.09415

 Mulliken charges:
               1
     1  C   -4.765479
     2  C   -3.557423
     3  C   -2.747431
     4  C   -2.064303
     5  C   -2.082702
     6  C   -2.677583
     7  C   -3.271300
     8  C   -3.025843
     9  N   -2.522308
    10  H    1.351525
    11  H    1.351038
    12  H    1.078867
    13  H    1.491650
    14  H    1.492767
    15  H    1.603378
    16  H    1.604305
    17  H    1.607540
    18  H    1.606256
    19  H    1.562377
    20  H    1.570868
    21  H    1.582895
    22  H    1.597804
    23  H    1.502118
    24  H    1.556407
    25  H    1.489558
    26  H    1.459506
    27  H    0.587114
    28  H    0.618401
 Sum of Mulliken charges =  -0.00000

 Dipole moment (field-independent basis, Debye):
    X=             -0.1624    Y=              0.5840    Z=              0.8018  Tot=              1.0052

 Test job not archived.
 1\1\GINC-SE047\SP\RHF\Aug-CC-pVDZ\C8H19N1\OHZDE\06-Apr-2025\0\\#t hf a
 ug-cc-pvdz iop(5/13=1,5/36=2,99/5=2) pseudo=read geom=check guess=(rea
 d,tcheck) scf=(maxcycle=1)\\title\\0,1\C,0,5.101251,-0.357927,-0.00749
 4\C,0,3.825718,0.482347,0.025964\C,0,2.547647,-0.356251,-0.014566\C,0,
 1.264914,0.475125,0.016833\C,0,-0.011971,-0.365198,-0.021296\C,0,-1.29
 4964,0.466445,0.009286\C,0,-2.568842,-0.377394,-0.031588\C,0,-3.845971
 ,0.454973,0.002143\N,0,-5.033409,-0.402959,-0.068536\H,0,5.152333,-0.9
 6061,-0.916686\H,0,5.145033,-1.041786,0.842745\H,0,5.99378,0.268535,0.

 Normal termination of Gaussian 16 at Sun Apr  6 08:28:00 2025.
