 Gaussian 16, Revision C.01,

 ----------------------------------------------------------------------
 #t hf aug-cc-pvdz symm=none int=(grid=ultrafine) guess=(read,tcheck) s
 table=(opt,rrhf)
 ----------------------------------------------------------------------
 -----
 title
 -----
 Symbolic Z-matrix:
 Charge =  0 Multiplicity = 1

 SCF Done:  E(RHF) =  -311.135771626     A.U. after   12 cycles
 Normal termination of Gaussian 16 at Sun Apr  6 08:26:22 2025.
 Gaussian 16:  ES64L-G16RevC.01  3-Jul-2019

 ----------------------------------------------------------------------
 #t hf aug-cc-pvdz iop(5/13=1,5/36=2,99/5=2) pseudo=read geom=check gue
 ss=(read,tcheck) scf=(maxcycle=1)
 ----------------------------------------------------------------------
 -----
 title
 -----
 Structure from the checkpoint file:  "octahydropentalene.chk"
 Charge =  0 Multiplicity = 1

                         Standard orientation:
 ---------------------------------------------------------------------
 Center     Atomic      Atomic             Coordinates (Angstroms)
 Number     Number       Type             X           Y           Z
 ---------------------------------------------------------------------
      1          6           0        0.107535   -2.168802    0.000000
      2          6           0       -0.072713   -1.229601    1.197282
      3          6           0       -0.072713   -1.229601   -1.197282
      4          6           0        0.643552    0.075590    0.785834
      5          6           0       -0.072713    1.375568    1.203592
      6          6           0       -0.955423    1.735879   -0.000000
      7          6           0       -0.072713    1.375568   -1.203592
      8          6           0        0.643552    0.075590   -0.785834
      9          1           0       -0.591384   -3.006411    0.000000
     10          1           0       -0.635977    1.262705   -2.131346
     11          1           0       -0.635977    1.262705    2.131346
     12          1           0        0.312527   -1.639812   -2.131505
     13          1           0       -1.275571    2.778231   -0.000000
     14          1           0        0.312527   -1.639812    2.131505
     15          1           0        1.117840   -2.587719    0.000000
     16          1           0       -1.860267    1.122424    0.000000
     17          1           0        1.664077    0.059193   -1.169844
     18          1           0        0.658197    2.171586   -1.366919
     19          1           0        1.664077    0.059193    1.169844
     20          1           0       -1.139228   -1.037507    1.348434
     21          1           0        0.658197    2.171586    1.366919
     22          1           0       -1.139228   -1.037507   -1.348434
 ---------------------------------------------------------------------

 SCF Done:  E(RHF) =  -312.739970658     A.U. after    2 cycles

 The electronic state is 1-A'.
 Alpha  occ. eigenvalues --  -11.48235 -11.43255 -11.42714 -11.40175 -11.37639
 Alpha  occ. eigenvalues --  -11.36828 -11.35231 -11.32271  -1.37267  -1.18200
 Alpha  occ. eigenvalues --   -1.07693  -0.99678  -0.95728  -0.82988  -0.80481
 Alpha  occ. eigenvalues --   -0.75926  -0.68622  -0.63273  -0.62865  -0.59734
 Alpha  occ. eigenvalues --   -0.58696  -0.52571  -0.49650  -0.46181  -0.45218
 Alpha  occ. eigenvalues --   -0.43465  -0.42453  -0.40768  -0.39889  -0.39811
 Alpha  occ. eigenvalues --   -0.39533
 Alpha virt. eigenvalues --    0.04462   0.04858   0.04933   0.05117   0.05264
 Alpha virt. eigenvalues --    0.05366   0.06199   0.06522   0.06973   0.08115
 Alpha virt. eigenvalues --    0.08182   0.08561   0.08911   0.09371   0.12940

 Mulliken charges:
               1
     1  C   -3.217237
     2  C   -3.061626
     3  C   -3.061626
     4  C   -0.709831
     5  C   -3.279224
     6  C   -2.607304
     7  C   -3.279224
     8  C   -0.709831
     9  H    1.215386
    10  H    1.436649
    11  H    1.436649
    12  H    1.265122
    13  H    1.272006
    14  H    1.265122
    15  H    1.492863
    16  H    1.496768
    17  H    1.572498
    18  H    1.287447
    19  H    1.572498
    20  H    1.662723
    21  H    1.287447
    22  H    1.662723
 Sum of Mulliken charges =  -0.00000

 Dipole moment (field-independent basis, Debye):
    X=              0.1404    Y=              0.0036    Z=             -0.0000  Tot=              0.1405

 Test job not archived.
 1\1\GINC-SE222\SP\RHF\Aug-CC-pVDZ\C8H14\OHZDE\06-Apr-2025\0\\#t hf aug
 -cc-pvdz iop(5/13=1,5/36=2,99/5=2) pseudo=read geom=check guess=(read,
 tcheck) scf=(maxcycle=1)\\title\\0,1\C,0,0.107535,-2.168802,0.\C,0,-0.
 072713,-1.229601,1.197282\C,0,-0.072713,-1.229601,-1.197282\C,0,0.6435
 52,0.07559,0.785834\C,0,-0.072713,1.375568,1.203592\C,0,-0.955423,1.73
 5879,0.\C,0,-0.072713,1.375568,-1.203592\C,0,0.643552,0.07559,-0.78583
 4\H,0,-0.591384,-3.006411,0.\H,0,-0.635977,1.262705,-2.131346\H,0,-0.6
 35977,1.262705,2.131346\H,0,0.312527,-1.639812,-2.131505\H,0,-1.275571

 Normal termination of Gaussian 16 at Sun Apr  6 08:26:34 2025.
