 Gaussian 16, Revision C.01,

 ----------------------------------------------------------------------
 #t hf aug-cc-pvdz symm=none int=(grid=ultrafine) guess=(read,tcheck) s
 table=(opt,rrhf)
 ----------------------------------------------------------------------
 -----
 title
 -----
 Symbolic Z-matrix:
 Charge =  0 Multiplicity = 1

 SCF Done:  E(RHF) =  -313.463855133     A.U. after   11 cycles
 Normal termination of Gaussian 16 at Sun Apr  6 08:26:48 2025.
 Gaussian 16:  ES64L-G16RevC.01  3-Jul-2019

 ----------------------------------------------------------------------
 #t hf aug-cc-pvdz iop(5/13=1,5/36=2,99/5=2) pseudo=read geom=check gue
 ss=(read,tcheck) scf=(maxcycle=1)
 ----------------------------------------------------------------------
 -----
 title
 -----
 Structure from the checkpoint file:  "octane.chk"
 Charge =  0 Multiplicity = 1

                         Standard orientation:
 ---------------------------------------------------------------------
 Center     Atomic      Atomic             Coordinates (Angstroms)
 Number     Number       Type             X           Y           Z
 ---------------------------------------------------------------------
      1          6           0       -2.743376   -0.386487    0.533004
      2          6           0       -3.403443    0.769047   -0.220309
      3          6           0       -1.628643   -1.096455   -0.247194
      4          6           0       -0.402478   -0.244625   -0.603456
      5          6           0        0.402478    0.244624    0.603457
      6          6           0        1.628643    1.096455    0.247194
      7          6           0        2.743376    0.386487   -0.533004
      8          6           0        3.403443   -0.769047    0.220308
      9          1           0       -3.803237    0.434641   -1.180362
     10          1           0       -4.230374    1.189255    0.353881
     11          1           0        3.507182    1.127157   -0.783972
     12          1           0        4.230374   -1.189255   -0.353882
     13          1           0        2.701500   -1.579527    0.420693
     14          1           0        3.803238   -0.434642    1.180362
     15          1           0       -2.701500    1.579527   -0.420694
     16          1           0        0.242366   -0.842416   -1.252097
     17          1           0       -2.055029   -1.496389   -1.172579
     18          1           0       -3.507182   -1.127157    0.783972
     19          1           0       -2.356936   -0.024239    1.488923
     20          1           0        1.295689    1.964325   -0.330509
     21          1           0        2.356936    0.024240   -1.488923
     22          1           0       -0.709119    0.617126   -1.204218
     23          1           0       -1.295689   -1.964325    0.330509
     24          1           0       -0.242366    0.842416    1.252098
     25          1           0        0.709119   -0.617127    1.204218
     26          1           0        2.055029    1.496389    1.172580
 ---------------------------------------------------------------------

 SCF Done:  E(RHF) =  -315.129646106     A.U. after    2 cycles

 The electronic state is 1-A.
 Alpha  occ. eigenvalues --  -11.42493 -11.42182 -11.40923 -11.39410 -11.37549
 Alpha  occ. eigenvalues --  -11.35835 -11.34564 -11.33302  -1.28122  -1.19752
 Alpha  occ. eigenvalues --   -1.10817  -1.02067  -0.94371  -0.88589  -0.81521
 Alpha  occ. eigenvalues --   -0.78215  -0.64947  -0.63246  -0.61550  -0.60918
 Alpha  occ. eigenvalues --   -0.56490  -0.55570  -0.54129  -0.52821  -0.50600
 Alpha  occ. eigenvalues --   -0.49421  -0.46885  -0.45608  -0.44161  -0.42579
 Alpha  occ. eigenvalues --   -0.42541  -0.40272  -0.39705
 Alpha virt. eigenvalues --    0.04127   0.04824   0.05099   0.05210   0.05444
 Alpha virt. eigenvalues --    0.05571   0.05896   0.06245   0.06420   0.06908
 Alpha virt. eigenvalues --    0.07122   0.08005   0.08381   0.08637   0.09753

 Mulliken charges:
               1
     1  C   -3.372417
     2  C   -3.751726
     3  C   -3.251072
     4  C   -2.566658
     5  C   -2.566663
     6  C   -3.251070
     7  C   -3.372416
     8  C   -3.751726
     9  H    1.290522
    10  H    1.149275
    11  H    1.325356
    12  H    1.149275
    13  H    1.455477
    14  H    1.290521
    15  H    1.455477
    16  H    1.587066
    17  H    1.295731
    18  H    1.325356
    19  H    1.673050
    20  H    1.390816
    21  H    1.673051
    22  H    1.774582
    23  H    1.390815
    24  H    1.587063
    25  H    1.774583
    26  H    1.295731
 Sum of Mulliken charges =  -0.00000

 Dipole moment (field-independent basis, Debye):
    X=             -0.0000    Y=             -0.0000    Z=             -0.0000  Tot=              0.0000

 Test job not archived.
 1\1\GINC-SE047\SP\RHF\Aug-CC-pVDZ\C8H18\OHZDE\06-Apr-2025\0\\#t hf aug
 -cc-pvdz iop(5/13=1,5/36=2,99/5=2) pseudo=read geom=check guess=(read,
 tcheck) scf=(maxcycle=1)\\title\\0,1\C,0,2.743376,0.386487,0.533004\C,
 0,3.403443,-0.769047,-0.220309\C,0,1.628643,1.096455,-0.247194\C,0,0.4
 02478,0.244625,-0.603456\C,0,-0.402478,-0.244624,0.603457\C,0,-1.62864
 3,-1.096455,0.247194\C,0,-2.743376,-0.386487,-0.533004\C,0,-3.403443,0
 .769047,0.220308\H,0,3.803237,-0.434641,-1.180362\H,0,4.230374,-1.1892
 55,0.353881\H,0,-3.507182,-1.127157,-0.783972\H,0,-4.230374,1.189255,-

 Normal termination of Gaussian 16 at Sun Apr  6 08:27:58 2025.
