 Gaussian 16, Revision C.01,

 ----------------------------------------------------------------------
 #t hf aug-cc-pvdz symm=none int=(grid=ultrafine) guess=(read,tcheck) s
 table=(opt,rrhf)
 ----------------------------------------------------------------------
 -----
 title
 -----
 Symbolic Z-matrix:
 Charge =  0 Multiplicity = 1

 SCF Done:  E(RHF) =  -387.183186490     A.U. after   13 cycles

 1\1\GINC-SE223\Stability\RHF\Aug-CC-pVDZ\C8H16O1\OHZDE\06-Apr-2025\0\\
 #t hf aug-cc-pvdz symm=none int=(grid=ultrafine) guess=(read,tcheck) s
 table=(opt,rrhf)\\title\\0,1\C,0,2.934682,0.194779,-0.004319\C,0,4.206
 745,-0.627668,0.015541\C,0,-4.735634,0.345804,0.007764\C,0,1.629987,-0
 .583788,-0.011871\C,0,-3.474297,-0.516071,-0.008273\C,0,0.371967,0.276
 168,0.007321\C,0,-2.183074,0.302813,0.008272\C,0,-0.914399,-0.550257,-
 0.008442\O,0,2.963972,1.405012,-0.011805\H,0,5.073473,0.025936,-0.0348
 23\H,0,4.252724,-1.223691,0.92974\H,0,4.223317,-1.329172,-0.820869\H,0

 Normal termination of Gaussian 16 at Sun Apr  6 08:26:50 2025.
 Gaussian 16:  ES64L-G16RevC.01  3-Jul-2019

 ----------------------------------------------------------------------
 #t hf aug-cc-pvdz iop(5/13=1,5/36=2,99/5=2) pseudo=read geom=check gue
 ss=(read,tcheck) scf=(maxcycle=1)
 ----------------------------------------------------------------------
 -----
 title
 -----
 Structure from the checkpoint file:  "octan-2-one.chk"
 Charge =  0 Multiplicity = 1

                         Standard orientation:
 ---------------------------------------------------------------------
 Center     Atomic      Atomic             Coordinates (Angstroms)
 Number     Number       Type             X           Y           Z
 ---------------------------------------------------------------------
      1          6           0        2.934682    0.194779   -0.004319
      2          6           0        4.206745   -0.627668    0.015541
      3          6           0       -4.735634    0.345804    0.007764
      4          6           0        1.629987   -0.583788   -0.011871
      5          6           0       -3.474297   -0.516071   -0.008273
      6          6           0        0.371967    0.276168    0.007321
      7          6           0       -2.183074    0.302813    0.008272
      8          6           0       -0.914399   -0.550257   -0.008442
      9          8           0        2.963972    1.405012   -0.011805
     10          1           0        5.073473    0.025936   -0.034823
     11          1           0        4.252724   -1.223691    0.929740
     12          1           0        4.223317   -1.329172   -0.820869
     13          1           0       -4.771299    1.007919   -0.859773
     14          1           0       -4.773151    0.972598    0.901088
     15          1           0       -5.638271   -0.266633   -0.005463
     16          1           0        1.647676   -1.270090    0.842461
     17          1           0        1.642249   -1.235279   -0.893437
     18          1           0       -3.483287   -1.191182    0.852863
     19          1           0       -3.482233   -1.157183   -0.895044
     20          1           0        0.388911    0.953592   -0.849010
     21          1           0        0.390148    0.917782    0.891046
     22          1           0       -2.174223    0.979058   -0.852885
     23          1           0       -2.174641    0.944692    0.895375
     24          1           0       -0.924559   -1.192399   -0.895918
     25          1           0       -0.924462   -1.226723    0.853135
 ---------------------------------------------------------------------

 SCF Done:  E(RHF) =  -389.099613288     A.U. after    2 cycles

 The electronic state is 1-A.
 Alpha  occ. eigenvalues --  -21.04480 -11.49654 -11.42988 -11.42095 -11.40700
 Alpha  occ. eigenvalues --  -11.38737 -11.37909 -11.36137 -11.34114  -1.70264
 Alpha  occ. eigenvalues --   -1.27679  -1.18487  -1.10919  -1.04115  -0.94756
 Alpha  occ. eigenvalues --   -0.85648  -0.82110  -0.73765  -0.66926  -0.63183
 Alpha  occ. eigenvalues --   -0.62684  -0.59137  -0.59036  -0.57527  -0.55723
 Alpha  occ. eigenvalues --   -0.53871  -0.50547  -0.50420  -0.48416  -0.46348
 Alpha  occ. eigenvalues --   -0.45275  -0.44989  -0.44393  -0.40619  -0.39116
 Alpha  occ. eigenvalues --   -0.27807
 Alpha virt. eigenvalues --    0.03598   0.04422   0.04546   0.05397   0.05857
 Alpha virt. eigenvalues --    0.05895   0.06291   0.06668   0.06756   0.07049
 Alpha virt. eigenvalues --    0.07409   0.08897   0.09183   0.09725   0.10063

 Mulliken charges:
               1
     1  C    4.850419
     2  C   -5.528173
     3  C   -4.705938
     4  C   -4.106260
     5  C   -3.444482
     6  C   -2.172976
     7  C   -2.606512
     8  C   -2.197202
     9  O   -3.454269
    10  H    1.309299
    11  H    1.308254
    12  H    1.320948
    13  H    1.344408
    14  H    1.344987
    15  H    1.085430
    16  H    1.623962
    17  H    1.598282
    18  H    1.481606
    19  H    1.484965
    20  H    1.592350
    21  H    1.586535
    22  H    1.572651
    23  H    1.566887
    24  H    1.568635
    25  H    1.576195
 Sum of Mulliken charges =  -0.00000

 Dipole moment (field-independent basis, Debye):
    X=             -0.2504    Y=             -1.3115    Z=              0.0092  Tot=              1.3352

 Test job not archived.
 1\1\GINC-SE223\SP\RHF\Aug-CC-pVDZ\C8H16O1\OHZDE\06-Apr-2025\0\\#t hf a
 ug-cc-pvdz iop(5/13=1,5/36=2,99/5=2) pseudo=read geom=check guess=(rea
 d,tcheck) scf=(maxcycle=1)\\title\\0,1\C,0,2.934682,0.194779,-0.004319
 \C,0,4.206745,-0.627668,0.015541\C,0,-4.735634,0.345804,0.007764\C,0,1
 .629987,-0.583788,-0.011871\C,0,-3.474297,-0.516071,-0.008273\C,0,0.37
 1967,0.276168,0.007321\C,0,-2.183074,0.302813,0.008272\C,0,-0.914399,-
 0.550257,-0.008442\O,0,2.963972,1.405012,-0.011805\H,0,5.073473,0.0259
 36,-0.034823\H,0,4.252724,-1.223691,0.92974\H,0,4.223317,-1.329172,-0.

 Normal termination of Gaussian 16 at Sun Apr  6 08:27:57 2025.
