 Gaussian 16, Revision C.01,

 ----------------------------------------------------------------------
 #t hf aug-cc-pvdz symm=none int=(grid=ultrafine) guess=(read,tcheck) s
 table=(opt,rrhf)
 ----------------------------------------------------------------------
 -----
 title
 -----
 Symbolic Z-matrix:
 Charge =  0 Multiplicity = 1

 SCF Done:  E(RHF) =  -312.280769704     A.U. after   13 cycles
 Normal termination of Gaussian 16 at Sun Apr  6 08:26:26 2025.
 Gaussian 16:  ES64L-G16RevC.01  3-Jul-2019

 ----------------------------------------------------------------------
 #t hf aug-cc-pvdz iop(5/13=1,5/36=2,99/5=2) pseudo=read geom=check gue
 ss=(read,tcheck) scf=(maxcycle=1)
 ----------------------------------------------------------------------
 -----
 title
 -----
 Structure from the checkpoint file:  "octene.chk"
 Charge =  0 Multiplicity = 1

                         Standard orientation:
 ---------------------------------------------------------------------
 Center     Atomic      Atomic             Coordinates (Angstroms)
 Number     Number       Type             X           Y           Z
 ---------------------------------------------------------------------
      1          6           0        4.339193   -0.239943    0.516430
      2          6           0        3.327634   -0.231568   -0.343062
      3          6           0       -4.298854   -0.403949    0.124866
      4          6           0        2.068612    0.568357   -0.199112
      5          6           0       -3.042666    0.464354    0.079878
      6          6           0        0.803711   -0.301438   -0.153528
      7          6           0       -1.749886   -0.346967   -0.014527
      8          6           0       -0.486737    0.513029   -0.061371
      9          1           0        5.218634   -0.848262    0.352660
     10          1           0        4.324601    0.365016    1.415596
     11          1           0        3.390219   -0.857805   -1.229651
     12          1           0       -4.383423   -1.021698   -0.771594
     13          1           0       -4.283461   -1.075093    0.986132
     14          1           0       -5.202181    0.203631    0.194727
     15          1           0        1.984175    1.258703   -1.046285
     16          1           0        2.125947    1.184941    0.701645
     17          1           0       -3.101914    1.147047   -0.773197
     18          1           0       -3.005278    1.097541    0.971468
     19          1           0        0.770340   -0.934721   -1.045813
     20          1           0        0.870178   -0.981984    0.700136
     21          1           0       -1.788071   -0.982079   -0.905996
     22          1           0       -1.691063   -1.029675    0.839789
     23          1           0       -0.544961    1.194564   -0.916651
     24          1           0       -0.449783    1.148628    0.829586
 ---------------------------------------------------------------------

 SCF Done:  E(RHF) =  -313.906044101     A.U. after    2 cycles

 The electronic state is 1-A.
 Alpha  occ. eigenvalues --  -11.43500 -11.42052 -11.41139 -11.39389 -11.37845
 Alpha  occ. eigenvalues --  -11.36559 -11.35642 -11.33763  -1.28591  -1.20333
 Alpha  occ. eigenvalues --   -1.11063  -1.02067  -0.93091  -0.84817  -0.81919
 Alpha  occ. eigenvalues --   -0.78159  -0.66634  -0.63700  -0.60664  -0.58332
 Alpha  occ. eigenvalues --   -0.57432  -0.55412  -0.52944  -0.51635  -0.49050
 Alpha  occ. eigenvalues --   -0.47696  -0.46075  -0.45593  -0.44858  -0.44258
 Alpha  occ. eigenvalues --   -0.39141  -0.33265
 Alpha virt. eigenvalues --    0.04152   0.04682   0.04814   0.05575   0.05674
 Alpha virt. eigenvalues --    0.05986   0.06386   0.06512   0.06623   0.07365
 Alpha virt. eigenvalues --    0.07710   0.08259   0.08775   0.09521   0.10535

 Mulliken charges:
               1
     1  C   -3.551884
     2  C   -0.552168
     3  C   -4.627748
     4  C   -3.918060
     5  C   -3.247058
     6  C   -2.725117
     7  C   -2.397224
     8  C   -2.062892
     9  H    1.400429
    10  H    1.397883
    11  H    1.451872
    12  H    1.338939
    13  H    1.340908
    14  H    1.079542
    15  H    1.390881
    16  H    1.417854
    17  H    1.488672
    18  H    1.465672
    19  H    1.555101
    20  H    1.548188
    21  H    1.575665
    22  H    1.551692
    23  H    1.504642
    24  H    1.574213
 Sum of Mulliken charges =  -0.00000

 Dipole moment (field-independent basis, Debye):
    X=             -0.4170    Y=              0.1342    Z=             -0.1370  Tot=              0.4590

 Test job not archived.
 1\1\GINC-SE084\SP\RHF\Aug-CC-pVDZ\C8H16\OHZDE\06-Apr-2025\0\\#t hf aug
 -cc-pvdz iop(5/13=1,5/36=2,99/5=2) pseudo=read geom=check guess=(read,
 tcheck) scf=(maxcycle=1)\\title\\0,1\C,0,4.339193,-0.239943,0.51643\C,
 0,3.327634,-0.231568,-0.343062\C,0,-4.298854,-0.403949,0.124866\C,0,2.
 068612,0.568357,-0.199112\C,0,-3.042666,0.464354,0.079878\C,0,0.803711
 ,-0.301438,-0.153528\C,0,-1.749886,-0.346967,-0.014527\C,0,-0.486737,0
 .513029,-0.061371\H,0,5.218634,-0.848262,0.35266\H,0,4.324601,0.365016
 ,1.415596\H,0,3.390219,-0.857805,-1.229651\H,0,-4.383423,-1.021698,-0.

 Normal termination of Gaussian 16 at Sun Apr  6 08:26:59 2025.
