 Gaussian 16, Revision C.01,

 ----------------------------------------------------------------------
 #t hf aug-cc-pvdz symm=none int=(grid=ultrafine) guess=(read,tcheck) s
 table=(opt,rrhf)
 ----------------------------------------------------------------------
 -----
 title
 -----
 Symbolic Z-matrix:
 Charge =  0 Multiplicity = 1

 SCF Done:  E(RHF) =  -311.072797207     A.U. after   13 cycles
 Normal termination of Gaussian 16 at Sun Apr  6 08:26:10 2025.
 Gaussian 16:  ES64L-G16RevC.01  3-Jul-2019

 ----------------------------------------------------------------------
 #t hf aug-cc-pvdz iop(5/13=1,5/36=2,99/5=2) pseudo=read geom=check gue
 ss=(read,tcheck) scf=(maxcycle=1)
 ----------------------------------------------------------------------
 -----
 title
 -----
 Structure from the checkpoint file:  "octyne.chk"
 Charge =  0 Multiplicity = 1

                         Standard orientation:
 ---------------------------------------------------------------------
 Center     Atomic      Atomic             Coordinates (Angstroms)
 Number     Number       Type             X           Y           Z
 ---------------------------------------------------------------------
      1          6           0       -3.346877   -3.031775    0.000000
      2          6           0       -2.834619   -1.946702    0.000000
      3          6           0        3.714400    1.932692    0.000000
      4          6           0       -2.190041   -0.639220    0.000000
      5          6           0        2.187929    1.995002    0.000000
      6          6           0       -0.653223   -0.713523    0.000000
      7          6           0        1.528109    0.615773    0.000000
      8          6           0       -0.000000    0.667374    0.000000
      9          1           0       -3.805160   -3.988782    0.000000
     10          1           0        4.087265    1.405598    0.880672
     11          1           0        4.155073    2.930520    0.000000
     12          1           0        4.087265    1.405598   -0.880672
     13          1           0       -2.527896   -0.075379   -0.874546
     14          1           0       -2.527896   -0.075379    0.874546
     15          1           0        1.845994    2.557334    0.874089
     16          1           0        1.845994    2.557334   -0.874089
     17          1           0       -0.326053   -1.280282   -0.874781
     18          1           0       -0.326053   -1.280282    0.874781
     19          1           0        1.870789    0.052846    0.874570
     20          1           0        1.870789    0.052846   -0.874570
     21          1           0       -0.342088    1.230153   -0.875038
     22          1           0       -0.342088    1.230153    0.875038
 ---------------------------------------------------------------------

 SCF Done:  E(RHF) =  -312.667763679     A.U. after    2 cycles

 The electronic state is 1-A'.
 Alpha  occ. eigenvalues --  -11.45447 -11.42515 -11.41641 -11.39978 -11.39429
 Alpha  occ. eigenvalues --  -11.38159 -11.36455 -11.34314  -1.28814  -1.19630
 Alpha  occ. eigenvalues --   -1.09733  -1.02138  -0.94106  -0.85490  -0.82386
 Alpha  occ. eigenvalues --   -0.72792  -0.67026  -0.62684  -0.61308  -0.58868
 Alpha  occ. eigenvalues --   -0.56975  -0.53805  -0.53067  -0.51200  -0.47253
 Alpha  occ. eigenvalues --   -0.46870  -0.45270  -0.44754  -0.41238  -0.35949
 Alpha  occ. eigenvalues --   -0.34784
 Alpha virt. eigenvalues --    0.03840   0.04501   0.04828   0.05285   0.05837
 Alpha virt. eigenvalues --    0.06252   0.06343   0.06646   0.06904   0.07811
 Alpha virt. eigenvalues --    0.08703   0.09269   0.09440   0.09455   0.11377

 Mulliken charges:
               1
     1  C   -4.129105
     2  C    4.127659
     3  C   -4.586831
     4  C   -4.353748
     5  C   -3.225854
     6  C   -2.666736
     7  C   -2.323148
     8  C   -2.180788
     9  H    0.706671
    10  H    1.334876
    11  H    1.076260
    12  H    1.334876
    13  H    1.333478
    14  H    1.333478
    15  H    1.462640
    16  H    1.462640
    17  H    1.549162
    18  H    1.549162
    19  H    1.554139
    20  H    1.554139
    21  H    1.543515
    22  H    1.543515
 Sum of Mulliken charges =   0.00000

 Dipole moment (field-independent basis, Debye):
    X=              0.5498    Y=              0.6876    Z=              0.0000  Tot=              0.8803

 Test job not archived.
 1\1\GINC-SE084\SP\RHF\Aug-CC-pVDZ\C8H14\OHZDE\06-Apr-2025\0\\#t hf aug
 -cc-pvdz iop(5/13=1,5/36=2,99/5=2) pseudo=read geom=check guess=(read,
 tcheck) scf=(maxcycle=1)\\title\\0,1\C,0,-3.346877,-3.031775,0.\C,0,-2
 .834619,-1.946702,0.\C,0,3.7144,1.932692,0.\C,0,-2.190041,-0.63922,0.\
 C,0,2.187929,1.995002,0.\C,0,-0.653223,-0.713523,0.\C,0,1.528109,0.615
 773,0.\C,0,0.,0.667374,0.\H,0,-3.80516,-3.988782,0.\H,0,4.087265,1.405
 598,0.880672\H,0,4.155073,2.93052,0.\H,0,4.087265,1.405598,-0.880672\H
 ,0,-2.527896,-0.075379,-0.874546\H,0,-2.527896,-0.075379,0.874546\H,0,

 Normal termination of Gaussian 16 at Sun Apr  6 08:26:33 2025.
