 Gaussian 16, Revision C.01,

 ----------------------------------------------------------------------
 #t hf aug-cc-pvdz symm=none int=(grid=ultrafine) guess=(read,tcheck) s
 table=(opt,rrhf)
 ----------------------------------------------------------------------
 -----
 title
 -----
 Symbolic Z-matrix:
 Charge =  0 Multiplicity = 1

 SCF Done:  E(RHF) =  -947.966703080     A.U. after   15 cycles
 Normal termination of Gaussian 16 at Sun Apr  6 08:24:52 2025.
 Gaussian 16:  ES64L-G16RevC.01  3-Jul-2019

 ----------------------------------------------------------------------
 #t hf aug-cc-pvdz iop(5/13=1,5/36=2,99/5=2) pseudo=read geom=check gue
 ss=(read,tcheck) scf=(maxcycle=1)
 ----------------------------------------------------------------------
 -----
 title
 -----
 Structure from the checkpoint file:  "oxadithiolane.chk"
 Charge =  0 Multiplicity = 1

                         Standard orientation:
 ---------------------------------------------------------------------
 Center     Atomic      Atomic             Coordinates (Angstroms)
 Number     Number       Type             X           Y           Z
 ---------------------------------------------------------------------
      1         16           0        0.050453   -1.283028    0.254896
      2         16           0        1.318485    0.295905   -0.230152
      3          8           0       -1.268669   -0.524942   -0.458383
      4          6           0        0.011028    1.451390    0.341037
      5          6           0       -1.372946    0.839492   -0.008592
      6          1           0        0.172362    2.395956   -0.175996
      7          1           0        0.109782    1.603307    1.412522
      8          1           0       -1.847818    1.369371   -0.831999
      9          1           0       -2.016476    0.879578    0.871964
 ---------------------------------------------------------------------

 SCF Done:  E(RHF) =  -949.115758106     A.U. after    2 cycles

 The electronic state is 1-A.
 Alpha  occ. eigenvalues --  -75.74525 -75.71029 -21.08079 -13.19702 -13.12860
 Alpha  occ. eigenvalues --  -13.11985 -13.09206 -13.07202 -13.03933 -11.45928
 Alpha  occ. eigenvalues --  -11.41037  -8.08215  -8.05045  -1.78070  -1.23688
 Alpha  occ. eigenvalues --   -1.13125  -0.92095  -0.87444  -0.68309  -0.65405
 Alpha  occ. eigenvalues --   -0.57078  -0.52192  -0.46612  -0.41339  -0.39059
 Alpha  occ. eigenvalues --   -0.33774  -0.27692  -0.20467
 Alpha virt. eigenvalues --    0.03088   0.04750   0.05135   0.05990   0.06634
 Alpha virt. eigenvalues --    0.07367   0.10332   0.12185   0.12797   0.13943
 Alpha virt. eigenvalues --    0.14340   0.14670   0.15287   0.16244   0.17845

 Mulliken charges:
               1
     1  S    0.731958
     2  S    0.381163
     3  O   -2.155187
     4  C   -3.316364
     5  C   -1.026832
     6  H    1.461195
     7  H    1.365363
     8  H    1.240689
     9  H    1.318013
 Sum of Mulliken charges =  -0.00000

 Dipole moment (field-independent basis, Debye):
    X=              0.5334    Y=              0.1616    Z=             -0.0293  Tot=              0.5581

 Test job not archived.
 1\1\GINC-SE085\SP\RHF\Aug-CC-pVDZ\C2H4O1S2\OHZDE\06-Apr-2025\0\\#t hf
 aug-cc-pvdz iop(5/13=1,5/36=2,99/5=2) pseudo=read geom=check guess=(re
 ad,tcheck) scf=(maxcycle=1)\\title\\0,1\S,0,0.050457,-1.283028,0.25489
 6\S,0,1.318484,0.295909,-0.230152\O,0,-1.268667,-0.524946,-0.458383\C,
 0,0.011024,1.45139,0.341037\C,0,-1.372949,0.839488,-0.008592\H,0,0.172
 355,2.395956,-0.175996\H,0,0.109777,1.603307,1.412522\H,0,-1.847822,1.
 369365,-0.831999\H,0,-2.016479,0.879572,0.871964\\Version=ES64L-G16Rev
 C.01\State=1-A\HF=-949.1157581\RMSD=1.551e-01\Dipole=0.2098417,0.06359

 Normal termination of Gaussian 16 at Sun Apr  6 08:24:56 2025.
