 Gaussian 16, Revision C.01,

 ----------------------------------------------------------------------
 #t hf aug-cc-pvdz symm=none int=(grid=ultrafine) guess=(read,tcheck) s
 table=(opt,rrhf)
 ----------------------------------------------------------------------
 -----
 title
 -----
 Symbolic Z-matrix:
 Charge =  0 Multiplicity = 1

 SCF Done:  E(RHF) =  -336.645040888     A.U. after   15 cycles
 Normal termination of Gaussian 16 at Sun Apr  6 08:24:55 2025.
 Gaussian 16:  ES64L-G16RevC.01  3-Jul-2019

 ----------------------------------------------------------------------
 #t hf aug-cc-pvdz iop(5/13=1,5/36=2,99/5=2) pseudo=read geom=check gue
 ss=(read,tcheck) scf=(maxcycle=1)
 ----------------------------------------------------------------------
 -----
 title
 -----
 Structure from the checkpoint file:  "oxadiazolidin-5-one.chk"
 Charge =  0 Multiplicity = 1

                         Standard orientation:
 ---------------------------------------------------------------------
 Center     Atomic      Atomic             Coordinates (Angstroms)
 Number     Number       Type             X           Y           Z
 ---------------------------------------------------------------------
      1          8           0       -0.105885   -1.140297   -0.063377
      2          8           0       -2.056550   -0.017889   -0.074554
      3          7           0        1.295288   -0.679344    0.308891
      4          7           0        1.383531    0.622036   -0.219008
      5          6           0       -0.862295   -0.019042    0.010796
      6          6           0        0.089800    1.168812    0.183518
      7          1           0        1.867042   -1.302225   -0.257604
      8          1           0        1.412350    0.590975   -1.239324
      9          1           0       -0.209208    2.014166   -0.427950
     10          1           0        0.112541    1.465110    1.233260
 ---------------------------------------------------------------------

 SCF Done:  E(RHF) =  -338.082899887     A.U. after    2 cycles

 The electronic state is 1-A.
 Alpha  occ. eigenvalues --  -21.11234 -21.06009 -15.83543 -15.79142 -11.52792
 Alpha  occ. eigenvalues --  -11.44420  -1.87732  -1.68838  -1.47289  -1.19370
 Alpha  occ. eigenvalues --   -0.98564  -0.80896  -0.76622  -0.68842  -0.61435
 Alpha  occ. eigenvalues --   -0.57625  -0.56830  -0.52903  -0.48162  -0.46529
 Alpha  occ. eigenvalues --   -0.37762  -0.30754  -0.28828
 Alpha virt. eigenvalues --    0.03378   0.04739   0.05293   0.06215   0.09572
 Alpha virt. eigenvalues --    0.10863   0.11688   0.12033   0.12702   0.13820
 Alpha virt. eigenvalues --    0.15557   0.16315   0.16817   0.17819   0.18758

 Mulliken charges:
               1
     1  O   -2.526116
     2  O   -3.089170
     3  N   -0.057152
     4  N   -1.004618
     5  C    5.278984
     6  C   -2.740896
     7  H    0.778171
     8  H    0.632603
     9  H    1.322820
    10  H    1.405373
 Sum of Mulliken charges =  -0.00000

 Dipole moment (field-independent basis, Debye):
    X=              2.0397    Y=              0.3577    Z=             -1.3104  Tot=              2.4506

 Test job not archived.
 1\1\GINC-SE085\SP\RHF\Aug-CC-pVDZ\C2H4N2O2\OHZDE\06-Apr-2025\0\\#t hf
 aug-cc-pvdz iop(5/13=1,5/36=2,99/5=2) pseudo=read geom=check guess=(re
 ad,tcheck) scf=(maxcycle=1)\\title\\0,1\O,0,-0.105885,-1.140297,-0.063
 377\O,0,-2.05655,-0.017889,-0.074554\N,0,1.295288,-0.679344,0.308891\N
 ,0,1.383531,0.622036,-0.219008\C,0,-0.862295,-0.019042,0.010796\C,0,0.
 0898,1.168812,0.183518\H,0,1.867042,-1.302225,-0.257604\H,0,1.41235,0.
 590975,-1.239324\H,0,-0.209208,2.014166,-0.42795\H,0,0.112541,1.46511,
 1.23326\\Version=ES64L-G16RevC.01\State=1-A\HF=-338.0828999\RMSD=1.818

 Normal termination of Gaussian 16 at Sun Apr  6 08:24:58 2025.
