 Gaussian 16, Revision C.01,

 ----------------------------------------------------------------------
 #t hf aug-cc-pvdz symm=none int=(grid=ultrafine) guess=(read,tcheck) s
 table=(opt,rrhf)
 ----------------------------------------------------------------------
 -----
 title
 -----
 Symbolic Z-matrix:
 Charge =  0 Multiplicity = 1

 SCF Done:  E(RHF) =  -336.786106719     A.U. after   12 cycles
 Normal termination of Gaussian 16 at Sun Apr  6 08:24:52 2025.
 Gaussian 16:  ES64L-G16RevC.01  3-Jul-2019

 ----------------------------------------------------------------------
 #t hf aug-cc-pvdz iop(5/13=1,5/36=2,99/5=2) pseudo=read geom=check gue
 ss=(read,tcheck) scf=(maxcycle=1)
 ----------------------------------------------------------------------
 -----
 title
 -----
 Structure from the checkpoint file:  "oxalamide.chk"
 Charge =  0 Multiplicity = 1

                         Standard orientation:
 ---------------------------------------------------------------------
 Center     Atomic      Atomic             Coordinates (Angstroms)
 Number     Number       Type             X           Y           Z
 ---------------------------------------------------------------------
      1          6           0        0.331694    0.699305   -0.000060
      2          6           0       -0.331694   -0.699305   -0.000060
      3          8           0       -0.331694    1.722137   -0.000002
      4          8           0        0.331694   -1.722137   -0.000002
      5          7           0        1.672475    0.623238   -0.000051
      6          7           0       -1.672475   -0.623238   -0.000051
      7          1           0        2.224941    1.462119    0.000258
      8          1           0        2.104637   -0.286302    0.000475
      9          1           0       -2.224941   -1.462119    0.000258
     10          1           0       -2.104637    0.286302    0.000475
 ---------------------------------------------------------------------

 SCF Done:  E(RHF) =  -338.231634009     A.U. after    2 cycles

 The electronic state is 1-A.
 Alpha  occ. eigenvalues --  -21.04998 -21.04948 -15.79500 -15.79445 -11.53612
 Alpha  occ. eigenvalues --  -11.49158  -1.74807  -1.70376  -1.36496  -1.36195
 Alpha  occ. eigenvalues --   -0.96991  -0.79849  -0.76086  -0.70984  -0.61510
 Alpha  occ. eigenvalues --   -0.60010  -0.56240  -0.50865  -0.49068  -0.37358
 Alpha  occ. eigenvalues --   -0.35146  -0.33052  -0.27359
 Alpha virt. eigenvalues --    0.03395   0.05144   0.06571   0.07026   0.10371
 Alpha virt. eigenvalues --    0.12054   0.12209   0.12373   0.12684   0.12762
 Alpha virt. eigenvalues --    0.14889   0.16117   0.16878   0.17420   0.18839

 Mulliken charges:
               1
     1  C    4.425608
     2  C    4.425608
     3  O   -3.126440
     4  O   -3.126440
     5  N   -2.829558
     6  N   -2.829558
     7  H    0.749659
     8  H    0.780731
     9  H    0.749659
    10  H    0.780731
 Sum of Mulliken charges =  -0.00000

 Dipole moment (field-independent basis, Debye):
    X=              0.0000    Y=              0.0000    Z=              0.0021  Tot=              0.0021

 Test job not archived.
 1\1\GINC-SE086\SP\RHF\Aug-CC-pVDZ\C2H4N2O2\OHZDE\06-Apr-2025\0\\#t hf
 aug-cc-pvdz iop(5/13=1,5/36=2,99/5=2) pseudo=read geom=check guess=(re
 ad,tcheck) scf=(maxcycle=1)\\title\\0,1\C,0,0.331694,0.699305,-0.00006
 \C,0,-0.331694,-0.699305,-0.00006\O,0,-0.331694,1.722137,-0.000002\O,0
 ,0.331694,-1.722137,-0.000002\N,0,1.672475,0.623238,-0.000051\N,0,-1.6
 72475,-0.623238,-0.000051\H,0,2.224941,1.462119,0.000258\H,0,2.104637,
 -0.286302,0.000475\H,0,-2.224941,-1.462119,0.000258\H,0,-2.104637,0.28
 6302,0.000475\\Version=ES64L-G16RevC.01\State=1-A\HF=-338.231634\RMSD=

 Normal termination of Gaussian 16 at Sun Apr  6 08:24:54 2025.
