 Gaussian 16, Revision C.01,

 ----------------------------------------------------------------------
 #t hf aug-cc-pvdz symm=none int=(grid=ultrafine) guess=(read,tcheck) s
 table=(opt,rrhf)
 ----------------------------------------------------------------------
 -----
 title
 -----
 Symbolic Z-matrix:
 Charge =  0 Multiplicity = 1

 SCF Done:  E(RHF) =  -376.438551576     A.U. after   12 cycles
 Normal termination of Gaussian 16 at Sun Apr  6 08:24:50 2025.
 Gaussian 16:  ES64L-G16RevC.01  3-Jul-2019

 ----------------------------------------------------------------------
 #t hf aug-cc-pvdz iop(5/13=1,5/36=2,99/5=2) pseudo=read geom=check gue
 ss=(read,tcheck) scf=(maxcycle=1)
 ----------------------------------------------------------------------
 -----
 title
 -----
 Structure from the checkpoint file:  "oxalic_acid.chk"
 Charge =  0 Multiplicity = 1

                         Standard orientation:
 ---------------------------------------------------------------------
 Center     Atomic      Atomic             Coordinates (Angstroms)
 Number     Number       Type             X           Y           Z
 ---------------------------------------------------------------------
      1          6           0       -0.054169    0.770269    0.000000
      2          6           0        0.054169   -0.770269    0.000000
      3          8           0       -1.121261    1.323096    0.000000
      4          8           0        1.121261   -1.323096    0.000000
      5          8           0        1.121261    1.380321    0.000000
      6          8           0       -1.121261   -1.380321    0.000000
      7          1           0        1.811137    0.691631    0.000000
      8          1           0       -1.811137   -0.691631    0.000000
 ---------------------------------------------------------------------

 SCF Done:  E(RHF) =  -377.957641285     A.U. after    2 cycles

 The electronic state is 1-AG.
 Alpha  occ. eigenvalues --  -21.16349 -21.16291 -21.10648 -21.10594 -11.58613
 Alpha  occ. eigenvalues --  -11.54373  -1.90171  -1.83359  -1.72793  -1.69007
 Alpha  occ. eigenvalues --   -1.00530  -0.79731  -0.79097  -0.64403  -0.61703
 Alpha  occ. eigenvalues --   -0.57753  -0.55266  -0.54624  -0.46006  -0.42320
 Alpha  occ. eigenvalues --   -0.38802  -0.36623  -0.31092
 Alpha virt. eigenvalues --    0.03748   0.06530   0.09535   0.09574   0.09734
 Alpha virt. eigenvalues --    0.10926   0.11119   0.11131   0.11532   0.15393
 Alpha virt. eigenvalues --    0.17664   0.19448   0.19846   0.22084   0.22718

 Mulliken charges:
               1
     1  C    4.689402
     2  C    4.689402
     3  O   -2.773910
     4  O   -2.773910
     5  O   -2.948781
     6  O   -2.948781
     7  H    1.033290
     8  H    1.033290
 Sum of Mulliken charges =   0.00000

 Dipole moment (field-independent basis, Debye):
    X=              0.0000    Y=             -0.0000    Z=              0.0000  Tot=              0.0000

 Test job not archived.
 1\1\GINC-SE086\SP\RHF\Aug-CC-pVDZ\C2H2O4\OHZDE\06-Apr-2025\0\\#t hf au
 g-cc-pvdz iop(5/13=1,5/36=2,99/5=2) pseudo=read geom=check guess=(read
 ,tcheck) scf=(maxcycle=1)\\title\\0,1\C,0,-0.054169,0.770269,0.\C,0,0.
 054169,-0.770269,0.\O,0,-1.121261,1.323096,0.\O,0,1.121261,-1.323096,0
 .\O,0,1.121261,1.380321,0.\O,0,-1.121261,-1.380321,0.\H,0,1.811137,0.6
 91631,0.\H,0,-1.811137,-0.691631,0.\\Version=ES64L-G16RevC.01\State=1-
 AG\HF=-377.9576413\RMSD=1.417e-01\Dipole=0.,0.,0.\Quadrupole=2.5988922
 ,-3.3685061,0.7696139,1.7852515,0.,0.\PG=C02H [SGH(C2H2O4)]\\@

 Normal termination of Gaussian 16 at Sun Apr  6 08:24:52 2025.
