 Gaussian 16, Revision C.01,

 ----------------------------------------------------------------------
 #t hf aug-cc-pvdz symm=none int=(grid=ultrafine) guess=(read,tcheck) s
 table=(opt,rrhf)
 ----------------------------------------------------------------------
 -----
 title
 -----
 Symbolic Z-matrix:
 Charge =  0 Multiplicity = 1

 SCF Done:  E(RHF) =  -356.608498753     A.U. after   14 cycles
 Normal termination of Gaussian 16 at Sun Apr  6 08:24:51 2025.
 Gaussian 16:  ES64L-G16RevC.01  3-Jul-2019

 ----------------------------------------------------------------------
 #t hf aug-cc-pvdz iop(5/13=1,5/36=2,99/5=2) pseudo=read geom=check gue
 ss=(read,tcheck) scf=(maxcycle=1)
 ----------------------------------------------------------------------
 -----
 title
 -----
 Structure from the checkpoint file:  "oxamic_acid.chk"
 Charge =  0 Multiplicity = 1

                         Standard orientation:
 ---------------------------------------------------------------------
 Center     Atomic      Atomic             Coordinates (Angstroms)
 Number     Number       Type             X           Y           Z
 ---------------------------------------------------------------------
      1          7           0       -1.545213    0.875723    0.000075
      2          1           0       -2.543731    0.764447    0.000029
      3          1           0       -1.130575    1.791761    0.000310
      4          8           0        1.533181   -0.905281    0.000099
      5          1           0        2.449443   -0.589401    0.000108
      6          8           0       -1.138032   -1.371045   -0.000085
      7          8           0        1.125098    1.307222   -0.000114
      8          6           0        0.739014    0.164691   -0.000013
      9          6           0       -0.759117   -0.222031   -0.000015
 ---------------------------------------------------------------------

 SCF Done:  E(RHF) =  -358.089441496     A.U. after    2 cycles

 The electronic state is 1-A.
 Alpha  occ. eigenvalues --  -21.14819 -21.08756 -21.05523 -15.79874 -11.55814
 Alpha  occ. eigenvalues --  -11.50989  -1.85997  -1.72107  -1.68729  -1.36746
 Alpha  occ. eigenvalues --   -0.99137  -0.79961  -0.74343  -0.64658  -0.61646
 Alpha  occ. eigenvalues --   -0.61464  -0.55110  -0.52221  -0.47701  -0.37717
 Alpha  occ. eigenvalues --   -0.36492  -0.34052  -0.28307
 Alpha virt. eigenvalues --    0.03345   0.05230   0.06377   0.10122   0.10977
 Alpha virt. eigenvalues --    0.11088   0.11795   0.12082   0.12267   0.14218
 Alpha virt. eigenvalues --    0.15875   0.16739   0.18141   0.18444   0.20773

 Mulliken charges:
               1
     1  N   -2.717617
     2  H    0.715044
     3  H    0.834751
     4  O   -2.918464
     5  H    0.886256
     6  O   -3.098316
     7  O   -2.911473
     8  C    5.254024
     9  C    3.955797
 Sum of Mulliken charges =  -0.00000

 Dipole moment (field-independent basis, Debye):
    X=             -0.0001    Y=              1.2185    Z=              0.0004  Tot=              1.2185

 Test job not archived.
 1\1\GINC-SE106\SP\RHF\Aug-CC-pVDZ\C2H3N1O3\OHZDE\06-Apr-2025\0\\#t hf
 aug-cc-pvdz iop(5/13=1,5/36=2,99/5=2) pseudo=read geom=check guess=(re
 ad,tcheck) scf=(maxcycle=1)\\title\\0,1\N,0,-1.545214,0.875722,0.00007
 5\H,0,-2.543731,0.764446,0.000029\H,0,-1.130576,1.791761,0.00031\O,0,1
 .533181,-0.90528,0.000099\H,0,2.449443,-0.5894,0.000108\O,0,-1.138031,
 -1.371045,-0.000085\O,0,1.125097,1.307223,-0.000114\C,0,0.739014,0.164
 691,-0.000013\C,0,-0.759117,-0.222031,-0.000015\\Version=ES64L-G16RevC
 .01\State=1-A\HF=-358.0894415\RMSD=1.694e-01\Dipole=-0.0000438,0.47938

 Normal termination of Gaussian 16 at Sun Apr  6 08:24:54 2025.
