 Gaussian 16, Revision C.01,

 ----------------------------------------------------------------------
 #t hf aug-cc-pvdz symm=none int=(grid=ultrafine) guess=(read,tcheck) s
 table=(opt,rrhf)
 ----------------------------------------------------------------------
 -----
 title
 -----
 Symbolic Z-matrix:
 Charge =  0 Multiplicity = 1

 SCF Done:  E(RHF) =  -717.041996904     A.U. after   16 cycles
 Normal termination of Gaussian 16 at Sun Apr  6 08:24:57 2025.
 Gaussian 16:  ES64L-G16RevC.01  3-Jul-2019

 ----------------------------------------------------------------------
 #t hf aug-cc-pvdz iop(5/13=1,5/36=2,99/5=2) pseudo=read geom=check gue
 ss=(read,tcheck) scf=(maxcycle=1)
 ----------------------------------------------------------------------
 -----
 title
 -----
 Structure from the checkpoint file:  "oxathiazin-4-one.chk"
 Charge =  0 Multiplicity = 1

                         Standard orientation:
 ---------------------------------------------------------------------
 Center     Atomic      Atomic             Coordinates (Angstroms)
 Number     Number       Type             X           Y           Z
 ---------------------------------------------------------------------
      1         16           0        1.225174   -0.898935   -0.254228
      2          8           0        1.535098    0.658588    0.407850
      3          8           0       -2.480973   -0.262291    0.091047
      4          7           0       -0.366881   -1.120825    0.191149
      5          6           0       -1.293951   -0.078457   -0.057482
      6          6           0       -0.684163    1.233340   -0.309598
      7          6           0        0.572566    1.541966    0.062753
      8          1           0       -1.361545    2.031989   -0.568230
      9          1           0       -0.591464   -1.718951    0.976121
     10          1           0        0.918677    2.564229    0.156502
 ---------------------------------------------------------------------

 SCF Done:  E(RHF) =  -718.643028374     A.U. after    2 cycles

 The electronic state is 1-A.
 Alpha  occ. eigenvalues --  -75.78075 -21.12434 -21.05292 -15.79364 -13.26085
 Alpha  occ. eigenvalues --  -13.20360 -13.12281 -11.52431 -11.50008 -11.40821
 Alpha  occ. eigenvalues --   -8.11777  -1.83209  -1.72379  -1.42063  -1.18410
 Alpha  occ. eigenvalues --   -1.03885  -0.92347  -0.77909  -0.70923  -0.66565
 Alpha  occ. eigenvalues --   -0.62175  -0.59010  -0.53209  -0.51556  -0.47953
 Alpha  occ. eigenvalues --   -0.44330  -0.38937  -0.31928  -0.29817  -0.25268
 Alpha virt. eigenvalues --    0.02923   0.04857   0.06144   0.06473   0.07835
 Alpha virt. eigenvalues --    0.09827   0.10388   0.11133   0.11666   0.13260
 Alpha virt. eigenvalues --    0.13644   0.14371   0.14481   0.14859   0.15340

 Mulliken charges:
               1
     1  S    1.650782
     2  O   -2.925933
     3  O   -3.172635
     4  N   -2.444393
     5  C    3.822658
     6  C   -1.332176
     7  C    0.980199
     8  H    1.321949
     9  H    0.555035
    10  H    1.544514
 Sum of Mulliken charges =  -0.00000

 Dipole moment (field-independent basis, Debye):
    X=              2.6934    Y=             -0.1374    Z=              0.1630  Tot=              2.7018

 Test job not archived.
 1\1\GINC-SE106\SP\RHF\Aug-CC-pVDZ\C3H3N1O2S1\OHZDE\06-Apr-2025\0\\#t h
 f aug-cc-pvdz iop(5/13=1,5/36=2,99/5=2) pseudo=read geom=check guess=(
 read,tcheck) scf=(maxcycle=1)\\title\\0,1\S,0,1.225174,-0.898935,-0.25
 4228\O,0,1.535098,0.658588,0.40785\O,0,-2.480973,-0.262291,0.091047\N,
 0,-0.366881,-1.120825,0.191149\C,0,-1.293951,-0.078457,-0.057482\C,0,-
 0.684163,1.23334,-0.309598\C,0,0.572566,1.541966,0.062753\H,0,-1.36154
 5,2.031989,-0.56823\H,0,-0.591464,-1.718951,0.976121\H,0,0.918677,2.56
 4229,0.156502\\Version=ES64L-G16RevC.01\State=1-A\HF=-718.6430284\RMSD

 Normal termination of Gaussian 16 at Sun Apr  6 08:25:01 2025.
