 Gaussian 16, Revision C.01,

 ----------------------------------------------------------------------
 #t hf aug-cc-pvdz symm=none int=(grid=ultrafine) guess=(read,tcheck) s
 table=(opt,rrhf)
 ----------------------------------------------------------------------
 -----
 title
 -----
 Symbolic Z-matrix:
 Charge =  0 Multiplicity = 1

 SCF Done:  E(RHF) =  -244.665712262     A.U. after   14 cycles
 Normal termination of Gaussian 16 at Sun Apr  6 08:24:49 2025.
 Gaussian 16:  ES64L-G16RevC.01  3-Jul-2019

 ----------------------------------------------------------------------
 #t hf aug-cc-pvdz iop(5/13=1,5/36=2,99/5=2) pseudo=read geom=check gue
 ss=(read,tcheck) scf=(maxcycle=1)
 ----------------------------------------------------------------------
 -----
 title
 -----
 Structure from the checkpoint file:  "oxazole.chk"
 Charge =  0 Multiplicity = 1

                         Standard orientation:
 ---------------------------------------------------------------------
 Center     Atomic      Atomic             Coordinates (Angstroms)
 Number     Number       Type             X           Y           Z
 ---------------------------------------------------------------------
      1          6           0        0.752140   -0.876732    0.000000
      2          6           0       -0.594330   -0.964738    0.000000
      3          6           0        0.000000    1.101527    0.000000
      4          7           0        1.118628    0.463667    0.000000
      5          8           0       -1.098400    0.308078    0.000000
      6          1           0        1.482368   -1.666223    0.000000
      7          1           0       -1.305329   -1.768953    0.000000
      8          1           0       -0.167090    2.164537    0.000000
 ---------------------------------------------------------------------

 SCF Done:  E(RHF) =  -245.747789302     A.U. after    2 cycles

 The electronic state is 1-A'.
 Alpha  occ. eigenvalues --  -21.13342 -15.74231 -11.46497 -11.45415 -11.39988
 Alpha  occ. eigenvalues --   -1.87526  -1.37620  -1.10173  -0.84061  -0.82631
 Alpha  occ. eigenvalues --   -0.74498  -0.61289  -0.57705  -0.56113  -0.46902
 Alpha  occ. eigenvalues --   -0.39743  -0.38103  -0.33859
 Alpha virt. eigenvalues --    0.03349   0.05373   0.05646   0.10025   0.10387
 Alpha virt. eigenvalues --    0.10930   0.11416   0.11641   0.13531   0.13900
 Alpha virt. eigenvalues --    0.15002   0.16099   0.16438   0.19544   0.19683

 Mulliken charges:
               1
     1  C   -0.140453
     2  C    0.686277
     3  C    1.714087
     4  N   -3.027208
     5  O   -3.276575
     6  H    1.170121
     7  H    1.216891
     8  H    1.656861
 Sum of Mulliken charges =   0.00000

 Dipole moment (field-independent basis, Debye):
    X=             -1.6786    Y=             -0.6206    Z=              0.0000  Tot=              1.7896

 Test job not archived.
 1\1\GINC-SE107\SP\RHF\Aug-CC-pVDZ\C3H3N1O1\OHZDE\06-Apr-2025\0\\#t hf
 aug-cc-pvdz iop(5/13=1,5/36=2,99/5=2) pseudo=read geom=check guess=(re
 ad,tcheck) scf=(maxcycle=1)\\title\\0,1\C,0,0.75214,-0.876732,0.\C,0,-
 0.59433,-0.964738,0.\C,0,0.,1.101527,0.\N,0,1.118628,0.463667,0.\O,0,-
 1.0984,0.308078,0.\H,0,1.482368,-1.666223,0.\H,0,-1.305329,-1.768953,0
 .\H,0,-0.16709,2.164537,0.\\Version=ES64L-G16RevC.01\State=1-A'\HF=-24
 5.7477893\RMSD=5.949e-01\Dipole=-0.6604033,-0.2441766,0.\Quadrupole=-1
 .8314257,3.4784837,-1.647058,-1.0936781,0.,0.\PG=CS [SG(C3H3N1O1)]\\@

 Normal termination of Gaussian 16 at Sun Apr  6 08:24:52 2025.
