 Gaussian 16, Revision C.01,

 ----------------------------------------------------------------------
 #t hf aug-cc-pvdz symm=none int=(grid=ultrafine) guess=(read,tcheck) s
 table=(opt,rrhf)
 ----------------------------------------------------------------------
 -----
 title
 -----
 Symbolic Z-matrix:
 Charge =  0 Multiplicity = 1

 SCF Done:  E(RHF) =  -320.756070421     A.U. after   13 cycles
 Normal termination of Gaussian 16 at Sun Apr  6 08:24:55 2025.
 Gaussian 16:  ES64L-G16RevC.01  3-Jul-2019

 ----------------------------------------------------------------------
 #t hf aug-cc-pvdz iop(5/13=1,5/36=2,99/5=2) pseudo=read geom=check gue
 ss=(read,tcheck) scf=(maxcycle=1)
 ----------------------------------------------------------------------
 -----
 title
 -----
 Structure from the checkpoint file:  "oxazolidin-2-one.chk"
 Charge =  0 Multiplicity = 1

                         Standard orientation:
 ---------------------------------------------------------------------
 Center     Atomic      Atomic             Coordinates (Angstroms)
 Number     Number       Type             X           Y           Z
 ---------------------------------------------------------------------
      1          6           0        0.863078   -0.004934   -0.012038
      2          6           0       -1.345484    0.742595    0.139382
      3          6           0       -1.296433   -0.772693   -0.105039
      4          7           0        0.032123    1.081398   -0.166734
      5          8           0        2.061521   -0.022202    0.030559
      6          8           0        0.084494   -1.127510    0.081246
      7          1           0       -2.049443    1.241627   -0.524845
      8          1           0       -1.609416    0.978619    1.174750
      9          1           0       -1.897195   -1.346525    0.595247
     10          1           0       -1.584158   -1.025162   -1.126673
     11          1           0        0.420261    1.989541    0.020394
 ---------------------------------------------------------------------

 SCF Done:  E(RHF) =  -322.149286471     A.U. after    2 cycles

 The electronic state is 1-A.
 Alpha  occ. eigenvalues --  -21.09014 -21.03267 -15.77160 -11.51699 -11.48472
 Alpha  occ. eigenvalues --  -11.41866  -1.85528  -1.66778  -1.40307  -1.11304
 Alpha  occ. eigenvalues --   -0.91503  -0.83264  -0.71535  -0.69906  -0.60869
 Alpha  occ. eigenvalues --   -0.58036  -0.55660  -0.54316  -0.49629  -0.42919
 Alpha  occ. eigenvalues --   -0.35206  -0.31574  -0.29651
 Alpha virt. eigenvalues --    0.02973   0.04892   0.05014   0.05342   0.05636
 Alpha virt. eigenvalues --    0.09423   0.10856   0.11567   0.12218   0.13198
 Alpha virt. eigenvalues --    0.13661   0.14174   0.14485   0.17029   0.17298

 Mulliken charges:
               1
     1  C    5.927243
     2  C   -2.447637
     3  C   -1.512881
     4  N   -2.278193
     5  O   -3.137802
     6  O   -2.799858
     7  H    1.366060
     8  H    1.384563
     9  H    1.405779
    10  H    1.425091
    11  H    0.667635
 Sum of Mulliken charges =  -0.00000

 Dipole moment (field-independent basis, Debye):
    X=             -3.5323    Y=              1.1579    Z=              0.3123  Tot=              3.7303

 Test job not archived.
 1\1\GINC-SE107\SP\RHF\Aug-CC-pVDZ\C3H5N1O2\OHZDE\06-Apr-2025\0\\#t hf
 aug-cc-pvdz iop(5/13=1,5/36=2,99/5=2) pseudo=read geom=check guess=(re
 ad,tcheck) scf=(maxcycle=1)\\title\\0,1\C,0,0.863078,-0.004934,-0.0120
 38\C,0,-1.345484,0.742595,0.139382\C,0,-1.296433,-0.772693,-0.105039\N
 ,0,0.032123,1.081398,-0.166734\O,0,2.061521,-0.022202,0.030559\O,0,0.0
 84494,-1.12751,0.081246\H,0,-2.049443,1.241627,-0.524845\H,0,-1.609416
 ,0.978619,1.17475\H,0,-1.897195,-1.346525,0.595247\H,0,-1.584158,-1.02
 5162,-1.126673\H,0,0.420261,1.989541,0.020394\\Version=ES64L-G16RevC.0

 Normal termination of Gaussian 16 at Sun Apr  6 08:24:59 2025.
