 Gaussian 16, Revision C.01,

 ----------------------------------------------------------------------
 #t hf aug-cc-pvdz symm=none int=(grid=ultrafine) guess=(read,tcheck) s
 table=(opt,rrhf)
 ----------------------------------------------------------------------
 -----
 title
 -----
 Symbolic Z-matrix:
 Charge =  0 Multiplicity = 1

 SCF Done:  E(RHF) =  -191.934934231     A.U. after   11 cycles
 Normal termination of Gaussian 16 at Sun Apr  6 08:24:49 2025.
 Gaussian 16:  ES64L-G16RevC.01  3-Jul-2019

 ----------------------------------------------------------------------
 #t hf aug-cc-pvdz iop(5/13=1,5/36=2,99/5=2) pseudo=read geom=check gue
 ss=(read,tcheck) scf=(maxcycle=1)
 ----------------------------------------------------------------------
 -----
 title
 -----
 Structure from the checkpoint file:  "oxetane.chk"
 Charge =  0 Multiplicity = 1

                         Standard orientation:
 ---------------------------------------------------------------------
 Center     Atomic      Atomic             Coordinates (Angstroms)
 Number     Number       Type             X           Y           Z
 ---------------------------------------------------------------------
      1          6           0       -0.000362   -0.062016    1.039066
      2          6           0       -0.000362   -0.062016   -1.039066
      3          1           0       -0.886662    1.703368    0.000000
      4          1           0        0.886384    1.702690    0.000000
      5          6           0       -0.000362    1.073690    0.000000
      6          1           0       -0.890999   -0.134448    1.666799
      7          1           0        0.889472   -0.133116    1.668112
      8          1           0       -0.890999   -0.134448   -1.666799
      9          1           0        0.889472   -0.133116   -1.668112
     10          8           0        0.001231   -1.071110   -0.000000
 ---------------------------------------------------------------------

 SCF Done:  E(RHF) =  -192.827817715     A.U. after    2 cycles

 The electronic state is 1-A'.
 Alpha  occ. eigenvalues --  -21.02780 -11.43828 -11.42383 -11.36784  -1.75036
 Alpha  occ. eigenvalues --   -1.11372  -0.98659  -0.80272  -0.68110  -0.66023
 Alpha  occ. eigenvalues --   -0.56556  -0.51466  -0.51082  -0.42597  -0.34954
 Alpha  occ. eigenvalues --   -0.28603
 Alpha virt. eigenvalues --    0.03769   0.05591   0.05753   0.05950   0.05979
 Alpha virt. eigenvalues --    0.07190   0.10744   0.10982   0.11966   0.13958
 Alpha virt. eigenvalues --    0.14291   0.15830   0.15979   0.18395   0.19003

 Mulliken charges:
               1
     1  C   -1.191914
     2  C   -1.191914
     3  H    1.172447
     4  H    1.172446
     5  C   -3.147804
     6  H    1.378145
     7  H    1.378107
     8  H    1.378145
     9  H    1.378107
    10  O   -2.325766
 Sum of Mulliken charges =  -0.00000

 Dipole moment (field-independent basis, Debye):
    X=             -0.0010    Y=              0.9898    Z=              0.0000  Tot=              0.9898

 Test job not archived.
 1\1\GINC-SE108\SP\RHF\Aug-CC-pVDZ\C3H6O1\OHZDE\06-Apr-2025\0\\#t hf au
 g-cc-pvdz iop(5/13=1,5/36=2,99/5=2) pseudo=read geom=check guess=(read
 ,tcheck) scf=(maxcycle=1)\\title\\0,1\C,0,-0.000362,-0.062016,1.039066
 \C,0,-0.000362,-0.062016,-1.039066\H,0,-0.886662,1.703368,0.\H,0,0.886
 384,1.70269,0.\C,0,-0.000362,1.07369,0.\H,0,-0.890999,-0.134448,1.6667
 99\H,0,0.889472,-0.133116,1.668112\H,0,-0.890999,-0.134448,-1.666799\H
 ,0,0.889472,-0.133116,-1.668112\O,0,0.001231,-1.07111,0.\\Version=ES64
 L-G16RevC.01\State=1-A'\HF=-192.8278177\RMSD=3.600e-01\Dipole=-0.00037

 Normal termination of Gaussian 16 at Sun Apr  6 08:24:52 2025.
