 Gaussian 16, Revision C.01,

 ----------------------------------------------------------------------
 #t hf aug-cc-pvdz symm=none int=(grid=ultrafine) guess=(read,tcheck) s
 table=(opt,rrhf)
 ----------------------------------------------------------------------
 -----
 title
 -----
 Symbolic Z-matrix:
 Charge =  0 Multiplicity = 1

 SCF Done:  E(RHF) =  -152.889036098     A.U. after   11 cycles
 Normal termination of Gaussian 16 at Sun Apr  6 08:24:47 2025.
 Gaussian 16:  ES64L-G16RevC.01  3-Jul-2019

 ----------------------------------------------------------------------
 #t hf aug-cc-pvdz iop(5/13=1,5/36=2,99/5=2) pseudo=read geom=check gue
 ss=(read,tcheck) scf=(maxcycle=1)
 ----------------------------------------------------------------------
 -----
 title
 -----
 Structure from the checkpoint file:  "oxirane.chk"
 Charge =  0 Multiplicity = 1

                         Standard orientation:
 ---------------------------------------------------------------------
 Center     Atomic      Atomic             Coordinates (Angstroms)
 Number     Number       Type             X           Y           Z
 ---------------------------------------------------------------------
      1          8           0        0.000000   -0.000000    0.854896
      2          6           0        0.000000    0.731605   -0.373327
      3          6           0       -0.000000   -0.731605   -0.373327
      4          1           0        0.917863    1.266951   -0.589809
      5          1           0       -0.917863    1.266951   -0.589809
      6          1           0       -0.917863   -1.266951   -0.589809
      7          1           0        0.917863   -1.266951   -0.589809
 ---------------------------------------------------------------------

 SCF Done:  E(RHF) =  -153.579000089     A.U. after    2 cycles

 The electronic state is 1-A1.
 Alpha  occ. eigenvalues --  -21.06061 -11.46000 -11.40773  -1.77271  -0.99171
 Alpha  occ. eigenvalues --   -0.89992  -0.69959  -0.62879  -0.53511  -0.45129
 Alpha  occ. eigenvalues --   -0.37699  -0.31011
 Alpha virt. eigenvalues --    0.03876   0.05506   0.05994   0.06020   0.10853
 Alpha virt. eigenvalues --    0.11086   0.12326   0.14271   0.16647   0.18179
 Alpha virt. eigenvalues --    0.19157   0.19907   0.20095   0.24297   0.28071

 Mulliken charges:
               1
     1  O   -2.184449
     2  C   -1.640023
     3  C   -1.640023
     4  H    1.366124
     5  H    1.366124
     6  H    1.366124
     7  H    1.366124
 Sum of Mulliken charges =  -0.00000

 Dipole moment (field-independent basis, Debye):
    X=              0.0000    Y=              0.0000    Z=             -0.5396  Tot=              0.5396

 Test job not archived.
 1\1\GINC-SE108\SP\RHF\Aug-CC-pVDZ\C2H4O1\OHZDE\06-Apr-2025\0\\#t hf au
 g-cc-pvdz iop(5/13=1,5/36=2,99/5=2) pseudo=read geom=check guess=(read
 ,tcheck) scf=(maxcycle=1)\\title\\0,1\O,0,0.,0.,0.854896\C,0,0.,0.7316
 05,-0.373327\C,0,0.,-0.731605,-0.373327\H,0,0.917863,1.266951,-0.58980
 9\H,0,-0.917863,1.266951,-0.589809\H,0,-0.917863,-1.266951,-0.589809\H
 ,0,0.917863,-1.266951,-0.589809\\Version=ES64L-G16RevC.01\State=1-A1\H
 F=-153.5790001\RMSD=4.150e-01\Dipole=0.,0.,-0.212289\Quadrupole=0.4559
 681,1.1214234,-1.5773914,0.,0.,0.\PG=C02V [C2(O1),SGV(C2),X(H4)]\\@

 Normal termination of Gaussian 16 at Sun Apr  6 08:24:50 2025.
