 Gaussian 16, Revision C.01,

 ----------------------------------------------------------------------
 #t hf aug-cc-pvdz symm=none int=(grid=ultrafine) guess=(read,tcheck) s
 table=(opt,rrhf)
 ----------------------------------------------------------------------
 -----
 title
 -----
 Symbolic Z-matrix:
 Charge =  0 Multiplicity = 1

 SCF Done:  E(RHF) =  -151.607843117     A.U. after   13 cycles
 Normal termination of Gaussian 16 at Sun Apr  6 08:24:46 2025.
 Gaussian 16:  ES64L-G16RevC.01  3-Jul-2019

 ----------------------------------------------------------------------
 #t hf aug-cc-pvdz iop(5/13=1,5/36=2,99/5=2) pseudo=read geom=check gue
 ss=(read,tcheck) scf=(maxcycle=1)
 ----------------------------------------------------------------------
 -----
 title
 -----
 Structure from the checkpoint file:  "oxirene.chk"
 Charge =  0 Multiplicity = 1

                         Standard orientation:
 ---------------------------------------------------------------------
 Center     Atomic      Atomic             Coordinates (Angstroms)
 Number     Number       Type             X           Y           Z
 ---------------------------------------------------------------------
      1          8           0       -0.749026   -0.493037    0.000000
      2          6           0        0.778446   -0.240644    0.000000
      3          6           0        0.000000    0.750804    0.000000
      4          1           0        1.619799   -0.896150    0.000000
      5          1           0       -0.298263    1.779489    0.000000
 ---------------------------------------------------------------------

 SCF Done:  E(RHF) =  -152.279253676     A.U. after    2 cycles

 The electronic state is 1-A'.
 Alpha  occ. eigenvalues --  -21.05777 -11.48086 -11.45985  -1.72294  -1.01577
 Alpha  occ. eigenvalues --   -0.84783  -0.71100  -0.52330  -0.44274  -0.40921
 Alpha  occ. eigenvalues --   -0.23189
 Alpha virt. eigenvalues --    0.03393   0.04596   0.09086   0.10610   0.11319
 Alpha virt. eigenvalues --    0.12504   0.12818   0.13468   0.15509   0.20687
 Alpha virt. eigenvalues --    0.21466   0.24946   0.26871   0.27072   0.29827

 Mulliken charges:
               1
     1  O   -1.872604
     2  C   -0.139704
     3  C    0.527403
     4  H    0.705175
     5  H    0.779730
 Sum of Mulliken charges =   0.00000

 Dipole moment (field-independent basis, Debye):
    X=              0.6094    Y=              0.6562    Z=              0.0000  Tot=              0.8955

 Test job not archived.
 1\1\GINC-SE170\SP\RHF\Aug-CC-pVDZ\C2H2O1\OHZDE\06-Apr-2025\0\\#t hf au
 g-cc-pvdz iop(5/13=1,5/36=2,99/5=2) pseudo=read geom=check guess=(read
 ,tcheck) scf=(maxcycle=1)\\title\\0,1\O,0,-0.749026,-0.493037,0.\C,0,0
 .778446,-0.240644,0.\C,0,0.,0.750804,0.\H,0,1.619799,-0.896149,0.\H,0,
 -0.298263,1.779489,0.\\Version=ES64L-G16RevC.01\State=1-A'\HF=-152.279
 2537\RMSD=1.036e+00\Dipole=0.239737,0.2581816,0.\Quadrupole=0.144919,1
 .8043822,-1.9493012,-2.2995247,0.,0.\PG=CS [SG(C2H2O1)]\\@

 Normal termination of Gaussian 16 at Sun Apr  6 08:24:47 2025.
