 Gaussian 16, Revision C.01,

 ----------------------------------------------------------------------
 #t hf aug-cc-pvdz symm=none int=(grid=ultrafine) guess=(read,tcheck) s
 table=(opt,rrhf)
 ----------------------------------------------------------------------
 -----
 title
 -----
 Symbolic Z-matrix:
 Charge =  0 Multiplicity = 1

 SCF Done:  E(RHF) =  -301.530989226     A.U. after   14 cycles
 Normal termination of Gaussian 16 at Sun Apr  6 08:24:49 2025.
 Gaussian 16:  ES64L-G16RevC.01  3-Jul-2019

 ----------------------------------------------------------------------
 #t hf aug-cc-pvdz iop(5/13=1,5/36=2,99/5=2) pseudo=read geom=check gue
 ss=(read,tcheck) scf=(maxcycle=1)
 ----------------------------------------------------------------------
 -----
 title
 -----
 Structure from the checkpoint file:  "oxoacetic_acid.chk"
 Charge =  0 Multiplicity = 1

                         Standard orientation:
 ---------------------------------------------------------------------
 Center     Atomic      Atomic             Coordinates (Angstroms)
 Number     Number       Type             X           Y           Z
 ---------------------------------------------------------------------
      1          6           0       -0.718651   -0.816155    0.000000
      2          6           0        0.000000    0.539124    0.000000
      3          8           0        1.331696    0.432025    0.000000
      4          8           0       -0.618671    1.571383    0.000000
      5          8           0       -0.159963   -1.873970    0.000000
      6          1           0       -1.815745   -0.700767    0.000000
      7          1           0        1.703152    1.327452    0.000000
 ---------------------------------------------------------------------

 SCF Done:  E(RHF) =  -302.755600711     A.U. after    2 cycles

 The electronic state is 1-A'.
 Alpha  occ. eigenvalues --  -21.15227 -21.11293 -21.09360 -11.55209 -11.50422
 Alpha  occ. eigenvalues --   -1.86090  -1.74309  -1.68889  -1.01765  -0.82217
 Alpha  occ. eigenvalues --   -0.66795  -0.62842  -0.60013  -0.58473  -0.48920
 Alpha  occ. eigenvalues --   -0.47094  -0.37682  -0.36545  -0.30179
 Alpha virt. eigenvalues --    0.03266   0.05878   0.09170   0.09831   0.10626
 Alpha virt. eigenvalues --    0.11236   0.12168   0.12286   0.12846   0.15623
 Alpha virt. eigenvalues --    0.18108   0.19248   0.20075   0.22181   0.23881

 Mulliken charges:
               1
     1  C    0.645144
     2  C    5.085202
     3  O   -2.740490
     4  O   -2.874813
     5  O   -2.589320
     6  H    1.586282
     7  H    0.887995
 Sum of Mulliken charges =  -0.00000

 Dipole moment (field-independent basis, Debye):
    X=              0.7502    Y=              0.1357    Z=              0.0000  Tot=              0.7624

 Test job not archived.
 1\1\GINC-SE167\SP\RHF\Aug-CC-pVDZ\C2H2O3\OHZDE\06-Apr-2025\0\\#t hf au
 g-cc-pvdz iop(5/13=1,5/36=2,99/5=2) pseudo=read geom=check guess=(read
 ,tcheck) scf=(maxcycle=1)\\title\\0,1\C,0,-0.718651,-0.816155,0.\C,0,0
 .,0.539124,0.\O,0,1.331696,0.432025,0.\O,0,-0.618671,1.571383,0.\O,0,-
 0.159963,-1.87397,0.\H,0,-1.815745,-0.700767,0.\H,0,1.703152,1.327452,
 0.\\Version=ES64L-G16RevC.01\State=1-A'\HF=-302.7556007\RMSD=1.411e-01
 \Dipole=0.2951654,0.0533758,0.\Quadrupole=1.2830473,-1.930402,0.647354
 7,3.0820139,0.,0.\PG=CS [SG(C2H2O3)]\\@

 Normal termination of Gaussian 16 at Sun Apr  6 08:24:51 2025.
