 Gaussian 16, Revision C.01,

 ----------------------------------------------------------------------
 #t hf aug-cc-pvdz symm=none int=(grid=ultrafine) guess=(read,tcheck) s
 table=(opt,rrhf)
 ----------------------------------------------------------------------
 -----
 title
 -----
 Symbolic Z-matrix:
 Charge =  0 Multiplicity = 1

 SCF Done:  E(RHF) =  -473.427731009     A.U. after   16 cycles
 Normal termination of Gaussian 16 at Sun Apr  6 08:26:03 2025.
 Gaussian 16:  ES64L-G16RevC.01  3-Jul-2019

 ----------------------------------------------------------------------
 #t hf aug-cc-pvdz iop(5/13=1,5/36=2,99/5=2) pseudo=read geom=check gue
 ss=(read,tcheck) scf=(maxcycle=1)
 ----------------------------------------------------------------------
 -----
 title
 -----
 Structure from the checkpoint file:  "p-aminobenzoic_acid.chk"
 Charge =  0 Multiplicity = 1

                         Standard orientation:
 ---------------------------------------------------------------------
 Center     Atomic      Atomic             Coordinates (Angstroms)
 Number     Number       Type             X           Y           Z
 ---------------------------------------------------------------------
      1          8           0        2.762394   -1.105018    0.003022
      2          6           0        2.156561    0.114744    0.002536
      3          8           0        2.803915    1.137760    0.005269
      4          6           0        0.686414    0.034495   -0.001330
      5          6           0       -0.049953    1.223608   -0.002784
      6          6           0       -1.429416    1.203832   -0.004972
      7          6           0       -2.123979   -0.016126   -0.004799
      8          7           0       -3.503279   -0.040515   -0.054095
      9          6           0       -1.386039   -1.209122   -0.004321
     10          6           0       -0.004739   -1.181360   -0.002372
     11          1           0        3.714017   -0.931351    0.005078
     12          1           0        0.483823    2.163304   -0.001130
     13          1           0       -1.984440    2.133422   -0.009930
     14          1           0       -3.992208    0.795011    0.217353
     15          1           0       -3.962914   -0.892079    0.218605
     16          1           0       -1.907089   -2.158183   -0.008827
     17          1           0        0.548189   -2.108876   -0.000570
 ---------------------------------------------------------------------

 SCF Done:  E(RHF) =  -475.548014498     A.U. after    2 cycles

 The electronic state is 1-A.
 Alpha  occ. eigenvalues --  -21.11163 -21.03786 -15.77635 -11.53103 -11.52193
 Alpha  occ. eigenvalues --  -11.46557 -11.44963 -11.42219 -11.41194 -11.37258
 Alpha  occ. eigenvalues --   -1.81814  -1.63993  -1.42754  -1.28407  -1.10625
 Alpha  occ. eigenvalues --   -1.08986  -0.91316  -0.88717  -0.79938  -0.71349
 Alpha  occ. eigenvalues --   -0.69626  -0.66190  -0.60934  -0.60089  -0.58922
 Alpha  occ. eigenvalues --   -0.57062  -0.54288  -0.53171  -0.49855  -0.45756
 Alpha  occ. eigenvalues --   -0.43654  -0.43209  -0.34602  -0.33147  -0.28862
 Alpha  occ. eigenvalues --   -0.27848
 Alpha virt. eigenvalues --    0.03056   0.04631   0.04688   0.05940   0.06925
 Alpha virt. eigenvalues --    0.07363   0.09037   0.09593   0.10671   0.11182
 Alpha virt. eigenvalues --    0.11318   0.12310   0.12751   0.13056   0.13516

 Mulliken charges:
               1
     1  O   -3.798777
     2  C    5.484769
     3  O   -3.589117
     4  C    1.514267
     5  C   -0.936893
     6  C   -1.820713
     7  C    0.395066
     8  N   -4.125618
     9  C   -2.691213
    10  C   -0.072029
    11  H    1.215447
    12  H    1.839754
    13  H    1.664756
    14  H    0.663253
    15  H    0.661774
    16  H    1.684328
    17  H    1.910946
 Sum of Mulliken charges =  -0.00000

 Dipole moment (field-independent basis, Debye):
    X=             -3.1496    Y=             -1.0942    Z=              0.6263  Tot=              3.3926

 Test job not archived.
 1\1\GINC-SE167\SP\RHF\Aug-CC-pVDZ\C7H7N1O2\OHZDE\06-Apr-2025\0\\#t hf
 aug-cc-pvdz iop(5/13=1,5/36=2,99/5=2) pseudo=read geom=check guess=(re
 ad,tcheck) scf=(maxcycle=1)\\title\\0,1\O,0,2.762394,-1.105018,0.00302
 2\C,0,2.156561,0.114744,0.002536\O,0,2.803915,1.13776,0.005269\C,0,0.6
 86414,0.034495,-0.00133\C,0,-0.049953,1.223608,-0.002784\C,0,-1.429416
 ,1.203832,-0.004972\C,0,-2.123979,-0.016126,-0.004799\N,0,-3.503279,-0
 .040515,-0.054095\C,0,-1.386039,-1.209122,-0.004321\C,0,-0.004739,-1.1
 8136,-0.002372\H,0,3.714017,-0.931351,0.005078\H,0,0.483823,2.163304,-

 Normal termination of Gaussian 16 at Sun Apr  6 08:26:48 2025.
