 Gaussian 16, Revision C.01,

 ----------------------------------------------------------------------
 #t hf aug-cc-pvdz symm=none int=(grid=ultrafine) guess=(read,tcheck) s
 table=(opt,rrhf)
 ----------------------------------------------------------------------
 -----
 title
 -----
 Symbolic Z-matrix:
 Charge =  0 Multiplicity = 1

 SCF Done:  E(RHF) =  -744.692908897     A.U. after   14 cycles
 Normal termination of Gaussian 16 at Sun Apr  6 08:25:26 2025.
 Gaussian 16:  ES64L-G16RevC.01  3-Jul-2019

 ----------------------------------------------------------------------
 #t hf aug-cc-pvdz iop(5/13=1,5/36=2,99/5=2) pseudo=read geom=check gue
 ss=(read,tcheck) scf=(maxcycle=1)
 ----------------------------------------------------------------------
 -----
 title
 -----
 Structure from the checkpoint file:  "p-chloroaniline.chk"
 Charge =  0 Multiplicity = 1

                         Standard orientation:
 ---------------------------------------------------------------------
 Center     Atomic      Atomic             Coordinates (Angstroms)
 Number     Number       Type             X           Y           Z
 ---------------------------------------------------------------------
      1          6           0        0.002824    1.104180    1.201145
      2          6           0        0.002824    1.104180   -1.201145
      3          6           0        0.002824   -0.282935    1.203368
      4          6           0        0.002824   -0.282935   -1.203368
      5          6           0        0.001749    1.821531   -0.000000
      6          6           0        0.002775   -0.973267    0.000000
      7          7           0        0.059244    3.213615   -0.000000
      8         17           0        0.000656   -2.729245    0.000000
      9          1           0        0.008179    1.636737    2.143798
     10          1           0        0.008179    1.636737   -2.143798
     11          1           0        0.002153   -0.824965    2.137851
     12          1           0        0.002153   -0.824965   -2.137851
     13          1           0       -0.270719    3.666897    0.836100
     14          1           0       -0.270719    3.666897   -0.836100
 ---------------------------------------------------------------------

 SCF Done:  E(RHF) =  -746.300197322     A.U. after    2 cycles

 The electronic state is 1-A'.
 Alpha  occ. eigenvalues --  -99.88508 -15.76621 -11.52277 -11.45915 -11.44574
 Alpha  occ. eigenvalues --  -11.43691 -11.41179 -11.37376 -10.45851  -9.65897
 Alpha  occ. eigenvalues --   -9.64986  -9.64817  -1.43235  -1.34635  -1.23330
 Alpha  occ. eigenvalues --   -1.10776  -1.04731  -0.89235  -0.85345  -0.72004
 Alpha  occ. eigenvalues --   -0.68798  -0.67633  -0.59694  -0.59136  -0.58610
 Alpha  occ. eigenvalues --   -0.56939  -0.52441  -0.49241  -0.48683  -0.44993
 Alpha  occ. eigenvalues --   -0.42834  -0.34428  -0.28278
 Alpha virt. eigenvalues --    0.03202   0.04673   0.04684   0.06162   0.06723
 Alpha virt. eigenvalues --    0.08466   0.08997   0.10223   0.10802   0.11624
 Alpha virt. eigenvalues --    0.12493   0.12830   0.12948   0.13417   0.14123

 Mulliken charges:
               1
     1  C   -0.705458
     2  C   -0.705458
     3  C   -0.754090
     4  C   -0.754090
     5  C    1.511140
     6  C   -2.041124
     7  N   -4.062689
     8  Cl  -0.852217
     9  H    1.737988
    10  H    1.737988
    11  H    1.810694
    12  H    1.810694
    13  H    0.633312
    14  H    0.633312
 Sum of Mulliken charges =   0.00000

 Dipole moment (field-independent basis, Debye):
    X=             -0.7462    Y=              3.8401    Z=              0.0000  Tot=              3.9119

 Test job not archived.
 1\1\GINC-SE168\SP\RHF\Aug-CC-pVDZ\C6H6Cl1N1\OHZDE\06-Apr-2025\0\\#t hf
  aug-cc-pvdz iop(5/13=1,5/36=2,99/5=2) pseudo=read geom=check guess=(r
 ead,tcheck) scf=(maxcycle=1)\\title\\0,1\C,0,0.002824,1.10418,1.201145
 \C,0,0.002824,1.10418,-1.201145\C,0,0.002824,-0.282935,1.203368\C,0,0.
 002824,-0.282935,-1.203368\C,0,0.001749,1.821531,0.\C,0,0.002775,-0.97
 3267,0.\N,0,0.059244,3.213615,0.\Cl,0,0.000656,-2.729245,0.\H,0,0.0081
 79,1.636737,2.143798\H,0,0.008179,1.636737,-2.143798\H,0,0.002153,-0.8
 24965,2.137851\H,0,0.002153,-0.824965,-2.137851\H,0,-0.270719,3.666897

 Normal termination of Gaussian 16 at Sun Apr  6 08:25:37 2025.
