 Gaussian 16, Revision C.01,

 ----------------------------------------------------------------------
 #t hf aug-cc-pvdz symm=none int=(grid=ultrafine) guess=(read,tcheck) s
 table=(opt,rrhf)
 ----------------------------------------------------------------------
 -----
 title
 -----
 Symbolic Z-matrix:
 Charge =  0 Multiplicity = 1

 SCF Done:  E(RHF) =  -344.641440604     A.U. after   15 cycles
 Normal termination of Gaussian 16 at Sun Apr  6 08:25:33 2025.
 Gaussian 16:  ES64L-G16RevC.01  3-Jul-2019

 ----------------------------------------------------------------------
 #t hf aug-cc-pvdz iop(5/13=1,5/36=2,99/5=2) pseudo=read geom=check gue
 ss=(read,tcheck) scf=(maxcycle=1)
 ----------------------------------------------------------------------
 -----
 title
 -----
 Structure from the checkpoint file:  "p-cresol.chk"
 Charge =  0 Multiplicity = 1

                         Standard orientation:
 ---------------------------------------------------------------------
 Center     Atomic      Atomic             Coordinates (Angstroms)
 Number     Number       Type             X           Y           Z
 ---------------------------------------------------------------------
      1          6           0        0.644121    1.194052   -0.006494
      2          6           0        0.662041   -1.191017   -0.006314
      3          6           0       -0.747351    1.189109   -0.001233
      4          6           0       -0.724096   -1.215100   -0.001196
      5          6           0        1.376677    0.009928   -0.007134
      6          6           0       -1.435402   -0.018408    0.002343
      7          6           0        2.883482    0.016860    0.008658
      8          8           0       -2.803606   -0.093184    0.005561
      9          1           0        1.164240    2.143785   -0.011774
     10          1           0        1.201078   -2.130513   -0.011627
     11          1           0       -1.293225    2.125496   -0.002769
     12          1           0       -1.266997   -2.150003   -0.002681
     13          1           0        3.293415   -0.687622   -0.716746
     14          1           0        3.277225    1.005159   -0.226732
     15          1           0        3.273067   -0.266943    0.989489
     16          1           0       -3.176785    0.793560    0.006570
 ---------------------------------------------------------------------

 SCF Done:  E(RHF) =  -346.259685555     A.U. after    2 cycles

 The electronic state is 1-A.
 Alpha  occ. eigenvalues --  -21.09884 -11.51235 -11.44714 -11.42746 -11.41923
 Alpha  occ. eigenvalues --  -11.39886 -11.38318 -11.35894  -1.75159  -1.33183
 Alpha  occ. eigenvalues --   -1.12476  -1.09391  -0.97996  -0.87718  -0.82439
 Alpha  occ. eigenvalues --   -0.69468  -0.65337  -0.62623  -0.57872  -0.57434
 Alpha  occ. eigenvalues --   -0.56779  -0.52791  -0.52704  -0.46945  -0.44096
 Alpha  occ. eigenvalues --   -0.41341  -0.41181  -0.33194  -0.26187
 Alpha virt. eigenvalues --    0.03418   0.04758   0.05039   0.06108   0.06535
 Alpha virt. eigenvalues --    0.06597   0.07182   0.08211   0.09881   0.10914
 Alpha virt. eigenvalues --    0.12377   0.13079   0.13484   0.13759   0.14150

 Mulliken charges:
               1
     1  C    0.200173
     2  C   -0.262183
     3  C   -4.893107
     4  C   -3.902125
     5  C    2.682046
     6  C    4.742908
     7  C   -5.314453
     8  O   -4.457005
     9  H    1.670531
    10  H    1.758310
    11  H    1.654064
    12  H    1.742664
    13  H    1.043234
    14  H    1.215257
    15  H    1.104581
    16  H    1.015104
 Sum of Mulliken charges =  -0.00000

 Dipole moment (field-independent basis, Debye):
    X=             -0.0732    Y=              0.5491    Z=              0.0192  Tot=              0.5543

 Test job not archived.
 1\1\GINC-SE168\SP\RHF\Aug-CC-pVDZ\C7H8O1\OHZDE\06-Apr-2025\0\\#t hf au
 g-cc-pvdz iop(5/13=1,5/36=2,99/5=2) pseudo=read geom=check guess=(read
 ,tcheck) scf=(maxcycle=1)\\title\\0,1\C,0,0.644121,1.194052,-0.006494\
 C,0,0.662041,-1.191017,-0.006314\C,0,-0.747351,1.189109,-0.001233\C,0,
 -0.724096,-1.2151,-0.001196\C,0,1.376677,0.009928,-0.007134\C,0,-1.435
 402,-0.018408,0.002343\C,0,2.883482,0.01686,0.008658\O,0,-2.803606,-0.
 093184,0.005561\H,0,1.16424,2.143785,-0.011774\H,0,1.201078,-2.130513,
 -0.011627\H,0,-1.293225,2.125496,-0.002769\H,0,-1.266997,-2.150003,-0.

 Normal termination of Gaussian 16 at Sun Apr  6 08:25:39 2025.
