 Gaussian 16, Revision C.01,

 ----------------------------------------------------------------------
 #t hf aug-cc-pvdz symm=none int=(grid=ultrafine) guess=(read,tcheck) s
 table=(opt,rrhf)
 ----------------------------------------------------------------------
 -----
 title
 -----
 Symbolic Z-matrix:
 Charge =  0 Multiplicity = 1

 SCF Done:  E(RHF) =  -525.971535005     A.U. after   17 cycles
 Normal termination of Gaussian 16 at Sun Apr  6 08:26:03 2025.
 Gaussian 16:  ES64L-G16RevC.01  3-Jul-2019

 ----------------------------------------------------------------------
 #t hf aug-cc-pvdz iop(5/13=1,5/36=2,99/5=2) pseudo=read geom=check gue
 ss=(read,tcheck) scf=(maxcycle=1)
 ----------------------------------------------------------------------
 -----
 title
 -----
 Structure from the checkpoint file:  "p-cyanonitrobenzene.chk"
 Charge =  0 Multiplicity = 1

                         Standard orientation:
 ---------------------------------------------------------------------
 Center     Atomic      Atomic             Coordinates (Angstroms)
 Number     Number       Type             X           Y           Z
 ---------------------------------------------------------------------
      1          8           0        0.000000    1.083262   -3.015657
      2          7           0        0.000000   -0.000000   -2.452829
      3          8           0       -0.000000   -1.083262   -3.015657
      4          6           0        0.000000   -0.000000   -0.973083
      5          6           0        0.000000   -1.215143   -0.304010
      6          6           0        0.000000   -1.213700    1.080544
      7          6           0        0.000000    0.000000    1.777046
      8          6           0        0.000000    0.000000    3.207339
      9          7           0        0.000000    0.000000    4.359138
     10          6           0        0.000000    1.213700    1.080544
     11          6           0        0.000000    1.215143   -0.304010
     12          1           0        0.000000   -2.135421   -0.866311
     13          1           0        0.000000   -2.145531    1.626371
     14          1           0        0.000000    2.145531    1.626371
     15          1           0        0.000000    2.135421   -0.866311
 ---------------------------------------------------------------------

 SCF Done:  E(RHF) =  -528.295064232     A.U. after    2 cycles

 The electronic state is 1-A1.
 Alpha  occ. eigenvalues --  -21.11408 -21.11291 -16.02041 -15.78692 -11.58880
 Alpha  occ. eigenvalues --  -11.51635 -11.50431 -11.50142 -11.47023 -11.46195
 Alpha  occ. eigenvalues --  -11.43313  -2.01999  -1.71129  -1.42873  -1.32265
 Alpha  occ. eigenvalues --   -1.21386  -1.15973  -1.05138  -0.93643  -0.88163
 Alpha  occ. eigenvalues --   -0.80858  -0.74330  -0.69753  -0.68087  -0.67205
 Alpha  occ. eigenvalues --   -0.64464  -0.60618  -0.58687  -0.57793  -0.52143
 Alpha  occ. eigenvalues --   -0.51668  -0.49228  -0.45705  -0.38908  -0.37670
 Alpha  occ. eigenvalues --   -0.37333  -0.33085  -0.33085
 Alpha virt. eigenvalues --    0.02138   0.04536   0.05537   0.05992   0.06081
 Alpha virt. eigenvalues --    0.07052   0.08014   0.09238   0.10126   0.10728
 Alpha virt. eigenvalues --    0.10996   0.11398   0.11934   0.12777   0.12845

 Mulliken charges:
               1
     1  O   -3.004408
     2  N    3.260333
     3  O   -3.004408
     4  C    1.894663
     5  C   -2.561422
     6  C   -1.142684
     7  C    4.043243
     8  C   -0.833974
     9  N   -2.223856
    10  C   -1.142684
    11  C   -2.561422
    12  H    1.857011
    13  H    1.781298
    14  H    1.781298
    15  H    1.857011
 Sum of Mulliken charges =  -0.00000

 Dipole moment (field-independent basis, Debye):
    X=              0.0000    Y=              0.0000    Z=             -0.7881  Tot=              0.7881

 Test job not archived.
 1\1\GINC-SE169\SP\RHF\Aug-CC-pVDZ\C7H4N2O2\OHZDE\06-Apr-2025\0\\#t hf
 aug-cc-pvdz iop(5/13=1,5/36=2,99/5=2) pseudo=read geom=check guess=(re
 ad,tcheck) scf=(maxcycle=1)\\title\\0,1\O,0,0.,1.083262,-3.015657\N,0,
 0.,0.,-2.452829\O,0,0.,-1.083262,-3.015657\C,0,0.,0.,-0.973083\C,0,0.,
 -1.215143,-0.30401\C,0,0.,-1.2137,1.080544\C,0,0.,0.,1.777046\C,0,0.,0
 .,3.207339\N,0,0.,0.,4.359138\C,0,0.,1.2137,1.080544\C,0,0.,1.215143,-
 0.30401\H,0,0.,-2.135421,-0.866311\H,0,0.,-2.145531,1.626371\H,0,0.,2.
 145531,1.626371\H,0,0.,2.135421,-0.866311\\Version=ES64L-G16RevC.01\St

 Normal termination of Gaussian 16 at Sun Apr  6 08:26:31 2025.
