 Gaussian 16, Revision C.01,

 ----------------------------------------------------------------------
 #t hf aug-cc-pvdz symm=none int=(grid=ultrafine) guess=(read,tcheck) s
 table=(opt,rrhf)
 ----------------------------------------------------------------------
 -----
 title
 -----
 Symbolic Z-matrix:
 Charge =  0 Multiplicity = 1

 SCF Done:  E(RHF) =  -428.454656907     A.U. after   12 cycles
 Normal termination of Gaussian 16 at Sun Apr  6 08:25:00 2025.
 Gaussian 16:  ES64L-G16RevC.01  3-Jul-2019

 ----------------------------------------------------------------------
 #t hf aug-cc-pvdz iop(5/13=1,5/36=2,99/5=2) pseudo=read geom=check gue
 ss=(read,tcheck) scf=(maxcycle=1)
 ----------------------------------------------------------------------
 -----
 title
 -----
 Structure from the checkpoint file:  "p-difluorobenzene.chk"
 Charge =  0 Multiplicity = 1

                         Standard orientation:
 ---------------------------------------------------------------------
 Center     Atomic      Atomic             Coordinates (Angstroms)
 Number     Number       Type             X           Y           Z
 ---------------------------------------------------------------------
      1          6           0        0.000000    0.000000    1.363040
      2          6           0        0.000000    0.000000   -1.363040
      3          6           0        0.000000    1.211776    0.695210
      4          6           0       -0.000000   -1.211776    0.695210
      5          6           0       -0.000000   -1.211776   -0.695210
      6          6           0        0.000000    1.211776   -0.695210
      7          9           0        0.000000    0.000000    2.715276
      8          9           0        0.000000    0.000000   -2.715276
      9          1           0        0.000000    2.134857    1.256229
     10          1           0       -0.000000   -2.134857    1.256229
     11          1           0       -0.000000   -2.134857   -1.256229
     12          1           0        0.000000    2.134857   -1.256229
 ---------------------------------------------------------------------

 SCF Done:  E(RHF) =  -430.214726314     A.U. after    2 cycles

 The electronic state is 1-AG.
 Alpha  occ. eigenvalues --  -29.28888 -29.28873 -11.55375 -11.49004 -11.46045
 Alpha  occ. eigenvalues --  -11.44625 -11.42213 -11.39539  -1.40224  -1.20434
 Alpha  occ. eigenvalues --   -1.13175  -0.98116  -0.91989  -0.78452  -0.76449
 Alpha  occ. eigenvalues --   -0.65102  -0.64281  -0.61395  -0.57763  -0.52796
 Alpha  occ. eigenvalues --   -0.50840  -0.48691  -0.39438  -0.38675  -0.36053
 Alpha  occ. eigenvalues --   -0.31333  -0.28887  -0.26941  -0.19623
 Alpha virt. eigenvalues --    0.03498   0.05106   0.05840   0.06818   0.09491
 Alpha virt. eigenvalues --    0.09862   0.11654   0.11981   0.12579   0.13274
 Alpha virt. eigenvalues --    0.13341   0.13463   0.14140   0.14397   0.15027

 Mulliken charges:
               1
     1  C    2.377209
     2  C    2.377209
     3  C   -3.166942
     4  C   -3.166942
     5  C   -3.166942
     6  C   -3.166942
     7  F    0.623218
     8  F    0.623218
     9  H    1.666728
    10  H    1.666728
    11  H    1.666728
    12  H    1.666728
 Sum of Mulliken charges =  -0.00000

 Dipole moment (field-independent basis, Debye):
    X=              0.0000    Y=              0.0000    Z=             -0.0000  Tot=              0.0000

 Test job not archived.
 1\1\GINC-SE249\SP\RHF\Aug-CC-pVDZ\C6H4F2\OHZDE\06-Apr-2025\0\\#t hf au
 g-cc-pvdz iop(5/13=1,5/36=2,99/5=2) pseudo=read geom=check guess=(read
 ,tcheck) scf=(maxcycle=1)\\title\\0,1\C,0,0.,0.,1.36304\C,0,0.,0.,-1.3
 6304\C,0,0.,1.211776,0.69521\C,0,0.,-1.211776,0.69521\C,0,0.,-1.211776
 ,-0.69521\C,0,0.,1.211776,-0.69521\F,0,0.,0.,2.715276\F,0,0.,0.,-2.715
 276\H,0,0.,2.134857,1.256229\H,0,0.,-2.134857,1.256229\H,0,0.,-2.13485
 7,-1.256229\H,0,0.,2.134857,-1.256229\\Version=ES64L-G16RevC.01\State=
 1-AG\HF=-430.2147263\RMSD=1.748e+00\Dipole=0.,0.,0.\Quadrupole=-5.8099

 Normal termination of Gaussian 16 at Sun Apr  6 08:25:03 2025.
