 Gaussian 16, Revision C.01,

 ----------------------------------------------------------------------
 #t hf aug-cc-pvdz symm=none int=(grid=ultrafine) guess=(read,tcheck) s
 table=(opt,rrhf)
 ----------------------------------------------------------------------
 -----
 title
 -----
 Symbolic Z-matrix:
 Charge =  0 Multiplicity = 1

 SCF Done:  E(RHF) =  -418.349327511     A.U. after   16 cycles
 Normal termination of Gaussian 16 at Sun Apr  6 08:25:38 2025.
 Gaussian 16:  ES64L-G16RevC.01  3-Jul-2019

 ----------------------------------------------------------------------
 #t hf aug-cc-pvdz iop(5/13=1,5/36=2,99/5=2) pseudo=read geom=check gue
 ss=(read,tcheck) scf=(maxcycle=1)
 ----------------------------------------------------------------------
 -----
 title
 -----
 Structure from the checkpoint file:  "p-formylphenol.chk"
 Charge =  0 Multiplicity = 1

                         Standard orientation:
 ---------------------------------------------------------------------
 Center     Atomic      Atomic             Coordinates (Angstroms)
 Number     Number       Type             X           Y           Z
 ---------------------------------------------------------------------
      1          6           0        1.264505    0.437243    0.000000
      2          6           0       -1.134314    0.204052    0.000000
      3          6           0        1.405404   -0.941236    0.000000
      4          6           0       -1.007552   -1.169144    0.000000
      5          6           0       -0.000000    1.026568    0.000000
      6          6           0        0.266706   -1.745847    0.000000
      7          6           0       -0.123034    2.491555    0.000000
      8          8           0       -1.167015    3.105905    0.000000
      9          8           0        0.332247   -3.103791    0.000000
     10          1           0        2.146215    1.066352    0.000000
     11          1           0       -2.110754    0.668386    0.000000
     12          1           0        2.389487   -1.394063    0.000000
     13          1           0       -1.872992   -1.816544    0.000000
     14          1           0        0.845206    3.032775    0.000000
     15          1           0        1.250697   -3.392963    0.000000
 ---------------------------------------------------------------------

 SCF Done:  E(RHF) =  -420.215312182     A.U. after    2 cycles

 The electronic state is 1-A'.
 Alpha  occ. eigenvalues --  -21.12415 -21.05289 -11.53810 -11.48415 -11.47707
 Alpha  occ. eigenvalues --  -11.45661 -11.42654 -11.42040 -11.38354  -1.78027
 Alpha  occ. eigenvalues --   -1.70125  -1.34349  -1.12139  -1.11307  -0.92733
 Alpha  occ. eigenvalues --   -0.89649  -0.81880  -0.72323  -0.68392  -0.63588
 Alpha  occ. eigenvalues --   -0.61434  -0.60300  -0.56373  -0.52756  -0.50912
 Alpha  occ. eigenvalues --   -0.49367  -0.46128  -0.43790  -0.40939  -0.35474
 Alpha  occ. eigenvalues --   -0.29180  -0.28082
 Alpha virt. eigenvalues --    0.02862   0.04437   0.05086   0.06211   0.07055
 Alpha virt. eigenvalues --    0.07628   0.09038   0.09145   0.10590   0.11268
 Alpha virt. eigenvalues --    0.11770   0.12337   0.12565   0.13247   0.13682

 Mulliken charges:
               1
     1  C    0.700776
     2  C   -0.856438
     3  C   -4.937935
     4  C   -3.380485
     5  C    2.838026
     6  C    4.453427
     7  C   -0.290802
     8  O   -3.191351
     9  O   -4.468340
    10  H    1.702404
    11  H    1.780146
    12  H    1.632338
    13  H    1.741056
    14  H    1.264206
    15  H    1.012971
 Sum of Mulliken charges =  -0.00000

 Dipole moment (field-independent basis, Debye):
    X=              1.5384    Y=             -2.4488    Z=              0.0000  Tot=              2.8920

 Test job not archived.
 1\1\GINC-SE273\SP\RHF\Aug-CC-pVDZ\C7H6O2\OHZDE\06-Apr-2025\0\\#t hf au
 g-cc-pvdz iop(5/13=1,5/36=2,99/5=2) pseudo=read geom=check guess=(read
 ,tcheck) scf=(maxcycle=1)\\title\\0,1\C,0,1.264505,0.437243,0.\C,0,-1.
 134314,0.204052,0.\C,0,1.405404,-0.941236,0.\C,0,-1.007552,-1.169144,0
 .\C,0,0.,1.026568,0.\C,0,0.266706,-1.745847,0.\C,0,-0.123034,2.491555,
 0.\O,0,-1.167015,3.105905,0.\O,0,0.332247,-3.103791,0.\H,0,2.146215,1.
 066352,0.\H,0,-2.110754,0.668386,0.\H,0,2.389487,-1.394063,0.\H,0,-1.8
 72992,-1.816544,0.\H,0,0.845206,3.032775,0.\H,0,1.250697,-3.392963,0.\

 Normal termination of Gaussian 16 at Sun Apr  6 08:26:32 2025.
