 Gaussian 16, Revision C.01,

 ----------------------------------------------------------------------
 #t hf aug-cc-pvdz symm=none int=(grid=ultrafine) guess=(read,tcheck) s
 table=(opt,rrhf)
 ----------------------------------------------------------------------
 -----
 title
 -----
 Symbolic Z-matrix:
 Charge =  0 Multiplicity = 1

 SCF Done:  E(RHF) =  -399.662524824     A.U. after   15 cycles
 Normal termination of Gaussian 16 at Sun Apr  6 08:25:46 2025.
 Gaussian 16:  ES64L-G16RevC.01  3-Jul-2019

 ----------------------------------------------------------------------
 #t hf aug-cc-pvdz iop(5/13=1,5/36=2,99/5=2) pseudo=read geom=check gue
 ss=(read,tcheck) scf=(maxcycle=1)
 ----------------------------------------------------------------------
 -----
 title
 -----
 Structure from the checkpoint file:  "p-methoxyaniline.chk"
 Charge =  0 Multiplicity = 1

                         Standard orientation:
 ---------------------------------------------------------------------
 Center     Atomic      Atomic             Coordinates (Angstroms)
 Number     Number       Type             X           Y           Z
 ---------------------------------------------------------------------
      1          6           0        0.968305   -1.191866   -0.005659
      2          6           0        1.297498    1.177941   -0.005925
      3          6           0       -0.412677   -1.004932   -0.001215
      4          6           0       -0.072135    1.370804   -0.000176
      5          6           0        1.845461   -0.110566   -0.007083
      6          6           0       -0.943492    0.281050    0.001739
      7          6           0       -3.203619   -0.496341    0.002648
      8          7           0        3.234655   -0.299516   -0.075261
      9          8           0       -2.281512    0.577362    0.007741
     10          1           0        1.361714   -2.200914   -0.013324
     11          1           0        1.955088    2.038508   -0.014741
     12          1           0       -1.054456   -1.872710    0.000780
     13          1           0       -0.487426    2.369078    0.002544
     14          1           0       -3.093299   -1.125308    0.890843
     15          1           0       -3.093184   -1.116539   -0.891616
     16          1           0       -4.192458   -0.045145    0.004971
     17          1           0        3.556642   -1.185853    0.280103
     18          1           0        3.780840    0.460055    0.299362
 ---------------------------------------------------------------------

 SCF Done:  E(RHF) =  -401.534664463     A.U. after    2 cycles

 The electronic state is 1-A.
 Alpha  occ. eigenvalues --  -21.06222 -15.75036 -11.52087 -11.44800 -11.43150
 Alpha  occ. eigenvalues --  -11.42448 -11.40741 -11.39637 -11.35816  -1.77617
 Alpha  occ. eigenvalues --   -1.39664  -1.24546  -1.09473  -1.05505  -0.97294
 Alpha  occ. eigenvalues --   -0.87657  -0.82185  -0.70006  -0.67318  -0.65511
 Alpha  occ. eigenvalues --   -0.61764  -0.61547  -0.58221  -0.57178  -0.53721
 Alpha  occ. eigenvalues --   -0.52274  -0.48032  -0.45721  -0.44392  -0.38380
 Alpha  occ. eigenvalues --   -0.35293  -0.33064  -0.22892
 Alpha virt. eigenvalues --    0.03470   0.04918   0.05006   0.05533   0.06515
 Alpha virt. eigenvalues --    0.06595   0.07147   0.07900   0.09160   0.10340
 Alpha virt. eigenvalues --    0.11472   0.12101   0.13124   0.13530   0.14035

 Mulliken charges:
               1
     1  C   -0.763684
     2  C   -1.232353
     3  C   -2.275233
     4  C   -3.249125
     5  C    1.983281
     6  C    5.359783
     7  C   -3.657859
     8  N   -4.022694
     9  O   -4.738225
    10  H    1.708779
    11  H    1.721320
    12  H    1.869512
    13  H    1.901645
    14  H    1.371686
    15  H    1.370007
    16  H    1.410759
    17  H    0.623556
    18  H    0.618844
 Sum of Mulliken charges =  -0.00000

 Dipole moment (field-independent basis, Debye):
    X=              0.2714    Y=             -0.4336    Z=              0.8096  Tot=              0.9576

 Test job not archived.
 1\1\GINC-SE398\SP\RHF\Aug-CC-pVDZ\C7H9N1O1\OHZDE\06-Apr-2025\0\\#t hf
 aug-cc-pvdz iop(5/13=1,5/36=2,99/5=2) pseudo=read geom=check guess=(re
 ad,tcheck) scf=(maxcycle=1)\\title\\0,1\C,0,0.968305,-1.191866,-0.0056
 59\C,0,1.297498,1.177941,-0.005925\C,0,-0.412677,-1.004932,-0.001215\C
 ,0,-0.072135,1.370804,-0.000176\C,0,1.845461,-0.110566,-0.007083\C,0,-
 0.943492,0.28105,0.001739\C,0,-3.203619,-0.496341,0.002648\N,0,3.23465
 5,-0.299516,-0.075261\O,0,-2.281512,0.577362,0.007741\H,0,1.361714,-2.
 200914,-0.013324\H,0,1.955088,2.038508,-0.014741\H,0,-1.054456,-1.8727

 Normal termination of Gaussian 16 at Sun Apr  6 08:26:35 2025.
