 Gaussian 16, Revision C.01,

 ----------------------------------------------------------------------
 #t hf aug-cc-pvdz symm=none int=(grid=ultrafine) guess=(read,tcheck) s
 table=(opt,rrhf)
 ----------------------------------------------------------------------
 -----
 title
 -----
 Symbolic Z-matrix:
 Charge =  0 Multiplicity = 1

 SCF Done:  E(RHF) =  -457.371437396     A.U. after   16 cycles
 Normal termination of Gaussian 16 at Sun Apr  6 08:26:06 2025.
 Gaussian 16:  ES64L-G16RevC.01  3-Jul-2019

 ----------------------------------------------------------------------
 #t hf aug-cc-pvdz iop(5/13=1,5/36=2,99/5=2) pseudo=read geom=check gue
 ss=(read,tcheck) scf=(maxcycle=1)
 ----------------------------------------------------------------------
 -----
 title
 -----
 Structure from the checkpoint file:  "p-methoxybenzaldehyde.chk"
 Charge =  0 Multiplicity = 1

                         Standard orientation:
 ---------------------------------------------------------------------
 Center     Atomic      Atomic             Coordinates (Angstroms)
 Number     Number       Type             X           Y           Z
 ---------------------------------------------------------------------
      1          6           0        2.356270   -1.777173    0.000000
      2          8           0        3.482232   -1.329055    0.000000
      3          6           0        1.122819   -0.978189    0.000000
      4          6           0       -0.122816   -1.616318    0.000000
      5          6           0       -1.293641   -0.885835    0.000000
      6          6           0       -1.239473    0.512535    0.000000
      7          6           0        0.000000    1.164562    0.000000
      8          6           0        1.165300    0.417042    0.000000
      9          8           0       -2.435229    1.147852    0.000000
     10          6           0       -2.463378    2.570550    0.000000
     11          1           0        2.191197   -2.874062    0.000000
     12          1           0       -0.165916   -2.698728    0.000000
     13          1           0       -2.261088   -1.367425    0.000000
     14          1           0        0.057823    2.241984    0.000000
     15          1           0        2.129488    0.906789    0.000000
     16          1           0       -1.981978    2.976345    0.892234
     17          1           0       -1.981978    2.976345   -0.892234
     18          1           0       -3.514049    2.845335    0.000000
 ---------------------------------------------------------------------

 SCF Done:  E(RHF) =  -459.443009365     A.U. after    2 cycles

 The electronic state is 1-A'.
 Alpha  occ. eigenvalues --  -21.09123 -21.05004 -11.54222 -11.48222 -11.47757
 Alpha  occ. eigenvalues --  -11.45371 -11.43205 -11.42124 -11.41776 -11.37975
 Alpha  occ. eigenvalues --   -1.80730  -1.69848  -1.34088  -1.12415  -1.11743
 Alpha  occ. eigenvalues --   -1.01589  -0.91464  -0.87963  -0.81032  -0.71449
 Alpha  occ. eigenvalues --   -0.67372  -0.63971  -0.63855  -0.62629  -0.59810
 Alpha  occ. eigenvalues --   -0.54692  -0.54639  -0.54109  -0.47871  -0.47221
 Alpha  occ. eigenvalues --   -0.46647  -0.40515  -0.39426  -0.35105  -0.28911
 Alpha  occ. eigenvalues --   -0.26993
 Alpha virt. eigenvalues --    0.02944   0.04539   0.05331   0.05787   0.05807
 Alpha virt. eigenvalues --    0.06478   0.07299   0.08002   0.09024   0.09245
 Alpha virt. eigenvalues --    0.10587   0.10743   0.12427   0.12543   0.13103

 Mulliken charges:
               1
     1  C   -0.572019
     2  O   -3.198346
     3  C    3.589583
     4  C    0.469758
     5  C   -5.276965
     6  C    4.593446
     7  C   -3.059334
     8  C   -0.808924
     9  O   -4.774484
    10  C   -3.747205
    11  H    1.268636
    12  H    1.792270
    13  H    1.851822
    14  H    1.854377
    15  H    1.806187
    16  H    1.386644
    17  H    1.386644
    18  H    1.437907
 Sum of Mulliken charges =   0.00000

 Dipole moment (field-independent basis, Debye):
    X=             -2.7425    Y=              1.6651    Z=              0.0000  Tot=              3.2084

 Test job not archived.
 1\1\GINC-SE343\SP\RHF\Aug-CC-pVDZ\C8H8O2\OHZDE\06-Apr-2025\0\\#t hf au
 g-cc-pvdz iop(5/13=1,5/36=2,99/5=2) pseudo=read geom=check guess=(read
 ,tcheck) scf=(maxcycle=1)\\title\\0,1\C,0,2.35627,-1.777173,0.\O,0,3.4
 82232,-1.329055,0.\C,0,1.122819,-0.978189,0.\C,0,-0.122816,-1.616318,0
 .\C,0,-1.293641,-0.885835,0.\C,0,-1.239473,0.512535,0.\C,0,0.,1.164562
 ,0.\C,0,1.1653,0.417042,0.\O,0,-2.435229,1.147852,0.\C,0,-2.463378,2.5
 7055,0.\H,0,2.191197,-2.874062,0.\H,0,-0.165916,-2.698728,0.\H,0,-2.26
 1088,-1.367425,0.\H,0,0.057823,2.241984,0.\H,0,2.129488,0.906789,0.\H,

 Normal termination of Gaussian 16 at Sun Apr  6 08:26:34 2025.
