 Gaussian 16, Revision C.01,

 ----------------------------------------------------------------------
 #t hf aug-cc-pvdz symm=none int=(grid=ultrafine) guess=(read,tcheck) s
 table=(opt,rrhf)
 ----------------------------------------------------------------------
 -----
 title
 -----
 Symbolic Z-matrix:
 Charge =  0 Multiplicity = 1

 SCF Done:  E(RHF) =  -489.280346284     A.U. after   15 cycles
 Normal termination of Gaussian 16 at Sun Apr  6 08:25:48 2025.
 Gaussian 16:  ES64L-G16RevC.01  3-Jul-2019

 ----------------------------------------------------------------------
 #t hf aug-cc-pvdz iop(5/13=1,5/36=2,99/5=2) pseudo=read geom=check gue
 ss=(read,tcheck) scf=(maxcycle=1)
 ----------------------------------------------------------------------
 -----
 title
 -----
 Structure from the checkpoint file:  "p-nitroaniline.chk"
 Charge =  0 Multiplicity = 1

                         Standard orientation:
 ---------------------------------------------------------------------
 Center     Atomic      Atomic             Coordinates (Angstroms)
 Number     Number       Type             X           Y           Z
 ---------------------------------------------------------------------
      1          6           0       -0.002527   -1.360148    1.209015
      2          6           0       -0.002527   -1.360148   -1.209015
      3          6           0       -0.002527    0.019496    1.209747
      4          6           0       -0.002527    0.019496   -1.209747
      5          6           0       -0.001512   -2.076412    0.000000
      6          6           0       -0.002390    0.706727   -0.000000
      7          7           0       -0.043718   -3.450313    0.000000
      8          7           0       -0.000096    2.164119   -0.000000
      9          8           0        0.000905    2.738949    1.083563
     10          8           0        0.000905    2.738949   -1.083563
     11          1           0       -0.005983   -1.897716    2.148203
     12          1           0       -0.005983   -1.897716   -2.148203
     13          1           0       -0.001593    0.575824    2.134036
     14          1           0       -0.001593    0.575824   -2.134036
     15          1           0        0.195712   -3.935056    0.846913
     16          1           0        0.195712   -3.935056   -0.846913
 ---------------------------------------------------------------------

 SCF Done:  E(RHF) =  -491.474806407     A.U. after    2 cycles

 The electronic state is 1-A'.
 Alpha  occ. eigenvalues --  -21.07874 -21.07776 -15.98757 -15.79048 -11.55054
 Alpha  occ. eigenvalues --  -11.48604 -11.46765 -11.45470 -11.42923 -11.39412
 Alpha  occ. eigenvalues --   -1.98446  -1.67521  -1.44530  -1.31163  -1.14552
 Alpha  occ. eigenvalues --   -1.12727  -0.97759  -0.90986  -0.83040  -0.74385
 Alpha  occ. eigenvalues --   -0.71334  -0.69616  -0.66576  -0.63785  -0.61977
 Alpha  occ. eigenvalues --   -0.60935  -0.55889  -0.55419  -0.52238  -0.46873
 Alpha  occ. eigenvalues --   -0.45541  -0.36346  -0.34784  -0.30201  -0.29779
 Alpha  occ. eigenvalues --   -0.29765
 Alpha virt. eigenvalues --    0.02693   0.04176   0.04190   0.06526   0.06772
 Alpha virt. eigenvalues --    0.08559   0.09085   0.09446   0.10200   0.11686
 Alpha virt. eigenvalues --    0.12267   0.12388   0.12631   0.13410   0.13485

 Mulliken charges:
               1
     1  C   -0.593833
     2  C   -0.593833
     3  C   -1.982585
     4  C   -1.982585
     5  C    1.238574
     6  C    2.571405
     7  N   -4.279600
     8  N    3.003112
     9  O   -2.967115
    10  O   -2.967115
    11  H    1.706701
    12  H    1.706701
    13  H    1.885277
    14  H    1.885277
    15  H    0.684809
    16  H    0.684809
 Sum of Mulliken charges =  -0.00000

 Dipole moment (field-independent basis, Debye):
    X=              0.5604    Y=             -5.4131    Z=              0.0000  Tot=              5.4420

 Test job not archived.
 1\1\GINC-SE343\SP\RHF\Aug-CC-pVDZ\C6H6N2O2\OHZDE\06-Apr-2025\0\\#t hf
 aug-cc-pvdz iop(5/13=1,5/36=2,99/5=2) pseudo=read geom=check guess=(re
 ad,tcheck) scf=(maxcycle=1)\\title\\0,1\C,0,-0.002527,-1.360148,1.2090
 15\C,0,-0.002527,-1.360148,-1.209015\C,0,-0.002527,0.019496,1.209747\C
 ,0,-0.002527,0.019496,-1.209747\C,0,-0.001512,-2.076412,0.\C,0,-0.0023
 9,0.706727,0.\N,0,-0.043718,-3.450313,0.\N,0,-0.000096,2.164119,0.\O,0
 ,0.000905,2.738949,1.083563\O,0,0.000905,2.738949,-1.083563\H,0,-0.005
 983,-1.897716,2.148203\H,0,-0.005983,-1.897716,-2.148203\H,0,-0.001593

 Normal termination of Gaussian 16 at Sun Apr  6 08:26:31 2025.
