 Gaussian 16, Revision C.01,

 ----------------------------------------------------------------------
 #t hf aug-cc-pvdz symm=none int=(grid=ultrafine) guess=(read,tcheck) s
 table=(opt,rrhf)
 ----------------------------------------------------------------------
 -----
 title
 -----
 Symbolic Z-matrix:
 Charge =  0 Multiplicity = 1

 SCF Done:  E(RHF) =  -324.810139067     A.U. after   15 cycles
 Normal termination of Gaussian 16 at Sun Apr  6 08:25:35 2025.
 Gaussian 16:  ES64L-G16RevC.01  3-Jul-2019

 ----------------------------------------------------------------------
 #t hf aug-cc-pvdz iop(5/13=1,5/36=2,99/5=2) pseudo=read geom=check gue
 ss=(read,tcheck) scf=(maxcycle=1)
 ----------------------------------------------------------------------
 -----
 title
 -----
 Structure from the checkpoint file:  "p-toluidine.chk"
 Charge =  0 Multiplicity = 1

                         Standard orientation:
 ---------------------------------------------------------------------
 Center     Atomic      Atomic             Coordinates (Angstroms)
 Number     Number       Type             X           Y           Z
 ---------------------------------------------------------------------
      1          6           0        0.669588    1.190338   -0.009937
      2          6           0        0.669666   -1.190178   -0.009924
      3          6           0       -0.718186    1.198300    0.003054
      4          6           0       -0.717909   -1.198256    0.003081
      5          6           0        1.396835    0.000223   -0.013482
      6          6           0       -1.437175    0.000049    0.010600
      7          6           0        2.903547   -0.000073    0.006732
      8          7           0       -2.833422   -0.000219    0.080437
      9          1           0        1.197270    2.136416   -0.020466
     10          1           0        1.197417   -2.136238   -0.020449
     11          1           0       -1.250749    2.141644    0.007895
     12          1           0       -1.250429   -2.141628    0.007947
     13          1           0        3.308495   -0.870548   -0.510365
     14          1           0        3.307829    0.891793   -0.472804
     15          1           0        3.289746   -0.021962    1.029503
     16          1           0       -3.281770   -0.834223   -0.262806
     17          1           0       -3.282044    0.833864   -0.262259
 ---------------------------------------------------------------------

 SCF Done:  E(RHF) =  -326.391266472     A.U. after    2 cycles

 The electronic state is 1-A.
 Alpha  occ. eigenvalues --  -15.75240 -11.50193 -11.43531 -11.42329 -11.41102
 Alpha  occ. eigenvalues --  -11.39266 -11.37743 -11.34952  -1.40671  -1.27486
 Alpha  occ. eigenvalues --   -1.10390  -1.08487  -0.97030  -0.86702  -0.81991
 Alpha  occ. eigenvalues --   -0.68967  -0.67039  -0.64221  -0.58041  -0.56922
 Alpha  occ. eigenvalues --   -0.56692  -0.55261  -0.51437  -0.49855  -0.43907
 Alpha  occ. eigenvalues --   -0.42781  -0.41245  -0.32490  -0.26213
 Alpha virt. eigenvalues --    0.03566   0.04781   0.05021   0.05458   0.06472
 Alpha virt. eigenvalues --    0.06770   0.07271   0.07843   0.09719   0.09830
 Alpha virt. eigenvalues --    0.11892   0.12959   0.13000   0.13580   0.13777

 Mulliken charges:
               1
     1  C   -0.366325
     2  C   -0.392047
     3  C   -2.916194
     4  C   -2.926142
     5  C    3.122996
     6  C    1.124888
     7  C   -5.216798
     8  N   -4.028543
     9  H    1.782613
    10  H    1.783861
    11  H    1.715149
    12  H    1.715378
    13  H    1.100420
    14  H    1.114943
    15  H    1.138393
    16  H    0.623409
    17  H    0.624000
 Sum of Mulliken charges =   0.00000

 Dipole moment (field-independent basis, Debye):
    X=             -0.8731    Y=             -0.0033    Z=             -0.7403  Tot=              1.1447

 Test job not archived.
 1\1\GINC-SE412\SP\RHF\Aug-CC-pVDZ\C7H9N1\OHZDE\06-Apr-2025\0\\#t hf au
 g-cc-pvdz iop(5/13=1,5/36=2,99/5=2) pseudo=read geom=check guess=(read
 ,tcheck) scf=(maxcycle=1)\\title\\0,1\C,0,0.669588,1.190338,-0.009937\
 C,0,0.669666,-1.190178,-0.009924\C,0,-0.718186,1.1983,0.003054\C,0,-0.
 717909,-1.198256,0.003081\C,0,1.396835,0.000223,-0.013482\C,0,-1.43717
 5,0.000049,0.0106\C,0,2.903547,-0.000073,0.006732\N,0,-2.833422,-0.000
 219,0.080437\H,0,1.19727,2.136416,-0.020466\H,0,1.197417,-2.136238,-0.
 020449\H,0,-1.250749,2.141644,0.007895\H,0,-1.250429,-2.141628,0.00794

 Normal termination of Gaussian 16 at Sun Apr  6 08:26:32 2025.
