 Gaussian 16, Revision C.01,

 ----------------------------------------------------------------------
 #t hf aug-cc-pvdz symm=none int=(grid=ultrafine) guess=(read,tcheck) s
 table=(opt,rrhf)
 ----------------------------------------------------------------------
 -----
 title
 -----
 Symbolic Z-matrix:
 Charge =  0 Multiplicity = 1

 SCF Done:  E(RHF) =  -308.809040618     A.U. after   14 cycles
 Normal termination of Gaussian 16 at Sun Apr  6 08:25:38 2025.
 Gaussian 16:  ES64L-G16RevC.01  3-Jul-2019

 ----------------------------------------------------------------------
 #t hf aug-cc-pvdz iop(5/13=1,5/36=2,99/5=2) pseudo=read geom=check gue
 ss=(read,tcheck) scf=(maxcycle=1)
 ----------------------------------------------------------------------
 -----
 title
 -----
 Structure from the checkpoint file:  "p-xylene.chk"
 Charge =  0 Multiplicity = 1

                         Standard orientation:
 ---------------------------------------------------------------------
 Center     Atomic      Atomic             Coordinates (Angstroms)
 Number     Number       Type             X           Y           Z
 ---------------------------------------------------------------------
      1          6           0       -0.006126    0.695514    1.193928
      2          6           0        0.006126   -0.695514    1.193928
      3          6           0       -0.005956    0.693932   -1.191741
      4          6           0        0.005956   -0.693932   -1.191741
      5          6           0       -0.010665    1.417282    0.002438
      6          6           0        0.010665   -1.417282    0.002438
      7          6           0        0.005956    2.923660   -0.002240
      8          6           0       -0.005956   -2.923660   -0.002240
      9          1           0       -0.011287    1.226083    2.138293
     10          1           0        0.011287   -1.226083    2.138293
     11          1           0       -0.010880    1.224834   -2.136140
     12          1           0        0.010880   -1.224834   -2.136140
     13          1           0       -0.642816    3.326662   -0.780885
     14          1           0       -0.324391    3.327444    0.954402
     15          1           0        1.012311    3.306699   -0.189982
     16          1           0        0.642816   -3.326662   -0.780885
     17          1           0        0.324391   -3.327444    0.954402
     18          1           0       -1.012311   -3.306699   -0.189982
 ---------------------------------------------------------------------

 SCF Done:  E(RHF) =  -310.340535027     A.U. after    2 cycles

 The electronic state is 1-A.
 Alpha  occ. eigenvalues --  -11.49789 -11.42424 -11.42262 -11.42143 -11.39543
 Alpha  occ. eigenvalues --  -11.38473 -11.37879 -11.34866  -1.35434  -1.17000
 Alpha  occ. eigenvalues --   -1.08278  -1.04705  -0.94531  -0.85921  -0.80883
 Alpha  occ. eigenvalues --   -0.66809  -0.63476  -0.61364  -0.57538  -0.56667
 Alpha  occ. eigenvalues --   -0.56556  -0.55312  -0.51716  -0.48709  -0.46880
 Alpha  occ. eigenvalues --   -0.42535  -0.42125  -0.32262  -0.30148
 Alpha virt. eigenvalues --    0.03595   0.04649   0.05383   0.05418   0.05632
 Alpha virt. eigenvalues --    0.06626   0.07066   0.07548   0.07662   0.09206
 Alpha virt. eigenvalues --    0.09516   0.11125   0.12156   0.12884   0.13449

 Mulliken charges:
               1
     1  C   -2.040436
     2  C   -2.040436
     3  C   -2.286134
     4  C   -2.286134
     5  C    2.901369
     6  C    2.901369
     7  C   -5.627887
     8  C   -5.627887
     9  H    1.827953
    10  H    1.827953
    11  H    1.836260
    12  H    1.836260
    13  H    1.073089
    14  H    1.209628
    15  H    1.106157
    16  H    1.073089
    17  H    1.209628
    18  H    1.106157
 Sum of Mulliken charges =   0.00000

 Dipole moment (field-independent basis, Debye):
    X=             -0.0000    Y=             -0.0000    Z=             -0.0437  Tot=              0.0437

 Test job not archived.
 1\1\GINC-SE412\SP\RHF\Aug-CC-pVDZ\C8H10\OHZDE\06-Apr-2025\0\\#t hf aug
 -cc-pvdz iop(5/13=1,5/36=2,99/5=2) pseudo=read geom=check guess=(read,
 tcheck) scf=(maxcycle=1)\\title\\0,1\C,0,-0.006126,0.695514,1.193928\C
 ,0,0.006126,-0.695514,1.193928\C,0,-0.005956,0.693932,-1.191741\C,0,0.
 005956,-0.693932,-1.191741\C,0,-0.010665,1.417282,0.002438\C,0,0.01066
 5,-1.417282,0.002438\C,0,0.005956,2.92366,-0.00224\C,0,-0.005956,-2.92
 366,-0.00224\H,0,-0.011287,1.226083,2.138293\H,0,0.011287,-1.226083,2.
 138293\H,0,-0.01088,1.224834,-2.13614\H,0,0.01088,-1.224834,-2.13614\H

 Normal termination of Gaussian 16 at Sun Apr  6 08:26:31 2025.
