 Gaussian 16, Revision C.01,

 ----------------------------------------------------------------------
 #t hf aug-cc-pvdz symm=none int=(grid=ultrafine) guess=(read,tcheck) s
 table=(opt,rrhf)
 ----------------------------------------------------------------------
 -----
 title
 -----
 Symbolic Z-matrix:
 Charge =  0 Multiplicity = 1

 SCF Done:  E(RHF) =  -251.389026392     A.U. after   12 cycles

 1\1\GINC-SE085\Stability\RHF\Aug-CC-pVDZ\C5H13N1\OHZDE\06-Apr-2025\0\\
 #t hf aug-cc-pvdz symm=none int=(grid=ultrafine) guess=(read,tcheck) s
 table=(opt,rrhf)\\title\\0,1\C,0,-3.193395,0.219196,0.022962\C,0,-1.87
 0687,-0.543222,-0.031096\C,0,-0.644306,0.369108,0.017163\C,0,0.681934,
 -0.388325,-0.039089\C,0,1.902025,0.52473,0.012238\N,0,3.142821,-0.2522
 96,-0.075802\H,0,-4.046943,-0.459069,-0.014935\H,0,-3.274969,0.803363,
 0.942009\H,0,-3.283672,0.912302,-0.81605\H,0,-1.834066,-1.145994,-0.94
 3292\H,0,-1.824205,-1.251686,0.801403\H,0,-0.682799,0.973279,0.929858\

 Normal termination of Gaussian 16 at Sun Apr  6 08:27:04 2025.
 Gaussian 16:  ES64L-G16RevC.01  3-Jul-2019

 ----------------------------------------------------------------------
 #t hf aug-cc-pvdz iop(5/13=1,5/36=2,99/5=2) pseudo=read geom=check gue
 ss=(read,tcheck) scf=(maxcycle=1)
 ----------------------------------------------------------------------
 -----
 title
 -----
 Structure from the checkpoint file:  "pentanamine.chk"
 Charge =  0 Multiplicity = 1

                         Standard orientation:
 ---------------------------------------------------------------------
 Center     Atomic      Atomic             Coordinates (Angstroms)
 Number     Number       Type             X           Y           Z
 ---------------------------------------------------------------------
      1          6           0       -3.193395    0.219196    0.022962
      2          6           0       -1.870687   -0.543222   -0.031096
      3          6           0       -0.644306    0.369108    0.017163
      4          6           0        0.681934   -0.388325   -0.039089
      5          6           0        1.902025    0.524730    0.012238
      6          7           0        3.142821   -0.252296   -0.075802
      7          1           0       -4.046943   -0.459069   -0.014935
      8          1           0       -3.274969    0.803363    0.942009
      9          1           0       -3.283672    0.912302   -0.816050
     10          1           0       -1.834066   -1.145994   -0.943292
     11          1           0       -1.824205   -1.251686    0.801403
     12          1           0       -0.682799    0.973279    0.929858
     13          1           0       -0.692022    1.077721   -0.816618
     14          1           0        0.733834   -0.987957   -0.951398
     15          1           0        0.730562   -1.095733    0.796545
     16          1           0        1.844936    1.150237    0.914816
     17          1           0        1.879005    1.205826   -0.842025
     18          1           0        3.244316   -0.859616    0.728902
     19          1           0        3.952849    0.354475   -0.091672
 ---------------------------------------------------------------------

 SCF Done:  E(RHF) =  -252.688866435     A.U. after    2 cycles

 The electronic state is 1-A.
 Alpha  occ. eigenvalues --  -15.72248 -11.41937 -11.41251 -11.38646 -11.36115
 Alpha  occ. eigenvalues --  -11.33634  -1.33934  -1.22284  -1.08551  -0.95721
 Alpha  occ. eigenvalues --   -0.85367  -0.82014  -0.66748  -0.63759  -0.61153
 Alpha  occ. eigenvalues --   -0.58379  -0.55428  -0.53196  -0.52159  -0.48086
 Alpha  occ. eigenvalues --   -0.46756  -0.44870  -0.44483  -0.39964  -0.34475
 Alpha virt. eigenvalues --    0.04268   0.04853   0.05282   0.05739   0.05806
 Alpha virt. eigenvalues --    0.06030   0.06436   0.06683   0.07925   0.08514
 Alpha virt. eigenvalues --    0.09141   0.09613   0.09952   0.11171   0.13429

 Mulliken charges:
               1
     1  C   -4.221078
     2  C   -2.704913
     3  C   -2.288493
     4  C   -2.503319
     5  C   -2.460863
     6  N   -2.501726
     7  H    1.077374
     8  H    1.305557
     9  H    1.306573
    10  H    1.421845
    11  H    1.430192
    12  H    1.538620
    13  H    1.556968
    14  H    1.448751
    15  H    1.515026
    16  H    1.429545
    17  H    1.462859
    18  H    0.606395
    19  H    0.580686
 Sum of Mulliken charges =  -0.00000

 Dipole moment (field-independent basis, Debye):
    X=              0.1411    Y=              0.4455    Z=              0.8099  Tot=              0.9350

 Test job not archived.
 1\1\GINC-SE085\SP\RHF\Aug-CC-pVDZ\C5H13N1\OHZDE\06-Apr-2025\0\\#t hf a
 ug-cc-pvdz iop(5/13=1,5/36=2,99/5=2) pseudo=read geom=check guess=(rea
 d,tcheck) scf=(maxcycle=1)\\title\\0,1\C,0,-3.193395,0.219196,0.022962
 \C,0,-1.870687,-0.543222,-0.031096\C,0,-0.644306,0.369108,0.017163\C,0
 ,0.681934,-0.388325,-0.039089\C,0,1.902025,0.52473,0.012238\N,0,3.1428
 21,-0.252296,-0.075802\H,0,-4.046943,-0.459069,-0.014935\H,0,-3.274969
 ,0.803363,0.942009\H,0,-3.283672,0.912302,-0.81605\H,0,-1.834066,-1.14
 5994,-0.943292\H,0,-1.824205,-1.251686,0.801403\H,0,-0.682799,0.973279

 Normal termination of Gaussian 16 at Sun Apr  6 08:27:50 2025.
