 Gaussian 16, Revision C.01,

 ----------------------------------------------------------------------
 #t hf aug-cc-pvdz symm=none int=(grid=ultrafine) guess=(read,tcheck) s
 table=(opt,rrhf)
 ----------------------------------------------------------------------
 -----
 title
 -----
 Symbolic Z-matrix:
 Charge =  0 Multiplicity = 1

 SCF Done:  E(RHF) =  -1032.50153482     A.U. after   12 cycles

 1\1\GINC-SE170\Stability\RHF\Aug-CC-pVDZ\C2Cl1F5\OHZDE\06-Apr-2025\0\\
 #t hf aug-cc-pvdz symm=none int=(grid=ultrafine) guess=(read,tcheck) s
 table=(opt,rrhf)\\title\\0,1\C,0,0.088227,-0.640097,0.\C,0,-0.628654,0
 .743753,0.\Cl,0,1.853861,-0.454917,0.\F,0,-0.297556,-1.321635,1.086547
 \F,0,-0.297556,-1.321635,-1.086547\F,0,-1.951228,0.550467,0.\F,0,-0.29
 7556,1.441493,1.086607\F,0,-0.297556,1.441493,-1.086607\\Version=ES64L
 -G16RevC.01\HF=-1032.5015348\RMSD=6.731e-09\Dipole=0.2445383,0.0022199
 ,0.\Quadrupole=1.1829474,-0.5035742,-0.6793732,-0.2114454,0.,0.\PG=Unk

 Normal termination of Gaussian 16 at Sun Apr  6 08:26:37 2025.
 Gaussian 16:  ES64L-G16RevC.01  3-Jul-2019

 ----------------------------------------------------------------------
 #t hf aug-cc-pvdz iop(5/13=1,5/36=2,99/5=2) pseudo=read geom=check gue
 ss=(read,tcheck) scf=(maxcycle=1)
 ----------------------------------------------------------------------
 -----
 title
 -----
 Structure from the checkpoint file:  "pentafluorochloroethane.chk"
 Charge =  0 Multiplicity = 1

                         Standard orientation:
 ---------------------------------------------------------------------
 Center     Atomic      Atomic             Coordinates (Angstroms)
 Number     Number       Type             X           Y           Z
 ---------------------------------------------------------------------
      1          6           0        0.088227   -0.640097    0.000000
      2          6           0       -0.628654    0.743753    0.000000
      3         17           0        1.853861   -0.454917    0.000000
      4          9           0       -0.297556   -1.321635    1.086547
      5          9           0       -0.297556   -1.321635   -1.086547
      6          9           0       -1.951228    0.550467    0.000000
      7          9           0       -0.297556    1.441493    1.086607
      8          9           0       -0.297556    1.441493   -1.086607
 ---------------------------------------------------------------------

 SCF Done:  E(RHF) =  -1034.74794800     A.U. after    2 cycles

 The electronic state is 1-A'.
 Alpha  occ. eigenvalues --  -99.93985 -29.34521 -29.34490 -29.34473 -29.34452
 Alpha  occ. eigenvalues --  -29.34205 -11.65466 -11.59627 -10.51487  -9.71325
 Alpha  occ. eigenvalues --   -9.70444  -9.70379  -1.53895  -1.39322  -1.23423
 Alpha  occ. eigenvalues --   -0.98006  -0.94392  -0.87955  -0.84942  -0.75783
 Alpha  occ. eigenvalues --   -0.57354  -0.57167  -0.51698  -0.49093  -0.47275
 Alpha  occ. eigenvalues --   -0.46506  -0.44128  -0.43096  -0.40582  -0.38950
 Alpha  occ. eigenvalues --   -0.36374  -0.35625  -0.29900  -0.29299  -0.27029
 Alpha  occ. eigenvalues --   -0.25689  -0.23785
 Alpha virt. eigenvalues --    0.05540   0.08303   0.10220   0.11220   0.12589
 Alpha virt. eigenvalues --    0.12667   0.13097   0.14387   0.14862   0.16583
 Alpha virt. eigenvalues --    0.18438   0.20738   0.22142   0.22749   0.23669

 Mulliken charges:
               1
     1  C   -2.319423
     2  C   -0.506789
     3  Cl  -0.385442
     4  F    0.759626
     5  F    0.759626
     6  F    0.597055
     7  F    0.547673
     8  F    0.547673
 Sum of Mulliken charges =  -0.00000

 Dipole moment (field-independent basis, Debye):
    X=             -4.2406    Y=             -0.6122    Z=             -0.0000  Tot=              4.2845

 Test job not archived.
 1\1\GINC-SE170\SP\RHF\Aug-CC-pVDZ\C2Cl1F5\OHZDE\06-Apr-2025\0\\#t hf a
 ug-cc-pvdz iop(5/13=1,5/36=2,99/5=2) pseudo=read geom=check guess=(rea
 d,tcheck) scf=(maxcycle=1)\\title\\0,1\C,0,0.088227,-0.640097,0.\C,0,-
 0.628654,0.743753,0.\Cl,0,1.853861,-0.454917,0.\F,0,-0.297556,-1.32163
 5,1.086547\F,0,-0.297556,-1.321635,-1.086547\F,0,-1.951228,0.550467,0.
 \F,0,-0.297556,1.441493,1.086607\F,0,-0.297556,1.441493,-1.086607\\Ver
 sion=ES64L-G16RevC.01\State=1-A'\HF=-1034.747948\RMSD=1.471e-01\Dipole
 =-1.6683666,-0.2408531,0.\Quadrupole=-2.3376902,1.5170711,0.8206191,1.

 Normal termination of Gaussian 16 at Sun Apr  6 08:26:47 2025.
