 Gaussian 16, Revision C.01,

 ----------------------------------------------------------------------
 #t hf aug-cc-pvdz symm=none int=(grid=ultrafine) guess=(read,tcheck) s
 table=(opt,rrhf)
 ----------------------------------------------------------------------
 -----
 title
 -----
 Symbolic Z-matrix:
 Charge =  0 Multiplicity = 1

 SCF Done:  E(RHF) =  -265.249285574     A.U. after   16 cycles
 Normal termination of Gaussian 16 at Sun Apr  6 08:26:34 2025.
 Gaussian 16:  ES64L-G16RevC.01  3-Jul-2019

 ----------------------------------------------------------------------
 #t hf aug-cc-pvdz iop(5/13=1,5/36=2,99/5=2) pseudo=read geom=check gue
 ss=(read,tcheck) scf=(maxcycle=1)
 ----------------------------------------------------------------------
 -----
 title
 -----
 Structure from the checkpoint file:  "penta-2-4-diynal.chk"
 Charge =  0 Multiplicity = 1

                         Standard orientation:
 ---------------------------------------------------------------------
 Center     Atomic      Atomic             Coordinates (Angstroms)
 Number     Number       Type             X           Y           Z
 ---------------------------------------------------------------------
      1          8           0       -2.769216   -0.536264    0.000215
      2          6           0       -0.546543    0.198083   -0.000698
      3          6           0       -1.974175    0.375575    0.000309
      4          6           0        0.660285    0.101518   -0.000632
      5          6           0        2.012661   -0.024555   -0.000207
      6          6           0        3.212576   -0.134634    0.000498
      7          1           0       -2.304988    1.428398    0.001460
      8          1           0        4.269894   -0.234210    0.001198
 ---------------------------------------------------------------------

 SCF Done:  E(RHF) =  -266.412152016     A.U. after    2 cycles

 The electronic state is 1-A.
 Alpha  occ. eigenvalues --  -21.08961 -11.54081 -11.50686 -11.46535 -11.45066
 Alpha  occ. eigenvalues --  -11.44808  -1.72969  -1.22705  -1.10608  -0.96785
 Alpha  occ. eigenvalues --   -0.84334  -0.73264  -0.68893  -0.55872  -0.53346
 Alpha  occ. eigenvalues --   -0.49445  -0.46287  -0.35761  -0.34504  -0.32557
 Alpha virt. eigenvalues --    0.02332   0.04415   0.06800   0.07526   0.09084
 Alpha virt. eigenvalues --    0.09345   0.10832   0.11093   0.12355   0.12817
 Alpha virt. eigenvalues --    0.13624   0.13930   0.14877   0.14921   0.15595

 Mulliken charges:
               1
     1  O   -2.557071
     2  C   -2.115337
     3  C   -0.391466
     4  C    6.029037
     5  C    3.874487
     6  C   -6.197179
     7  H    0.785489
     8  H    0.572041
 Sum of Mulliken charges =  -0.00000

 Dipole moment (field-independent basis, Debye):
    X=              1.6186    Y=              0.6980    Z=              0.0019  Tot=              1.7627

 Test job not archived.
 1\1\GINC-SE165\SP\RHF\Aug-CC-pVDZ\C5H2O1\OHZDE\06-Apr-2025\0\\#t hf au
 g-cc-pvdz iop(5/13=1,5/36=2,99/5=2) pseudo=read geom=check guess=(read
 ,tcheck) scf=(maxcycle=1)\\title\\0,1\O,0,-2.769216,-0.536264,0.000215
 \C,0,-0.546543,0.198083,-0.000698\C,0,-1.974175,0.375575,0.000309\C,0,
 0.660285,0.101518,-0.000632\C,0,2.012661,-0.024555,-0.000207\C,0,3.212
 576,-0.134634,0.000498\H,0,-2.304988,1.428398,0.00146\H,0,4.269894,-0.
 23421,0.001198\\Version=ES64L-G16RevC.01\State=1-A\HF=-266.412152\RMSD
 =4.153e+00\Dipole=0.636823,0.274602,0.0007302\Quadrupole=4.9403803,-2.

 Normal termination of Gaussian 16 at Sun Apr  6 08:26:46 2025.
