 Gaussian 16, Revision C.01,

 ----------------------------------------------------------------------
 #t hf aug-cc-pvdz symm=none int=(grid=ultrafine) guess=(read,tcheck) s
 table=(opt,rrhf)
 ----------------------------------------------------------------------
 -----
 title
 -----
 Symbolic Z-matrix:
 Charge =  0 Multiplicity = 1

 SCF Done:  E(RHF) =  -265.242065469     A.U. after   14 cycles
 Normal termination of Gaussian 16 at Sun Apr  6 08:27:51 2025.
 Gaussian 16:  ES64L-G16RevC.01  3-Jul-2019

 ----------------------------------------------------------------------
 #t hf aug-cc-pvdz iop(5/13=1,5/36=2,99/5=2) pseudo=read geom=check gue
 ss=(read,tcheck) scf=(maxcycle=1)
 ----------------------------------------------------------------------
 -----
 title
 -----
 Structure from the checkpoint file:  "penta-1-4-diyn-3-one.chk"
 Charge =  0 Multiplicity = 1

                         Standard orientation:
 ---------------------------------------------------------------------
 Center     Atomic      Atomic             Coordinates (Angstroms)
 Number     Number       Type             X           Y           Z
 ---------------------------------------------------------------------
      1          8           0       -0.000002    1.727755    0.000063
      2          6           0       -0.000000    0.513409   -0.000056
      3          6           0       -1.221816   -0.263144   -0.000092
      4          6           0        1.221818   -0.263140   -0.000093
      5          6           0       -2.237923   -0.902147    0.000052
      6          6           0        2.237924   -0.902146    0.000041
      7          1           0       -3.142391   -1.459515    0.000203
      8          1           0        3.142392   -1.459515    0.000184
 ---------------------------------------------------------------------

 SCF Done:  E(RHF) =  -266.408947300     A.U. after    2 cycles

 The electronic state is 1-A.
 Alpha  occ. eigenvalues --  -21.08871 -11.56384 -11.46718 -11.45014 -11.43378
 Alpha  occ. eigenvalues --  -11.43014  -1.73928  -1.19402  -1.11571  -0.97152
 Alpha  occ. eigenvalues --   -0.82115  -0.73493  -0.68903  -0.57016  -0.55100
 Alpha  occ. eigenvalues --   -0.42093  -0.41125  -0.40255  -0.36779  -0.32901
 Alpha virt. eigenvalues --    0.02523   0.03992   0.07311   0.08483   0.09624
 Alpha virt. eigenvalues --    0.09865   0.11101   0.11267   0.11499   0.12809
 Alpha virt. eigenvalues --    0.13169   0.13501   0.13934   0.14422   0.16892

 Mulliken charges:
               1
     1  O   -3.178238
     2  C    2.896106
     3  C    2.885774
     4  C    2.885760
     5  C   -3.494573
     6  C   -3.494568
     7  H    0.749868
     8  H    0.749870
 Sum of Mulliken charges =  -0.00000

 Dipole moment (field-independent basis, Debye):
    X=              0.0000    Y=             -1.6523    Z=              0.0004  Tot=              1.6523

 Test job not archived.
 1\1\GINC-SE103\SP\RHF\Aug-CC-pVDZ\C5H2O1\OHZDE\06-Apr-2025\0\\#t hf au
 g-cc-pvdz iop(5/13=1,5/36=2,99/5=2) pseudo=read geom=check guess=(read
 ,tcheck) scf=(maxcycle=1)\\title\\0,1\O,0,-0.000002,1.727755,0.000063\
 C,0,0.,0.513409,-0.000056\C,0,-1.221816,-0.263144,-0.000092\C,0,1.2218
 18,-0.26314,-0.000093\C,0,-2.237923,-0.902147,0.000052\C,0,2.237924,-0
 .902146,0.000041\H,0,-3.142391,-1.459515,0.000203\H,0,3.142392,-1.4595
 15,0.000184\\Version=ES64L-G16RevC.01\State=1-A\HF=-266.4089473\RMSD=1
 .168e+00\Dipole=0.0000003,-0.6500631,0.0001595\Quadrupole=5.5412031,-2

 Normal termination of Gaussian 16 at Sun Apr  6 08:27:54 2025.
