 Gaussian 16, Revision C.01,

 ----------------------------------------------------------------------
 #t hf aug-cc-pvdz symm=none int=(grid=ultrafine) guess=(read,tcheck) s
 table=(opt,rrhf)
 ----------------------------------------------------------------------
 -----
 title
 -----
 Symbolic Z-matrix:
 Charge =  0 Multiplicity = 1

 SCF Done:  E(RHF) =  -196.354001534     A.U. after   11 cycles
 Normal termination of Gaussian 16 at Sun Apr  6 08:26:53 2025.
 Gaussian 16:  ES64L-G16RevC.01  3-Jul-2019

 ----------------------------------------------------------------------
 #t hf aug-cc-pvdz iop(5/13=1,5/36=2,99/5=2) pseudo=read geom=check gue
 ss=(read,tcheck) scf=(maxcycle=1)
 ----------------------------------------------------------------------
 -----
 title
 -----
 Structure from the checkpoint file:  "pentane.chk"
 Charge =  0 Multiplicity = 1

                         Standard orientation:
 ---------------------------------------------------------------------
 Center     Atomic      Atomic             Coordinates (Angstroms)
 Number     Number       Type             X           Y           Z
 ---------------------------------------------------------------------
      1          6           0        0.000000    2.553552    0.323437
      2          6           0       -0.000000   -2.553552    0.323437
      3          6           0        0.000000    1.280666   -0.521619
      4          6           0       -0.000000   -1.280666   -0.521619
      5          6           0        0.000000   -0.000000    0.313781
      6          1           0        0.880619    2.598968    0.967590
      7          1           0       -0.880619    2.598968    0.967590
      8          1           0        0.000000    3.448219   -0.300839
      9          1           0        0.880619   -2.598968    0.967590
     10          1           0       -0.000000   -3.448219   -0.300839
     11          1           0       -0.880619   -2.598968    0.967590
     12          1           0       -0.873927    1.280219   -1.180074
     13          1           0        0.873927    1.280219   -1.180074
     14          1           0       -0.873927   -1.280219   -1.180074
     15          1           0        0.873927   -1.280219   -1.180074
     16          1           0       -0.874435    0.000000    0.973556
     17          1           0        0.874435   -0.000000    0.973556
 ---------------------------------------------------------------------

 SCF Done:  E(RHF) =  -197.402563011     A.U. after    2 cycles

 The electronic state is 1-A1.
 Alpha  occ. eigenvalues --  -11.41099 -11.39968 -11.37284 -11.35630 -11.33381
 Alpha  occ. eigenvalues --   -1.25313  -1.11858  -0.98244  -0.86453  -0.81599
 Alpha  occ. eigenvalues --   -0.65158  -0.59401  -0.59091  -0.54735  -0.53835
 Alpha  occ. eigenvalues --   -0.52193  -0.47346  -0.46654  -0.44614  -0.44039
 Alpha  occ. eigenvalues --   -0.40010
 Alpha virt. eigenvalues --    0.04254   0.04952   0.05456   0.06012   0.06015
 Alpha virt. eigenvalues --    0.06115   0.06434   0.06518   0.08365   0.08968
 Alpha virt. eigenvalues --    0.09410   0.09665   0.10103   0.13629   0.14490

 Mulliken charges:
               1
     1  C   -4.195922
     2  C   -4.195922
     3  C   -2.820421
     4  C   -2.820421
     5  C   -2.244498
     6  H    1.299079
     7  H    1.299079
     8  H    1.082360
     9  H    1.299079
    10  H    1.082360
    11  H    1.299079
    12  H    1.444260
    13  H    1.444260
    14  H    1.444260
    15  H    1.444260
    16  H    1.569555
    17  H    1.569555
 Sum of Mulliken charges =  -0.00000

 Dipole moment (field-independent basis, Debye):
    X=              0.0000    Y=              0.0000    Z=             -0.1407  Tot=              0.1407

 Test job not archived.
 1\1\GINC-SE086\SP\RHF\Aug-CC-pVDZ\C5H12\OHZDE\06-Apr-2025\0\\#t hf aug
 -cc-pvdz iop(5/13=1,5/36=2,99/5=2) pseudo=read geom=check guess=(read,
 tcheck) scf=(maxcycle=1)\\title\\0,1\C,0,0.,2.553552,0.323437\C,0,0.,-
 2.553552,0.323437\C,0,0.,1.280666,-0.521619\C,0,0.,-1.280666,-0.521619
 \C,0,0.,0.,0.313781\H,0,0.880619,2.598968,0.96759\H,0,-0.880619,2.5989
 68,0.96759\H,0,0.,3.448219,-0.300839\H,0,0.880619,-2.598968,0.96759\H,
 0,0.,-3.448219,-0.300839\H,0,-0.880619,-2.598968,0.96759\H,0,-0.873927
 ,1.280219,-1.180074\H,0,0.873927,1.280219,-1.180074\H,0,-0.873927,-1.2

 Normal termination of Gaussian 16 at Sun Apr  6 08:27:48 2025.
