 Gaussian 16, Revision C.01,

 ----------------------------------------------------------------------
 #t hf aug-cc-pvdz symm=none int=(grid=ultrafine) guess=(read,tcheck) s
 table=(opt,rrhf)
 ----------------------------------------------------------------------
 -----
 title
 -----
 Symbolic Z-matrix:
 Charge =  0 Multiplicity = 1

 SCF Done:  E(RHF) =  -301.762836723     A.U. after   13 cycles
 Normal termination of Gaussian 16 at Sun Apr  6 08:26:49 2025.
 Gaussian 16:  ES64L-G16RevC.01  3-Jul-2019

 ----------------------------------------------------------------------
 #t hf aug-cc-pvdz iop(5/13=1,5/36=2,99/5=2) pseudo=read geom=check gue
 ss=(read,tcheck) scf=(maxcycle=1)
 ----------------------------------------------------------------------
 -----
 title
 -----
 Structure from the checkpoint file:  "pentanedinitrile.chk"
 Charge =  0 Multiplicity = 1

                         Standard orientation:
 ---------------------------------------------------------------------
 Center     Atomic      Atomic             Coordinates (Angstroms)
 Number     Number       Type             X           Y           Z
 ---------------------------------------------------------------------
      1          6           0        0.000000    2.488837    0.088743
      2          6           0       -0.000000   -2.488837    0.088743
      3          6           0        0.000000    1.264960   -0.705030
      4          6           0       -0.000000   -1.264960   -0.705030
      5          6           0       -0.000000   -0.000000    0.168023
      6          7           0        0.000000    3.444883    0.727024
      7          7           0       -0.000000   -3.444883    0.727024
      8          1           0       -0.877475    1.279493   -1.355740
      9          1           0        0.877475    1.279493   -1.355740
     10          1           0        0.877475   -1.279493   -1.355740
     11          1           0       -0.877475   -1.279493   -1.355740
     12          1           0       -0.875721    0.000000    0.815966
     13          1           0        0.875721   -0.000000    0.815966
 ---------------------------------------------------------------------

 SCF Done:  E(RHF) =  -303.165394095     A.U. after    2 cycles

 The electronic state is 1-A1.
 Alpha  occ. eigenvalues --  -15.77092 -15.77091 -11.49679 -11.49391 -11.44823
 Alpha  occ. eigenvalues --  -11.44231 -11.42229  -1.36687  -1.32114  -1.24476
 Alpha  occ. eigenvalues --   -1.11287  -0.94091  -0.75412  -0.71524  -0.68952
 Alpha  occ. eigenvalues --   -0.63482  -0.60575  -0.55985  -0.54243  -0.53146
 Alpha  occ. eigenvalues --   -0.51188  -0.45580  -0.44729  -0.44398  -0.42517
 Alpha virt. eigenvalues --    0.02108   0.04293   0.04692   0.05719   0.06466
 Alpha virt. eigenvalues --    0.06501   0.08363   0.09144   0.09266   0.11121
 Alpha virt. eigenvalues --    0.11931   0.13209   0.13249   0.13431   0.13908

 Mulliken charges:
               1
     1  C    1.973039
     2  C    1.973039
     3  C   -2.838609
     4  C   -2.838609
     5  C   -2.548321
     6  N   -2.386712
     7  N   -2.386712
     8  H    1.489143
     9  H    1.489143
    10  H    1.489143
    11  H    1.489143
    12  H    1.548156
    13  H    1.548156
 Sum of Mulliken charges =   0.00000

 Dipole moment (field-independent basis, Debye):
    X=              0.0000    Y=             -0.0000    Z=             -3.4851  Tot=              3.4851

 Test job not archived.
 1\1\GINC-SE086\SP\RHF\Aug-CC-pVDZ\C5H6N2\OHZDE\06-Apr-2025\0\\#t hf au
 g-cc-pvdz iop(5/13=1,5/36=2,99/5=2) pseudo=read geom=check guess=(read
 ,tcheck) scf=(maxcycle=1)\\title\\0,1\C,0,0.,2.488837,0.088743\C,0,0.,
 -2.488837,0.088743\C,0,0.,1.26496,-0.70503\C,0,0.,-1.26496,-0.70503\C,
 0,0.,0.,0.168023\N,0,0.,3.444883,0.727024\N,0,0.,-3.444883,0.727024\H,
 0,-0.877475,1.279493,-1.35574\H,0,0.877475,1.279493,-1.35574\H,0,0.877
 475,-1.279493,-1.35574\H,0,-0.877475,-1.279493,-1.35574\H,0,-0.875721,
 0.,0.815966\H,0,0.875721,0.,0.815966\\Version=ES64L-G16RevC.01\State=1

 Normal termination of Gaussian 16 at Sun Apr  6 08:27:48 2025.
