 Gaussian 16, Revision C.01,

 ----------------------------------------------------------------------
 #t hf aug-cc-pvdz symm=none int=(grid=ultrafine) guess=(read,tcheck) s
 table=(opt,rrhf)
 ----------------------------------------------------------------------
 -----
 title
 -----
 Symbolic Z-matrix:
 Charge =  0 Multiplicity = 1

 SCF Done:  E(RHF) =  -423.033234318     A.U. after   13 cycles

 1\1\GINC-SE107\Stability\RHF\Aug-CC-pVDZ\C7H14O2\OHZDE\06-Apr-2025\0\\
 #t hf aug-cc-pvdz symm=none int=(grid=ultrafine) guess=(read,tcheck) s
 table=(opt,rrhf)\\title\\0,1\C,0,-1.760775,2.179912,0.\C,0,-3.257433,2
 .344694,0.\C,0,3.30906,-3.268875,0.\C,0,1.838693,-2.855555,0.\C,0,1.63
 9526,-1.339018,0.\C,0,0.167821,-0.92339,0.\C,0,0.,0.582801,0.\O,0,-0.9
 59601,3.081295,0.\O,0,-1.416146,0.876019,0.\H,0,-3.685781,1.861519,0.8
 7805\H,0,-3.685781,1.861519,-0.87805\H,0,-3.506083,3.401176,0.\H,0,3.8
 27078,-2.884132,-0.88081\H,0,3.827078,-2.884132,0.88081\H,0,3.417166,-

 Normal termination of Gaussian 16 at Sun Apr  6 08:28:05 2025.
 Gaussian 16:  ES64L-G16RevC.01  3-Jul-2019

 ----------------------------------------------------------------------
 #t hf aug-cc-pvdz iop(5/13=1,5/36=2,99/5=2) pseudo=read geom=check gue
 ss=(read,tcheck) scf=(maxcycle=1)
 ----------------------------------------------------------------------
 -----
 title
 -----
 Structure from the checkpoint file:  "pentyl_acetate.chk"
 Charge =  0 Multiplicity = 1

                         Standard orientation:
 ---------------------------------------------------------------------
 Center     Atomic      Atomic             Coordinates (Angstroms)
 Number     Number       Type             X           Y           Z
 ---------------------------------------------------------------------
      1          6           0       -1.760775    2.179913    0.000000
      2          6           0       -3.257433    2.344695    0.000000
      3          6           0        3.309059   -3.268876    0.000000
      4          6           0        1.838692   -2.855555    0.000000
      5          6           0        1.639525   -1.339018    0.000000
      6          6           0        0.167821   -0.923390    0.000000
      7          6           0        0.000000    0.582801    0.000000
      8          8           0       -0.959600    3.081295    0.000000
      9          8           0       -1.416146    0.876019    0.000000
     10          1           0       -3.685781    1.861520    0.878050
     11          1           0       -3.685781    1.861520   -0.878050
     12          1           0       -3.506082    3.401177    0.000000
     13          1           0        3.827077   -2.884133   -0.880810
     14          1           0        3.827077   -2.884133    0.880810
     15          1           0        3.417165   -4.354195    0.000000
     16          1           0        1.339036   -3.283396    0.874078
     17          1           0        1.339036   -3.283396   -0.874078
     18          1           0        2.140097   -0.911420    0.874802
     19          1           0        2.140097   -0.911420   -0.874802
     20          1           0       -0.335677   -1.338585    0.876781
     21          1           0       -0.335677   -1.338585   -0.876781
     22          1           0        0.452021    1.041556   -0.880361
     23          1           0        0.452021    1.041556    0.880361
 ---------------------------------------------------------------------

 SCF Done:  E(RHF) =  -425.029228893     A.U. after    2 cycles

 The electronic state is 1-A'.
 Alpha  occ. eigenvalues --  -21.08219 -21.04268 -11.51786 -11.45218 -11.42361
 Alpha  occ. eigenvalues --  -11.40046 -11.39140 -11.37246 -11.34851  -1.83646
 Alpha  occ. eigenvalues --   -1.65512  -1.25817  -1.13663  -1.09007  -0.98170
 Alpha  occ. eigenvalues --   -0.87933  -0.83099  -0.75586  -0.68148  -0.64841
 Alpha  occ. eigenvalues --   -0.63352  -0.60095  -0.60029  -0.58437  -0.55324
 Alpha  occ. eigenvalues --   -0.54293  -0.52429  -0.49684  -0.49481  -0.46358
 Alpha  occ. eigenvalues --   -0.45653  -0.45572  -0.41568  -0.40642  -0.31837
 Alpha  occ. eigenvalues --   -0.28956
 Alpha virt. eigenvalues --    0.03760   0.04448   0.04621   0.05582   0.05813
 Alpha virt. eigenvalues --    0.05986   0.06542   0.06646   0.06833   0.07154
 Alpha virt. eigenvalues --    0.07844   0.09150   0.09281   0.09719   0.11011

 Mulliken charges:
               1
     1  C    5.401049
     2  C   -4.837229
     3  C   -4.563666
     4  C   -2.902015
     5  C   -1.985752
     6  C   -2.784108
     7  C   -1.901565
     8  O   -3.060914
     9  O   -3.345738
    10  H    1.322741
    11  H    1.322741
    12  H    1.261764
    13  H    1.318265
    14  H    1.318265
    15  H    1.080310
    16  H    1.450283
    17  H    1.450283
    18  H    1.557835
    19  H    1.557835
    20  H    1.518952
    21  H    1.518952
    22  H    1.650856
    23  H    1.650856
 Sum of Mulliken charges =   0.00000

 Dipole moment (field-independent basis, Debye):
    X=             -0.2899    Y=             -1.6915    Z=             -0.0000  Tot=              1.7162

 Test job not archived.
 1\1\GINC-SE107\SP\RHF\Aug-CC-pVDZ\C7H14O2\OHZDE\06-Apr-2025\0\\#t hf a
 ug-cc-pvdz iop(5/13=1,5/36=2,99/5=2) pseudo=read geom=check guess=(rea
 d,tcheck) scf=(maxcycle=1)\\title\\0,1\C,0,-1.760775,2.179912,0.\C,0,-
 3.257433,2.344694,0.\C,0,3.30906,-3.268875,0.\C,0,1.838693,-2.855555,0
 .\C,0,1.639526,-1.339018,0.\C,0,0.167821,-0.92339,0.\C,0,0.,0.582801,0
 .\O,0,-0.959601,3.081295,0.\O,0,-1.416146,0.876019,0.\H,0,-3.685781,1.
 861519,0.87805\H,0,-3.685781,1.861519,-0.87805\H,0,-3.506083,3.401176,
 0.\H,0,3.827078,-2.884132,-0.88081\H,0,3.827078,-2.884132,0.88081\H,0,

 Normal termination of Gaussian 16 at Sun Apr  6 08:29:00 2025.
