 Gaussian 16, Revision C.01,

 ----------------------------------------------------------------------
 #t hf aug-cc-pvdz symm=none int=(grid=ultrafine) guess=(read,tcheck) s
 table=(opt,rrhf)
 ----------------------------------------------------------------------
 -----
 title
 -----
 Symbolic Z-matrix:
 Charge =  0 Multiplicity = 1

 SCF Done:  E(RHF) =  -306.379497318     A.U. after   14 cycles
 Normal termination of Gaussian 16 at Sun Apr  6 08:28:25 2025.
 Gaussian 16:  ES64L-G16RevC.01  3-Jul-2019

 ----------------------------------------------------------------------
 #t hf aug-cc-pvdz iop(5/13=1,5/36=2,99/5=2) pseudo=read geom=check gue
 ss=(read,tcheck) scf=(maxcycle=1)
 ----------------------------------------------------------------------
 -----
 title
 -----
 Structure from the checkpoint file:  "pentalene.chk"
 Charge =  0 Multiplicity = 1

                         Standard orientation:
 ---------------------------------------------------------------------
 Center     Atomic      Atomic             Coordinates (Angstroms)
 Number     Number       Type             X           Y           Z
 ---------------------------------------------------------------------
      1          6           0        1.340358    1.082599    0.000000
      2          6           0        2.159435   -0.166489    0.000000
      3          6           0        1.340358   -1.239684    0.000000
      4          6           0       -1.340358   -1.082599    0.000000
      5          6           0       -2.159435    0.166489    0.000000
      6          6           0       -1.340358    1.239684    0.000000
      7          6           0        0.038329    0.726381    0.000000
      8          6           0       -0.038329   -0.726381    0.000000
      9          1           0        1.756064    2.079976    0.000000
     10          1           0        3.238150   -0.182744    0.000000
     11          1           0        1.637830   -2.276002    0.000000
     12          1           0       -1.756064   -2.079976    0.000000
     13          1           0       -3.238150    0.182744    0.000000
     14          1           0       -1.637830    2.276002    0.000000
 ---------------------------------------------------------------------

 SCF Done:  E(RHF) =  -307.837045446     A.U. after    2 cycles

 The electronic state is 1-AG.
 Alpha  occ. eigenvalues --  -11.46594 -11.46004 -11.45017 -11.43387 -11.39921
 Alpha  occ. eigenvalues --  -11.39659 -11.38818 -11.36117  -1.41150  -1.21225
 Alpha  occ. eigenvalues --   -1.05478  -0.98923  -0.93079  -0.79915  -0.77857
 Alpha  occ. eigenvalues --   -0.71861  -0.68925  -0.60864  -0.53438  -0.53094
 Alpha  occ. eigenvalues --   -0.52402  -0.47952  -0.45689  -0.42828  -0.40438
 Alpha  occ. eigenvalues --   -0.32264  -0.25594
 Alpha virt. eigenvalues --    0.03486   0.03487   0.04790   0.04969   0.05845
 Alpha virt. eigenvalues --    0.06566   0.06974   0.10027   0.11232   0.11505
 Alpha virt. eigenvalues --    0.12589   0.13048   0.13506   0.13631   0.13706

 Mulliken charges:
               1
     1  C   -3.202693
     2  C   -2.240003
     3  C   -1.460311
     4  C   -3.202693
     5  C   -2.240003
     6  C   -1.460311
     7  C    2.986970
     8  C    2.986970
     9  H    1.256632
    10  H    1.412973
    11  H    1.246433
    12  H    1.256632
    13  H    1.412973
    14  H    1.246433
 Sum of Mulliken charges =   0.00000

 Dipole moment (field-independent basis, Debye):
    X=             -0.0000    Y=              0.0000    Z=              0.0000  Tot=              0.0000

 Test job not archived.
 1\1\GINC-SE177\SP\RHF\Aug-CC-pVDZ\C8H6\OHZDE\06-Apr-2025\0\\#t hf aug-
 cc-pvdz iop(5/13=1,5/36=2,99/5=2) pseudo=read geom=check guess=(read,t
 check) scf=(maxcycle=1)\\title\\0,1\C,0,1.340358,1.082599,0.\C,0,2.159
 435,-0.166489,0.\C,0,1.340358,-1.239684,0.\C,0,-1.340358,-1.082599,0.\
 C,0,-2.159435,0.166489,0.\C,0,-1.340358,1.239684,0.\C,0,0.038329,0.726
 381,0.\C,0,-0.038329,-0.726381,0.\H,0,1.756064,2.079976,0.\H,0,3.23815
 ,-0.182744,0.\H,0,1.63783,-2.276002,0.\H,0,-1.756064,-2.079976,0.\H,0,
 -3.23815,0.182744,0.\H,0,-1.63783,2.276002,0.\\Version=ES64L-G16RevC.0

 Normal termination of Gaussian 16 at Sun Apr  6 08:28:56 2025.
