 Gaussian 16, Revision C.01,

 ----------------------------------------------------------------------
 #t hf aug-cc-pvdz symm=none int=(grid=ultrafine) guess=(read,tcheck) s
 table=(opt,rrhf)
 ----------------------------------------------------------------------
 -----
 title
 -----
 Symbolic Z-matrix:
 Charge =  0 Multiplicity = 1

 SCF Done:  E(RHF) =  -246.662552288     A.U. after   13 cycles
 Normal termination of Gaussian 16 at Sun Apr  6 08:26:38 2025.
 Gaussian 16:  ES64L-G16RevC.01  3-Jul-2019

 ----------------------------------------------------------------------
 #t hf aug-cc-pvdz iop(5/13=1,5/36=2,99/5=2) pseudo=read geom=check gue
 ss=(read,tcheck) scf=(maxcycle=1)
 ----------------------------------------------------------------------
 -----
 title
 -----
 Structure from the checkpoint file:  "pent-3-ynenitrile.chk"
 Charge =  0 Multiplicity = 1

                         Standard orientation:
 ---------------------------------------------------------------------
 Center     Atomic      Atomic             Coordinates (Angstroms)
 Number     Number       Type             X           Y           Z
 ---------------------------------------------------------------------
      1          6           0        1.101422    1.086436    0.000000
      2          6           0        0.000000    0.612760    0.000000
      3          6           0       -1.353510   -1.424068    0.000000
      4          6           0        2.441080    1.653556    0.000000
      5          6           0       -1.345349    0.043042    0.000000
      6          7           0       -1.379143   -2.572655    0.000000
      7          1           0        2.603677    2.273574    0.882742
      8          1           0        3.194285    0.864356    0.000000
      9          1           0        2.603677    2.273574   -0.882742
     10          1           0       -1.904748    0.383361   -0.875875
     11          1           0       -1.904748    0.383361    0.875875
 ---------------------------------------------------------------------

 SCF Done:  E(RHF) =  -247.817532827     A.U. after    2 cycles

 The electronic state is 1-A'.
 Alpha  occ. eigenvalues --  -15.76177 -11.51629 -11.45382 -11.44106 -11.40845
 Alpha  occ. eigenvalues --  -11.40752  -1.33084  -1.21831  -1.13716  -0.98431
 Alpha  occ. eigenvalues --   -0.73286  -0.68950  -0.65413  -0.59937  -0.59502
 Alpha  occ. eigenvalues --   -0.59477  -0.52354  -0.44240  -0.44231  -0.37160
 Alpha  occ. eigenvalues --   -0.36810
 Alpha virt. eigenvalues --    0.02151   0.04232   0.05937   0.06146   0.06315
 Alpha virt. eigenvalues --    0.08551   0.09111   0.10897   0.11337   0.11997
 Alpha virt. eigenvalues --    0.12369   0.12471   0.13458   0.15719   0.15838

 Mulliken charges:
               1
     1  C    1.974975
     2  C    3.279955
     3  C    2.374494
     4  C   -5.145037
     5  C   -4.534228
     6  N   -2.612331
     7  H    0.867426
     8  H    0.890371
     9  H    0.867426
    10  H    1.018474
    11  H    1.018474
 Sum of Mulliken charges =  -0.00000

 Dipole moment (field-independent basis, Debye):
    X=              0.8223    Y=              3.7042    Z=             -0.0000  Tot=              3.7944

 Test job not archived.
 1\1\GINC-SE046\SP\RHF\Aug-CC-pVDZ\C5H5N1\OHZDE\06-Apr-2025\0\\#t hf au
 g-cc-pvdz iop(5/13=1,5/36=2,99/5=2) pseudo=read geom=check guess=(read
 ,tcheck) scf=(maxcycle=1)\\title\\0,1\C,0,1.101422,1.086436,0.\C,0,0.,
 0.61276,0.\C,0,-1.35351,-1.424068,0.\C,0,2.44108,1.653556,0.\C,0,-1.34
 5349,0.043042,0.\N,0,-1.379143,-2.572655,0.\H,0,2.603677,2.273574,0.88
 2742\H,0,3.194285,0.864356,0.\H,0,2.603677,2.273574,-0.882742\H,0,-1.9
 04748,0.383361,-0.875875\H,0,-1.904748,0.383361,0.875875\\Version=ES64
 L-G16RevC.01\State=1-A'\HF=-247.8175328\RMSD=1.741e+00\Dipole=0.323525

 Normal termination of Gaussian 16 at Sun Apr  6 08:26:47 2025.
