 Gaussian 16, Revision C.01,

 ----------------------------------------------------------------------
 #t hf aug-cc-pvdz symm=none int=(grid=ultrafine) guess=(read,tcheck) s
 table=(opt,rrhf)
 ----------------------------------------------------------------------
 -----
 title
 -----
 Symbolic Z-matrix:
 Charge =  0 Multiplicity = 1

 SCF Done:  E(RHF) =  -725.013539886     A.U. after   14 cycles
 Normal termination of Gaussian 16 at Sun Apr  6 08:27:18 2025.
 Gaussian 16:  ES64L-G16RevC.01  3-Jul-2019

 ----------------------------------------------------------------------
 #t hf aug-cc-pvdz iop(5/13=1,5/36=2,99/5=2) pseudo=read geom=check gue
 ss=(read,tcheck) scf=(maxcycle=1)
 ----------------------------------------------------------------------
 -----
 title
 -----
 Structure from the checkpoint file:  "pentafluorobenzene.chk"
 Charge =  0 Multiplicity = 1

                         Standard orientation:
 ---------------------------------------------------------------------
 Center     Atomic      Atomic             Coordinates (Angstroms)
 Number     Number       Type             X           Y           Z
 ---------------------------------------------------------------------
      1          6           0        0.000000   -0.000000    1.114207
      2          6           0        0.000000    1.205172    0.423331
      3          6           0        0.000000    1.190132   -0.964430
      4          6           0       -0.000000    0.000000   -1.669598
      5          6           0       -0.000000   -1.190132   -0.964430
      6          6           0       -0.000000   -1.205172    0.423331
      7          9           0        0.000000   -0.000000    2.445370
      8          9           0        0.000000    2.356848    1.095325
      9          9           0        0.000000    2.356407   -1.619428
     10          1           0       -0.000000    0.000000   -2.748927
     11          9           0       -0.000000   -2.356407   -1.619428
     12          9           0       -0.000000   -2.356848    1.095325
 ---------------------------------------------------------------------

 SCF Done:  E(RHF) =  -727.721869803     A.U. after    2 cycles

 The electronic state is 1-A1.
 Alpha  occ. eigenvalues --  -29.33123 -29.32620 -29.32584 -29.32515 -29.32500
 Alpha  occ. eigenvalues --  -11.60945 -11.54525 -11.53705 -11.51829 -11.49104
 Alpha  occ. eigenvalues --  -11.45107  -1.48309  -1.28823  -1.26427  -1.08833
 Alpha  occ. eigenvalues --   -1.06023  -0.91839  -0.86980  -0.76698  -0.76056
 Alpha  occ. eigenvalues --   -0.73202  -0.67407  -0.63462  -0.60593  -0.56355
 Alpha  occ. eigenvalues --   -0.52930  -0.44616  -0.44008  -0.43355  -0.42768
 Alpha  occ. eigenvalues --   -0.41871  -0.40008  -0.38587  -0.32530  -0.31612
 Alpha  occ. eigenvalues --   -0.31387  -0.30481  -0.30384  -0.28114  -0.23013
 Alpha  occ. eigenvalues --   -0.19300
 Alpha virt. eigenvalues --    0.04334   0.08990   0.10059   0.10189   0.10455
 Alpha virt. eigenvalues --    0.11335   0.11696   0.12028   0.12276   0.12557
 Alpha virt. eigenvalues --    0.13945   0.13984   0.14045   0.14077   0.15091

 Mulliken charges:
               1
     1  C    0.819966
     2  C   -3.055281
     3  C    2.462573
     4  C   -6.696420
     5  C    2.462573
     6  C   -3.055281
     7  F    1.091281
     8  F    1.232939
     9  F    0.893128
    10  H    1.718454
    11  F    0.893128
    12  F    1.232939
 Sum of Mulliken charges =   0.00000

 Dipole moment (field-independent basis, Debye):
    X=             -0.0000    Y=             -0.0000    Z=              2.1831  Tot=              2.1831

 Test job not archived.
 1\1\GINC-SE167\SP\RHF\Aug-CC-pVDZ\C6H1F5\OHZDE\06-Apr-2025\0\\#t hf au
 g-cc-pvdz iop(5/13=1,5/36=2,99/5=2) pseudo=read geom=check guess=(read
 ,tcheck) scf=(maxcycle=1)\\title\\0,1\C,0,0.,0.,1.114207\C,0,0.,1.2051
 72,0.423331\C,0,0.,1.190132,-0.96443\C,0,0.,0.,-1.669598\C,0,0.,-1.190
 132,-0.96443\C,0,0.,-1.205172,0.423331\F,0,0.,0.,2.44537\F,0,0.,2.3568
 48,1.095325\F,0,0.,2.356407,-1.619428\H,0,0.,0.,-2.748927\F,0,0.,-2.35
 6407,-1.619428\F,0,0.,-2.356848,1.095325\\Version=ES64L-G16RevC.01\Sta
 te=1-A1\HF=-727.7218698\RMSD=1.341e+00\Dipole=0.,0.,0.8588988\Quadrupo

 Normal termination of Gaussian 16 at Sun Apr  6 08:27:51 2025.
