 Gaussian 16, Revision C.01,

 ----------------------------------------------------------------------
 #t hf aug-cc-pvdz symm=none int=(grid=ultrafine) guess=(read,tcheck) s
 table=(opt,rrhf)
 ----------------------------------------------------------------------
 -----
 title
 -----
 Symbolic Z-matrix:
 Charge =  0 Multiplicity = 1

 SCF Done:  E(RHF) =  -310.573573887     A.U. after   13 cycles
 Normal termination of Gaussian 16 at Sun Apr  6 08:26:32 2025.
 Gaussian 16:  ES64L-G16RevC.01  3-Jul-2019

 ----------------------------------------------------------------------
 #t hf aug-cc-pvdz iop(5/13=1,5/36=2,99/5=2) pseudo=read geom=check gue
 ss=(read,tcheck) scf=(maxcycle=1)
 ----------------------------------------------------------------------
 -----
 title
 -----
 Structure from the checkpoint file:  "pentazine.chk"
 Charge =  0 Multiplicity = 1

                         Standard orientation:
 ---------------------------------------------------------------------
 Center     Atomic      Atomic             Coordinates (Angstroms)
 Number     Number       Type             X           Y           Z
 ---------------------------------------------------------------------
      1          7           0        0.000000    1.175961   -0.636160
      2          7           0        0.000000    1.151724    0.677844
      3          7           0        0.000000    0.000000    1.324042
      4          7           0       -0.000000   -1.151724    0.677844
      5          7           0       -0.000000   -1.175961   -0.636160
      6          6           0        0.000000   -0.000000   -1.252774
      7          1           0        0.000000   -0.000000   -2.335236
 ---------------------------------------------------------------------

 SCF Done:  E(RHF) =  -311.918667321     A.U. after    2 cycles

 The electronic state is 1-A1.
 Alpha  occ. eigenvalues --  -15.86999 -15.86920 -15.84530 -15.83887 -15.83858
 Alpha  occ. eigenvalues --  -11.50037  -1.74924  -1.52085  -1.42377  -1.09281
 Alpha  occ. eigenvalues --   -1.05192  -0.78043  -0.76606  -0.69241  -0.64003
 Alpha  occ. eigenvalues --   -0.53525  -0.52946  -0.49760  -0.47043  -0.41716
 Alpha  occ. eigenvalues --   -0.37555
 Alpha virt. eigenvalues --    0.03289   0.05377   0.05905   0.09232   0.09328
 Alpha virt. eigenvalues --    0.10509   0.13558   0.13612   0.14322   0.16052
 Alpha virt. eigenvalues --    0.17729   0.17967   0.18048   0.19841   0.22207

 Mulliken charges:
               1
     1  N   -1.510942
     2  N    0.059986
     3  N    0.097524
     4  N    0.059986
     5  N   -1.510942
     6  C    1.201939
     7  H    1.602449
 Sum of Mulliken charges =   0.00000

 Dipole moment (field-independent basis, Debye):
    X=              0.0000    Y=             -0.0000    Z=             -2.3557  Tot=              2.3557

 Test job not archived.
 1\1\GINC-SE106\SP\RHF\Aug-CC-pVDZ\C1H1N5\OHZDE\06-Apr-2025\0\\#t hf au
 g-cc-pvdz iop(5/13=1,5/36=2,99/5=2) pseudo=read geom=check guess=(read
 ,tcheck) scf=(maxcycle=1)\\title\\0,1\N,0,0.,1.175961,-0.63616\N,0,0.,
 1.151724,0.677844\N,0,0.,0.,1.324042\N,0,0.,-1.151724,0.677844\N,0,0.,
 -1.175961,-0.63616\C,0,0.,0.,-1.252774\H,0,0.,0.,-2.335236\\Version=ES
 64L-G16RevC.01\State=1-A1\HF=-311.9186673\RMSD=1.185e-01\Dipole=0.,0.,
 -0.9267885\Quadrupole=2.4324258,-3.8467355,1.4143097,0.,0.,0.\PG=C02V
 [C2(H1C1N1),SGV(N4)]\\@

 Normal termination of Gaussian 16 at Sun Apr  6 08:26:45 2025.
