 Gaussian 16, Revision C.01,

 ----------------------------------------------------------------------
 #t hf aug-cc-pvdz symm=none int=(grid=ultrafine) guess=(read,tcheck) s
 table=(opt,rrhf)
 ----------------------------------------------------------------------
 -----
 title
 -----
 Symbolic Z-matrix:
 Charge =  0 Multiplicity = 1

 SCF Done:  E(RHF) =  -425.924222364     A.U. after   14 cycles
 Normal termination of Gaussian 16 at Sun Apr  6 08:30:22 2025.
 Gaussian 16:  ES64L-G16RevC.01  3-Jul-2019

 ----------------------------------------------------------------------
 #t hf aug-cc-pvdz iop(5/13=1,5/36=2,99/5=2) pseudo=read geom=check gue
 ss=(read,tcheck) scf=(maxcycle=1)
 ----------------------------------------------------------------------
 -----
 title
 -----
 Structure from the checkpoint file:  "pentylbenzene.chk"
 Charge =  0 Multiplicity = 1

                         Standard orientation:
 ---------------------------------------------------------------------
 Center     Atomic      Atomic             Coordinates (Angstroms)
 Number     Number       Type             X           Y           Z
 ---------------------------------------------------------------------
      1          6           0        0.900306   -3.825697   -0.000000
      2          6           0        0.901539   -3.124972    1.200332
      3          6           0        0.901539   -3.124972   -1.200332
      4          6           0        0.901539   -1.735317    1.197099
      5          6           0        0.901539   -1.735317   -1.197099
      6          6           0        0.899114   -1.017757   -0.000000
      7          6           0       -2.041142    4.699080    0.000000
      8          6           0        0.860460    0.490669    0.000000
      9          6           0       -2.015889    3.171462    0.000000
     10          6           0       -0.566581    1.063132    0.000000
     11          6           0       -0.600850    2.591122    0.000000
     12          1           0        0.903787   -4.907472   -0.000000
     13          1           0        0.907522   -3.660707    2.140621
     14          1           0        0.907522   -3.660707   -2.140621
     15          1           0        0.909093   -1.198296    2.138067
     16          1           0        0.909093   -1.198296   -2.138067
     17          1           0       -1.536298    5.101628   -0.880619
     18          1           0       -3.062669    5.081774    0.000000
     19          1           0       -1.536298    5.101628    0.880619
     20          1           0        1.394032    0.869083    0.875785
     21          1           0        1.394032    0.869083   -0.875785
     22          1           0       -2.557854    2.797729    0.873851
     23          1           0       -2.557854    2.797729   -0.873851
     24          1           0       -1.103777    0.683533    0.873971
     25          1           0       -1.103777    0.683533   -0.873971
     26          1           0       -0.058001    2.965583    0.874525
     27          1           0       -0.058001    2.965583   -0.874525
 ---------------------------------------------------------------------

 SCF Done:  E(RHF) =  -428.072217463     A.U. after    2 cycles

 The electronic state is 1-A'.
 Alpha  occ. eigenvalues --  -11.51292 -11.44098 -11.42532 -11.42331 -11.41593
 Alpha  occ. eigenvalues --  -11.40069 -11.39738 -11.38716 -11.36468 -11.35389
 Alpha  occ. eigenvalues --  -11.34145  -1.35578  -1.25116  -1.15157  -1.08496
 Alpha  occ. eigenvalues --   -1.06727  -0.97872  -0.88244  -0.85766  -0.82480
 Alpha  occ. eigenvalues --   -0.81534  -0.70122  -0.66041  -0.64146  -0.61115
 Alpha  occ. eigenvalues --   -0.58873  -0.57342  -0.55935  -0.55890  -0.54801
 Alpha  occ. eigenvalues --   -0.51307  -0.50140  -0.47569  -0.47102  -0.45210
 Alpha  occ. eigenvalues --   -0.45115  -0.44311  -0.43159  -0.39109  -0.32408
 Alpha  occ. eigenvalues --   -0.30792
 Alpha virt. eigenvalues --    0.03700   0.04594   0.04785   0.05210   0.05576
 Alpha virt. eigenvalues --    0.05896   0.06055   0.06474   0.06486   0.06662
 Alpha virt. eigenvalues --    0.06960   0.07794   0.08552   0.09219   0.09603

 Mulliken charges:
               1
     1  C   -2.905444
     2  C   -1.830041
     3  C   -1.830041
     4  C   -2.212598
     5  C   -2.212598
     6  C    5.105824
     7  C   -4.437940
     8  C   -5.644767
     9  C   -3.045625
    10  C   -2.485065
    11  C   -2.450025
    12  H    1.532630
    13  H    1.506639
    14  H    1.506639
    15  H    1.773467
    16  H    1.773467
    17  H    1.334892
    18  H    1.075054
    19  H    1.334892
    20  H    1.370787
    21  H    1.370787
    22  H    1.449685
    23  H    1.449685
    24  H    1.727821
    25  H    1.727821
    26  H    1.507025
    27  H    1.507025
 Sum of Mulliken charges =   0.00000

 Dipole moment (field-independent basis, Debye):
    X=             -0.1678    Y=              0.3036    Z=             -0.0000  Tot=              0.3468

 Test job not archived.
 1\1\GINC-SE107\SP\RHF\Aug-CC-pVDZ\C11H16\OHZDE\06-Apr-2025\0\\#t hf au
 g-cc-pvdz iop(5/13=1,5/36=2,99/5=2) pseudo=read geom=check guess=(read
 ,tcheck) scf=(maxcycle=1)\\title\\0,1\C,0,0.900306,-3.825697,0.\C,0,0.
 901539,-3.124972,1.200332\C,0,0.901539,-3.124972,-1.200332\C,0,0.90153
 9,-1.735317,1.197099\C,0,0.901539,-1.735317,-1.197099\C,0,0.899114,-1.
 017757,0.\C,0,-2.041142,4.69908,0.\C,0,0.86046,0.490669,0.\C,0,-2.0158
 89,3.171462,0.\C,0,-0.566581,1.063132,0.\C,0,-0.60085,2.591122,0.\H,0,
 0.903787,-4.907472,0.\H,0,0.907522,-3.660707,2.140621\H,0,0.907522,-3.

 Normal termination of Gaussian 16 at Sun Apr  6 08:30:58 2025.
