 Gaussian 16, Revision C.01,

 ----------------------------------------------------------------------
 #t hf aug-cc-pvdz symm=none int=(grid=ultrafine) guess=(read,tcheck) s
 table=(opt,rrhf)
 ----------------------------------------------------------------------
 -----
 title
 -----
 Symbolic Z-matrix:
 Charge =  0 Multiplicity = 1

 SCF Done:  E(RHF) =  -249.061077228     A.U. after   14 cycles
 Normal termination of Gaussian 16 at Sun Apr  6 08:26:52 2025.
 Gaussian 16:  ES64L-G16RevC.01  3-Jul-2019

 ----------------------------------------------------------------------
 #t hf aug-cc-pvdz iop(5/13=1,5/36=2,99/5=2) pseudo=read geom=check gue
 ss=(read,tcheck) scf=(maxcycle=1)
 ----------------------------------------------------------------------
 -----
 title
 -----
 Structure from the checkpoint file:  "pentanenitrile.chk"
 Charge =  0 Multiplicity = 1

                         Standard orientation:
 ---------------------------------------------------------------------
 Center     Atomic      Atomic             Coordinates (Angstroms)
 Number     Number       Type             X           Y           Z
 ---------------------------------------------------------------------
      1          6           0       -1.381391   -1.674027    0.000000
      2          6           0        1.469740    2.485294    0.000000
      3          6           0       -0.027455   -1.130038    0.000000
      4          6           0        1.425482    0.958648    0.000000
      5          6           0        0.000000    0.407830    0.000000
      6          7           0       -2.455764   -2.084510    0.000000
      7          1           0        0.971625    2.894129    0.880933
      8          1           0        2.497069    2.850311    0.000000
      9          1           0        0.971625    2.894129   -0.880933
     10          1           0        0.496473   -1.517892   -0.876678
     11          1           0        0.496473   -1.517892    0.876678
     12          1           0        1.960400    0.577288   -0.874787
     13          1           0        1.960400    0.577288    0.874787
     14          1           0       -0.540986    0.773987   -0.875086
     15          1           0       -0.540986    0.773987    0.875086
 ---------------------------------------------------------------------

 SCF Done:  E(RHF) =  -250.286894305     A.U. after    2 cycles

 The electronic state is 1-A'.
 Alpha  occ. eigenvalues --  -15.75267 -11.47038 -11.43511 -11.42061 -11.39675
 Alpha  occ. eigenvalues --  -11.36602  -1.33105  -1.24567  -1.11676  -0.96570
 Alpha  occ. eigenvalues --   -0.85516  -0.69918  -0.68332  -0.61190  -0.61049
 Alpha  occ. eigenvalues --   -0.55244  -0.53095  -0.52367  -0.48230  -0.47817
 Alpha  occ. eigenvalues --   -0.46638  -0.42767  -0.41108
 Alpha virt. eigenvalues --    0.03342   0.04488   0.04963   0.05365   0.05781
 Alpha virt. eigenvalues --    0.06483   0.06986   0.07193   0.09141   0.09156
 Alpha virt. eigenvalues --    0.10965   0.12919   0.13089   0.13462   0.14429

 Mulliken charges:
               1
     1  C    2.156426
     2  C   -4.117497
     3  C   -3.052247
     4  C   -2.719476
     5  C   -2.487194
     6  N   -2.434710
     7  H    1.268956
     8  H    1.092669
     9  H    1.268956
    10  H    1.512167
    11  H    1.512167
    12  H    1.418070
    13  H    1.418070
    14  H    1.581822
    15  H    1.581822
 Sum of Mulliken charges =  -0.00000

 Dipole moment (field-independent basis, Debye):
    X=              3.5309    Y=              1.8188    Z=             -0.0000  Tot=              3.9718

 Test job not archived.
 1\1\GINC-SE106\SP\RHF\Aug-CC-pVDZ\C5H9N1\OHZDE\06-Apr-2025\0\\#t hf au
 g-cc-pvdz iop(5/13=1,5/36=2,99/5=2) pseudo=read geom=check guess=(read
 ,tcheck) scf=(maxcycle=1)\\title\\0,1\C,0,-1.381391,-1.674027,0.\C,0,1
 .46974,2.485294,0.\C,0,-0.027455,-1.130038,0.\C,0,1.425482,0.958648,0.
 \C,0,0.,0.40783,0.\N,0,-2.455764,-2.08451,0.\H,0,0.971625,2.894129,0.8
 80933\H,0,2.497069,2.850311,0.\H,0,0.971625,2.894129,-0.880933\H,0,0.4
 96473,-1.517892,-0.876678\H,0,0.496473,-1.517892,0.876678\H,0,1.9604,0
 .577288,-0.874787\H,0,1.9604,0.577288,0.874787\H,0,-0.540986,0.773987,

 Normal termination of Gaussian 16 at Sun Apr  6 08:27:48 2025.
