 Gaussian 16, Revision C.01,

 ----------------------------------------------------------------------
 #t hf aug-cc-pvdz symm=none int=(grid=ultrafine) guess=(read,tcheck) s
 table=(opt,rrhf)
 ----------------------------------------------------------------------
 -----
 title
 -----
 Symbolic Z-matrix:
 Charge =  0 Multiplicity = 1

 SCF Done:  E(RHF) =  -325.129306968     A.U. after   13 cycles
 Normal termination of Gaussian 16 at Sun Apr  6 08:27:11 2025.
 Gaussian 16:  ES64L-G16RevC.01  3-Jul-2019

 ----------------------------------------------------------------------
 #t hf aug-cc-pvdz iop(5/13=1,5/36=2,99/5=2) pseudo=read geom=check gue
 ss=(read,tcheck) scf=(maxcycle=1)
 ----------------------------------------------------------------------
 -----
 title
 -----
 Structure from the checkpoint file:  "pentanamide.chk"
 Charge =  0 Multiplicity = 1

                         Standard orientation:
 ---------------------------------------------------------------------
 Center     Atomic      Atomic             Coordinates (Angstroms)
 Number     Number       Type             X           Y           Z
 ---------------------------------------------------------------------
      1          6           0       -0.428305   -0.603318    0.292946
      2          6           0       -1.730980    0.145991    0.048752
      3          6           0        0.804689    0.186857   -0.143412
      4          7           0       -2.798137   -0.632363   -0.294446
      5          8           0       -1.831047    1.353253    0.169304
      6          6           0        2.116704   -0.509009    0.218058
      7          6           0        3.349645    0.278591   -0.221813
      8          1           0       -0.378232   -0.797219    1.369502
      9          1           0       -0.452804   -1.579947   -0.197097
     10          1           0        0.763288    0.351634   -1.223970
     11          1           0        0.764447    1.175441    0.315734
     12          1           0       -3.696408   -0.193737   -0.404160
     13          1           0       -2.730511   -1.629614   -0.375823
     14          1           0        2.153180   -0.667921    1.300253
     15          1           0        2.140943   -1.504976   -0.235220
     16          1           0        4.270724   -0.237101    0.052854
     17          1           0        3.359798    0.422536   -1.304049
     18          1           0        3.370399    1.266751    0.241480
 ---------------------------------------------------------------------

 SCF Done:  E(RHF) =  -326.682386739     A.U. after    2 cycles

 The electronic state is 1-A.
 Alpha  occ. eigenvalues --  -21.01671 -15.77650 -11.50535 -11.42366 -11.40740
 Alpha  occ. eigenvalues --  -11.37429 -11.34712  -1.69816  -1.34590  -1.24019
 Alpha  occ. eigenvalues --   -1.09575  -0.95089  -0.84033  -0.78939  -0.70948
 Alpha  occ. eigenvalues --   -0.66377  -0.62576  -0.59773  -0.57259  -0.53780
 Alpha  occ. eigenvalues --   -0.52217  -0.48166  -0.47594  -0.45491  -0.45031
 Alpha  occ. eigenvalues --   -0.42517  -0.31973  -0.28121
 Alpha virt. eigenvalues --    0.03512   0.04507   0.05130   0.05353   0.05985
 Alpha virt. eigenvalues --    0.06445   0.06830   0.07312   0.08238   0.08639
 Alpha virt. eigenvalues --    0.09984   0.10347   0.13273   0.13565   0.13840

 Mulliken charges:
               1
     1  C   -3.949264
     2  C    5.430686
     3  C   -2.130254
     4  N   -3.103569
     5  O   -3.284730
     6  C   -2.857749
     7  C   -4.226602
     8  H    1.474907
     9  H    1.555890
    10  H    1.503345
    11  H    1.644531
    12  H    0.744577
    13  H    0.721828
    14  H    1.398020
    15  H    1.430499
    16  H    1.075175
    17  H    1.279000
    18  H    1.293710
 Sum of Mulliken charges =  -0.00000

 Dipole moment (field-independent basis, Debye):
    X=             -0.3127    Y=             -2.3262    Z=             -0.2730  Tot=              2.3629

 Test job not archived.
 1\1\GINC-SE085\SP\RHF\Aug-CC-pVDZ\C5H11N1O1\OHZDE\06-Apr-2025\0\\#t hf
  aug-cc-pvdz iop(5/13=1,5/36=2,99/5=2) pseudo=read geom=check guess=(r
 ead,tcheck) scf=(maxcycle=1)\\title\\0,1\C,0,-0.428305,-0.603318,0.292
 946\C,0,-1.73098,0.145991,0.048752\C,0,0.804689,0.186857,-0.143412\N,0
 ,-2.798137,-0.632363,-0.294446\O,0,-1.831047,1.353253,0.169304\C,0,2.1
 16704,-0.509009,0.218058\C,0,3.349645,0.278591,-0.221813\H,0,-0.378232
 ,-0.797219,1.369502\H,0,-0.452804,-1.579947,-0.197097\H,0,0.763288,0.3
 51634,-1.22397\H,0,0.764447,1.175441,0.315734\H,0,-3.696408,-0.193737,

 Normal termination of Gaussian 16 at Sun Apr  6 08:27:51 2025.
