 Gaussian 16, Revision C.01,

 ----------------------------------------------------------------------
 #t hf aug-cc-pvdz symm=none int=(grid=ultrafine) guess=(read,tcheck) s
 table=(opt,rrhf)
 ----------------------------------------------------------------------
 -----
 title
 -----
 Symbolic Z-matrix:
 Charge =  0 Multiplicity = 1

 SCF Done:  E(RHF) =  -270.056066716     A.U. after   13 cycles

 1\1\GINC-SE212\Stability\RHF\Aug-CC-pVDZ\C5H10O1\OHZDE\06-Apr-2025\0\\
 #t hf aug-cc-pvdz symm=none int=(grid=ultrafine) guess=(read,tcheck) s
 table=(opt,rrhf)\\title\\0,1\C,0,-0.854017,-2.053209,0.\C,0,0.913211,2
 .739799,0.\C,0,0.331799,-1.126885,0.\C,0,1.24447,1.248574,0.\C,0,0.,0.
 360098,0.\O,0,-2.008076,-1.706587,0.\H,0,-0.596414,-3.133487,0.\H,0,1.
 8182,3.348531,0.\H,0,0.328751,3.013404,0.880532\H,0,0.328751,3.013404,
 -0.880532\H,0,0.945985,-1.401209,0.867354\H,0,0.945985,-1.401209,-0.86
 7354\H,0,1.858867,1.01225,0.874251\H,0,1.858867,1.01225,-0.874251\H,0,

 Normal termination of Gaussian 16 at Sun Apr  6 08:28:23 2025.
 Gaussian 16:  ES64L-G16RevC.01  3-Jul-2019

 ----------------------------------------------------------------------
 #t hf aug-cc-pvdz iop(5/13=1,5/36=2,99/5=2) pseudo=read geom=check gue
 ss=(read,tcheck) scf=(maxcycle=1)
 ----------------------------------------------------------------------
 -----
 title
 -----
 Structure from the checkpoint file:  "pentanal.chk"
 Charge =  0 Multiplicity = 1

                         Standard orientation:
 ---------------------------------------------------------------------
 Center     Atomic      Atomic             Coordinates (Angstroms)
 Number     Number       Type             X           Y           Z
 ---------------------------------------------------------------------
      1          6           0       -0.854017   -2.053209    0.000000
      2          6           0        0.913211    2.739799    0.000000
      3          6           0        0.331799   -1.126885    0.000000
      4          6           0        1.244470    1.248574    0.000000
      5          6           0        0.000000    0.360098    0.000000
      6          8           0       -2.008076   -1.706587    0.000000
      7          1           0       -0.596414   -3.133487    0.000000
      8          1           0        1.818200    3.348531    0.000000
      9          1           0        0.328751    3.013404    0.880532
     10          1           0        0.328751    3.013404   -0.880532
     11          1           0        0.945985   -1.401209    0.867354
     12          1           0        0.945985   -1.401209   -0.867354
     13          1           0        1.858867    1.012250    0.874251
     14          1           0        1.858867    1.012250   -0.874251
     15          1           0       -0.618581    0.589247   -0.870767
     16          1           0       -0.618581    0.589247    0.870767
 ---------------------------------------------------------------------

 SCF Done:  E(RHF) =  -271.354236126     A.U. after    2 cycles

 The electronic state is 1-A'.
 Alpha  occ. eigenvalues --  -21.06033 -11.48684 -11.42451 -11.40891 -11.37705
 Alpha  occ. eigenvalues --  -11.35061  -1.70752  -1.25277  -1.11052  -0.96545
 Alpha  occ. eigenvalues --   -0.84935  -0.78875  -0.66223  -0.64892  -0.59330
 Alpha  occ. eigenvalues --   -0.58255  -0.54600  -0.51163  -0.49149  -0.46139
 Alpha  occ. eigenvalues --   -0.45464  -0.43600  -0.42244  -0.29119
 Alpha virt. eigenvalues --    0.03781   0.04642   0.05115   0.05408   0.06145
 Alpha virt. eigenvalues --    0.06196   0.07282   0.07300   0.08092   0.09347
 Alpha virt. eigenvalues --    0.10110   0.11865   0.13142   0.13677   0.14573

 Mulliken charges:
               1
     1  C    1.098564
     2  C   -4.183202
     3  C   -2.917797
     4  C   -2.816123
     5  C   -2.302061
     6  O   -2.790049
     7  H    1.309125
     8  H    1.079690
     9  H    1.279250
    10  H    1.279250
    11  H    1.511748
    12  H    1.511748
    13  H    1.409524
    14  H    1.409524
    15  H    1.560404
    16  H    1.560404
 Sum of Mulliken charges =  -0.00000

 Dipole moment (field-independent basis, Debye):
    X=              1.3541    Y=              0.2130    Z=             -0.0000  Tot=              1.3708

 Test job not archived.
 1\1\GINC-SE212\SP\RHF\Aug-CC-pVDZ\C5H10O1\OHZDE\06-Apr-2025\0\\#t hf a
 ug-cc-pvdz iop(5/13=1,5/36=2,99/5=2) pseudo=read geom=check guess=(rea
 d,tcheck) scf=(maxcycle=1)\\title\\0,1\C,0,-0.854017,-2.053209,0.\C,0,
 0.913211,2.739799,0.\C,0,0.331799,-1.126885,0.\C,0,1.24447,1.248574,0.
 \C,0,0.,0.360098,0.\O,0,-2.008076,-1.706587,0.\H,0,-0.596414,-3.133487
 ,0.\H,0,1.8182,3.348531,0.\H,0,0.328751,3.013404,0.880532\H,0,0.328751
 ,3.013404,-0.880532\H,0,0.945985,-1.401209,0.867354\H,0,0.945985,-1.40
 1209,-0.867354\H,0,1.858867,1.01225,0.874251\H,0,1.858867,1.01225,-0.8

 Normal termination of Gaussian 16 at Sun Apr  6 08:29:02 2025.
