 Gaussian 16, Revision C.01,

 ----------------------------------------------------------------------
 #t hf aug-cc-pvdz symm=none int=(grid=ultrafine) guess=(read,tcheck) s
 table=(opt,rrhf)
 ----------------------------------------------------------------------
 -----
 title
 -----
 Symbolic Z-matrix:
 Charge =  0 Multiplicity = 1

 SCF Done:  E(RHF) =  -193.956294671     A.U. after   13 cycles
 Normal termination of Gaussian 16 at Sun Apr  6 08:26:59 2025.
 Gaussian 16:  ES64L-G16RevC.01  3-Jul-2019

 ----------------------------------------------------------------------
 #t hf aug-cc-pvdz iop(5/13=1,5/36=2,99/5=2) pseudo=read geom=check gue
 ss=(read,tcheck) scf=(maxcycle=1)
 ----------------------------------------------------------------------
 -----
 title
 -----
 Structure from the checkpoint file:  "pentyne.chk"
 Charge =  0 Multiplicity = 1

                         Standard orientation:
 ---------------------------------------------------------------------
 Center     Atomic      Atomic             Coordinates (Angstroms)
 Number     Number       Type             X           Y           Z
 ---------------------------------------------------------------------
      1          6           0       -2.632692    0.270492    0.000000
      2          6           0       -1.445615    0.445322    0.000000
      3          6           0        2.298303   -0.462071    0.000000
      4          6           0        0.000000    0.632435    0.000000
      5          6           0        0.789039   -0.688491    0.000000
      6          1           0       -3.683318    0.121999    0.000000
      7          1           0        2.615695    0.098825    0.881392
      8          1           0        2.836529   -1.410299    0.000000
      9          1           0        2.615695    0.098825   -0.881392
     10          1           0        0.283301    1.225765   -0.874581
     11          1           0        0.283301    1.225765    0.874581
     12          1           0        0.497294   -1.273503   -0.874226
     13          1           0        0.497294   -1.273503    0.874226
 ---------------------------------------------------------------------

 SCF Done:  E(RHF) =  -194.937029067     A.U. after    2 cycles

 The electronic state is 1-A'.
 Alpha  occ. eigenvalues --  -11.44650 -11.40826 -11.39567 -11.38885 -11.35850
 Alpha  occ. eigenvalues --   -1.25079  -1.09577  -0.99209  -0.86044  -0.72981
 Alpha  occ. eigenvalues --   -0.64970  -0.61895  -0.57270  -0.55535  -0.48361
 Alpha  occ. eigenvalues --   -0.47710  -0.47434  -0.36017  -0.35383
 Alpha virt. eigenvalues --    0.03514   0.04916   0.05694   0.05767   0.06059
 Alpha virt. eigenvalues --    0.06518   0.07434   0.08171   0.10451   0.10619
 Alpha virt. eigenvalues --    0.12185   0.12829   0.14216   0.14677   0.15106

 Mulliken charges:
               1
     1  C   -3.962641
     2  C    4.368602
     3  C   -3.707858
     4  C   -3.727573
     5  C   -2.794303
     6  H    0.732160
     7  H    1.238132
     8  H    1.115025
     9  H    1.238132
    10  H    1.318900
    11  H    1.318900
    12  H    1.431262
    13  H    1.431262
 Sum of Mulliken charges =  -0.00000

 Dipole moment (field-independent basis, Debye):
    X=              0.7384    Y=             -0.1359    Z=             -0.0000  Tot=              0.7508

 Test job not archived.
 1\1\GINC-SE108\SP\RHF\Aug-CC-pVDZ\C5H8\OHZDE\06-Apr-2025\0\\#t hf aug-
 cc-pvdz iop(5/13=1,5/36=2,99/5=2) pseudo=read geom=check guess=(read,t
 check) scf=(maxcycle=1)\\title\\0,1\C,0,-2.632692,0.270492,0.\C,0,-1.4
 45615,0.445322,0.\C,0,2.298303,-0.462071,0.\C,0,0.,0.632435,0.\C,0,0.7
 89039,-0.688491,0.\H,0,-3.683318,0.121999,0.\H,0,2.615695,0.098825,0.8
 81392\H,0,2.836529,-1.410299,0.\H,0,2.615695,0.098825,-0.881392\H,0,0.
 283301,1.225765,-0.874581\H,0,0.283301,1.225765,0.874581\H,0,0.497294,
 -1.273503,-0.874226\H,0,0.497294,-1.273503,0.874226\\Version=ES64L-G16

 Normal termination of Gaussian 16 at Sun Apr  6 08:27:47 2025.
