 Gaussian 16, Revision C.01,

 ----------------------------------------------------------------------
 #t hf aug-cc-pvdz symm=none int=(grid=ultrafine) guess=(read,tcheck) s
 table=(opt,rrhf)
 ----------------------------------------------------------------------
 -----
 title
 -----
 Symbolic Z-matrix:
 Charge =  0 Multiplicity = 1

 SCF Done:  E(RHF) =  -1382.76932746     A.U. after   11 cycles
 Normal termination of Gaussian 16 at Sun Apr  6 08:31:08 2025.
 Gaussian 16:  ES64L-G16RevC.01  3-Jul-2019

 ----------------------------------------------------------------------
 #t hf aug-cc-pvdz iop(5/13=1,5/36=2,99/5=2) pseudo=read geom=check gue
 ss=(read,tcheck) scf=(maxcycle=1)
 ----------------------------------------------------------------------
 -----
 title
 -----
 Structure from the checkpoint file:  "perfluoropentane.chk"
 Charge =  0 Multiplicity = 1

                         Standard orientation:
 ---------------------------------------------------------------------
 Center     Atomic      Atomic             Coordinates (Angstroms)
 Number     Number       Type             X           Y           Z
 ---------------------------------------------------------------------
      1          6           0        0.000000   -0.000000    0.338951
      2          6           0       -0.058312    1.310999   -0.518663
      3          6           0        0.058312   -1.310999   -0.518663
      4          6           0        0.291389    2.615577    0.272146
      5          6           0       -0.291389   -2.615577    0.272146
      6          9           0        1.094395    0.038571    1.125903
      7          9           0       -1.094395   -0.038571    1.125903
      8          9           0        0.809009    1.215438   -1.547143
      9          9           0       -1.303708    1.452288   -1.008386
     10          9           0       -0.809009   -1.215438   -1.547143
     11          9           0        1.303708   -1.452288   -1.008386
     12          9           0       -0.000000    3.669670   -0.493082
     13          9           0       -0.000000   -3.669670   -0.493082
     14          9           0       -0.424553    2.689340    1.397413
     15          9           0        1.587918    2.657401    0.576655
     16          9           0        0.424553   -2.689340    1.397413
     17          9           0       -1.587918   -2.657401    0.576655
 ---------------------------------------------------------------------

 SCF Done:  E(RHF) =  -1387.60870252     A.U. after    2 cycles

 The electronic state is 1-A.
 Alpha  occ. eigenvalues --  -29.35081 -29.35024 -29.35004 -29.35002 -29.34933
 Alpha  occ. eigenvalues --  -29.34925 -29.34814 -29.34812 -29.34704 -29.34694
 Alpha  occ. eigenvalues --  -29.34663 -29.34653 -11.67494 -11.67357 -11.67009
 Alpha  occ. eigenvalues --  -11.63710 -11.57473  -1.56784  -1.51766  -1.41895
 Alpha  occ. eigenvalues --   -1.30346  -1.23829  -1.01454  -0.98494  -0.98344
 Alpha  occ. eigenvalues --   -0.94044  -0.91681  -0.91201  -0.85263  -0.83819
 Alpha  occ. eigenvalues --   -0.79826  -0.79461  -0.79247  -0.54756  -0.54445
 Alpha  occ. eigenvalues --   -0.51856  -0.50818  -0.49126  -0.49019  -0.48640
 Alpha  occ. eigenvalues --   -0.48345  -0.47678  -0.46022  -0.45770  -0.45443
 Alpha  occ. eigenvalues --   -0.44002  -0.43565  -0.43188  -0.41575  -0.39732
 Alpha  occ. eigenvalues --   -0.39028  -0.38894  -0.37860  -0.36382  -0.35636
 Alpha  occ. eigenvalues --   -0.34193  -0.32164  -0.31526  -0.31141  -0.30348
 Alpha  occ. eigenvalues --   -0.29038  -0.27938  -0.27444  -0.27069  -0.26022
 Alpha  occ. eigenvalues --   -0.25577  -0.23994  -0.23552  -0.19799
 Alpha virt. eigenvalues --    0.09279   0.09452   0.09537   0.10524   0.10964
 Alpha virt. eigenvalues --    0.11012   0.11667   0.12710   0.13044   0.13556
 Alpha virt. eigenvalues --    0.13903   0.14450   0.15192   0.16346   0.17280

 Mulliken charges:
               1
     1  C   -1.078242
     2  C   -1.549988
     3  C   -1.549988
     4  C   -0.014704
     5  C   -0.014704
     6  F    0.311425
     7  F    0.311425
     8  F    0.337888
     9  F    0.319820
    10  F    0.337888
    11  F    0.319820
    12  F    0.470667
    13  F    0.470667
    14  F    0.336428
    15  F    0.327586
    16  F    0.336428
    17  F    0.327586
 Sum of Mulliken charges =  -0.00000

 Dipole moment (field-independent basis, Debye):
    X=             -0.0000    Y=             -0.0000    Z=             -0.1936  Tot=              0.1936

 Test job not archived.
 1\1\GINC-SE275\SP\RHF\Aug-CC-pVDZ\C5F12\OHZDE\06-Apr-2025\0\\#t hf aug
 -cc-pvdz iop(5/13=1,5/36=2,99/5=2) pseudo=read geom=check guess=(read,
 tcheck) scf=(maxcycle=1)\\title\\0,1\C,0,0.,0.,0.338951\C,0,-0.058312,
 1.310999,-0.518663\C,0,0.058312,-1.310999,-0.518663\C,0,0.291389,2.615
 577,0.272146\C,0,-0.291389,-2.615577,0.272146\F,0,1.094395,0.038571,1.
 125903\F,0,-1.094395,-0.038571,1.125903\F,0,0.809009,1.215438,-1.54714
 3\F,0,-1.303708,1.452288,-1.008386\F,0,-0.809009,-1.215438,-1.547143\F
 ,0,1.303708,-1.452288,-1.008386\F,0,0.,3.66967,-0.493082\F,0,0.,-3.669

 Normal termination of Gaussian 16 at Sun Apr  6 08:31:37 2025.
