 Gaussian 16, Revision C.01,

 ----------------------------------------------------------------------
 #t hf aug-cc-pvdz symm=none int=(grid=ultrafine) guess=(read,tcheck) s
 table=(opt,rrhf)
 ----------------------------------------------------------------------
 -----
 title
 -----
 Symbolic Z-matrix:
 Charge =  0 Multiplicity = 1

 SCF Done:  E(RHF) =  -748.089064533     A.U. after   13 cycles
 Normal termination of Gaussian 16 at Sun Apr  6 08:26:49 2025.
 Gaussian 16:  ES64L-G16RevC.01  3-Jul-2019

 ----------------------------------------------------------------------
 #t hf aug-cc-pvdz iop(5/13=1,5/36=2,99/5=2) pseudo=read geom=check gue
 ss=(read,tcheck) scf=(maxcycle=1)
 ----------------------------------------------------------------------
 -----
 title
 -----
 Structure from the checkpoint file:  "perfluorobutadiene.chk"
 Charge =  0 Multiplicity = 1

                         Standard orientation:
 ---------------------------------------------------------------------
 Center     Atomic      Atomic             Coordinates (Angstroms)
 Number     Number       Type             X           Y           Z
 ---------------------------------------------------------------------
      1          6           0       -0.188443    1.576098   -0.366092
      2          6           0        0.153555    0.706793    0.580006
      3          6           0       -0.153555   -0.706793    0.580006
      4          6           0        0.188443   -1.576098   -0.366092
      5          9           0        0.153555    2.842567   -0.356772
      6          9           0       -0.892260    1.266786   -1.433390
      7          9           0        0.843111    1.168575    1.647552
      8          9           0       -0.843111   -1.168575    1.647552
      9          9           0        0.892260   -1.266786   -1.433390
     10          9           0       -0.153555   -2.842567   -0.356772
 ---------------------------------------------------------------------

 SCF Done:  E(RHF) =  -750.778334847     A.U. after    2 cycles

 The electronic state is 1-A.
 Alpha  occ. eigenvalues --  -29.35720 -29.35717 -29.35467 -29.35467 -29.31735
 Alpha  occ. eigenvalues --  -29.31731 -11.60485 -11.59042 -11.53072 -11.50088
 Alpha  occ. eigenvalues --   -1.44984  -1.35646  -1.19130  -1.06168  -0.92558
 Alpha  occ. eigenvalues --   -0.87261  -0.83589  -0.77910  -0.70304  -0.66030
 Alpha  occ. eigenvalues --   -0.64042  -0.49857  -0.48962  -0.45417  -0.44894
 Alpha  occ. eigenvalues --   -0.44346  -0.43880  -0.43001  -0.41830  -0.37178
 Alpha  occ. eigenvalues --   -0.36139  -0.34881  -0.34119  -0.32979  -0.30484
 Alpha  occ. eigenvalues --   -0.27306  -0.26597  -0.20776  -0.19399
 Alpha virt. eigenvalues --    0.09110   0.09441   0.10060   0.10213   0.10855
 Alpha virt. eigenvalues --    0.12156   0.12464   0.13115   0.14073   0.14701
 Alpha virt. eigenvalues --    0.15182   0.15209   0.15388   0.17206   0.19560

 Mulliken charges:
               1
     1  C   -0.625756
     2  C   -1.815361
     3  C   -1.815361
     4  C   -0.625756
     5  F    0.801519
     6  F    0.849168
     7  F    0.790429
     8  F    0.790429
     9  F    0.849168
    10  F    0.801519
 Sum of Mulliken charges =  -0.00000

 Dipole moment (field-independent basis, Debye):
    X=             -0.0000    Y=              0.0000    Z=             -1.4585  Tot=              1.4585

 Test job not archived.
 1\1\GINC-SE108\SP\RHF\Aug-CC-pVDZ\C4F6\OHZDE\06-Apr-2025\0\\#t hf aug-
 cc-pvdz iop(5/13=1,5/36=2,99/5=2) pseudo=read geom=check guess=(read,t
 check) scf=(maxcycle=1)\\title\\0,1\C,0,-0.188443,1.576098,-0.366092\C
 ,0,0.153555,0.706793,0.580006\C,0,-0.153555,-0.706793,0.580006\C,0,0.1
 88443,-1.576098,-0.366092\F,0,0.153555,2.842567,-0.356772\F,0,-0.89226
 ,1.266786,-1.43339\F,0,0.843111,1.168575,1.647552\F,0,-0.843111,-1.168
 575,1.647552\F,0,0.89226,-1.266786,-1.43339\F,0,-0.153555,-2.842567,-0
 .356772\\Version=ES64L-G16RevC.01\State=1-A\HF=-750.7783348\RMSD=6.613

 Normal termination of Gaussian 16 at Sun Apr  6 08:27:49 2025.
