 Gaussian 16, Revision C.01,

 ----------------------------------------------------------------------
 #t hf aug-cc-pvdz symm=none int=(grid=ultrafine) guess=(read,tcheck) s
 table=(opt,rrhf)
 ----------------------------------------------------------------------
 -----
 title
 -----
 Symbolic Z-matrix:
 Charge =  0 Multiplicity = 1

 SCF Done:  E(RHF) =  -1146.00062231     A.U. after   11 cycles
 Normal termination of Gaussian 16 at Sun Apr  6 08:28:26 2025.
 Gaussian 16:  ES64L-G16RevC.01  3-Jul-2019

 ----------------------------------------------------------------------
 #t hf aug-cc-pvdz iop(5/13=1,5/36=2,99/5=2) pseudo=read geom=check gue
 ss=(read,tcheck) scf=(maxcycle=1)
 ----------------------------------------------------------------------
 -----
 title
 -----
 Structure from the checkpoint file:  "perfluorobutane.chk"
 Charge =  0 Multiplicity = 1

                         Standard orientation:
 ---------------------------------------------------------------------
 Center     Atomic      Atomic             Coordinates (Angstroms)
 Number     Number       Type             X           Y           Z
 ---------------------------------------------------------------------
      1          6           0       -0.588673    0.514586   -0.092762
      2          6           0        0.588673   -0.514586   -0.092763
      3          6           0       -2.009338   -0.118245    0.074227
      4          6           0        2.009338    0.118245    0.074228
      5          9           0       -0.415550    1.394344    0.915469
      6          9           0       -0.572838    1.184057   -1.260942
      7          9           0        0.415550   -1.394345    0.915467
      8          9           0        0.572838   -1.184055   -1.260944
      9          9           0       -2.925528    0.830845   -0.129852
     10          9           0        2.925528   -0.830845   -0.129853
     11          9           0       -2.197432   -1.096346   -0.814973
     12          9           0       -2.171696   -0.609091    1.302656
     13          9           0        2.197432    1.096347   -0.814971
     14          9           0        2.171696    0.609089    1.302657
 ---------------------------------------------------------------------

 SCF Done:  E(RHF) =  -1150.00365797     A.U. after    2 cycles

 The electronic state is 1-A.
 Alpha  occ. eigenvalues --  -29.34995 -29.34991 -29.34971 -29.34943 -29.34825
 Alpha  occ. eigenvalues --  -29.34817 -29.34736 -29.34729 -29.34666 -29.34656
 Alpha  occ. eigenvalues --  -11.67252 -11.66429 -11.65332 -11.57758  -1.56461
 Alpha  occ. eigenvalues --   -1.49362  -1.35950  -1.24819  -1.01285  -0.97932
 Alpha  occ. eigenvalues --   -0.96398  -0.94572  -0.89377  -0.87021  -0.82150
 Alpha  occ. eigenvalues --   -0.80364  -0.79874  -0.54327  -0.53454  -0.50108
 Alpha  occ. eigenvalues --   -0.49721  -0.49364  -0.48956  -0.48663  -0.47229
 Alpha  occ. eigenvalues --   -0.45642  -0.44803  -0.44133  -0.44106  -0.41526
 Alpha  occ. eigenvalues --   -0.40525  -0.39339  -0.39220  -0.37334  -0.36183
 Alpha  occ. eigenvalues --   -0.34356  -0.31708  -0.31556  -0.31034  -0.29617
 Alpha  occ. eigenvalues --   -0.28877  -0.27571  -0.26915  -0.25296  -0.24465
 Alpha  occ. eigenvalues --   -0.23402  -0.21216
 Alpha virt. eigenvalues --    0.09443   0.09540   0.09757   0.10776   0.11818
 Alpha virt. eigenvalues --    0.12167   0.12190   0.12657   0.13994   0.14408
 Alpha virt. eigenvalues --    0.14483   0.15308   0.18071   0.20810   0.21608

 Mulliken charges:
               1
     1  C   -1.709946
     2  C   -1.709947
     3  C   -0.349433
     4  C   -0.349434
     5  F    0.381173
     6  F    0.383926
     7  F    0.381173
     8  F    0.383926
     9  F    0.514873
    10  F    0.514873
    11  F    0.400264
    12  F    0.379145
    13  F    0.400264
    14  F    0.379146
 Sum of Mulliken charges =   0.00000

 Dipole moment (field-independent basis, Debye):
    X=              0.0000    Y=              0.0000    Z=             -0.0829  Tot=              0.0829

 Test job not archived.
 1\1\GINC-SE422\SP\RHF\Aug-CC-pVDZ\C4F10\OHZDE\06-Apr-2025\0\\#t hf aug
 -cc-pvdz iop(5/13=1,5/36=2,99/5=2) pseudo=read geom=check guess=(read,
 tcheck) scf=(maxcycle=1)\\title\\0,1\C,0,-0.588673,0.514586,-0.092762\
 C,0,0.588673,-0.514586,-0.092763\C,0,-2.009338,-0.118245,0.074227\C,0,
 2.009338,0.118245,0.074228\F,0,-0.41555,1.394344,0.915469\F,0,-0.57283
 8,1.184057,-1.260942\F,0,0.41555,-1.394345,0.915467\F,0,0.572838,-1.18
 4055,-1.260944\F,0,-2.925528,0.830845,-0.129852\F,0,2.925528,-0.830845
 ,-0.129853\F,0,-2.197432,-1.096346,-0.814973\F,0,-2.171696,-0.609091,1

 Normal termination of Gaussian 16 at Sun Apr  6 08:29:01 2025.
