 Gaussian 16, Revision C.01,

 ----------------------------------------------------------------------
 #t hf aug-cc-pvdz symm=none int=(grid=ultrafine) guess=(read,tcheck) s
 table=(opt,rrhf)
 ----------------------------------------------------------------------
 -----
 title
 -----
 Symbolic Z-matrix:
 Charge =  0 Multiplicity = 1

 SCF Done:  E(RHF) =  -909.232159213     A.U. after   11 cycles
 Normal termination of Gaussian 16 at Sun Apr  6 08:27:46 2025.
 Gaussian 16:  ES64L-G16RevC.01  3-Jul-2019

 ----------------------------------------------------------------------
 #t hf aug-cc-pvdz iop(5/13=1,5/36=2,99/5=2) pseudo=read geom=check gue
 ss=(read,tcheck) scf=(maxcycle=1)
 ----------------------------------------------------------------------
 -----
 title
 -----
 Structure from the checkpoint file:  "perfluoropropane.chk"
 Charge =  0 Multiplicity = 1

                         Standard orientation:
 ---------------------------------------------------------------------
 Center     Atomic      Atomic             Coordinates (Angstroms)
 Number     Number       Type             X           Y           Z
 ---------------------------------------------------------------------
      1          6           0        0.000000   -0.000000    0.590836
      2          6           0        0.000000    1.321706   -0.236848
      3          6           0       -0.000000   -1.321706   -0.236848
      4          9           0        1.097195   -0.000000    1.372804
      5          9           0       -1.097195    0.000000    1.372804
      6          9           0        0.000000    2.356688    0.605533
      7          9           0       -0.000000   -2.356688    0.605533
      8          9           0        1.086235    1.396250   -1.008692
      9          9           0       -1.086235    1.396250   -1.008692
     10          9           0       -1.086235   -1.396250   -1.008692
     11          9           0        1.086235   -1.396250   -1.008692
 ---------------------------------------------------------------------

 SCF Done:  E(RHF) =  -912.398996749     A.U. after    2 cycles

 The electronic state is 1-A1.
 Alpha  occ. eigenvalues --  -29.34967 -29.34967 -29.34925 -29.34917 -29.34699
 Alpha  occ. eigenvalues --  -29.34698 -29.34675 -29.34632 -11.67297 -11.65718
 Alpha  occ. eigenvalues --  -11.58291  -1.55925  -1.45078  -1.27495  -1.00738
 Alpha  occ. eigenvalues --   -0.97897  -0.94984  -0.92578  -0.84568  -0.82624
 Alpha  occ. eigenvalues --   -0.81795  -0.53762  -0.51612  -0.50566  -0.49811
 Alpha  occ. eigenvalues --   -0.49569  -0.46681  -0.46281  -0.45517  -0.45150
 Alpha  occ. eigenvalues --   -0.42826  -0.39750  -0.38828  -0.38626  -0.36797
 Alpha  occ. eigenvalues --   -0.36057  -0.31809  -0.31283  -0.30938  -0.29224
 Alpha  occ. eigenvalues --   -0.27472  -0.26801  -0.23787  -0.23581  -0.23460
 Alpha virt. eigenvalues --    0.09587   0.09906   0.10321   0.11540   0.12430
 Alpha virt. eigenvalues --    0.12586   0.12628   0.13815   0.14799   0.15020
 Alpha virt. eigenvalues --    0.19827   0.20561   0.22041   0.22583   0.23876

 Mulliken charges:
               1
     1  C   -1.778785
     2  C   -1.060435
     3  C   -1.060435
     4  F    0.432980
     5  F    0.432980
     6  F    0.602885
     7  F    0.602885
     8  F    0.456982
     9  F    0.456982
    10  F    0.456982
    11  F    0.456982
 Sum of Mulliken charges =  -0.00000

 Dipole moment (field-independent basis, Debye):
    X=             -0.0000    Y=             -0.0000    Z=              0.2195  Tot=              0.2195

 Test job not archived.
 1\1\GINC-SE275\SP\RHF\Aug-CC-pVDZ\C3F8\OHZDE\06-Apr-2025\0\\#t hf aug-
 cc-pvdz iop(5/13=1,5/36=2,99/5=2) pseudo=read geom=check guess=(read,t
 check) scf=(maxcycle=1)\\title\\0,1\C,0,0.,0.,0.590836\C,0,0.,1.321706
 ,-0.236848\C,0,0.,-1.321706,-0.236848\F,0,1.097195,0.,1.372804\F,0,-1.
 097195,0.,1.372804\F,0,0.,2.356688,0.605533\F,0,0.,-2.356688,0.605533\
 F,0,1.086235,1.39625,-1.008692\F,0,-1.086235,1.39625,-1.008692\F,0,-1.
 086235,-1.39625,-1.008692\F,0,1.086235,-1.39625,-1.008692\\Version=ES6
 4L-G16RevC.01\State=1-A1\HF=-912.3989967\RMSD=2.600e-01\Dipole=0.,0.,0

 Normal termination of Gaussian 16 at Sun Apr  6 08:27:51 2025.
