 Gaussian 16, Revision C.01,

 ----------------------------------------------------------------------
 #t hf aug-cc-pvdz symm=none int=(grid=ultrafine) guess=(read,tcheck) s
 table=(opt,rrhf)
 ----------------------------------------------------------------------
 -----
 title
 -----
 Symbolic Z-matrix:
 Charge =  0 Multiplicity = 1

 SCF Done:  E(RHF) =  -2093.07570818     A.U. after   12 cycles
 Normal termination of Gaussian 16 at Sun Apr  6 08:40:19 2025.
 Gaussian 16:  ES64L-G16RevC.01  3-Jul-2019

 ----------------------------------------------------------------------
 #t hf aug-cc-pvdz iop(5/13=1,5/36=2,99/5=2) pseudo=read geom=check gue
 ss=(read,tcheck) scf=(maxcycle=1)
 ----------------------------------------------------------------------
 -----
 title
 -----
 Structure from the checkpoint file:  "perfluorooctane.chk"
 Charge =  0 Multiplicity = 1

                         Standard orientation:
 ---------------------------------------------------------------------
 Center     Atomic      Atomic             Coordinates (Angstroms)
 Number     Number       Type             X           Y           Z
 ---------------------------------------------------------------------
      1          6           0       -0.643755    0.451811   -0.116063
      2          6           0        0.643754   -0.451811   -0.116065
      3          6           0       -1.971641   -0.359225    0.109674
      4          6           0        1.971641    0.359224    0.109675
      5          6           0       -3.260971    0.423128   -0.322117
      6          6           0        3.260972   -0.423127   -0.322118
      7          6           0       -4.593120   -0.161784    0.255224
      8          6           0        4.593120    0.161783    0.255225
      9          9           0       -0.717886    1.087551   -1.301534
     10          9           0       -0.534691    1.367522    0.866508
     11          9           0        0.717886   -1.087547   -1.301538
     12          9           0        0.534691   -1.367525    0.866504
     13          9           0       -2.067751   -0.666456    1.418445
     14          9           0       -1.915832   -1.502658   -0.602171
     15          9           0        2.067750    0.666452    1.418447
     16          9           0        1.915832    1.502659   -0.602167
     17          9           0       -3.354065    0.399093   -1.664116
     18          9           0       -3.170091    1.704673    0.088792
     19          9           0        3.170091   -1.704673    0.088788
     20          9           0        3.354066   -0.399089   -1.664117
     21          9           0       -5.619910    0.441189   -0.347993
     22          9           0       -4.668993   -1.475221    0.024297
     23          9           0       -4.683604    0.056486    1.566635
     24          9           0        4.668993    1.475221    0.024300
     25          9           0        5.619909   -0.441188   -0.347994
     26          9           0        4.683603   -0.056489    1.566635
 ---------------------------------------------------------------------

 SCF Done:  E(RHF) =  -2100.42960901     A.U. after    2 cycles

 The electronic state is 1-A.
 Alpha  occ. eigenvalues --  -29.35064 -29.35054 -29.35043 -29.35038 -29.34999
 Alpha  occ. eigenvalues --  -29.34995 -29.34993 -29.34989 -29.34971 -29.34965
 Alpha  occ. eigenvalues --  -29.34929 -29.34925 -29.34800 -29.34799 -29.34684
 Alpha  occ. eigenvalues --  -29.34682 -29.34643 -29.34642 -11.69644 -11.69089
 Alpha  occ. eigenvalues --  -11.68348 -11.67089 -11.66967 -11.64245 -11.60721
 Alpha  occ. eigenvalues --  -11.57055  -1.57291  -1.54800  -1.50348  -1.43642
 Alpha  occ. eigenvalues --   -1.35809  -1.28918  -1.24803  -1.22954  -1.01784
 Alpha  occ. eigenvalues --   -1.00514  -0.98305  -0.97741  -0.95790  -0.93609
 Alpha  occ. eigenvalues --   -0.92767  -0.89743  -0.87834  -0.84910  -0.83784
 Alpha  occ. eigenvalues --   -0.83111  -0.80927  -0.80040  -0.78998  -0.78946
 Alpha  occ. eigenvalues --   -0.75534  -0.55687  -0.55555  -0.54337  -0.52699
 Alpha  occ. eigenvalues --   -0.50949  -0.50505  -0.50036  -0.49727  -0.48771
 Alpha  occ. eigenvalues --   -0.48709  -0.48095  -0.47988  -0.47385  -0.46876
 Alpha  occ. eigenvalues --   -0.46390  -0.45443  -0.44890  -0.44685  -0.44607
 Alpha  occ. eigenvalues --   -0.44420  -0.43232  -0.43216  -0.42549  -0.41592
 Alpha  occ. eigenvalues --   -0.40054  -0.39385  -0.39356  -0.39279  -0.37917
 Alpha  occ. eigenvalues --   -0.37243  -0.36474  -0.36012  -0.34790  -0.34329
 Alpha  occ. eigenvalues --   -0.33341  -0.32210  -0.32209  -0.31211  -0.30520
 Alpha  occ. eigenvalues --   -0.30033  -0.29975  -0.29245  -0.28154  -0.27985
 Alpha  occ. eigenvalues --   -0.27579  -0.27358  -0.26804  -0.26403  -0.25514
 Alpha  occ. eigenvalues --   -0.24691  -0.23748  -0.23512  -0.22512  -0.17768
 Alpha virt. eigenvalues --    0.08989   0.09108   0.09262   0.09411   0.09900
 Alpha virt. eigenvalues --    0.10374   0.10556   0.10977   0.11955   0.12412
 Alpha virt. eigenvalues --    0.12437   0.12696   0.13009   0.13145   0.14001

 Mulliken charges:
               1
     1  C   -1.056755
     2  C   -1.056752
     3  C   -0.321110
     4  C   -0.321109
     5  C   -0.926459
     6  C   -0.926458
     7  C    0.508163
     8  C    0.508163
     9  F    0.118622
    10  F    0.105892
    11  F    0.118621
    12  F    0.105891
    13  F    0.117848
    14  F    0.117513
    15  F    0.117847
    16  F    0.117512
    17  F    0.197530
    18  F    0.179562
    19  F    0.179562
    20  F    0.197530
    21  F    0.416144
    22  F    0.256151
    23  F    0.286897
    24  F    0.256150
    25  F    0.416144
    26  F    0.286898
 Sum of Mulliken charges =   0.00000

 Dipole moment (field-independent basis, Debye):
    X=              0.0000    Y=              0.0000    Z=             -0.1804  Tot=              0.1804

 Test job not archived.
 1\1\GINC-SE422\SP\RHF\Aug-CC-pVDZ\C8F18\OHZDE\06-Apr-2025\0\\#t hf aug
 -cc-pvdz iop(5/13=1,5/36=2,99/5=2) pseudo=read geom=check guess=(read,
 tcheck) scf=(maxcycle=1)\\title\\0,1\C,0,-0.643755,0.451811,-0.116063\
 C,0,0.643754,-0.451811,-0.116065\C,0,-1.971641,-0.359225,0.109674\C,0,
 1.971641,0.359224,0.109675\C,0,-3.260971,0.423128,-0.322117\C,0,3.2609
 72,-0.423127,-0.322118\C,0,-4.59312,-0.161784,0.255224\C,0,4.59312,0.1
 61783,0.255225\F,0,-0.717886,1.087551,-1.301534\F,0,-0.534691,1.367522
 ,0.866508\F,0,0.717886,-1.087547,-1.301538\F,0,0.534691,-1.367525,0.86

 Normal termination of Gaussian 16 at Sun Apr  6 08:40:58 2025.
