 Gaussian 16, Revision C.01,

 ----------------------------------------------------------------------
 #t hf aug-cc-pvdz symm=none int=(grid=ultrafine) guess=(read,tcheck) s
 table=(opt,rrhf)
 ----------------------------------------------------------------------
 -----
 title
 -----
 Symbolic Z-matrix:
 Charge =  0 Multiplicity = 1

 SCF Done:  E(RHF) =  -568.046716114     A.U. after   14 cycles

 1\1\GINC-SE276\Stability\RHF\Aug-CC-pVDZ\C12H8N2\OHZDE\06-Apr-2025\0\\
 #t hf aug-cc-pvdz symm=none int=(grid=ultrafine) guess=(read,tcheck) s
 table=(opt,rrhf)\\title\\0,1\C,0,0.,1.14135,0.720815\C,0,0.,1.14135,-0
 .720815\N,0,0.,0.,1.415067\C,0,0.,2.387462,1.410508\N,0,0.,0.,-1.41506
 7\C,0,0.,2.387462,-1.410508\C,0,0.,-1.14135,0.720815\C,0,0.,3.557969,0
 .711879\C,0,0.,-1.14135,-0.720815\C,0,0.,3.557969,-0.711879\C,0,0.,-2.
 387462,1.410508\C,0,0.,-2.387462,-1.410508\C,0,0.,-3.557969,0.711879\C
 ,0,0.,-3.557969,-0.711879\H,0,0.,2.364656,2.491337\H,0,0.,2.364656,-2.

 Normal termination of Gaussian 16 at Sun Apr  6 08:31:46 2025.
 Gaussian 16:  ES64L-G16RevC.01  3-Jul-2019

 ----------------------------------------------------------------------
 #t hf aug-cc-pvdz iop(5/13=1,5/36=2,99/5=2) pseudo=read geom=check gue
 ss=(read,tcheck) scf=(maxcycle=1)
 ----------------------------------------------------------------------
 -----
 title
 -----
 Structure from the checkpoint file:  "phenazine.chk"
 Charge =  0 Multiplicity = 1

                         Standard orientation:
 ---------------------------------------------------------------------
 Center     Atomic      Atomic             Coordinates (Angstroms)
 Number     Number       Type             X           Y           Z
 ---------------------------------------------------------------------
      1          6           0        0.000000    1.141350    0.720815
      2          6           0        0.000000    1.141350   -0.720815
      3          7           0        0.000000    0.000000    1.415067
      4          6           0        0.000000    2.387462    1.410508
      5          7           0        0.000000    0.000000   -1.415067
      6          6           0        0.000000    2.387462   -1.410508
      7          6           0       -0.000000   -1.141350    0.720815
      8          6           0        0.000000    3.557969    0.711879
      9          6           0       -0.000000   -1.141350   -0.720815
     10          6           0        0.000000    3.557969   -0.711879
     11          6           0       -0.000000   -2.387462    1.410508
     12          6           0       -0.000000   -2.387462   -1.410508
     13          6           0       -0.000000   -3.557969    0.711879
     14          6           0       -0.000000   -3.557969   -0.711879
     15          1           0        0.000000    2.364656    2.491337
     16          1           0        0.000000    2.364656   -2.491337
     17          1           0        0.000000    4.502732    1.238686
     18          1           0        0.000000    4.502732   -1.238686
     19          1           0       -0.000000   -2.364656    2.491337
     20          1           0       -0.000000   -2.364656   -2.491337
     21          1           0       -0.000000   -4.502732    1.238686
     22          1           0       -0.000000   -4.502732   -1.238686
 ---------------------------------------------------------------------

 SCF Done:  E(RHF) =  -570.695768867     A.U. after    2 cycles

 The electronic state is 1-AG.
 Alpha  occ. eigenvalues --  -15.75777 -15.75664 -11.55376 -11.54364 -11.47499
 Alpha  occ. eigenvalues --  -11.47054 -11.45142 -11.44742 -11.42941 -11.42748
 Alpha  occ. eigenvalues --  -11.42615 -11.42250 -11.37979 -11.37578  -1.53290
 Alpha  occ. eigenvalues --   -1.35131  -1.33338  -1.25540  -1.12836  -1.10492
 Alpha  occ. eigenvalues --   -1.06775  -0.96754  -0.91181  -0.87748  -0.86132
 Alpha  occ. eigenvalues --   -0.78726  -0.73309  -0.68613  -0.68265  -0.63357
 Alpha  occ. eigenvalues --   -0.61626  -0.61168  -0.60290  -0.59506  -0.54066
 Alpha  occ. eigenvalues --   -0.51685  -0.50596  -0.49838  -0.46326  -0.46101
 Alpha  occ. eigenvalues --   -0.45452  -0.44586  -0.43536  -0.34899  -0.33015
 Alpha  occ. eigenvalues --   -0.31778  -0.27906
 Alpha virt. eigenvalues --    0.03259   0.04464   0.04937   0.05110   0.05449
 Alpha virt. eigenvalues --    0.05506   0.05915   0.06942   0.08108   0.09336
 Alpha virt. eigenvalues --    0.09370   0.10737   0.12113   0.12141   0.12361

 Mulliken charges:
               1
     1  C    1.512304
     2  C    1.512304
     3  N   -6.593951
     4  C   -0.805718
     5  N   -6.593951
     6  C   -0.805718
     7  C    1.512304
     8  C   -0.855512
     9  C    1.512304
    10  C   -0.855512
    11  C   -0.805718
    12  C   -0.805718
    13  C   -0.855512
    14  C   -0.855512
    15  H    1.849820
    16  H    1.849820
    17  H    1.596081
    18  H    1.596081
    19  H    1.849820
    20  H    1.849820
    21  H    1.596081
    22  H    1.596081
 Sum of Mulliken charges =   0.00000

 Dipole moment (field-independent basis, Debye):
    X=             -0.0000    Y=              0.0000    Z=             -0.0000  Tot=              0.0000

 Test job not archived.
 1\1\GINC-SE276\SP\RHF\Aug-CC-pVDZ\C12H8N2\OHZDE\06-Apr-2025\0\\#t hf a
 ug-cc-pvdz iop(5/13=1,5/36=2,99/5=2) pseudo=read geom=check guess=(rea
 d,tcheck) scf=(maxcycle=1)\\title\\0,1\C,0,0.,1.14135,0.720815\C,0,0.,
 1.14135,-0.720815\N,0,0.,0.,1.415067\C,0,0.,2.387462,1.410508\N,0,0.,0
 .,-1.415067\C,0,0.,2.387462,-1.410508\C,0,0.,-1.14135,0.720815\C,0,0.,
 3.557969,0.711879\C,0,0.,-1.14135,-0.720815\C,0,0.,3.557969,-0.711879\
 C,0,0.,-2.387462,1.410508\C,0,0.,-2.387462,-1.410508\C,0,0.,-3.557969,
 0.711879\C,0,0.,-3.557969,-0.711879\H,0,0.,2.364656,2.491337\H,0,0.,2.

 Normal termination of Gaussian 16 at Sun Apr  6 08:32:47 2025.
