 Gaussian 16, Revision C.01,

 ----------------------------------------------------------------------
 #t hf aug-cc-pvdz symm=none int=(grid=ultrafine) guess=(read,tcheck) s
 table=(opt,rrhf)
 ----------------------------------------------------------------------
 -----
 title
 -----
 Symbolic Z-matrix:
 Charge =  0 Multiplicity = 1

 SCF Done:  E(RHF) =  -1007.48738937     A.U. after   15 cycles
 Normal termination of Gaussian 16 at Sun Apr  6 08:36:39 2025.
 Gaussian 16:  ES64L-G16RevC.01  3-Jul-2019

 ----------------------------------------------------------------------
 #t hf aug-cc-pvdz iop(5/13=1,5/36=2,99/5=2) pseudo=read geom=check gue
 ss=(read,tcheck) scf=(maxcycle=1)
 ----------------------------------------------------------------------
 -----
 title
 -----
 Structure from the checkpoint file:  "phenylsulfonylbenzene.chk"
 Charge =  0 Multiplicity = 1

                         Standard orientation:
 ---------------------------------------------------------------------
 Center     Atomic      Atomic             Coordinates (Angstroms)
 Number     Number       Type             X           Y           Z
 ---------------------------------------------------------------------
      1          8           0        1.182952    0.463928    2.029051
      2         16           0        0.000000   -0.000000    1.311979
      3          8           0       -1.182952   -0.463928    2.029051
      4          6           0       -0.520392    1.327106    0.212950
      5          6           0        0.409097    2.277935   -0.192069
      6          6           0        0.000000    3.304743   -1.033775
      7          6           0       -1.322848    3.373603   -1.458638
      8          6           0       -2.245249    2.421077   -1.037808
      9          6           0       -1.847361    1.389895   -0.196106
     10          6           0        0.520392   -1.327106    0.212950
     11          6           0       -0.409097   -2.277935   -0.192069
     12          6           0       -0.000000   -3.304743   -1.033775
     13          6           0        1.322848   -3.373603   -1.458638
     14          6           0        2.245249   -2.421077   -1.037808
     15          6           0        1.847361   -1.389895   -0.196106
     16          1           0        1.426580    2.222201    0.166269
     17          1           0        0.711915    4.054300   -1.350886
     18          1           0       -1.637459    4.175977   -2.112088
     19          1           0       -3.276080    2.484727   -1.358041
     20          1           0       -2.555114    0.655284    0.159175
     21          1           0       -1.426580   -2.222201    0.166269
     22          1           0       -0.711915   -4.054300   -1.350886
     23          1           0        1.637459   -4.175977   -2.112088
     24          1           0        3.276080   -2.484727   -1.358041
     25          1           0        2.555114   -0.655284    0.159175
 ---------------------------------------------------------------------

 SCF Done:  E(RHF) =  -1010.58145207     A.U. after    2 cycles

 The electronic state is 1-A.
 Alpha  occ. eigenvalues --  -75.88600 -21.03816 -21.03738 -13.50710 -13.40764
 Alpha  occ. eigenvalues --  -13.38909 -11.55101 -11.53573 -11.46200 -11.45907
 Alpha  occ. eigenvalues --  -11.45844 -11.45364 -11.43650 -11.43378 -11.42886
 Alpha  occ. eigenvalues --  -11.42571 -11.39016 -11.38573  -8.23448  -1.81873
 Alpha  occ. eigenvalues --   -1.64335  -1.37430  -1.35940  -1.15964  -1.12010
 Alpha  occ. eigenvalues --   -1.11538  -1.11512  -0.99245  -0.88946  -0.88925
 Alpha  occ. eigenvalues --   -0.88589  -0.83118  -0.74668  -0.72960  -0.67674
 Alpha  occ. eigenvalues --   -0.64965  -0.62165  -0.60798  -0.60474  -0.60289
 Alpha  occ. eigenvalues --   -0.59418  -0.59350  -0.53563  -0.52700  -0.48194
 Alpha  occ. eigenvalues --   -0.48062  -0.47829  -0.47026  -0.42702  -0.39584
 Alpha  occ. eigenvalues --   -0.38771  -0.36146  -0.35339  -0.34897  -0.34693
 Alpha  occ. eigenvalues --   -0.34395  -0.33518
 Alpha virt. eigenvalues --    0.02730   0.04101   0.04894   0.04936   0.05111
 Alpha virt. eigenvalues --    0.05303   0.06483   0.07130   0.07527   0.08017
 Alpha virt. eigenvalues --    0.08082   0.09311   0.09681   0.10946   0.11629

 Mulliken charges:
               1
     1  O   -3.178949
     2  S    8.000845
     3  O   -3.178949
     4  C    3.240443
     5  C   -4.199734
     6  C   -0.621427
     7  C   -2.944075
     8  C   -0.622871
     9  C   -4.189340
    10  C    3.240443
    11  C   -4.199734
    12  C   -0.621427
    13  C   -2.944075
    14  C   -0.622871
    15  C   -4.189340
    16  H    1.938887
    17  H    1.529037
    18  H    1.580676
    19  H    1.529015
    20  H    1.937916
    21  H    1.938887
    22  H    1.529037
    23  H    1.580676
    24  H    1.529015
    25  H    1.937916
 Sum of Mulliken charges =  -0.00000

 Dipole moment (field-independent basis, Debye):
    X=             -0.0000    Y=              0.0000    Z=             -3.5075  Tot=              3.5075

 Test job not archived.
 1\1\GINC-SE038\SP\RHF\Aug-CC-pVDZ\C12H10O2S1\OHZDE\06-Apr-2025\0\\#t h
 f aug-cc-pvdz iop(5/13=1,5/36=2,99/5=2) pseudo=read geom=check guess=(
 read,tcheck) scf=(maxcycle=1)\\title\\0,1\O,0,1.182952,0.463928,2.0290
 51\S,0,0.,0.,1.311979\O,0,-1.182952,-0.463928,2.029051\C,0,-0.520392,1
 .327106,0.21295\C,0,0.409097,2.277935,-0.192069\C,0,0.,3.304743,-1.033
 775\C,0,-1.322848,3.373603,-1.458638\C,0,-2.245249,2.421077,-1.037808\
 C,0,-1.847361,1.389895,-0.196106\C,0,0.520392,-1.327106,0.21295\C,0,-0
 .409097,-2.277935,-0.192069\C,0,0.,-3.304743,-1.033775\C,0,1.322848,-3

 Normal termination of Gaussian 16 at Sun Apr  6 08:37:14 2025.
