 Gaussian 16, Revision C.01,

 ----------------------------------------------------------------------
 #t hf aug-cc-pvdz symm=none int=(grid=ultrafine) guess=(read,tcheck) s
 table=(opt,rrhf)
 ----------------------------------------------------------------------
 -----
 title
 -----
 Symbolic Z-matrix:
 Charge =  0 Multiplicity = 1

 SCF Done:  E(RHF) =  -418.349399902     A.U. after   15 cycles
 Normal termination of Gaussian 16 at Sun Apr  6 08:27:20 2025.
 Gaussian 16:  ES64L-G16RevC.01  3-Jul-2019

 ----------------------------------------------------------------------
 #t hf aug-cc-pvdz iop(5/13=1,5/36=2,99/5=2) pseudo=read geom=check gue
 ss=(read,tcheck) scf=(maxcycle=1)
 ----------------------------------------------------------------------
 -----
 title
 -----
 Structure from the checkpoint file:  "phenyl_formate.chk"
 Charge =  0 Multiplicity = 1

                         Standard orientation:
 ---------------------------------------------------------------------
 Center     Atomic      Atomic             Coordinates (Angstroms)
 Number     Number       Type             X           Y           Z
 ---------------------------------------------------------------------
      1          6           0        2.487747    0.326580    0.218061
      2          6           0        2.045807   -0.986436    0.330087
      3          6           0        1.598711    1.325573   -0.163943
      4          6           0        0.718272   -1.302587    0.064989
      5          6           0        0.269988    1.021727   -0.434324
      6          6           0       -0.152532   -0.293089   -0.311684
      7          6           0       -2.512580   -0.121577    0.007190
      8          8           0       -2.466293    0.684083    0.887913
      9          8           0       -1.461326   -0.671192   -0.645444
     10          1           0        3.520254    0.570857    0.425766
     11          1           0        2.732232   -1.768633    0.623796
     12          1           0        1.937995    2.348421   -0.253363
     13          1           0        0.355162   -2.317509    0.142752
     14          1           0       -0.426389    1.792073   -0.729422
     15          1           0       -3.430787   -0.549489   -0.411541
 ---------------------------------------------------------------------

 SCF Done:  E(RHF) =  -420.218734435     A.U. after    2 cycles

 The electronic state is 1-A.
 Alpha  occ. eigenvalues --  -21.11561 -21.07090 -11.54031 -11.52189 -11.46290
 Alpha  occ. eigenvalues --  -11.43485 -11.41690 -11.41045 -11.37373  -1.86013
 Alpha  occ. eigenvalues --   -1.68541  -1.33487  -1.10578  -1.09274  -0.91356
 Alpha  occ. eigenvalues --   -0.88322  -0.81842  -0.71876  -0.68629  -0.64435
 Alpha  occ. eigenvalues --   -0.60845  -0.59397  -0.58053  -0.54141  -0.52083
 Alpha  occ. eigenvalues --   -0.49342  -0.46535  -0.43364  -0.36440  -0.34333
 Alpha  occ. eigenvalues --   -0.31565  -0.30465
 Alpha virt. eigenvalues --    0.03276   0.04766   0.05098   0.05715   0.06621
 Alpha virt. eigenvalues --    0.06932   0.09908   0.10511   0.10887   0.10924
 Alpha virt. eigenvalues --    0.11317   0.13178   0.13238   0.13663   0.14387

 Mulliken charges:
               1
     1  C   -2.381977
     2  C   -0.144047
     3  C   -0.259925
     4  C   -3.743515
     5  C   -3.255375
     6  C    5.388444
     7  C    1.567882
     8  O   -2.403184
     9  O   -4.307952
    10  H    1.544694
    11  H    1.480531
    12  H    1.491358
    13  H    1.705398
    14  H    1.734566
    15  H    1.583103
 Sum of Mulliken charges =  -0.00000

 Dipole moment (field-independent basis, Debye):
    X=              1.0404    Y=             -0.3686    Z=             -0.5017  Tot=              1.2125

 Test job not archived.
 1\1\GINC-SE009\SP\RHF\Aug-CC-pVDZ\C7H6O2\OHZDE\06-Apr-2025\0\\#t hf au
 g-cc-pvdz iop(5/13=1,5/36=2,99/5=2) pseudo=read geom=check guess=(read
 ,tcheck) scf=(maxcycle=1)\\title\\0,1\C,0,2.487747,0.32658,0.218061\C,
 0,2.045807,-0.986436,0.330087\C,0,1.598711,1.325573,-0.163943\C,0,0.71
 8272,-1.302587,0.064989\C,0,0.269988,1.021727,-0.434324\C,0,-0.152532,
 -0.293089,-0.311684\C,0,-2.51258,-0.121577,0.00719\O,0,-2.466293,0.684
 083,0.887913\O,0,-1.461326,-0.671192,-0.645444\H,0,3.520254,0.570857,0
 .425766\H,0,2.732232,-1.768633,0.623796\H,0,1.937995,2.348421,-0.25336

 Normal termination of Gaussian 16 at Sun Apr  6 08:27:52 2025.
