 Gaussian 16, Revision C.01,

 ----------------------------------------------------------------------
 #t hf aug-cc-pvdz symm=none int=(grid=ultrafine) guess=(read,tcheck) s
 table=(opt,rrhf)
 ----------------------------------------------------------------------
 -----
 title
 -----
 Symbolic Z-matrix:
 Charge =  0 Multiplicity = 1

 SCF Done:  E(RHF) =  -340.769210580     A.U. after   15 cycles
 Normal termination of Gaussian 16 at Sun Apr  6 08:29:47 2025.
 Gaussian 16:  ES64L-G16RevC.01  3-Jul-2019

 ----------------------------------------------------------------------
 #t hf aug-cc-pvdz iop(5/13=1,5/36=2,99/5=2) pseudo=read geom=check gue
 ss=(read,tcheck) scf=(maxcycle=1)
 ----------------------------------------------------------------------
 -----
 title
 -----
 Structure from the checkpoint file:  "phenylhydrazine.chk"
 Charge =  0 Multiplicity = 1

                         Standard orientation:
 ---------------------------------------------------------------------
 Center     Atomic      Atomic             Coordinates (Angstroms)
 Number     Number       Type             X           Y           Z
 ---------------------------------------------------------------------
      1          6           0       -2.302046    0.304648    0.048681
      2          6           0       -1.844743   -1.009740    0.055890
      3          6           0       -1.374107    1.337593   -0.016270
      4          6           0       -0.487064   -1.284841   -0.001073
      5          6           0       -0.010704    1.076510   -0.076066
      6          6           0        0.447055   -0.243648   -0.073095
      7          7           0        2.746630    0.431456    0.133713
      8          7           0        1.804819   -0.563693   -0.195804
      9          1           0       -3.360760    0.517610    0.095676
     10          1           0       -2.549315   -1.829261    0.110144
     11          1           0       -1.711935    2.365825   -0.020205
     12          1           0       -0.143401   -2.312664    0.003216
     13          1           0        0.705591    1.881657   -0.126272
     14          1           0        3.542157    0.355481   -0.484296
     15          1           0        3.057771    0.357060    1.097408
     16          1           0        2.029412   -1.493179    0.130559
 ---------------------------------------------------------------------

 SCF Done:  E(RHF) =  -342.399554312     A.U. after    2 cycles

 The electronic state is 1-A.
 Alpha  occ. eigenvalues --  -15.76471 -15.75614 -11.50817 -11.43628 -11.41605
 Alpha  occ. eigenvalues --  -11.39179 -11.38846 -11.34916  -1.49801  -1.31318
 Alpha  occ. eigenvalues --   -1.15885  -1.08249  -1.01448  -0.86223  -0.83052
 Alpha  occ. eigenvalues --   -0.71021  -0.68546  -0.67072  -0.64439  -0.57595
 Alpha  occ. eigenvalues --   -0.56914  -0.53475  -0.51442  -0.45265  -0.43457
 Alpha  occ. eigenvalues --   -0.41133  -0.38527  -0.32237  -0.26495
 Alpha virt. eigenvalues --    0.03568   0.04694   0.04999   0.05915   0.06107
 Alpha virt. eigenvalues --    0.06355   0.07582   0.08185   0.11271   0.11980
 Alpha virt. eigenvalues --    0.13278   0.13585   0.14318   0.14531   0.14750

 Mulliken charges:
               1
     1  C   -2.783179
     2  C   -0.086835
     3  C    0.044870
     4  C   -3.608282
     5  C   -2.188552
     6  C    3.765611
     7  N   -2.046169
     8  N   -3.233045
     9  H    1.534208
    10  H    1.483912
    11  H    1.490403
    12  H    1.639306
    13  H    1.787671
    14  H    0.750828
    15  H    0.651600
    16  H    0.797650
 Sum of Mulliken charges =   0.00000

 Dipole moment (field-independent basis, Debye):
    X=              1.9806    Y=             -0.8945    Z=              0.7457  Tot=              2.2977

 Test job not archived.
 1\1\GINC-SE009\SP\RHF\Aug-CC-pVDZ\C6H8N2\OHZDE\06-Apr-2025\0\\#t hf au
 g-cc-pvdz iop(5/13=1,5/36=2,99/5=2) pseudo=read geom=check guess=(read
 ,tcheck) scf=(maxcycle=1)\\title\\0,1\C,0,-2.302046,0.304648,0.048681\
 C,0,-1.844743,-1.00974,0.05589\C,0,-1.374107,1.337593,-0.01627\C,0,-0.
 487064,-1.284841,-0.001073\C,0,-0.010704,1.07651,-0.076066\C,0,0.44705
 5,-0.243648,-0.073095\N,0,2.74663,0.431456,0.133713\N,0,1.804819,-0.56
 3693,-0.195804\H,0,-3.36076,0.51761,0.095676\H,0,-2.549315,-1.829261,0
 .110144\H,0,-1.711935,2.365825,-0.020205\H,0,-0.143401,-2.312664,0.003

 Normal termination of Gaussian 16 at Sun Apr  6 08:30:14 2025.
