 Gaussian 16, Revision C.01,

 ----------------------------------------------------------------------
 #t hf aug-cc-pvdz symm=none int=(grid=ultrafine) guess=(read,tcheck) s
 table=(opt,rrhf)
 ----------------------------------------------------------------------
 -----
 title
 -----
 Symbolic Z-matrix:
 Charge =  0 Multiplicity = 1

 SCF Done:  E(RHF) =  -305.601885024     A.U. after   14 cycles
 Normal termination of Gaussian 16 at Sun Apr  6 08:27:45 2025.
 Gaussian 16:  ES64L-G16RevC.01  3-Jul-2019

 ----------------------------------------------------------------------
 #t hf aug-cc-pvdz iop(5/13=1,5/36=2,99/5=2) pseudo=read geom=check gue
 ss=(read,tcheck) scf=(maxcycle=1)
 ----------------------------------------------------------------------
 -----
 title
 -----
 Structure from the checkpoint file:  "phenol.chk"
 Charge =  0 Multiplicity = 1

                         Standard orientation:
 ---------------------------------------------------------------------
 Center     Atomic      Atomic             Coordinates (Angstroms)
 Number     Number       Type             X           Y           Z
 ---------------------------------------------------------------------
      1          6           0        0.021569   -1.850874    0.000000
      2          6           0       -1.183942   -1.160029    0.000000
      3          6           0        1.216077   -1.136120    0.000000
      4          6           0       -1.200429    0.230252    0.000000
      5          6           0        1.212740    0.251632    0.000000
      6          6           0        0.000000    0.935940    0.000000
      7          8           0        0.048212    2.303596    0.000000
      8          1           0        0.031441   -2.931667    0.000000
      9          1           0       -2.120454   -1.701426    0.000000
     10          1           0        2.160924   -1.662963    0.000000
     11          1           0       -2.142899    0.765406    0.000000
     12          1           0        2.134448    0.816335    0.000000
     13          1           0       -0.845249    2.660743    0.000000
 ---------------------------------------------------------------------

 SCF Done:  E(RHF) =  -307.014257233     A.U. after    2 cycles

 The electronic state is 1-A'.
 Alpha  occ. eigenvalues --  -21.10283 -11.52132 -11.45200 -11.42585 -11.40285
 Alpha  occ. eigenvalues --  -11.39932 -11.36286  -1.75625  -1.31935  -1.09660
 Alpha  occ. eigenvalues --   -1.06797  -0.87651  -0.84702  -0.71468  -0.67032
 Alpha  occ. eigenvalues --   -0.61822  -0.58410  -0.56892  -0.53843  -0.49351
 Alpha  occ. eigenvalues --   -0.45475  -0.42688  -0.41701  -0.33438  -0.27057
 Alpha virt. eigenvalues --    0.03349   0.04837   0.05215   0.05959   0.06597
 Alpha virt. eigenvalues --    0.07428   0.11126   0.11136   0.12703   0.13569
 Alpha virt. eigenvalues --    0.14035   0.14049   0.14062   0.14656   0.14698

 Mulliken charges:
               1
     1  C   -2.592850
     2  C    0.045186
     3  C    0.129742
     4  C   -4.598268
     5  C   -3.434913
     6  C    6.058516
     7  O   -4.411774
     8  H    1.514890
     9  H    1.462931
    10  H    1.472385
    11  H    1.642329
    12  H    1.684587
    13  H    1.027239
 Sum of Mulliken charges =   0.00000

 Dipole moment (field-independent basis, Debye):
    X=             -0.6051    Y=              0.3334    Z=              0.0000  Tot=              0.6909

 Test job not archived.
 1\1\GINC-SE276\SP\RHF\Aug-CC-pVDZ\C6H6O1\OHZDE\06-Apr-2025\0\\#t hf au
 g-cc-pvdz iop(5/13=1,5/36=2,99/5=2) pseudo=read geom=check guess=(read
 ,tcheck) scf=(maxcycle=1)\\title\\0,1\C,0,0.021569,-1.850874,0.\C,0,-1
 .183942,-1.160029,0.\C,0,1.216077,-1.13612,0.\C,0,-1.200429,0.230252,0
 .\C,0,1.21274,0.251632,0.\C,0,0.,0.93594,0.\O,0,0.048212,2.303596,0.\H
 ,0,0.031441,-2.931667,0.\H,0,-2.120454,-1.701426,0.\H,0,2.160924,-1.66
 2963,0.\H,0,-2.142899,0.765406,0.\H,0,2.134448,0.816335,0.\H,0,-0.8452
 49,2.660743,0.\\Version=ES64L-G16RevC.01\State=1-A'\HF=-307.0142572\RM

 Normal termination of Gaussian 16 at Sun Apr  6 08:27:49 2025.
