 Gaussian 16, Revision C.01,

 ----------------------------------------------------------------------
 #t hf aug-cc-pvdz symm=none int=(grid=ultrafine) guess=(read,tcheck) s
 table=(opt,rrhf)
 ----------------------------------------------------------------------
 -----
 title
 -----
 Symbolic Z-matrix:
 Charge =  0 Multiplicity = 1

 SCF Done:  E(RHF) =  -551.490690691     A.U. after   15 cycles
 Normal termination of Gaussian 16 at Sun Apr  6 08:31:26 2025.
 Gaussian 16:  ES64L-G16RevC.01  3-Jul-2019

 ----------------------------------------------------------------------
 #t hf aug-cc-pvdz iop(5/13=1,5/36=2,99/5=2) pseudo=read geom=check gue
 ss=(read,tcheck) scf=(maxcycle=1)
 ----------------------------------------------------------------------
 -----
 title
 -----
 Structure from the checkpoint file:  "phenylalanine.chk"
 Charge =  0 Multiplicity = 1

                         Standard orientation:
 ---------------------------------------------------------------------
 Center     Atomic      Atomic             Coordinates (Angstroms)
 Number     Number       Type             X           Y           Z
 ---------------------------------------------------------------------
      1          7           0       -1.339042    1.450654   -0.784825
      2          6           0       -1.389756    0.054525   -0.330039
      3          6           0       -2.841838   -0.324033    0.031390
      4          8           0       -3.133850   -1.336349    0.609477
      5          8           0       -3.754709    0.560078   -0.391499
      6          1           0       -3.240979    1.282550   -0.814313
      7          6           0       -0.428785   -0.303489    0.819231
      8          6           0        1.025254   -0.197841    0.432381
      9          6           0        1.621881   -1.185950   -0.355385
     10          6           0        2.953581   -1.088667   -0.737089
     11          6           0        3.718469    0.001996   -0.335343
     12          6           0        3.141002    0.988624    0.453392
     13          6           0        1.805840    0.886727    0.832293
     14          1           0       -1.147606   -0.573924   -1.190629
     15          1           0       -0.639640    0.355030    1.665991
     16          1           0       -0.667999   -1.315484    1.143917
     17          1           0        1.040607   -2.046855   -0.662923
     18          1           0        3.397501   -1.868361   -1.341580
     19          1           0        4.756749    0.076482   -0.628637
     20          1           0        3.729078    1.836137    0.779435
     21          1           0        1.370663    1.654866    1.459995
     22          1           0       -1.109294    2.078090   -0.023130
     23          1           0       -0.641205    1.585711   -1.503173
 ---------------------------------------------------------------------

 SCF Done:  E(RHF) =  -554.029140095     A.U. after    2 cycles

 The electronic state is 1-A.
 Alpha  occ. eigenvalues --  -21.10385 -21.04013 -15.76776 -11.53153 -11.52547
 Alpha  occ. eigenvalues --  -11.47920 -11.44782 -11.44348 -11.41963 -11.41479
 Alpha  occ. eigenvalues --  -11.41304 -11.37073  -1.81495  -1.64762  -1.39782
 Alpha  occ. eigenvalues --   -1.34263  -1.16765  -1.10207  -1.06543  -0.95826
 Alpha  occ. eigenvalues --   -0.87493  -0.84187  -0.77554  -0.73250  -0.71480
 Alpha  occ. eigenvalues --   -0.67848  -0.65598  -0.63547  -0.59786  -0.58875
 Alpha  occ. eigenvalues --   -0.58258  -0.55849  -0.53265  -0.51514  -0.49453
 Alpha  occ. eigenvalues --   -0.48377  -0.46902  -0.44937  -0.42058  -0.39544
 Alpha  occ. eigenvalues --   -0.34090  -0.33353  -0.32426  -0.27970
 Alpha virt. eigenvalues --    0.02905   0.04400   0.04622   0.04704   0.05280
 Alpha virt. eigenvalues --    0.05589   0.06099   0.06920   0.07294   0.08219
 Alpha virt. eigenvalues --    0.09306   0.10144   0.10462   0.11320   0.11680

 Mulliken charges:
               1
     1  N   -2.764994
     2  C   -1.152117
     3  C    6.350376
     4  O   -3.341747
     5  O   -3.223994
     6  H    1.111017
     7  C   -4.490353
     8  C    5.317286
     9  C   -2.296951
    10  C   -1.710570
    11  C   -2.945783
    12  C   -1.713080
    13  C   -2.997259
    14  H    1.957317
    15  H    1.285063
    16  H    1.298159
    17  H    1.816366
    18  H    1.521791
    19  H    1.541757
    20  H    1.506065
    21  H    1.762352
    22  H    0.590332
    23  H    0.578968
 Sum of Mulliken charges =  -0.00000

 Dipole moment (field-independent basis, Debye):
    X=              2.9466    Y=              1.8935    Z=             -0.9315  Tot=              3.6243

 Test job not archived.
 1\1\GINC-SE028\SP\RHF\Aug-CC-pVDZ\C9H11N1O2\OHZDE\06-Apr-2025\0\\#t hf
  aug-cc-pvdz iop(5/13=1,5/36=2,99/5=2) pseudo=read geom=check guess=(r
 ead,tcheck) scf=(maxcycle=1)\\title\\0,1\N,0,-1.339042,1.450654,-0.784
 825\C,0,-1.389756,0.054525,-0.330039\C,0,-2.841838,-0.324033,0.03139\O
 ,0,-3.13385,-1.336349,0.609477\O,0,-3.754709,0.560078,-0.391499\H,0,-3
 .240979,1.28255,-0.814313\C,0,-0.428785,-0.303489,0.819231\C,0,1.02525
 4,-0.197841,0.432381\C,0,1.621881,-1.18595,-0.355385\C,0,2.953581,-1.0
 88667,-0.737089\C,0,3.718469,0.001996,-0.335343\C,0,3.141002,0.988624,

 Normal termination of Gaussian 16 at Sun Apr  6 08:31:46 2025.
