 Gaussian 16, Revision C.01,

 ----------------------------------------------------------------------
 #t hf aug-cc-pvdz symm=none int=(grid=ultrafine) guess=(read,tcheck) s
 table=(opt,rrhf)
 ----------------------------------------------------------------------
 -----
 title
 -----
 Symbolic Z-matrix:
 Charge =  0 Multiplicity = 1

 SCF Done:  E(RHF) =  -306.410158611     A.U. after   15 cycles
 Normal termination of Gaussian 16 at Sun Apr  6 08:28:25 2025.
 Gaussian 16:  ES64L-G16RevC.01  3-Jul-2019

 ----------------------------------------------------------------------
 #t hf aug-cc-pvdz iop(5/13=1,5/36=2,99/5=2) pseudo=read geom=check gue
 ss=(read,tcheck) scf=(maxcycle=1)
 ----------------------------------------------------------------------
 -----
 title
 -----
 Structure from the checkpoint file:  "phenylacetylene.chk"
 Charge =  0 Multiplicity = 1

                         Standard orientation:
 ---------------------------------------------------------------------
 Center     Atomic      Atomic             Coordinates (Angstroms)
 Number     Number       Type             X           Y           Z
 ---------------------------------------------------------------------
      1          6           0        0.000000   -0.000000    0.592096
      2          6           0        0.000000   -0.000000    2.018067
      3          6           0        0.000000    1.207433   -0.119647
      4          6           0       -0.000000   -1.207433   -0.119647
      5          6           0        0.000000    1.203152   -1.506425
      6          6           0       -0.000000   -1.203152   -1.506425
      7          6           0        0.000000    0.000000   -2.204188
      8          6           0        0.000000   -0.000000    3.219986
      9          1           0        0.000000   -0.000000    4.280998
     10          1           0        0.000000    2.140945    0.425266
     11          1           0       -0.000000   -2.140945    0.425266
     12          1           0        0.000000    2.141685   -2.044307
     13          1           0       -0.000000   -2.141685   -2.044307
     14          1           0        0.000000    0.000000   -3.285824
 ---------------------------------------------------------------------

 SCF Done:  E(RHF) =  -307.873533702     A.U. after    2 cycles

 The electronic state is 1-A1.
 Alpha  occ. eigenvalues --  -11.53271 -11.45523 -11.43960 -11.42661 -11.41453
 Alpha  occ. eigenvalues --  -11.41078 -11.40727 -11.37208  -1.36180  -1.15902
 Alpha  occ. eigenvalues --   -1.10045  -1.04891  -0.88730  -0.87070  -0.76240
 Alpha  occ. eigenvalues --   -0.71012  -0.66317  -0.59321  -0.59046  -0.58220
 Alpha  occ. eigenvalues --   -0.52348  -0.46637  -0.46160  -0.41918  -0.37112
 Alpha  occ. eigenvalues --   -0.33747  -0.30392
 Alpha virt. eigenvalues --    0.03050   0.04608   0.05235   0.05561   0.06751
 Alpha virt. eigenvalues --    0.07039   0.09360   0.09519   0.10924   0.11105
 Alpha virt. eigenvalues --    0.11283   0.12587   0.13677   0.13914   0.14182

 Mulliken charges:
               1
     1  C    4.914541
     2  C    2.737942
     3  C   -3.002225
     4  C   -3.002225
     5  C   -2.301361
     6  C   -2.301361
     7  C   -2.136944
     8  C   -3.058959
     9  H    0.539998
    10  H    1.546284
    11  H    1.546284
    12  H    1.496087
    13  H    1.496087
    14  H    1.525854
 Sum of Mulliken charges =   0.00000

 Dipole moment (field-independent basis, Debye):
    X=             -0.0000    Y=              0.0000    Z=             -0.6258  Tot=              0.6258

 Test job not archived.
 1\1\GINC-SE023\SP\RHF\Aug-CC-pVDZ\C8H6\OHZDE\06-Apr-2025\0\\#t hf aug-
 cc-pvdz iop(5/13=1,5/36=2,99/5=2) pseudo=read geom=check guess=(read,t
 check) scf=(maxcycle=1)\\title\\0,1\C,0,0.,0.,0.592096\C,0,0.,0.,2.018
 067\C,0,0.,1.207433,-0.119647\C,0,0.,-1.207433,-0.119647\C,0,0.,1.2031
 52,-1.506425\C,0,0.,-1.203152,-1.506425\C,0,0.,0.,-2.204188\C,0,0.,0.,
 3.219986\H,0,0.,0.,4.280998\H,0,0.,2.140945,0.425266\H,0,0.,-2.140945,
 0.425266\H,0,0.,2.141685,-2.044307\H,0,0.,-2.141685,-2.044307\H,0,0.,0
 .,-3.285824\\Version=ES64L-G16RevC.01\State=1-A1\HF=-307.8735337\RMSD=

 Normal termination of Gaussian 16 at Sun Apr  6 08:28:56 2025.
