 Gaussian 16, Revision C.01,

 ----------------------------------------------------------------------
 #t hf aug-cc-pvdz symm=none int=(grid=ultrafine) guess=(read,tcheck) s
 table=(opt,rrhf)
 ----------------------------------------------------------------------
 -----
 title
 -----
 Symbolic Z-matrix:
 Charge =  0 Multiplicity = 1

 SCF Done:  E(RHF) =  -1031.74610413     A.U. after   12 cycles

 1\1\GINC-SE044\Stability\RHF\Aug-CC-pVDZ\C1Cl2O1\OHZDE\06-Apr-2025\0\\
 #t hf aug-cc-pvdz symm=none int=(grid=ultrafine) guess=(read,tcheck) s
 table=(opt,rrhf)\\title\\0,1\O,0,0.,0.,1.676657\C,0,0.,0.,0.503213\Cl,
 0,0.,1.457697,-0.48331\Cl,0,0.,-1.457697,-0.48331\\Version=ES64L-G16Re
 vC.01\HF=-1031.7461041\RMSD=8.304e-09\Dipole=0.,0.,-0.556802\Quadrupol
 e=0.7624777,1.4599061,-2.2223839,0.,0.,0.\PG=Unknown\\@
 The archive entry for this job was punched.

 Normal termination of Gaussian 16 at Sun Apr  6 08:30:20 2025.
 Gaussian 16:  ES64L-G16RevC.01  3-Jul-2019

 ----------------------------------------------------------------------
 #t hf aug-cc-pvdz iop(5/13=1,5/36=2,99/5=2) pseudo=read geom=check gue
 ss=(read,tcheck) scf=(maxcycle=1)
 ----------------------------------------------------------------------
 -----
 title
 -----
 Structure from the checkpoint file:  "phosgene.chk"
 Charge =  0 Multiplicity = 1

                         Standard orientation:
 ---------------------------------------------------------------------
 Center     Atomic      Atomic             Coordinates (Angstroms)
 Number     Number       Type             X           Y           Z
 ---------------------------------------------------------------------
      1          8           0        0.000000   -0.000000    1.676657
      2          6           0        0.000000   -0.000000    0.503213
      3         17           0        0.000000    1.457697   -0.483310
      4         17           0       -0.000000   -1.457697   -0.483310
 ---------------------------------------------------------------------

 SCF Done:  E(RHF) =  -1032.68702957     A.U. after    2 cycles

 The electronic state is 1-A1.
 Alpha  occ. eigenvalues --  -99.94254 -99.94243 -21.13510 -11.59902 -10.51773
 Alpha  occ. eigenvalues --  -10.51518  -9.71564  -9.71275  -9.70681  -9.70580
 Alpha  occ. eigenvalues --   -9.70574  -9.70543  -1.79902  -1.39972  -1.33113
 Alpha  occ. eigenvalues --   -0.90005  -0.73894  -0.65882  -0.64743  -0.55736
 Alpha  occ. eigenvalues --   -0.55275  -0.53207  -0.46912  -0.39160
 Alpha virt. eigenvalues --    0.00829   0.05343   0.07564   0.07821   0.10452
 Alpha virt. eigenvalues --    0.10928   0.11574   0.13625   0.14549   0.15179
 Alpha virt. eigenvalues --    0.16071   0.18454   0.21632   0.21887   0.24595

 Mulliken charges:
               1
     1  O   -1.738867
     2  C    0.978904
     3  Cl   0.379981
     4  Cl   0.379981
 Sum of Mulliken charges =  -0.00000

 Dipole moment (field-independent basis, Debye):
    X=             -0.0000    Y=              0.0000    Z=              1.1322  Tot=              1.1322

 Test job not archived.
 1\1\GINC-SE044\SP\RHF\Aug-CC-pVDZ\C1Cl2O1\OHZDE\06-Apr-2025\0\\#t hf a
 ug-cc-pvdz iop(5/13=1,5/36=2,99/5=2) pseudo=read geom=check guess=(rea
 d,tcheck) scf=(maxcycle=1)\\title\\0,1\O,0,0.,0.,1.676657\C,0,0.,0.,0.
 503213\Cl,0,0.,1.457697,-0.48331\Cl,0,0.,-1.457697,-0.48331\\Version=E
 S64L-G16RevC.01\State=1-A1\HF=-1032.6870296\RMSD=4.320e-02\Dipole=0.,0
 .,0.4454601\Quadrupole=-0.7427181,0.3681053,0.3746128,0.,0.,0.\PG=C02V
  [C2(C1O1),SGV(Cl2)]\\@

 Normal termination of Gaussian 16 at Sun Apr  6 08:30:49 2025.
