 Gaussian 16, Revision C.01,

 ----------------------------------------------------------------------
 #t hf aug-cc-pvdz symm=none int=(grid=ultrafine) guess=(read,tcheck) s
 table=(opt,rrhf)
 ----------------------------------------------------------------------
 -----
 title
 -----
 Symbolic Z-matrix:
 Charge =  0 Multiplicity = 1

 SCF Done:  E(RHF) =  -415.352407149     A.U. after   16 cycles
 Normal termination of Gaussian 16 at Sun Apr  6 08:30:29 2025.
 Gaussian 16:  ES64L-G16RevC.01  3-Jul-2019

 ----------------------------------------------------------------------
 #t hf aug-cc-pvdz iop(5/13=1,5/36=2,99/5=2) pseudo=read geom=check gue
 ss=(read,tcheck) scf=(maxcycle=1)
 ----------------------------------------------------------------------
 -----
 title
 -----
 Structure from the checkpoint file:  "phthalazine.chk"
 Charge =  0 Multiplicity = 1

                         Standard orientation:
 ---------------------------------------------------------------------
 Center     Atomic      Atomic             Coordinates (Angstroms)
 Number     Number       Type             X           Y           Z
 ---------------------------------------------------------------------
      1          6           0        0.000000    0.705485   -0.012772
      2          6           0        0.000000    1.324526   -1.289733
      3          6           0       -0.000000   -0.705485   -0.012772
      4          7           0        0.000000    0.681794   -2.426927
      5          6           0       -0.000000   -1.324526   -1.289733
      6          7           0       -0.000000   -0.681794   -2.426927
      7          6           0        0.000000    1.404939    1.211306
      8          6           0        0.000000    0.705423    2.392790
      9          6           0       -0.000000   -0.705423    2.392790
     10          6           0       -0.000000   -1.404939    1.211306
     11          1           0        0.000000   -2.407381   -1.364362
     12          1           0        0.000000    2.407381   -1.364362
     13          1           0        0.000000   -1.235415    3.335672
     14          1           0        0.000000    1.235415    3.335672
     15          1           0        0.000000   -2.487234    1.207629
     16          1           0        0.000000    2.487234    1.207629
 ---------------------------------------------------------------------

 SCF Done:  E(RHF) =  -417.284799603     A.U. after    2 cycles

 The electronic state is 1-A1.
 Alpha  occ. eigenvalues --  -15.76513 -15.75904 -11.53843 -11.48894 -11.45851
 Alpha  occ. eigenvalues --  -11.45615 -11.44888 -11.44134 -11.42859 -11.39106
 Alpha  occ. eigenvalues --   -1.54542  -1.35549  -1.22341  -1.15535  -1.11818
 Alpha  occ. eigenvalues --   -0.94372  -0.92384  -0.88353  -0.74206  -0.73355
 Alpha  occ. eigenvalues --   -0.68047  -0.65754  -0.61108  -0.59937  -0.58704
 Alpha  occ. eigenvalues --   -0.55645  -0.50985  -0.49878  -0.47917  -0.41606
 Alpha  occ. eigenvalues --   -0.40462  -0.35570  -0.34223  -0.31560
 Alpha virt. eigenvalues --    0.02717   0.04290   0.04572   0.05813   0.06466
 Alpha virt. eigenvalues --    0.07322   0.07709   0.09043   0.09358   0.10092
 Alpha virt. eigenvalues --    0.10544   0.11469   0.12021   0.12455   0.12863

 Mulliken charges:
               1
     1  C    3.719007
     2  C   -2.580387
     3  C    3.719007
     4  N   -2.178310
     5  C   -2.580387
     6  N   -2.178310
     7  C   -0.535056
     8  C   -3.064732
     9  C   -3.064732
    10  C   -0.535056
    11  H    1.383281
    12  H    1.383281
    13  H    1.485318
    14  H    1.485318
    15  H    1.770880
    16  H    1.770880
 Sum of Mulliken charges =   0.00000

 Dipole moment (field-independent basis, Debye):
    X=              0.0000    Y=              0.0000    Z=              4.4591  Tot=              4.4591

 Test job not archived.
 1\1\GINC-SE055\SP\RHF\Aug-CC-pVDZ\C8H6N2\OHZDE\06-Apr-2025\0\\#t hf au
 g-cc-pvdz iop(5/13=1,5/36=2,99/5=2) pseudo=read geom=check guess=(read
 ,tcheck) scf=(maxcycle=1)\\title\\0,1\C,0,0.,0.705485,-0.012772\C,0,0.
 ,1.324526,-1.289733\C,0,0.,-0.705485,-0.012772\N,0,0.,0.681794,-2.4269
 27\C,0,0.,-1.324526,-1.289733\N,0,0.,-0.681794,-2.426927\C,0,0.,1.4049
 39,1.211306\C,0,0.,0.705423,2.39279\C,0,0.,-0.705423,2.39279\C,0,0.,-1
 .404939,1.211306\H,0,0.,-2.407381,-1.364362\H,0,0.,2.407381,-1.364362\
 H,0,0.,-1.235415,3.335672\H,0,0.,1.235415,3.335672\H,0,0.,-2.487234,1.

 Normal termination of Gaussian 16 at Sun Apr  6 08:30:53 2025.
