 Gaussian 16, Revision C.01,

 ----------------------------------------------------------------------
 #t hf aug-cc-pvdz symm=none int=(grid=ultrafine) guess=(read,tcheck) s
 table=(opt,rrhf)
 ----------------------------------------------------------------------
 -----
 title
 -----
 Symbolic Z-matrix:
 Charge =  0 Multiplicity = 1

 SCF Done:  E(RHF) =  -321.216080289     A.U. after   12 cycles

 1\1\GINC-SE101\Stability\RHF\Aug-CC-pVDZ\C4H11N3\OHZDE\06-Apr-2025\0\\
 #t hf aug-cc-pvdz symm=none int=(grid=ultrafine) guess=(read,tcheck) s
 table=(opt,rrhf)\\title\\0,1\C,0,1.133555,1.224172,-0.194407\C,0,1.181
 841,-1.187001,-0.202712\C,0,-0.343283,1.191042,0.180257\C,0,-0.292244,
 -1.22436,0.177403\N,0,1.789141,0.030617,0.328985\N,0,-0.969018,-0.0308
 42,-0.3228\N,0,-2.357848,-0.114512,-0.018199\H,0,1.212514,1.304089,-1.
 289776\H,0,1.599464,2.108612,0.242171\H,0,1.688428,-2.052619,0.225623\
 H,0,1.26264,-1.252758,-1.298708\H,0,-0.442955,1.25993,1.277609\H,0,-0.

 Normal termination of Gaussian 16 at Sun Apr  6 08:29:41 2025.
 Gaussian 16:  ES64L-G16RevC.01  3-Jul-2019

 ----------------------------------------------------------------------
 #t hf aug-cc-pvdz iop(5/13=1,5/36=2,99/5=2) pseudo=read geom=check gue
 ss=(read,tcheck) scf=(maxcycle=1)
 ----------------------------------------------------------------------
 -----
 title
 -----
 Structure from the checkpoint file:  "piperazin-1-amine.chk"
 Charge =  0 Multiplicity = 1

                         Standard orientation:
 ---------------------------------------------------------------------
 Center     Atomic      Atomic             Coordinates (Angstroms)
 Number     Number       Type             X           Y           Z
 ---------------------------------------------------------------------
      1          6           0        1.133555    1.224172   -0.194407
      2          6           0        1.181841   -1.187001   -0.202712
      3          6           0       -0.343283    1.191042    0.180257
      4          6           0       -0.292244   -1.224360    0.177403
      5          7           0        1.789141    0.030617    0.328985
      6          7           0       -0.969018   -0.030842   -0.322800
      7          7           0       -2.357848   -0.114512   -0.018199
      8          1           0        1.212514    1.304089   -1.289776
      9          1           0        1.599464    2.108612    0.242171
     10          1           0        1.688428   -2.052619    0.225623
     11          1           0        1.262640   -1.252758   -1.298708
     12          1           0       -0.442955    1.259930    1.277609
     13          1           0       -0.857002    2.046876   -0.260956
     14          1           0       -0.780392   -2.092624   -0.261687
     15          1           0       -0.379815   -1.300473    1.273848
     16          1           0        2.781405    0.052277    0.136985
     17          1           0       -2.540805    0.215438    0.932435
     18          1           0       -2.858621    0.491293   -0.656692
 ---------------------------------------------------------------------

 SCF Done:  E(RHF) =  -322.784967454     A.U. after    2 cycles

 The electronic state is 1-A.
 Alpha  occ. eigenvalues --  -15.74215 -15.71453 -15.71034 -11.46984 -11.42006
 Alpha  occ. eigenvalues --  -11.36945 -11.36005  -1.51189  -1.36976  -1.15924
 Alpha  occ. eigenvalues --   -1.13488  -0.93033  -0.91873  -0.78696  -0.70656
 Alpha  occ. eigenvalues --   -0.66442  -0.63220  -0.62768  -0.58249  -0.55722
 Alpha  occ. eigenvalues --   -0.54778  -0.53844  -0.48164  -0.44320  -0.42540
 Alpha  occ. eigenvalues --   -0.35259  -0.32703  -0.31735
 Alpha virt. eigenvalues --    0.04383   0.05294   0.05605   0.05870   0.05978
 Alpha virt. eigenvalues --    0.06126   0.06487   0.06581   0.07607   0.08562
 Alpha virt. eigenvalues --    0.08864   0.12393   0.12822   0.13274   0.14620

 Mulliken charges:
               1
     1  C   -2.266307
     2  C   -2.263909
     3  C   -1.856561
     4  C   -2.018500
     5  N   -2.083316
     6  N   -0.747176
     7  N   -2.074703
     8  H    1.485248
     9  H    1.263996
    10  H    1.281375
    11  H    1.499818
    12  H    1.483592
    13  H    1.356468
    14  H    1.413508
    15  H    1.576508
    16  H    0.613075
    17  H    0.629721
    18  H    0.707163
 Sum of Mulliken charges =   0.00000

 Dipole moment (field-independent basis, Debye):
    X=              0.5540    Y=              0.9604    Z=             -0.1457  Tot=              1.1182

 Test job not archived.
 1\1\GINC-SE101\SP\RHF\Aug-CC-pVDZ\C4H11N3\OHZDE\06-Apr-2025\0\\#t hf a
 ug-cc-pvdz iop(5/13=1,5/36=2,99/5=2) pseudo=read geom=check guess=(rea
 d,tcheck) scf=(maxcycle=1)\\title\\0,1\C,0,1.133555,1.224172,-0.194407
 \C,0,1.181841,-1.187001,-0.202712\C,0,-0.343283,1.191042,0.180257\C,0,
 -0.292244,-1.22436,0.177403\N,0,1.789141,0.030617,0.328985\N,0,-0.9690
 18,-0.030842,-0.3228\N,0,-2.357848,-0.114512,-0.018199\H,0,1.212514,1.
 304089,-1.289776\H,0,1.599464,2.108612,0.242171\H,0,1.688428,-2.052619
 ,0.225623\H,0,1.26264,-1.252758,-1.298708\H,0,-0.442955,1.25993,1.2776

 Normal termination of Gaussian 16 at Sun Apr  6 08:30:15 2025.
