 Gaussian 16, Revision C.01,

 ----------------------------------------------------------------------
 #t hf aug-cc-pvdz symm=none int=(grid=ultrafine) guess=(read,tcheck) s
 table=(opt,rrhf)
 ----------------------------------------------------------------------
 -----
 title
 -----
 Symbolic Z-matrix:
 Charge =  0 Multiplicity = 1

 SCF Done:  E(RHF) =  -266.209854888     A.U. after   11 cycles

 1\1\GINC-SE136\Stability\RHF\Aug-CC-pVDZ\C4H10N2\OHZDE\06-Apr-2025\0\\
 #t hf aug-cc-pvdz symm=none int=(grid=ultrafine) guess=(read,tcheck) s
 table=(opt,rrhf)\\title\\0,1\C,0,-0.834927,0.310226,-1.120699\C,0,-0.8
 63686,-1.052974,-0.441012\C,0,0.863686,1.052974,0.441012\C,0,0.834927,
 -0.310226,1.120699\N,0,-0.450116,1.325039,-0.140555\N,0,0.450116,-1.32
 5039,0.140555\H,0,-0.13626,0.260567,-1.970344\H,0,-1.825522,0.552488,-
 1.508068\H,0,-1.664933,-1.048703,0.31425\H,0,-1.091286,-1.828069,-1.17
 4163\H,0,1.091286,1.828069,1.174163\H,0,1.664933,1.048703,-0.31425\H,0

 Normal termination of Gaussian 16 at Sun Apr  6 08:30:37 2025.
 Gaussian 16:  ES64L-G16RevC.01  3-Jul-2019

 ----------------------------------------------------------------------
 #t hf aug-cc-pvdz iop(5/13=1,5/36=2,99/5=2) pseudo=read geom=check gue
 ss=(read,tcheck) scf=(maxcycle=1)
 ----------------------------------------------------------------------
 -----
 title
 -----
 Structure from the checkpoint file:  "piperazine.chk"
 Charge =  0 Multiplicity = 1

                         Standard orientation:
 ---------------------------------------------------------------------
 Center     Atomic      Atomic             Coordinates (Angstroms)
 Number     Number       Type             X           Y           Z
 ---------------------------------------------------------------------
      1          6           0       -0.834927    0.310226   -1.120699
      2          6           0       -0.863686   -1.052974   -0.441012
      3          6           0        0.863686    1.052974    0.441012
      4          6           0        0.834927   -0.310226    1.120699
      5          7           0       -0.450116    1.325039   -0.140555
      6          7           0        0.450116   -1.325039    0.140555
      7          1           0       -0.136260    0.260567   -1.970344
      8          1           0       -1.825522    0.552488   -1.508068
      9          1           0       -1.664933   -1.048703    0.314250
     10          1           0       -1.091286   -1.828069   -1.174163
     11          1           0        1.091286    1.828069    1.174163
     12          1           0        1.664933    1.048703   -0.314250
     13          1           0        1.825522   -0.552488    1.508068
     14          1           0        0.136260   -0.260567    1.970344
     15          1           0       -0.474735    2.247690   -0.552801
     16          1           0        0.474735   -2.247690    0.552801
 ---------------------------------------------------------------------

 SCF Done:  E(RHF) =  -267.521623169     A.U. after    2 cycles

 The electronic state is 1-AG.
 Alpha  occ. eigenvalues --  -15.70637 -15.70552 -11.46423 -11.41164 -11.36518
 Alpha  occ. eigenvalues --  -11.35804  -1.44618  -1.29834  -1.12779  -0.96049
 Alpha  occ. eigenvalues --   -0.90635  -0.78315  -0.71379  -0.64191  -0.62396
 Alpha  occ. eigenvalues --   -0.57763  -0.56653  -0.54106  -0.51883  -0.47167
 Alpha  occ. eigenvalues --   -0.42913  -0.41716  -0.32236  -0.32107
 Alpha virt. eigenvalues --    0.04279   0.05702   0.05714   0.05765   0.06131
 Alpha virt. eigenvalues --    0.06162   0.06423   0.06582   0.08681   0.09036
 Alpha virt. eigenvalues --    0.11154   0.12614   0.13663   0.13879   0.14861

 Mulliken charges:
               1
     1  C   -2.079225
     2  C   -2.079152
     3  C   -2.079152
     4  C   -2.079225
     5  N   -2.037119
     6  N   -2.037119
     7  H    1.463760
     8  H    1.329595
     9  H    1.463749
    10  H    1.329404
    11  H    1.329404
    12  H    1.463749
    13  H    1.329595
    14  H    1.463760
    15  H    0.608989
    16  H    0.608989
 Sum of Mulliken charges =  -0.00000

 Dipole moment (field-independent basis, Debye):
    X=             -0.0000    Y=             -0.0000    Z=              0.0000  Tot=              0.0000

 Test job not archived.
 1\1\GINC-SE136\SP\RHF\Aug-CC-pVDZ\C4H10N2\OHZDE\06-Apr-2025\0\\#t hf a
 ug-cc-pvdz iop(5/13=1,5/36=2,99/5=2) pseudo=read geom=check guess=(rea
 d,tcheck) scf=(maxcycle=1)\\title\\0,1\C,0,-0.834927,0.310226,-1.12069
 9\C,0,-0.863686,-1.052974,-0.441012\C,0,0.863686,1.052974,0.441012\C,0
 ,0.834927,-0.310226,1.120699\N,0,-0.450116,1.325039,-0.140555\N,0,0.45
 0116,-1.325039,0.140555\H,0,-0.13626,0.260567,-1.970344\H,0,-1.825522,
 0.552488,-1.508068\H,0,-1.664933,-1.048703,0.31425\H,0,-1.091286,-1.82
 8069,-1.174163\H,0,1.091286,1.828069,1.174163\H,0,1.664933,1.048703,-0

 Normal termination of Gaussian 16 at Sun Apr  6 08:30:50 2025.
