 Gaussian 16, Revision C.01,

 ----------------------------------------------------------------------
 #t hf aug-cc-pvdz symm=none int=(grid=ultrafine) guess=(read,tcheck) s
 table=(opt,rrhf)
 ----------------------------------------------------------------------
 -----
 title
 -----
 Symbolic Z-matrix:
 Charge =  0 Multiplicity = 1

 SCF Done:  E(RHF) =  -250.221295736     A.U. after   11 cycles

 1\1\GINC-SE150\Stability\RHF\Aug-CC-pVDZ\C5H11N1\OHZDE\06-Apr-2025\0\\
 #t hf aug-cc-pvdz symm=none int=(grid=ultrafine) guess=(read,tcheck) s
 table=(opt,rrhf)\\title\\0,1\C,0,0.627734,1.332116,0.\C,0,-0.015015,0.
 749126,1.262844\C,0,-0.015015,0.749126,-1.262844\C,0,-0.015015,-0.7778
 13,1.21628\C,0,-0.015015,-0.777813,-1.21628\N,0,-0.683238,-1.236622,0.
 \H,0,0.550093,2.421274,0.\H,0,1.697146,1.095686,0.\H,0,0.514966,1.0907
 53,2.154644\H,0,-1.048069,1.096853,1.34379\H,0,-1.048069,1.096853,-1.3
 4379\H,0,0.514966,1.090753,-2.154644\H,0,1.028243,-1.134962,1.27513\H,

 Normal termination of Gaussian 16 at Sun Apr  6 08:29:35 2025.
 Gaussian 16:  ES64L-G16RevC.01  3-Jul-2019

 ----------------------------------------------------------------------
 #t hf aug-cc-pvdz iop(5/13=1,5/36=2,99/5=2) pseudo=read geom=check gue
 ss=(read,tcheck) scf=(maxcycle=1)
 ----------------------------------------------------------------------
 -----
 title
 -----
 Structure from the checkpoint file:  "piperidine.chk"
 Charge =  0 Multiplicity = 1

                         Standard orientation:
 ---------------------------------------------------------------------
 Center     Atomic      Atomic             Coordinates (Angstroms)
 Number     Number       Type             X           Y           Z
 ---------------------------------------------------------------------
      1          6           0        0.627734    1.332116   -0.000000
      2          6           0       -0.015015    0.749126    1.262844
      3          6           0       -0.015015    0.749126   -1.262844
      4          6           0       -0.015015   -0.777813    1.216280
      5          6           0       -0.015015   -0.777813   -1.216280
      6          7           0       -0.683238   -1.236622    0.000000
      7          1           0        0.550093    2.421274    0.000000
      8          1           0        1.697146    1.095686   -0.000000
      9          1           0        0.514966    1.090753    2.154644
     10          1           0       -1.048069    1.096853    1.343790
     11          1           0       -1.048069    1.096853   -1.343790
     12          1           0        0.514966    1.090753   -2.154644
     13          1           0        1.028243   -1.134962    1.275130
     14          1           0       -0.545722   -1.185262    2.078063
     15          1           0       -0.545722   -1.185262   -2.078063
     16          1           0        1.028243   -1.134962   -1.275130
     17          1           0       -0.769444   -2.243821    0.000000
 ---------------------------------------------------------------------

 SCF Done:  E(RHF) =  -251.488948676     A.U. after    2 cycles

 The electronic state is 1-A'.
 Alpha  occ. eigenvalues --  -15.70385 -11.43976 -11.41376 -11.39600 -11.36437
 Alpha  occ. eigenvalues --  -11.33626  -1.40514  -1.17643  -1.11167  -0.90828
 Alpha  occ. eigenvalues --   -0.88842  -0.77697  -0.69119  -0.62428  -0.61363
 Alpha  occ. eigenvalues --   -0.58608  -0.54463  -0.52885  -0.49880  -0.46668
 Alpha  occ. eigenvalues --   -0.44715  -0.40058  -0.39952  -0.31847
 Alpha virt. eigenvalues --    0.04300   0.05564   0.05704   0.05795   0.05853
 Alpha virt. eigenvalues --    0.05956   0.06193   0.06471   0.06854   0.08636
 Alpha virt. eigenvalues --    0.09018   0.13351   0.13473   0.13847   0.14077

 Mulliken charges:
               1
     1  C   -2.438052
     2  C   -2.442739
     3  C   -2.442739
     4  C   -2.435228
     5  C   -2.435228
     6  N   -2.063873
     7  H    1.286421
     8  H    1.381917
     9  H    1.282025
    10  H    1.397803
    11  H    1.397803
    12  H    1.282025
    13  H    1.491982
    14  H    1.318012
    15  H    1.318012
    16  H    1.491982
    17  H    0.609876
 Sum of Mulliken charges =  -0.00000

 Dipole moment (field-independent basis, Debye):
    X=              0.4565    Y=             -0.4342    Z=              0.0000  Tot=              0.6300

 Test job not archived.
 1\1\GINC-SE150\SP\RHF\Aug-CC-pVDZ\C5H11N1\OHZDE\06-Apr-2025\0\\#t hf a
 ug-cc-pvdz iop(5/13=1,5/36=2,99/5=2) pseudo=read geom=check guess=(rea
 d,tcheck) scf=(maxcycle=1)\\title\\0,1\C,0,0.627734,1.332116,0.\C,0,-0
 .015015,0.749126,1.262844\C,0,-0.015015,0.749126,-1.262844\C,0,-0.0150
 15,-0.777813,1.21628\C,0,-0.015015,-0.777813,-1.21628\N,0,-0.683238,-1
 .236622,0.\H,0,0.550093,2.421274,0.\H,0,1.697146,1.095686,0.\H,0,0.514
 966,1.090753,2.154644\H,0,-1.048069,1.096853,1.34379\H,0,-1.048069,1.0
 96853,-1.34379\H,0,0.514966,1.090753,-2.154644\H,0,1.028243,-1.134962,

 Normal termination of Gaussian 16 at Sun Apr  6 08:30:12 2025.
