 Gaussian 16, Revision C.01,

 ----------------------------------------------------------------------
 #t hf aug-cc-pvdz symm=none int=(grid=ultrafine) guess=(read,tcheck) s
 table=(opt,rrhf)
 ----------------------------------------------------------------------
 -----
 title
 -----
 Symbolic Z-matrix:
 Charge =  0 Multiplicity = 1

 SCF Done:  E(RHF) =  -398.825181374     A.U. after   14 cycles
 Normal termination of Gaussian 16 at Sun Apr  6 08:31:05 2025.
 Gaussian 16:  ES64L-G16RevC.01  3-Jul-2019

 ----------------------------------------------------------------------
 #t hf aug-cc-pvdz iop(5/13=1,5/36=2,99/5=2) pseudo=read geom=check gue
 ss=(read,tcheck) scf=(maxcycle=1)
 ----------------------------------------------------------------------
 -----
 title
 -----
 Structure from the checkpoint file:  "proline.chk"
 Charge =  0 Multiplicity = 1

                         Standard orientation:
 ---------------------------------------------------------------------
 Center     Atomic      Atomic             Coordinates (Angstroms)
 Number     Number       Type             X           Y           Z
 ---------------------------------------------------------------------
      1          7           0        0.636602   -1.058123    0.492208
      2          6           0       -0.121601    0.212497    0.582235
      3          6           0       -1.541645    0.060070    0.027611
      4          8           0       -2.347827    0.951873    0.041962
      5          8           0       -1.796324   -1.151121   -0.486153
      6          6           0        0.698716    1.255847   -0.214727
      7          6           0        2.124667    0.698806   -0.171428
      8          6           0        1.890352   -0.811433   -0.258644
      9          1           0       -0.226886    0.531260    1.620367
     10          1           0        0.341413    1.305448   -1.244399
     11          1           0        0.600663    2.251274    0.210253
     12          1           0        2.751505    1.078563   -0.977576
     13          1           0        2.605897    0.951778    0.776149
     14          1           0        1.755051   -1.114676   -1.299508
     15          1           0        2.701458   -1.409225    0.154057
     16          1           0        0.836365   -1.421455    1.412453
     17          1           0       -0.971410   -1.666847   -0.334004
 ---------------------------------------------------------------------

 SCF Done:  E(RHF) =  -400.638834516     A.U. after    2 cycles

 The electronic state is 1-A.
 Alpha  occ. eigenvalues --  -21.09910 -21.03442 -15.74617 -11.52306 -11.47669
 Alpha  occ. eigenvalues --  -11.44742 -11.41045 -11.37654  -1.80955  -1.64184
 Alpha  occ. eigenvalues --   -1.45083  -1.16193  -1.11152  -0.90984  -0.86585
 Alpha  occ. eigenvalues --   -0.76481  -0.73451  -0.71760  -0.64514  -0.60570
 Alpha  occ. eigenvalues --   -0.56967  -0.55155  -0.51898  -0.49061  -0.48443
 Alpha  occ. eigenvalues --   -0.47933  -0.46135  -0.42741  -0.36641  -0.31969
 Alpha  occ. eigenvalues --   -0.27548
 Alpha virt. eigenvalues --    0.03088   0.04555   0.04720   0.05128   0.05238
 Alpha virt. eigenvalues --    0.05383   0.06988   0.07236   0.08110   0.11109
 Alpha virt. eigenvalues --    0.11755   0.12497   0.12702   0.13036   0.13665

 Mulliken charges:
               1
     1  N   -1.616970
     2  C   -2.529581
     3  C    6.883996
     4  O   -3.388019
     5  O   -3.270471
     6  C   -2.258523
     7  C   -2.785508
     8  C   -2.373438
     9  H    1.653381
    10  H    1.458045
    11  H    1.269485
    12  H    1.222176
    13  H    1.373821
    14  H    1.441044
    15  H    1.339041
    16  H    0.424435
    17  H    1.157087
 Sum of Mulliken charges =   0.00000

 Dipole moment (field-independent basis, Debye):
    X=              3.9014    Y=             -0.8570    Z=              0.8446  Tot=              4.0827

 Test job not archived.
 1\1\GINC-SE155\SP\RHF\Aug-CC-pVDZ\C5H9N1O2\OHZDE\06-Apr-2025\0\\#t hf
 aug-cc-pvdz iop(5/13=1,5/36=2,99/5=2) pseudo=read geom=check guess=(re
 ad,tcheck) scf=(maxcycle=1)\\title\\0,1\N,0,0.636602,-1.058123,0.49220
 8\C,0,-0.121601,0.212497,0.582235\C,0,-1.541645,0.06007,0.027611\O,0,-
 2.347827,0.951873,0.041962\O,0,-1.796324,-1.151121,-0.486153\C,0,0.698
 716,1.255847,-0.214727\C,0,2.124667,0.698806,-0.171428\C,0,1.890352,-0
 .811433,-0.258644\H,0,-0.226886,0.53126,1.620367\H,0,0.341413,1.305448
 ,-1.244399\H,0,0.600663,2.251274,0.210253\H,0,2.751505,1.078563,-0.977

 Normal termination of Gaussian 16 at Sun Apr  6 08:31:12 2025.
