 Gaussian 16, Revision C.01,

 ----------------------------------------------------------------------
 #t hf aug-cc-pvdz symm=none int=(grid=ultrafine) guess=(read,tcheck) s
 table=(opt,rrhf)
 ----------------------------------------------------------------------
 -----
 title
 -----
 Symbolic Z-matrix:
 Charge =  0 Multiplicity = 1

 SCF Done:  E(RHF) =  -170.908990757     A.U. after   14 cycles
 Normal termination of Gaussian 16 at Sun Apr  6 08:30:13 2025.
 Gaussian 16:  ES64L-G16RevC.01  3-Jul-2019

 ----------------------------------------------------------------------
 #t hf aug-cc-pvdz iop(5/13=1,5/36=2,99/5=2) pseudo=read geom=check gue
 ss=(read,tcheck) scf=(maxcycle=1)
 ----------------------------------------------------------------------
 -----
 title
 -----
 Structure from the checkpoint file:  "propargylamine.chk"
 Charge =  0 Multiplicity = 1

                         Standard orientation:
 ---------------------------------------------------------------------
 Center     Atomic      Atomic             Coordinates (Angstroms)
 Number     Number       Type             X           Y           Z
 ---------------------------------------------------------------------
      1          7           0       -1.521190   -0.514806   -0.120022
      2          6           0       -0.579874    0.602125    0.038950
      3          6           0        0.805281    0.144140   -0.003594
      4          6           0        1.943561   -0.232193   -0.014649
      5          1           0       -1.375309   -1.207070    0.604410
      6          1           0       -2.473718   -0.181419   -0.036708
      7          1           0       -0.745639    1.300834   -0.784742
      8          1           0       -0.721665    1.172303    0.967186
      9          1           0        2.950856   -0.565445   -0.034238
 ---------------------------------------------------------------------

 SCF Done:  E(RHF) =  -171.731968750     A.U. after    2 cycles

 The electronic state is 1-A.
 Alpha  occ. eigenvalues --  -15.73969 -11.45748 -11.39987 -11.39277  -1.34786
 Alpha  occ. eigenvalues --   -1.10992  -0.96755  -0.73907  -0.67114  -0.63250
 Alpha  occ. eigenvalues --   -0.56903  -0.54578  -0.38097  -0.36888  -0.35254
 Alpha virt. eigenvalues --    0.03279   0.04974   0.05751   0.06312   0.06704
 Alpha virt. eigenvalues --    0.10252   0.11888   0.12384   0.12647   0.13580
 Alpha virt. eigenvalues --    0.14617   0.15825   0.16537   0.17377   0.19533

 Mulliken charges:
               1
     1  N   -2.050458
     2  C   -2.817233
     3  C    4.196349
     4  C   -3.770639
     5  H    0.589404
     6  H    0.611534
     7  H    1.242354
     8  H    1.200621
     9  H    0.798068
 Sum of Mulliken charges =   0.00000

 Dipole moment (field-independent basis, Debye):
    X=             -0.7479    Y=              0.4554    Z=              0.9349  Tot=              1.2810

 Test job not archived.
 1\1\GINC-SE222\SP\RHF\Aug-CC-pVDZ\C3H5N1\OHZDE\06-Apr-2025\0\\#t hf au
 g-cc-pvdz iop(5/13=1,5/36=2,99/5=2) pseudo=read geom=check guess=(read
 ,tcheck) scf=(maxcycle=1)\\title\\0,1\N,0,-1.52119,-0.514806,-0.120022
 \C,0,-0.579874,0.602125,0.03895\C,0,0.805281,0.14414,-0.003594\C,0,1.9
 43561,-0.232193,-0.014649\H,0,-1.375309,-1.20707,0.60441\H,0,-2.473718
 ,-0.181419,-0.036708\H,0,-0.745639,1.300834,-0.784742\H,0,-0.721665,1.
 172303,0.967186\H,0,2.950856,-0.565445,-0.034238\\Version=ES64L-G16Rev
 C.01\State=1-A\HF=-171.7319688\RMSD=9.923e-01\Dipole=-0.294256,0.17916

 Normal termination of Gaussian 16 at Sun Apr  6 08:30:48 2025.
