 Gaussian 16, Revision C.01,

 ----------------------------------------------------------------------
 #t hf aug-cc-pvdz symm=none int=(grid=ultrafine) guess=(read,tcheck) s
 table=(opt,rrhf)
 ----------------------------------------------------------------------
 -----
 title
 -----
 Symbolic Z-matrix:
 Charge =  0 Multiplicity = 1

 SCF Done:  E(RHF) =  -191.935066491     A.U. after   12 cycles
 Normal termination of Gaussian 16 at Sun Apr  6 08:30:25 2025.
 Gaussian 16:  ES64L-G16RevC.01  3-Jul-2019

 ----------------------------------------------------------------------
 #t hf aug-cc-pvdz iop(5/13=1,5/36=2,99/5=2) pseudo=read geom=check gue
 ss=(read,tcheck) scf=(maxcycle=1)
 ----------------------------------------------------------------------
 -----
 title
 -----
 Structure from the checkpoint file:  "propylene_oxide.chk"
 Charge =  0 Multiplicity = 1

                         Standard orientation:
 ---------------------------------------------------------------------
 Center     Atomic      Atomic             Coordinates (Angstroms)
 Number     Number       Type             X           Y           Z
 ---------------------------------------------------------------------
      1          8           0        0.828981   -0.789180   -0.238022
      2          6           0       -1.508266    0.097281   -0.148770
      3          1           0       -1.418953    0.320203   -1.211647
      4          1           0       -2.074015   -0.829198   -0.038726
      5          1           0       -2.076905    0.897311    0.329487
      6          6           0       -0.152980   -0.033489    0.484726
      7          1           0       -0.154020   -0.247472    1.550696
      8          6           0        1.040125    0.616650   -0.061363
      9          1           0        0.954099    1.210204   -0.965902
     10          1           0        1.864673    0.879739    0.592713
 ---------------------------------------------------------------------

 SCF Done:  E(RHF) =  -192.828757510     A.U. after    2 cycles

 The electronic state is 1-A.
 Alpha  occ. eigenvalues --  -21.05333 -11.47500 -11.41411 -11.37847  -1.77021
 Alpha  occ. eigenvalues --   -1.11457  -0.95721  -0.84682  -0.69175  -0.61274
 Alpha  occ. eigenvalues --   -0.57519  -0.54082  -0.50215  -0.43152  -0.36136
 Alpha  occ. eigenvalues --   -0.30501
 Alpha virt. eigenvalues --    0.03816   0.05575   0.05699   0.06007   0.06241
 Alpha virt. eigenvalues --    0.06845   0.10694   0.12120   0.12672   0.13995
 Alpha virt. eigenvalues --    0.15020   0.15784   0.17048   0.17330   0.18022

 Mulliken charges:
               1
     1  O   -2.470804
     2  C   -4.048447
     3  H    1.206856
     4  H    1.164981
     5  H    1.262691
     6  C    0.621648
     7  H    1.397814
     8  C   -1.967444
     9  H    1.452982
    10  H    1.379723
 Sum of Mulliken charges =  -0.00000

 Dipole moment (field-independent basis, Debye):
    X=             -0.3089    Y=              0.4084    Z=              0.2232  Tot=              0.5585

 Test job not archived.
 1\1\GINC-SE223\SP\RHF\Aug-CC-pVDZ\C3H6O1\OHZDE\06-Apr-2025\0\\#t hf au
 g-cc-pvdz iop(5/13=1,5/36=2,99/5=2) pseudo=read geom=check guess=(read
 ,tcheck) scf=(maxcycle=1)\\title\\0,1\O,0,0.828981,-0.78918,-0.238022\
 C,0,-1.508266,0.097281,-0.14877\H,0,-1.418953,0.320203,-1.211647\H,0,-
 2.074015,-0.829198,-0.038726\H,0,-2.076905,0.897311,0.329487\C,0,-0.15
 298,-0.033489,0.484726\H,0,-0.15402,-0.247472,1.550696\C,0,1.040125,0.
 61665,-0.061363\H,0,0.954099,1.210204,-0.965902\H,0,1.864673,0.879739,
 0.592713\\Version=ES64L-G16RevC.01\State=1-A\HF=-192.8287575\RMSD=5.49

 Normal termination of Gaussian 16 at Sun Apr  6 08:30:49 2025.
