 Gaussian 16, Revision C.01,

 ----------------------------------------------------------------------
 #t hf aug-cc-pvdz symm=none int=(grid=ultrafine) guess=(read,tcheck) s
 table=(opt,rrhf)
 ----------------------------------------------------------------------
 -----
 title
 -----
 Symbolic Z-matrix:
 Charge =  0 Multiplicity = 1

 SCF Done:  E(RHF) =  -265.672744970     A.U. after   15 cycles
 Normal termination of Gaussian 16 at Sun Apr  6 08:29:04 2025.
 Gaussian 16:  ES64L-G16RevC.01  3-Jul-2019

 ----------------------------------------------------------------------
 #t hf aug-cc-pvdz iop(5/13=1,5/36=2,99/5=2) pseudo=read geom=check gue
 ss=(read,tcheck) scf=(maxcycle=1)
 ----------------------------------------------------------------------
 -----
 title
 -----
 Structure from the checkpoint file:  "propanedial.chk"
 Charge =  0 Multiplicity = 1

                         Standard orientation:
 ---------------------------------------------------------------------
 Center     Atomic      Atomic             Coordinates (Angstroms)
 Number     Number       Type             X           Y           Z
 ---------------------------------------------------------------------
      1          6           0        1.070710   -0.368234    0.146305
      2          6           0       -1.282848    0.323971   -0.320122
      3          6           0        0.020532    0.716170    0.346563
      4          8           0        2.179848   -0.153436   -0.260150
      5          8           0       -1.960910   -0.597247    0.054811
      6          1           0        0.734564   -1.388064    0.407927
      7          1           0       -1.572330    0.919367   -1.206311
      8          1           0        0.403972    1.666523   -0.018102
      9          1           0       -0.168069    0.776197    1.422723
 ---------------------------------------------------------------------

 SCF Done:  E(RHF) =  -266.814600800     A.U. after    2 cycles

 The electronic state is 1-A.
 Alpha  occ. eigenvalues --  -21.08831 -21.08334 -11.50822 -11.50047 -11.42034
 Alpha  occ. eigenvalues --   -1.74363  -1.71897  -1.17578  -0.89184  -0.81558
 Alpha  occ. eigenvalues --   -0.69215  -0.63883  -0.59928  -0.54501  -0.51475
 Alpha  occ. eigenvalues --   -0.45358  -0.44878  -0.33630  -0.29396
 Alpha virt. eigenvalues --    0.03601   0.05194   0.05972   0.06156   0.08739
 Alpha virt. eigenvalues --    0.09701   0.11376   0.11773   0.12331   0.13368
 Alpha virt. eigenvalues --    0.14197   0.15049   0.15350   0.15906   0.17471

 Mulliken charges:
               1
     1  C    1.790840
     2  C    1.530046
     3  C   -3.612168
     4  O   -2.718775
     5  O   -2.630502
     6  H    1.425171
     7  H    1.509322
     8  H    1.302254
     9  H    1.403812
 Sum of Mulliken charges =  -0.00000

 Dipole moment (field-independent basis, Debye):
    X=             -0.3818    Y=              0.8525    Z=              0.2527  Tot=              0.9676

 Test job not archived.
 1\1\GINC-SE146\SP\RHF\Aug-CC-pVDZ\C3H4O2\OHZDE\06-Apr-2025\0\\#t hf au
 g-cc-pvdz iop(5/13=1,5/36=2,99/5=2) pseudo=read geom=check guess=(read
 ,tcheck) scf=(maxcycle=1)\\title\\0,1\C,0,1.07071,-0.368234,0.146305\C
 ,0,-1.282848,0.323971,-0.320122\C,0,0.020532,0.71617,0.346563\O,0,2.17
 9848,-0.153436,-0.26015\O,0,-1.96091,-0.597247,0.054811\H,0,0.734564,-
 1.388064,0.407927\H,0,-1.57233,0.919367,-1.206311\H,0,0.403972,1.66652
 3,-0.018102\H,0,-0.168069,0.776197,1.422723\\Version=ES64L-G16RevC.01\
 State=1-A\HF=-266.8146008\RMSD=1.816e-01\Dipole=-0.1502104,0.3353852,0

 Normal termination of Gaussian 16 at Sun Apr  6 08:30:11 2025.
