 Gaussian 16, Revision C.01,

 ----------------------------------------------------------------------
 #t hf aug-cc-pvdz symm=none int=(grid=ultrafine) guess=(read,tcheck) s
 table=(opt,rrhf)
 ----------------------------------------------------------------------
 -----
 title
 -----
 Symbolic Z-matrix:
 Charge =  0 Multiplicity = 1

 SCF Done:  E(RHF) =  -288.451367317     A.U. after   15 cycles
 Normal termination of Gaussian 16 at Sun Apr  6 08:29:03 2025.
 Gaussian 16:  ES64L-G16RevC.01  3-Jul-2019

 ----------------------------------------------------------------------
 #t hf aug-cc-pvdz iop(5/13=1,5/36=2,99/5=2) pseudo=read geom=check gue
 ss=(read,tcheck) scf=(maxcycle=1)
 ----------------------------------------------------------------------
 -----
 title
 -----
 Structure from the checkpoint file:  "prop-2-ynoyl_fluoride.chk"
 Charge =  0 Multiplicity = 1

                         Standard orientation:
 ---------------------------------------------------------------------
 Center     Atomic      Atomic             Coordinates (Angstroms)
 Number     Number       Type             X           Y           Z
 ---------------------------------------------------------------------
      1          9           0        1.053714    1.101216    0.000007
      2          8           0        1.153455   -1.111284    0.000013
      3          6           0        0.490920   -0.130271   -0.000038
      4          6           0       -0.939398   -0.040028   -0.000063
      5          6           0       -2.136840   -0.004245    0.000046
      6          1           0       -3.199160    0.026597    0.000161
 ---------------------------------------------------------------------

 SCF Done:  E(RHF) =  -289.597094412     A.U. after    2 cycles

 The electronic state is 1-A.
 Alpha  occ. eigenvalues --  -29.32029 -21.10987 -11.60267 -11.47517 -11.44966
 Alpha  occ. eigenvalues --   -1.78354  -1.20845  -1.05632  -0.84963  -0.73484
 Alpha  occ. eigenvalues --   -0.61536  -0.60152  -0.45870  -0.42501  -0.41529
 Alpha  occ. eigenvalues --   -0.34009  -0.31116  -0.28918
 Alpha virt. eigenvalues --    0.02704   0.08397   0.08713   0.09856   0.10477
 Alpha virt. eigenvalues --    0.11470   0.12342   0.14008   0.14184   0.14899
 Alpha virt. eigenvalues --    0.17515   0.18327   0.20425   0.22184   0.23317

 Mulliken charges:
               1
     1  F    0.701514
     2  O   -2.893803
     3  C    2.676915
     4  C    1.154469
     5  C   -2.527351
     6  H    0.888255
 Sum of Mulliken charges =  -0.00000

 Dipole moment (field-independent basis, Debye):
    X=             -0.9077    Y=              3.0463    Z=              0.0002  Tot=              3.1787

 Test job not archived.
 1\1\GINC-SE050\SP\RHF\Aug-CC-pVDZ\C3H1F1O1\OHZDE\06-Apr-2025\0\\#t hf
 aug-cc-pvdz iop(5/13=1,5/36=2,99/5=2) pseudo=read geom=check guess=(re
 ad,tcheck) scf=(maxcycle=1)\\title\\0,1\F,0,1.053714,1.101216,0.000007
 \O,0,1.153455,-1.111284,0.000013\C,0,0.49092,-0.130271,-0.000038\C,0,-
 0.939398,-0.040028,-0.000063\C,0,-2.13684,-0.004245,0.000046\H,0,-3.19
 916,0.026597,0.000161\\Version=ES64L-G16RevC.01\State=1-A\HF=-289.5970
 944\RMSD=7.134e-01\Dipole=-0.3570979,1.1985242,0.0000846\Quadrupole=3.
 8113352,-2.236305,-1.5750301,2.6216377,-0.0005427,0.0000483\PG=C01 [X(

 Normal termination of Gaussian 16 at Sun Apr  6 08:30:10 2025.
