 Gaussian 16, Revision C.01,

 ----------------------------------------------------------------------
 #t hf aug-cc-pvdz symm=none int=(grid=ultrafine) guess=(read,tcheck) s
 table=(opt,rrhf)
 ----------------------------------------------------------------------
 -----
 title
 -----
 Symbolic Z-matrix:
 Charge =  0 Multiplicity = 1

 SCF Done:  E(RHF) =  -283.382364859     A.U. after   12 cycles

 1\1\GINC-SE108\Stability\RHF\Aug-CC-pVDZ\C3H11N3\OHZDE\06-Apr-2025\0\\
 #t hf aug-cc-pvdz symm=none int=(grid=ultrafine) guess=(read,tcheck) s
 table=(opt,rrhf)\\title\\0,1\C,0,-0.013757,-1.316234,0.197329\C,0,0.08
 3647,1.25184,0.325748\C,0,0.646705,-0.029651,-0.312805\N,0,-1.467041,-
 1.33865,-0.018105\N,0,-1.231706,1.613642,-0.202973\N,0,2.093096,-0.186
 523,-0.11642\H,0,0.508805,-2.160172,-0.26508\H,0,0.1582,-1.387214,1.27
 6005\H,0,0.104816,1.127108,1.421032\H,0,0.77105,2.067989,0.090551\H,0,
 0.47419,0.042447,-1.391124\H,0,-1.874954,-2.159342,0.411086\H,0,-1.678

 Normal termination of Gaussian 16 at Sun Apr  6 08:30:44 2025.
 Gaussian 16:  ES64L-G16RevC.01  3-Jul-2019

 ----------------------------------------------------------------------
 #t hf aug-cc-pvdz iop(5/13=1,5/36=2,99/5=2) pseudo=read geom=check gue
 ss=(read,tcheck) scf=(maxcycle=1)
 ----------------------------------------------------------------------
 -----
 title
 -----
 Structure from the checkpoint file:  "propane-1-2-3-triamine.chk"
 Charge =  0 Multiplicity = 1

                         Standard orientation:
 ---------------------------------------------------------------------
 Center     Atomic      Atomic             Coordinates (Angstroms)
 Number     Number       Type             X           Y           Z
 ---------------------------------------------------------------------
      1          6           0       -0.013755   -1.316234    0.197329
      2          6           0        0.083645    1.251840    0.325748
      3          6           0        0.646705   -0.029650   -0.312805
      4          7           0       -1.467039   -1.338652   -0.018105
      5          7           0       -1.231708    1.613640   -0.202973
      6          7           0        2.093096   -0.186520   -0.116420
      7          1           0        0.508808   -2.160171   -0.265080
      8          1           0        0.158202   -1.387214    1.276005
      9          1           0        0.104814    1.127108    1.421032
     10          1           0        0.771047    2.067990    0.090551
     11          1           0        0.474190    0.042448   -1.391124
     12          1           0       -1.874951   -2.159345    0.411086
     13          1           0       -1.678610   -1.389400   -1.008104
     14          1           0       -1.536051    2.505917    0.164381
     15          1           0       -1.910297    0.908413    0.058611
     16          1           0        2.324036   -0.198743    0.871269
     17          1           0        2.598799    0.587982   -0.527778
 ---------------------------------------------------------------------

 SCF Done:  E(RHF) =  -284.778013678     A.U. after    2 cycles

 The electronic state is 1-A.
 Alpha  occ. eigenvalues --  -15.72819 -15.72307 -15.70910 -11.43764 -11.41966
 Alpha  occ. eigenvalues --  -11.35957  -1.39621  -1.29598  -1.27254  -1.03609
 Alpha  occ. eigenvalues --   -0.93978  -0.81929  -0.68061  -0.65554  -0.65032
 Alpha  occ. eigenvalues --   -0.59555  -0.59412  -0.54788  -0.52418  -0.49955
 Alpha  occ. eigenvalues --   -0.47106  -0.43931  -0.35545  -0.34438  -0.32507
 Alpha virt. eigenvalues --    0.04335   0.05173   0.05522   0.05878   0.06172
 Alpha virt. eigenvalues --    0.06206   0.06506   0.06736   0.07191   0.09352
 Alpha virt. eigenvalues --    0.09947   0.13191   0.13661   0.14342   0.15003

 Mulliken charges:
               1
     1  C   -1.669763
     2  C   -1.662293
     3  C    0.319577
     4  N   -2.368683
     5  N   -2.437976
     6  N   -2.833409
     7  H    1.327995
     8  H    1.372402
     9  H    1.346651
    10  H    1.343686
    11  H    1.687569
    12  H    0.622508
    13  H    0.580560
    14  H    0.599083
    15  H    0.671947
    16  H    0.564583
    17  H    0.535563
 Sum of Mulliken charges =  -0.00000

 Dipole moment (field-independent basis, Debye):
    X=             -0.2712    Y=             -0.2727    Z=              0.8430  Tot=              0.9266

 Test job not archived.
 1\1\GINC-SE108\SP\RHF\Aug-CC-pVDZ\C3H11N3\OHZDE\06-Apr-2025\0\\#t hf a
 ug-cc-pvdz iop(5/13=1,5/36=2,99/5=2) pseudo=read geom=check guess=(rea
 d,tcheck) scf=(maxcycle=1)\\title\\0,1\C,0,-0.013757,-1.316234,0.19732
 9\C,0,0.083647,1.25184,0.325748\C,0,0.646705,-0.029651,-0.312805\N,0,-
 1.467041,-1.33865,-0.018105\N,0,-1.231706,1.613642,-0.202973\N,0,2.093
 096,-0.186523,-0.11642\H,0,0.508805,-2.160172,-0.26508\H,0,0.1582,-1.3
 87214,1.276005\H,0,0.104816,1.127108,1.421032\H,0,0.77105,2.067989,0.0
 90551\H,0,0.47419,0.042447,-1.391124\H,0,-1.874954,-2.159342,0.411086\

 Normal termination of Gaussian 16 at Sun Apr  6 08:30:51 2025.
