 Gaussian 16, Revision C.01,

 ----------------------------------------------------------------------
 #t hf aug-cc-pvdz symm=none int=(grid=ultrafine) guess=(read,tcheck) s
 table=(opt,rrhf)
 ----------------------------------------------------------------------
 -----
 title
 -----
 Symbolic Z-matrix:
 Charge =  0 Multiplicity = 1

 SCF Done:  E(RHF) =  -347.846562063     A.U. after   14 cycles
 Normal termination of Gaussian 16 at Sun Apr  6 08:32:32 2025.
 Gaussian 16:  ES64L-G16RevC.01  3-Jul-2019

 ----------------------------------------------------------------------
 #t hf aug-cc-pvdz iop(5/13=1,5/36=2,99/5=2) pseudo=read geom=check gue
 ss=(read,tcheck) scf=(maxcycle=1)
 ----------------------------------------------------------------------
 -----
 title
 -----
 Structure from the checkpoint file:  "propylbenzene.chk"
 Charge =  0 Multiplicity = 1

                         Standard orientation:
 ---------------------------------------------------------------------
 Center     Atomic      Atomic             Coordinates (Angstroms)
 Number     Number       Type             X           Y           Z
 ---------------------------------------------------------------------
      1          6           0        0.386271   -2.839243    0.000000
      2          6           0        0.387351   -2.138596    1.200339
      3          6           0        0.387351   -2.138596   -1.200339
      4          6           0        0.387351   -0.748944    1.197148
      5          6           0        0.387351   -0.748944   -1.197148
      6          6           0        0.385210   -0.031430    0.000000
      7          6           0       -1.108485    3.575531   -0.000000
      8          6           0        0.345445    1.476802   -0.000000
      9          6           0       -1.082048    2.048572   -0.000000
     10          1           0        0.389739   -3.921015    0.000000
     11          1           0        0.393022   -2.674365    2.140600
     12          1           0        0.393022   -2.674365   -2.140600
     13          1           0        0.394621   -0.211935    2.138121
     14          1           0        0.394621   -0.211935   -2.138121
     15          1           0       -0.604834    3.979341    0.880742
     16          1           0       -0.604834    3.979341   -0.880742
     17          1           0       -2.131197    3.954700   -0.000000
     18          1           0        0.878157    1.856658    0.875883
     19          1           0        0.878157    1.856658   -0.875883
     20          1           0       -1.617623    1.668007   -0.873416
     21          1           0       -1.617623    1.668007    0.873416
 ---------------------------------------------------------------------

 SCF Done:  E(RHF) =  -349.584180681     A.U. after    2 cycles

 The electronic state is 1-A'.
 Alpha  occ. eigenvalues --  -11.51171 -11.43727 -11.42488 -11.41605 -11.40079
 Alpha  occ. eigenvalues --  -11.39728 -11.38615 -11.35694 -11.34824  -1.35404
 Alpha  occ. eigenvalues --   -1.21095  -1.09346  -1.08521  -0.98250  -0.86013
 Alpha  occ. eigenvalues --   -0.85790  -0.81500  -0.70200  -0.64315  -0.64266
 Alpha  occ. eigenvalues --   -0.58348  -0.57776  -0.56734  -0.55872  -0.51185
 Alpha  occ. eigenvalues --   -0.50882  -0.48121  -0.46302  -0.45469  -0.43182
 Alpha  occ. eigenvalues --   -0.40984  -0.32432  -0.30993
 Alpha virt. eigenvalues --    0.03652   0.04737   0.05044   0.05474   0.05881
 Alpha virt. eigenvalues --    0.05924   0.06301   0.06610   0.07047   0.07334
 Alpha virt. eigenvalues --    0.08194   0.10302   0.10535   0.12240   0.12268

 Mulliken charges:
               1
     1  C   -2.951882
     2  C   -1.726479
     3  C   -1.726479
     4  C   -2.154398
     5  C   -2.154398
     6  C    4.588591
     7  C   -3.819331
     8  C   -4.388035
     9  C   -3.187417
    10  H    1.527735
    11  H    1.500739
    12  H    1.500739
    13  H    1.753452
    14  H    1.753452
    15  H    1.249448
    16  H    1.249448
    17  H    1.122876
    18  H    1.334293
    19  H    1.334293
    20  H    1.596676
    21  H    1.596676
 Sum of Mulliken charges =  -0.00000

 Dipole moment (field-independent basis, Debye):
    X=             -0.1354    Y=              0.2616    Z=              0.0000  Tot=              0.2946

 Test job not archived.
 1\1\GINC-SE150\SP\RHF\Aug-CC-pVDZ\C9H12\OHZDE\06-Apr-2025\0\\#t hf aug
 -cc-pvdz iop(5/13=1,5/36=2,99/5=2) pseudo=read geom=check guess=(read,
 tcheck) scf=(maxcycle=1)\\title\\0,1\C,0,0.386271,-2.839243,0.\C,0,0.3
 87351,-2.138596,1.200339\C,0,0.387351,-2.138596,-1.200339\C,0,0.387351
 ,-0.748944,1.197148\C,0,0.387351,-0.748944,-1.197148\C,0,0.38521,-0.03
 143,0.\C,0,-1.108485,3.575531,0.\C,0,0.345445,1.476802,0.\C,0,-1.08204
 8,2.048572,0.\H,0,0.389739,-3.921015,0.\H,0,0.393022,-2.674365,2.1406\
 H,0,0.393022,-2.674365,-2.1406\H,0,0.394621,-0.211935,2.138121\H,0,0.3

 Normal termination of Gaussian 16 at Sun Apr  6 08:32:42 2025.
