 Gaussian 16, Revision C.01,

 ----------------------------------------------------------------------
 #t hf aug-cc-pvdz symm=none int=(grid=ultrafine) guess=(read,tcheck) s
 table=(opt,rrhf)
 ----------------------------------------------------------------------
 -----
 title
 -----
 Symbolic Z-matrix:
 Charge =  0 Multiplicity = 1

 SCF Done:  E(RHF) =  -312.300643257     A.U. after   12 cycles
 Normal termination of Gaussian 16 at Sun Apr  6 08:32:36 2025.
 Gaussian 16:  ES64L-G16RevC.01  3-Jul-2019

 ----------------------------------------------------------------------
 #t hf aug-cc-pvdz iop(5/13=1,5/36=2,99/5=2) pseudo=read geom=check gue
 ss=(read,tcheck) scf=(maxcycle=1)
 ----------------------------------------------------------------------
 -----
 title
 -----
 Structure from the checkpoint file:  "propylcyclopentane.chk"
 Charge =  0 Multiplicity = 1

                         Standard orientation:
 ---------------------------------------------------------------------
 Center     Atomic      Atomic             Coordinates (Angstroms)
 Number     Number       Type             X           Y           Z
 ---------------------------------------------------------------------
      1          6           0       -2.668057   -0.516202   -0.151817
      2          6           0       -2.379219    0.990207    0.083732
      3          6           0       -1.340914   -1.229360    0.139892
      4          6           0       -0.838544    1.117468    0.194491
      5          6           0       -0.268079   -0.224742   -0.304017
      6          6           0        3.632805   -0.000756    0.134440
      7          6           0        1.143001   -0.554336    0.179922
      8          6           0        2.231894    0.390324   -0.333620
      9          1           0       -3.488035   -0.885577    0.464020
     10          1           0       -2.953947   -0.684716   -1.191912
     11          1           0       -2.769755    1.593120   -0.736241
     12          1           0       -2.864319    1.350360    0.991058
     13          1           0       -1.236812   -1.414843    1.213997
     14          1           0       -1.254830   -2.193162   -0.364168
     15          1           0       -0.452275    1.972210   -0.360265
     16          1           0       -0.546339    1.259696    1.238803
     17          1           0       -0.259603   -0.208411   -1.401207
     18          1           0        3.700615    0.007006    1.224348
     19          1           0        3.895190   -1.005453   -0.203653
     20          1           0        4.388824    0.686078   -0.248814
     21          1           0        1.393620   -1.576741   -0.122604
     22          1           0        1.150697   -0.552656    1.276131
     23          1           0        2.014697    1.411417   -0.009971
     24          1           0        2.204946    0.406052   -1.427659
 ---------------------------------------------------------------------

 SCF Done:  E(RHF) =  -313.933372798     A.U. after    2 cycles

 The electronic state is 1-A.
 Alpha  occ. eigenvalues --  -11.46911 -11.42158 -11.42055 -11.38786 -11.36903
 Alpha  occ. eigenvalues --  -11.36288 -11.34978 -11.32737  -1.33782  -1.19194
 Alpha  occ. eigenvalues --   -1.05752  -1.03272  -0.95280  -0.84267  -0.80960
 Alpha  occ. eigenvalues --   -0.78780  -0.66585  -0.63843  -0.62775  -0.58206
 Alpha  occ. eigenvalues --   -0.57133  -0.55208  -0.51811  -0.51325  -0.46783
 Alpha  occ. eigenvalues --   -0.45575  -0.45067  -0.43342  -0.43198  -0.42537
 Alpha  occ. eigenvalues --   -0.40131  -0.37925
 Alpha virt. eigenvalues --    0.04430   0.04830   0.05033   0.05189   0.05414
 Alpha virt. eigenvalues --    0.05652   0.06191   0.06484   0.06766   0.07148
 Alpha virt. eigenvalues --    0.07753   0.08107   0.08490   0.08819   0.10471

 Mulliken charges:
               1
     1  C   -3.085652
     2  C   -2.854076
     3  C   -3.656465
     4  C   -3.424604
     5  C    0.745812
     6  C   -4.406904
     7  C   -3.055258
     8  C   -3.194073
     9  H    1.287829
    10  H    1.373914
    11  H    1.331051
    12  H    1.292957
    13  H    1.440476
    14  H    1.328200
    15  H    1.578070
    16  H    1.475868
    17  H    1.976977
    18  H    1.336375
    19  H    1.335257
    20  H    1.064351
    21  H    1.497495
    22  H    1.584054
    23  H    1.628205
    24  H    1.400141
 Sum of Mulliken charges =  -0.00000

 Dipole moment (field-independent basis, Debye):
    X=             -0.0631    Y=              0.0271    Z=             -0.1402  Tot=              0.1561

 Test job not archived.
 1\1\GINC-SE177\SP\RHF\Aug-CC-pVDZ\C8H16\OHZDE\06-Apr-2025\0\\#t hf aug
 -cc-pvdz iop(5/13=1,5/36=2,99/5=2) pseudo=read geom=check guess=(read,
 tcheck) scf=(maxcycle=1)\\title\\0,1\C,0,-2.668057,-0.516202,-0.151817
 \C,0,-2.379219,0.990207,0.083732\C,0,-1.340914,-1.22936,0.139892\C,0,-
 0.838544,1.117468,0.194491\C,0,-0.268079,-0.224742,-0.304017\C,0,3.632
 805,-0.000756,0.13444\C,0,1.143001,-0.554336,0.179922\C,0,2.231894,0.3
 90324,-0.33362\H,0,-3.488035,-0.885577,0.46402\H,0,-2.953947,-0.684716
 ,-1.191912\H,0,-2.769755,1.59312,-0.736241\H,0,-2.864319,1.35036,0.991

 Normal termination of Gaussian 16 at Sun Apr  6 08:32:49 2025.
