 Gaussian 16, Revision C.01,

 ----------------------------------------------------------------------
 #t hf aug-cc-pvdz symm=none int=(grid=ultrafine) guess=(read,tcheck) s
 table=(opt,rrhf)
 ----------------------------------------------------------------------
 -----
 title
 -----
 Symbolic Z-matrix:
 Charge =  0 Multiplicity = 1

 SCF Done:  E(RHF) =  -170.982829024     A.U. after   13 cycles
 Normal termination of Gaussian 16 at Sun Apr  6 08:30:14 2025.
 Gaussian 16:  ES64L-G16RevC.01  3-Jul-2019

 ----------------------------------------------------------------------
 #t hf aug-cc-pvdz iop(5/13=1,5/36=2,99/5=2) pseudo=read geom=check gue
 ss=(read,tcheck) scf=(maxcycle=1)
 ----------------------------------------------------------------------
 -----
 title
 -----
 Structure from the checkpoint file:  "propanenitrile.chk"
 Charge =  0 Multiplicity = 1

                         Standard orientation:
 ---------------------------------------------------------------------
 Center     Atomic      Atomic             Coordinates (Angstroms)
 Number     Number       Type             X           Y           Z
 ---------------------------------------------------------------------
      1          6           0        0.771682   -0.432622    0.000000
      2          6           0       -1.515437    0.563249    0.000000
      3          6           0        0.000000    0.807103    0.000000
      4          7           0        1.364991   -1.417770    0.000000
      5          1           0       -1.819793    0.002200    0.881973
      6          1           0       -2.041098    1.517131    0.000000
      7          1           0       -1.819793    0.002200   -0.881973
      8          1           0        0.294138    1.388238    0.876058
      9          1           0        0.294138    1.388238   -0.876058
 ---------------------------------------------------------------------

 SCF Done:  E(RHF) =  -171.800131380     A.U. after    2 cycles

 The electronic state is 1-A'.
 Alpha  occ. eigenvalues --  -15.75452 -11.46365 -11.42440 -11.39442  -1.32263
 Alpha  occ. eigenvalues --   -1.18923  -0.95999  -0.70510  -0.65998  -0.58091
 Alpha  occ. eigenvalues --   -0.54852  -0.53440  -0.50032  -0.42916  -0.42606
 Alpha virt. eigenvalues --    0.02619   0.05131   0.05821   0.05845   0.06389
 Alpha virt. eigenvalues --    0.09719   0.10922   0.11370   0.11974   0.13111
 Alpha virt. eigenvalues --    0.13978   0.15918   0.17579   0.18112   0.18629

 Mulliken charges:
               1
     1  C    2.493359
     2  C   -3.529643
     3  C   -3.201353
     4  N   -2.410800
     5  H    1.295237
     6  H    1.188958
     7  H    1.295237
     8  H    1.434502
     9  H    1.434502
 Sum of Mulliken charges =   0.00000

 Dipole moment (field-independent basis, Debye):
    X=             -2.1108    Y=              3.0233    Z=             -0.0000  Tot=              3.6873

 Test job not archived.
 1\1\GINC-SE208\SP\RHF\Aug-CC-pVDZ\C3H5N1\OHZDE\06-Apr-2025\0\\#t hf au
 g-cc-pvdz iop(5/13=1,5/36=2,99/5=2) pseudo=read geom=check guess=(read
 ,tcheck) scf=(maxcycle=1)\\title\\0,1\C,0,0.771682,-0.432622,0.\C,0,-1
 .515437,0.563249,0.\C,0,0.,0.807103,0.\N,0,1.364991,-1.41777,0.\H,0,-1
 .819793,0.0022,0.881973\H,0,-2.041098,1.517131,0.\H,0,-1.819793,0.0022
 ,-0.881973\H,0,0.294138,1.388238,0.876058\H,0,0.294138,1.388238,-0.876
 058\\Version=ES64L-G16RevC.01\State=1-A'\HF=-171.8001314\RMSD=2.497e-0
 1\Dipole=-0.8304698,1.1894703,0.\Quadrupole=-0.7653939,-0.850857,1.616

 Normal termination of Gaussian 16 at Sun Apr  6 08:30:48 2025.
