 Gaussian 16, Revision C.01,

 ----------------------------------------------------------------------
 #t hf aug-cc-pvdz symm=none int=(grid=ultrafine) guess=(read,tcheck) s
 table=(opt,rrhf)
 ----------------------------------------------------------------------
 -----
 title
 -----
 Symbolic Z-matrix:
 Charge =  0 Multiplicity = 1

 SCF Done:  E(RHF) =  -191.978613924     A.U. after   12 cycles
 Normal termination of Gaussian 16 at Sun Apr  6 08:30:13 2025.
 Gaussian 16:  ES64L-G16RevC.01  3-Jul-2019

 ----------------------------------------------------------------------
 #t hf aug-cc-pvdz iop(5/13=1,5/36=2,99/5=2) pseudo=read geom=check gue
 ss=(read,tcheck) scf=(maxcycle=1)
 ----------------------------------------------------------------------
 -----
 title
 -----
 Structure from the checkpoint file:  "propanal.chk"
 Charge =  0 Multiplicity = 1

                         Standard orientation:
 ---------------------------------------------------------------------
 Center     Atomic      Atomic             Coordinates (Angstroms)
 Number     Number       Type             X           Y           Z
 ---------------------------------------------------------------------
      1          6           0        0.996293   -0.222905    0.000000
      2          6           0       -1.458518    0.470962    0.000000
      3          6           0        0.000000    0.905538    0.000000
      4          8           0        0.716194   -1.394736    0.000000
      5          1           0        2.059410    0.097311    0.000000
      6          1           0       -1.685732   -0.133233    0.877361
      7          1           0       -1.685732   -0.133233   -0.877361
      8          1           0       -2.117948    1.338361    0.000000
      9          1           0        0.236898    1.533556   -0.867218
     10          1           0        0.236898    1.533556    0.867218
 ---------------------------------------------------------------------

 SCF Done:  E(RHF) =  -192.868140102     A.U. after    2 cycles

 The electronic state is 1-A'.
 Alpha  occ. eigenvalues --  -21.06129 -11.48307 -11.41228 -11.36756  -1.70836
 Alpha  occ. eigenvalues --   -1.18939  -0.96477  -0.78943  -0.66264  -0.63391
 Alpha  occ. eigenvalues --   -0.54518  -0.50818  -0.50800  -0.47669  -0.42320
 Alpha  occ. eigenvalues --   -0.29362
 Alpha virt. eigenvalues --    0.03426   0.05150   0.05796   0.05803   0.06606
 Alpha virt. eigenvalues --    0.07042   0.10816   0.11464   0.12087   0.14011
 Alpha virt. eigenvalues --    0.14083   0.14816   0.16634   0.17108   0.17579

 Mulliken charges:
               1
     1  C    1.431005
     2  C   -3.596712
     3  C   -3.038231
     4  O   -2.700880
     5  H    1.415559
     6  H    1.259132
     7  H    1.259132
     8  H    1.135795
     9  H    1.417600
    10  H    1.417600
 Sum of Mulliken charges =  -0.00000

 Dipole moment (field-independent basis, Debye):
    X=             -0.1670    Y=              1.3284    Z=             -0.0000  Tot=              1.3388

 Test job not archived.
 1\1\GINC-SE106\SP\RHF\Aug-CC-pVDZ\C3H6O1\OHZDE\06-Apr-2025\0\\#t hf au
 g-cc-pvdz iop(5/13=1,5/36=2,99/5=2) pseudo=read geom=check guess=(read
 ,tcheck) scf=(maxcycle=1)\\title\\0,1\C,0,0.996293,-0.222905,0.\C,0,-1
 .458518,0.470962,0.\C,0,0.,0.905538,0.\O,0,0.716194,-1.394736,0.\H,0,2
 .05941,0.097311,0.\H,0,-1.685732,-0.133233,0.877361\H,0,-1.685732,-0.1
 33233,-0.877361\H,0,-2.117948,1.338361,0.\H,0,0.236898,1.533556,-0.867
 218\H,0,0.236898,1.533556,0.867218\\Version=ES64L-G16RevC.01\State=1-A
 '\HF=-192.8681401\RMSD=2.564e-01\Dipole=-0.0657181,0.5226237,0.\Quadru

 Normal termination of Gaussian 16 at Sun Apr  6 08:30:49 2025.
