 Gaussian 16, Revision C.01,

 ----------------------------------------------------------------------
 #t hf aug-cc-pvdz symm=none int=(grid=ultrafine) guess=(read,tcheck) s
 table=(opt,rrhf)
 ----------------------------------------------------------------------
 -----
 title
 -----
 Symbolic Z-matrix:
 Charge =  0 Multiplicity = 1

 SCF Done:  E(RHF) =  -190.743213127     A.U. after   13 cycles
 Normal termination of Gaussian 16 at Sun Apr  6 08:30:21 2025.
 Gaussian 16:  ES64L-G16RevC.01  3-Jul-2019

 ----------------------------------------------------------------------
 #t hf aug-cc-pvdz iop(5/13=1,5/36=2,99/5=2) pseudo=read geom=check gue
 ss=(read,tcheck) scf=(maxcycle=1)
 ----------------------------------------------------------------------
 -----
 title
 -----
 Structure from the checkpoint file:  "propa-1-2-dien-1-ol.chk"
 Charge =  0 Multiplicity = 1

                         Standard orientation:
 ---------------------------------------------------------------------
 Center     Atomic      Atomic             Coordinates (Angstroms)
 Number     Number       Type             X           Y           Z
 ---------------------------------------------------------------------
      1          6           0        0.656988   -0.482689    0.000000
      2          6           0        0.000000    0.643879    0.000000
      3          6           0       -0.646073    1.774994    0.000000
      4          8           0        0.112787   -1.745853    0.000000
      5          1           0        1.737890   -0.517886    0.000000
      6          1           0       -0.928536    2.272014    0.922836
      7          1           0       -0.928536    2.272014   -0.922836
      8          1           0       -0.848607   -1.676418    0.000000
 ---------------------------------------------------------------------

 SCF Done:  E(RHF) =  -191.603356203     A.U. after    2 cycles

 The electronic state is 1-A'.
 Alpha  occ. eigenvalues --  -21.10281 -11.46115 -11.41908 -11.40098  -1.74351
 Alpha  occ. eigenvalues --   -1.16382  -0.98423  -0.76398  -0.63481  -0.61117
 Alpha  occ. eigenvalues --   -0.59870  -0.47797  -0.46264  -0.36191  -0.28190
 Alpha virt. eigenvalues --    0.03047   0.05419   0.05994   0.06176   0.09616
 Alpha virt. eigenvalues --    0.10245   0.11176   0.12519   0.13517   0.15531
 Alpha virt. eigenvalues --    0.15842   0.16302   0.18062   0.19698   0.20631

 Mulliken charges:
               1
     1  C    0.865904
     2  C    1.184400
     3  C   -3.745169
     4  O   -3.014553
     5  H    1.357557
     6  H    1.215775
     7  H    1.215775
     8  H    0.920310
 Sum of Mulliken charges =   0.00000

 Dipole moment (field-independent basis, Debye):
    X=             -0.3912    Y=             -0.0039    Z=             -0.0000  Tot=              0.3912

 Test job not archived.
 1\1\GINC-SE103\SP\RHF\Aug-CC-pVDZ\C3H4O1\OHZDE\06-Apr-2025\0\\#t hf au
 g-cc-pvdz iop(5/13=1,5/36=2,99/5=2) pseudo=read geom=check guess=(read
 ,tcheck) scf=(maxcycle=1)\\title\\0,1\C,0,0.656988,-0.482689,0.\C,0,0.
 ,0.643879,0.\C,0,-0.646073,1.774994,0.\O,0,0.112787,-1.745853,0.\H,0,1
 .73789,-0.517886,0.\H,0,-0.928536,2.272014,0.922836\H,0,-0.928536,2.27
 2014,-0.922836\H,0,-0.848607,-1.676418,0.\\Version=ES64L-G16RevC.01\St
 ate=1-A'\HF=-191.6033562\RMSD=7.910e-01\Dipole=-0.1539038,-0.00153,0.\
 Quadrupole=1.3160948,-0.088956,-1.2271388,-0.1089914,0.,0.\PG=CS [SG(C

 Normal termination of Gaussian 16 at Sun Apr  6 08:30:48 2025.
