 Gaussian 16, Revision C.01,

 ----------------------------------------------------------------------
 #t hf aug-cc-pvdz symm=none int=(grid=ultrafine) guess=(read,tcheck) s
 table=(opt,rrhf)
 ----------------------------------------------------------------------
 -----
 title
 -----
 Symbolic Z-matrix:
 Charge =  0 Multiplicity = 1

 SCF Done:  E(RHF) =  -379.159379589     A.U. after   15 cycles
 Normal termination of Gaussian 16 at Sun Apr  6 08:31:09 2025.
 Gaussian 16:  ES64L-G16RevC.01  3-Jul-2019

 ----------------------------------------------------------------------
 #t hf aug-cc-pvdz iop(5/13=1,5/36=2,99/5=2) pseudo=read geom=check gue
 ss=(read,tcheck) scf=(maxcycle=1)
 ----------------------------------------------------------------------
 -----
 title
 -----
 Structure from the checkpoint file:  "propynyl_propiolate.chk"
 Charge =  0 Multiplicity = 1

                         Standard orientation:
 ---------------------------------------------------------------------
 Center     Atomic      Atomic             Coordinates (Angstroms)
 Number     Number       Type             X           Y           Z
 ---------------------------------------------------------------------
      1          8           0        0.219214   -0.692487    0.000002
      2          8           0       -1.737049   -1.731787    0.000000
      3          6           0       -1.131002   -0.695733    0.000000
      4          6           0       -1.795334    0.594519   -0.000001
      5          6           0        0.941706    0.562529    0.000002
      6          6           0        2.364687    0.276671    0.000000
      7          6           0       -2.399277    1.630600   -0.000004
      8          6           0        3.545311    0.077874    0.000000
      9          1           0        0.670540    1.140839    0.884807
     10          1           0        0.670539    1.140839   -0.884803
     11          1           0       -2.945518    2.542080   -0.000006
     12          1           0        4.590571   -0.108328   -0.000001
 ---------------------------------------------------------------------

 SCF Done:  E(RHF) =  -380.821180511     A.U. after    2 cycles

 The electronic state is 1-A.
 Alpha  occ. eigenvalues --  -21.11224 -21.06858 -11.56925 -11.51403 -11.46601
 Alpha  occ. eigenvalues --  -11.44274 -11.43070 -11.41896  -1.86159  -1.68243
 Alpha  occ. eigenvalues --   -1.17275  -1.15732  -1.02253  -0.92976  -0.76671
 Alpha  occ. eigenvalues --   -0.75446  -0.69213  -0.67973  -0.65641  -0.56616
 Alpha  occ. eigenvalues --   -0.54336  -0.46803  -0.41423  -0.41327  -0.39154
 Alpha  occ. eigenvalues --   -0.39150  -0.32644  -0.32124
 Alpha virt. eigenvalues --    0.02427   0.03948   0.05145   0.06207   0.08229
 Alpha virt. eigenvalues --    0.08799   0.09100   0.10551   0.11123   0.11526
 Alpha virt. eigenvalues --    0.11999   0.12721   0.12789   0.13198   0.14099

 Mulliken charges:
               1
     1  O   -3.111977
     2  O   -3.124444
     3  C    5.716297
     4  C    1.333104
     5  C   -1.954742
     6  C    3.724794
     7  C   -3.136062
     8  C   -3.897487
     9  H    1.399209
    10  H    1.399209
    11  H    0.822733
    12  H    0.829367
 Sum of Mulliken charges =   0.00000

 Dipole moment (field-independent basis, Debye):
    X=              0.7509    Y=              2.5652    Z=             -0.0000  Tot=              2.6729

 Test job not archived.
 1\1\GINC-SE050\SP\RHF\Aug-CC-pVDZ\C6H4O2\OHZDE\06-Apr-2025\0\\#t hf au
 g-cc-pvdz iop(5/13=1,5/36=2,99/5=2) pseudo=read geom=check guess=(read
 ,tcheck) scf=(maxcycle=1)\\title\\0,1\O,0,0.219214,-0.692487,0.000002\
 O,0,-1.737049,-1.731787,0.\C,0,-1.131002,-0.695733,0.\C,0,-1.795334,0.
 594519,-0.000001\C,0,0.941706,0.562529,0.000002\C,0,2.364687,0.276671,
 0.\C,0,-2.399277,1.6306,-0.000004\C,0,3.545311,0.077874,0.\H,0,0.67054
 ,1.140839,0.884807\H,0,0.670539,1.140839,-0.884803\H,0,-2.945518,2.542
 08,-0.000006\H,0,4.590571,-0.108328,-0.000001\\Version=ES64L-G16RevC.0

 Normal termination of Gaussian 16 at Sun Apr  6 08:31:35 2025.
