 Gaussian 16, Revision C.01,

 ----------------------------------------------------------------------
 #t hf aug-cc-pvdz symm=none int=(grid=ultrafine) guess=(read,tcheck) s
 table=(opt,rrhf)
 ----------------------------------------------------------------------
 -----
 title
 -----
 Symbolic Z-matrix:
 Charge =  0 Multiplicity = 1

 SCF Done:  E(RHF) =  -423.033539293     A.U. after   13 cycles

 1\1\GINC-SE036\Stability\RHF\Aug-CC-pVDZ\C7H14O2\OHZDE\06-Apr-2025\0\\
 #t hf aug-cc-pvdz symm=none int=(grid=ultrafine) guess=(read,tcheck) s
 table=(opt,rrhf)\\title\\0,1\C,0,0.,0.612118,0.\C,0,3.00813,3.090722,0
 .\C,0,-2.513916,-3.581102,0.\C,0,1.428318,1.107953,0.\C,0,1.55259,2.62
 7842,0.\C,0,-1.17295,-2.848444,0.\C,0,-1.353001,-1.343669,0.\O,0,-0.98
 5991,1.306773,0.\O,0,-0.041603,-0.736721,0.\H,0,3.073746,4.179115,0.\H
 ,0,3.541696,2.727258,0.88086\H,0,3.541696,2.727258,-0.88086\H,0,-3.106
 341,-3.328029,-0.88119\H,0,-2.36653,-4.66089,0.\H,0,-3.106341,-3.32802

 Normal termination of Gaussian 16 at Sun Apr  6 08:32:01 2025.
 Gaussian 16:  ES64L-G16RevC.01  3-Jul-2019

 ----------------------------------------------------------------------
 #t hf aug-cc-pvdz iop(5/13=1,5/36=2,99/5=2) pseudo=read geom=check gue
 ss=(read,tcheck) scf=(maxcycle=1)
 ----------------------------------------------------------------------
 -----
 title
 -----
 Structure from the checkpoint file:  "propyl_butanoate.chk"
 Charge =  0 Multiplicity = 1

                         Standard orientation:
 ---------------------------------------------------------------------
 Center     Atomic      Atomic             Coordinates (Angstroms)
 Number     Number       Type             X           Y           Z
 ---------------------------------------------------------------------
      1          6           0       -0.000000    0.612118    0.000000
      2          6           0        3.008129    3.090723    0.000000
      3          6           0       -2.513914   -3.581103    0.000000
      4          6           0        1.428318    1.107954    0.000000
      5          6           0        1.552589    2.627843    0.000000
      6          6           0       -1.172949   -2.848444    0.000000
      7          6           0       -1.353000   -1.343669    0.000000
      8          8           0       -0.985991    1.306773    0.000000
      9          8           0       -0.041603   -0.736721    0.000000
     10          1           0        3.073745    4.179116    0.000000
     11          1           0        3.541695    2.727259    0.880860
     12          1           0        3.541695    2.727259   -0.880860
     13          1           0       -3.106340   -3.328030   -0.881190
     14          1           0       -2.366528   -4.660891    0.000000
     15          1           0       -3.106340   -3.328030    0.881190
     16          1           0        1.929119    0.673099    0.869456
     17          1           0        1.929119    0.673099   -0.869456
     18          1           0        1.031922    3.030231   -0.870409
     19          1           0        1.031922    3.030231    0.870409
     20          1           0       -0.587969   -3.136322   -0.876168
     21          1           0       -0.587969   -3.136322    0.876168
     22          1           0       -1.899179   -1.001822   -0.880481
     23          1           0       -1.899179   -1.001822    0.880481
 ---------------------------------------------------------------------

 SCF Done:  E(RHF) =  -425.027948296     A.U. after    2 cycles

 The electronic state is 1-A'.
 Alpha  occ. eigenvalues --  -21.08053 -21.04130 -11.52755 -11.44816 -11.42704
 Alpha  occ. eigenvalues --  -11.40019 -11.39176 -11.36253 -11.35495  -1.83594
 Alpha  occ. eigenvalues --   -1.65511  -1.22718  -1.19760  -1.05005  -0.98309
 Alpha  occ. eigenvalues --   -0.87258  -0.84738  -0.74951  -0.67619  -0.65664
 Alpha  occ. eigenvalues --   -0.64912  -0.59825  -0.58255  -0.58129  -0.55574
 Alpha  occ. eigenvalues --   -0.54076  -0.49492  -0.49141  -0.48997  -0.47345
 Alpha  occ. eigenvalues --   -0.46336  -0.45049  -0.43650  -0.40336  -0.31749
 Alpha  occ. eigenvalues --   -0.28892
 Alpha virt. eigenvalues --    0.03590   0.04583   0.04768   0.05328   0.05506
 Alpha virt. eigenvalues --    0.05577   0.06461   0.07013   0.07081   0.07760
 Alpha virt. eigenvalues --    0.07864   0.08004   0.08858   0.09562   0.10002

 Mulliken charges:
               1
     1  C    7.758313
     2  C   -4.041403
     3  C   -3.958279
     4  C   -4.973236
     5  C   -2.556079
     6  C   -3.461016
     7  C   -2.096543
     8  O   -3.165611
     9  O   -3.608124
    10  H    1.025777
    11  H    1.299831
    12  H    1.299831
    13  H    1.304082
    14  H    1.107893
    15  H    1.304082
    16  H    1.628411
    17  H    1.628411
    18  H    1.471480
    19  H    1.471480
    20  H    1.492861
    21  H    1.492861
    22  H    1.787489
    23  H    1.787489
 Sum of Mulliken charges =   0.00000

 Dipole moment (field-independent basis, Debye):
    X=              0.5771    Y=             -1.1941    Z=             -0.0000  Tot=              1.3262

 Test job not archived.
 1\1\GINC-SE036\SP\RHF\Aug-CC-pVDZ\C7H14O2\OHZDE\06-Apr-2025\0\\#t hf a
 ug-cc-pvdz iop(5/13=1,5/36=2,99/5=2) pseudo=read geom=check guess=(rea
 d,tcheck) scf=(maxcycle=1)\\title\\0,1\C,0,0.,0.612118,0.\C,0,3.00813,
 3.090722,0.\C,0,-2.513916,-3.581102,0.\C,0,1.428318,1.107953,0.\C,0,1.
 55259,2.627842,0.\C,0,-1.17295,-2.848444,0.\C,0,-1.353001,-1.343669,0.
 \O,0,-0.985991,1.306773,0.\O,0,-0.041603,-0.736721,0.\H,0,3.073746,4.1
 79115,0.\H,0,3.541696,2.727258,0.88086\H,0,3.541696,2.727258,-0.88086\
 H,0,-3.106341,-3.328029,-0.88119\H,0,-2.36653,-4.66089,0.\H,0,-3.10634

 Normal termination of Gaussian 16 at Sun Apr  6 08:32:43 2025.
