 Gaussian 16, Revision C.01,

 ----------------------------------------------------------------------
 #t hf aug-cc-pvdz symm=none int=(grid=ultrafine) guess=(read,tcheck) s
 table=(opt,rrhf)
 ----------------------------------------------------------------------
 -----
 title
 -----
 Symbolic Z-matrix:
 Charge =  0 Multiplicity = 1

 SCF Done:  E(RHF) =  -321.786139107     A.U. after   15 cycles
 Normal termination of Gaussian 16 at Sun Apr  6 08:30:39 2025.
 Gaussian 16:  ES64L-G16RevC.01  3-Jul-2019

 ----------------------------------------------------------------------
 #t hf aug-cc-pvdz iop(5/13=1,5/36=2,99/5=2) pseudo=read geom=check gue
 ss=(read,tcheck) scf=(maxcycle=1)
 ----------------------------------------------------------------------
 -----
 title
 -----
 Structure from the checkpoint file:  "propyl_nitrite.chk"
 Charge =  0 Multiplicity = 1

                         Standard orientation:
 ---------------------------------------------------------------------
 Center     Atomic      Atomic             Coordinates (Angstroms)
 Number     Number       Type             X           Y           Z
 ---------------------------------------------------------------------
      1          1           0        0.523976   -2.089870    0.151478
      2          7           0       -1.558037    0.145643    0.423258
      3          8           0       -2.483813    0.541713   -0.169766
      4          8           0       -0.642907   -0.522944   -0.431654
      5          6           0        1.780908   -0.362548   -0.207690
      6          1           0        1.873022   -0.557573   -1.278447
      7          1           0        2.615550   -0.879811    0.273817
      8          6           0        0.501420   -1.009602    0.298749
      9          1           0        0.339389   -0.803022    1.358537
     10          1           0        2.807723    1.545267   -0.303725
     11          1           0        1.808716    1.348492    1.134869
     12          1           0        1.057381    1.676612   -0.426643
     13          6           0        1.866715    1.137191    0.065387
 ---------------------------------------------------------------------

 SCF Done:  E(RHF) =  -323.229822472     A.U. after    2 cycles

 The electronic state is 1-A.
 Alpha  occ. eigenvalues --  -21.14872 -21.09306 -15.93104 -11.45842 -11.40348
 Alpha  occ. eigenvalues --  -11.36214  -1.96989  -1.72612  -1.20126  -1.02189
 Alpha  occ. eigenvalues --   -0.93286  -0.85057  -0.67442  -0.67063  -0.63310
 Alpha  occ. eigenvalues --   -0.60241  -0.58904  -0.54943  -0.50023  -0.48714
 Alpha  occ. eigenvalues --   -0.47467  -0.42327  -0.32885  -0.29512
 Alpha virt. eigenvalues --    0.03912   0.05151   0.05669   0.05766   0.06084
 Alpha virt. eigenvalues --    0.06607   0.07477   0.10665   0.11908   0.13018
 Alpha virt. eigenvalues --    0.13983   0.14161   0.15018   0.15456   0.16098

 Mulliken charges:
               1
     1  H    1.295876
     2  N    2.877617
     3  O   -2.049079
     4  O   -2.436059
     5  C   -2.926499
     6  H    1.431970
     7  H    1.338174
     8  C   -1.485189
     9  H    1.720314
    10  H    1.156163
    11  H    1.275535
    12  H    1.342206
    13  C   -3.541029
 Sum of Mulliken charges =   0.00000

 Dipole moment (field-independent basis, Debye):
    X=              1.4054    Y=             -0.5980    Z=             -0.2650  Tot=              1.5501

 Test job not archived.
 1\1\GINC-SE041\SP\RHF\Aug-CC-pVDZ\C3H7N1O2\OHZDE\06-Apr-2025\0\\#t hf
 aug-cc-pvdz iop(5/13=1,5/36=2,99/5=2) pseudo=read geom=check guess=(re
 ad,tcheck) scf=(maxcycle=1)\\title\\0,1\H,0,0.523976,-2.08987,0.151478
 \N,0,-1.558037,0.145643,0.423258\O,0,-2.483813,0.541713,-0.169766\O,0,
 -0.642907,-0.522944,-0.431654\C,0,1.780908,-0.362548,-0.20769\H,0,1.87
 3022,-0.557573,-1.278447\H,0,2.61555,-0.879811,0.273817\C,0,0.50142,-1
 .009602,0.298749\H,0,0.339389,-0.803022,1.358537\H,0,2.807723,1.545267
 ,-0.303725\H,0,1.808716,1.348492,1.134869\H,0,1.057381,1.676612,-0.426

 Normal termination of Gaussian 16 at Sun Apr  6 08:30:50 2025.
