 Gaussian 16, Revision C.01,

 ----------------------------------------------------------------------
 #t hf aug-cc-pvdz symm=none int=(grid=ultrafine) guess=(read,tcheck) s
 table=(opt,rrhf)
 ----------------------------------------------------------------------
 -----
 title
 -----
 Symbolic Z-matrix:
 Charge =  0 Multiplicity = 1

 SCF Done:  E(RHF) =  -268.018923573     A.U. after   12 cycles
 Normal termination of Gaussian 16 at Sun Apr  6 08:30:36 2025.
 Gaussian 16:  ES64L-G16RevC.01  3-Jul-2019

 ----------------------------------------------------------------------
 #t hf aug-cc-pvdz iop(5/13=1,5/36=2,99/5=2) pseudo=read geom=check gue
 ss=(read,tcheck) scf=(maxcycle=1)
 ----------------------------------------------------------------------
 -----
 title
 -----
 Structure from the checkpoint file:  "propylene_glycol.chk"
 Charge =  0 Multiplicity = 1

                         Standard orientation:
 ---------------------------------------------------------------------
 Center     Atomic      Atomic             Coordinates (Angstroms)
 Number     Number       Type             X           Y           Z
 ---------------------------------------------------------------------
      1          8           0       -0.463972    1.384052   -0.155574
      2          1           0        0.450340    1.692749   -0.148928
      3          8           0        1.955994   -0.044939    0.007682
      4          1           0        2.204193   -0.174878    0.928152
      5          6           0        0.719569   -0.720388   -0.243068
      6          1           0        0.626152   -0.767914   -1.328484
      7          1           0        0.743413   -1.741843    0.148870
      8          6           0       -0.461734    0.047680    0.337446
      9          1           0       -0.352342    0.067485    1.432972
     10          6           0       -1.793602   -0.587521   -0.016562
     11          1           0       -1.917072   -0.637100   -1.099209
     12          1           0       -1.865467   -1.596382    0.392217
     13          1           0       -2.610789    0.006348    0.390648
 ---------------------------------------------------------------------

 SCF Done:  E(RHF) =  -269.238179496     A.U. after    2 cycles

 The electronic state is 1-A.
 Alpha  occ. eigenvalues --  -21.07946 -21.05664 -11.45542 -11.41809 -11.36594
 Alpha  occ. eigenvalues --   -1.73927  -1.68062  -1.14928  -0.98572  -0.83580
 Alpha  occ. eigenvalues --   -0.67847  -0.64297  -0.62821  -0.56473  -0.52347
 Alpha  occ. eigenvalues --   -0.50633  -0.49115  -0.41708  -0.39522  -0.33993
 Alpha  occ. eigenvalues --   -0.30539
 Alpha virt. eigenvalues --    0.03947   0.05060   0.05438   0.05933   0.06227
 Alpha virt. eigenvalues --    0.06667   0.07118   0.07910   0.11018   0.13326
 Alpha virt. eigenvalues --    0.14492   0.14939   0.15118   0.15995   0.16258

 Mulliken charges:
               1
     1  O   -3.000524
     2  H    0.804551
     3  O   -2.539975
     4  H    0.705235
     5  C   -0.773983
     6  H    1.334212
     7  H    1.364033
     8  C    0.384341
     9  H    1.620794
    10  C   -3.499290
    11  H    1.204029
    12  H    1.217249
    13  H    1.179327
 Sum of Mulliken charges =  -0.00000

 Dipole moment (field-independent basis, Debye):
    X=              0.2921    Y=             -0.8325    Z=              0.6831  Tot=              1.1158

 Test job not archived.
 1\1\GINC-SE212\SP\RHF\Aug-CC-pVDZ\C3H8O2\OHZDE\06-Apr-2025\0\\#t hf au
 g-cc-pvdz iop(5/13=1,5/36=2,99/5=2) pseudo=read geom=check guess=(read
 ,tcheck) scf=(maxcycle=1)\\title\\0,1\O,0,-0.463972,1.384052,-0.155574
 \H,0,0.45034,1.692749,-0.148928\O,0,1.955994,-0.044939,0.007682\H,0,2.
 204193,-0.174878,0.928152\C,0,0.719569,-0.720388,-0.243068\H,0,0.62615
 2,-0.767914,-1.328484\H,0,0.743413,-1.741843,0.14887\C,0,-0.461734,0.0
 4768,0.337446\H,0,-0.352342,0.067485,1.432972\C,0,-1.793602,-0.587521,
 -0.016562\H,0,-1.917072,-0.6371,-1.099209\H,0,-1.865467,-1.596382,0.39

 Normal termination of Gaussian 16 at Sun Apr  6 08:30:50 2025.
