 Gaussian 16, Revision C.01,

 ----------------------------------------------------------------------
 #t hf aug-cc-pvdz symm=none int=(grid=ultrafine) guess=(read,tcheck) s
 table=(opt,rrhf)
 ----------------------------------------------------------------------
 -----
 title
 -----
 Symbolic Z-matrix:
 Charge =  0 Multiplicity = 1

 SCF Done:  E(RHF) =  -265.616122612     A.U. after   13 cycles
 Normal termination of Gaussian 16 at Sun Apr  6 08:30:15 2025.
 Gaussian 16:  ES64L-G16RevC.01  3-Jul-2019

 ----------------------------------------------------------------------
 #t hf aug-cc-pvdz iop(5/13=1,5/36=2,99/5=2) pseudo=read geom=check gue
 ss=(read,tcheck) scf=(maxcycle=1)
 ----------------------------------------------------------------------
 -----
 title
 -----
 Structure from the checkpoint file:  "propa-1-2-diene-1-3-diol.chk"
 Charge =  0 Multiplicity = 1

                         Standard orientation:
 ---------------------------------------------------------------------
 Center     Atomic      Atomic             Coordinates (Angstroms)
 Number     Number       Type             X           Y           Z
 ---------------------------------------------------------------------
      1          6           0       -0.000000   -0.000000    0.314636
      2          6           0        0.000000    1.305048    0.357543
      3          6           0       -0.000000   -1.305048    0.357543
      4          8           0        0.776928    2.146963   -0.393553
      5          8           0       -0.776928   -2.146963   -0.393553
      6          1           0       -0.646254    1.874974    1.014469
      7          1           0        0.646254   -1.874974    1.014469
      8          1           0        1.357245    1.618777   -0.955207
      9          1           0       -1.357245   -1.618777   -0.955207
 ---------------------------------------------------------------------

 SCF Done:  E(RHF) =  -266.769943281     A.U. after    2 cycles

 The electronic state is 1-A.
 Alpha  occ. eigenvalues --  -21.10799 -21.10748 -11.48756 -11.45830 -11.38933
 Alpha  occ. eigenvalues --   -1.76061  -1.74112  -1.13569  -0.96574  -0.78489
 Alpha  occ. eigenvalues --   -0.69282  -0.60665  -0.60365  -0.49728  -0.48953
 Alpha  occ. eigenvalues --   -0.47563  -0.44427  -0.28827  -0.28741
 Alpha virt. eigenvalues --    0.03227   0.05470   0.05927   0.05965   0.09760
 Alpha virt. eigenvalues --    0.10248   0.11105   0.12107   0.12903   0.14721
 Alpha virt. eigenvalues --    0.15453   0.15611   0.17173   0.17687   0.19718

 Mulliken charges:
               1
     1  C    0.375818
     2  C    0.603931
     3  C    0.603931
     4  O   -3.034281
     5  O   -3.034281
     6  H    1.312374
     7  H    1.312374
     8  H    0.930067
     9  H    0.930067
 Sum of Mulliken charges =  -0.00000

 Dipole moment (field-independent basis, Debye):
    X=              0.0000    Y=             -0.0000    Z=             -0.4163  Tot=              0.4163

 Test job not archived.
 1\1\GINC-SE104\SP\RHF\Aug-CC-pVDZ\C3H4O2\OHZDE\06-Apr-2025\0\\#t hf au
 g-cc-pvdz iop(5/13=1,5/36=2,99/5=2) pseudo=read geom=check guess=(read
 ,tcheck) scf=(maxcycle=1)\\title\\0,1\C,0,0.,0.,0.314636\C,0,0.,1.3050
 48,0.357543\C,0,0.,-1.305048,0.357543\O,0,0.776928,2.146963,-0.393553\
 O,0,-0.776928,-2.146963,-0.393553\H,0,-0.646254,1.874974,1.014469\H,0,
 0.646254,-1.874974,1.014469\H,0,1.357245,1.618777,-0.955207\H,0,-1.357
 245,-1.618777,-0.955207\\Version=ES64L-G16RevC.01\State=1-A\HF=-266.76
 99433\RMSD=8.977e-01\Dipole=0.,0.,-0.1637807\Quadrupole=0.9302098,-1.5

 Normal termination of Gaussian 16 at Sun Apr  6 08:30:48 2025.
