 Gaussian 16, Revision C.01,

 ----------------------------------------------------------------------
 #t hf aug-cc-pvdz symm=none int=(grid=ultrafine) guess=(read,tcheck) s
 table=(opt,rrhf)
 ----------------------------------------------------------------------
 -----
 title
 -----
 Symbolic Z-matrix:
 Charge =  0 Multiplicity = 1

 SCF Done:  E(RHF) =  -115.878253332     A.U. after   11 cycles
 Normal termination of Gaussian 16 at Sun Apr  6 08:30:21 2025.
 Gaussian 16:  ES64L-G16RevC.01  3-Jul-2019

 ----------------------------------------------------------------------
 #t hf aug-cc-pvdz iop(5/13=1,5/36=2,99/5=2) pseudo=read geom=check gue
 ss=(read,tcheck) scf=(maxcycle=1)
 ----------------------------------------------------------------------
 -----
 title
 -----
 Structure from the checkpoint file:  "propyne.chk"
 Charge =  0 Multiplicity = 1

                         Standard orientation:
 ---------------------------------------------------------------------
 Center     Atomic      Atomic             Coordinates (Angstroms)
 Number     Number       Type             X           Y           Z
 ---------------------------------------------------------------------
      1          6           0        0.000000    1.417677    0.000000
      2          6           0        0.000000    0.218758    0.000000
      3          6           0        0.000000   -1.236142    0.000000
      4          1           0        0.000000    2.478402    0.000000
      5          1           0        1.018882   -1.626721    0.000000
      6          1           0       -0.509441   -1.626721    0.882377
      7          1           0       -0.509441   -1.626721   -0.882377
 ---------------------------------------------------------------------

 SCF Done:  E(RHF) =  -116.451156587     A.U. after    2 cycles

 The electronic state is 1-A'.
 Alpha  occ. eigenvalues --  -11.43470 -11.39091 -11.38886  -1.17213  -1.00119
 Alpha  occ. eigenvalues --   -0.73095  -0.59059  -0.58712  -0.58712  -0.36263
 Alpha  occ. eigenvalues --   -0.36263
 Alpha virt. eigenvalues --    0.02847   0.04997   0.06610   0.06610   0.08859
 Alpha virt. eigenvalues --    0.12788   0.12788   0.12951   0.14116   0.15780
 Alpha virt. eigenvalues --    0.15780   0.16358   0.17727   0.17727   0.24542

 Mulliken charges:
               1
     1  C   -3.688186
     2  C    4.097793
     3  C   -4.555137
     4  H    0.818530
     5  H    1.109000
     6  H    1.109000
     7  H    1.109000
 Sum of Mulliken charges =   0.00000

 Dipole moment (field-independent basis, Debye):
    X=             -0.0000    Y=             -0.6689    Z=             -0.0000  Tot=              0.6689

 Test job not archived.
 1\1\GINC-SE049\SP\RHF\Aug-CC-pVDZ\C3H4\OHZDE\06-Apr-2025\0\\#t hf aug-
 cc-pvdz iop(5/13=1,5/36=2,99/5=2) pseudo=read geom=check guess=(read,t
 check) scf=(maxcycle=1)\\title\\0,1\C,0,0.,0.,1.417677\C,0,0.,0.,0.218
 758\C,0,0.,0.,-1.236142\H,0,0.,0.,2.478402\H,0,0.,1.018882,-1.626721\H
 ,0,0.882377,-0.509441,-1.626721\H,0,-0.882377,-0.509441,-1.626721\\Ver
 sion=ES64L-G16RevC.01\State=1-A'\HF=-116.4511566\RMSD=1.174e+00\Dipole
 =0.,-0.0000003,-0.2631581\Quadrupole=-1.4389618,-1.4389601,2.8779219,0
 .,0.,0.0000011\PG=CS [SG(C3H2),X(H2)]\\@

 Normal termination of Gaussian 16 at Sun Apr  6 08:30:48 2025.
