 Gaussian 16, Revision C.01,

 ----------------------------------------------------------------------
 #t hf aug-cc-pvdz symm=none int=(grid=ultrafine) guess=(read,tcheck) s
 table=(opt,rrhf)
 ----------------------------------------------------------------------
 -----
 title
 -----
 Symbolic Z-matrix:
 Charge =  0 Multiplicity = 1

 SCF Done:  E(RHF) =  -587.108985603     A.U. after   16 cycles
 Normal termination of Gaussian 16 at Sun Apr  6 08:30:14 2025.
 Gaussian 16:  ES64L-G16RevC.01  3-Jul-2019

 ----------------------------------------------------------------------
 #t hf aug-cc-pvdz iop(5/13=1,5/36=2,99/5=2) pseudo=read geom=check gue
 ss=(read,tcheck) scf=(maxcycle=1)
 ----------------------------------------------------------------------
 -----
 title
 -----
 Structure from the checkpoint file:  "prop-2-ynethioic_acid.chk"
 Charge =  0 Multiplicity = 1

                         Standard orientation:
 ---------------------------------------------------------------------
 Center     Atomic      Atomic             Coordinates (Angstroms)
 Number     Number       Type             X           Y           Z
 ---------------------------------------------------------------------
      1         16           0       -1.415690   -0.626525   -0.000006
      2          8           0       -0.221616    1.707573    0.000000
      3          6           0       -0.028547    0.519090    0.000000
      4          6           0        1.281666   -0.084082    0.000004
      5          6           0        2.374298   -0.580157    0.000009
      6          1           0       -0.687542   -1.757741   -0.000004
      7          1           0        3.347002   -1.007548    0.000013
 ---------------------------------------------------------------------

 SCF Done:  E(RHF) =  -588.151883513     A.U. after    2 cycles

 The electronic state is 1-A.
 Alpha  occ. eigenvalues --  -75.72717 -21.08771 -13.16514 -13.13626 -13.04129
 Alpha  occ. eigenvalues --  -11.55043 -11.46150 -11.43938  -8.06753  -1.74448
 Alpha  occ. eigenvalues --   -1.21311  -1.12268  -0.92086  -0.74572  -0.66336
 Alpha  occ. eigenvalues --   -0.55525  -0.54601  -0.48787  -0.39546  -0.39419
 Alpha  occ. eigenvalues --   -0.30361  -0.27308
 Alpha virt. eigenvalues --    0.02192   0.04416   0.07477   0.08244   0.08322
 Alpha virt. eigenvalues --    0.10377   0.12039   0.12494   0.13025   0.13541
 Alpha virt. eigenvalues --    0.14197   0.14250   0.15443   0.17196   0.18562

 Mulliken charges:
               1
     1  S   -0.733712
     2  O   -2.937136
     3  C    2.563892
     4  C    1.776945
     5  C   -2.701280
     6  H    1.255508
     7  H    0.775784
 Sum of Mulliken charges =  -0.00000

 Dipole moment (field-independent basis, Debye):
    X=             -0.4653    Y=             -1.2706    Z=             -0.0000  Tot=              1.3531

 Test job not archived.
 1\1\GINC-SE042\SP\RHF\Aug-CC-pVDZ\C3H2O1S1\OHZDE\06-Apr-2025\0\\#t hf
 aug-cc-pvdz iop(5/13=1,5/36=2,99/5=2) pseudo=read geom=check guess=(re
 ad,tcheck) scf=(maxcycle=1)\\title\\0,1\S,0,-1.41569,-0.626525,-0.0000
 06\O,0,-0.221616,1.707573,0.\C,0,-0.028547,0.51909,0.\C,0,1.281666,-0.
 084082,0.000004\C,0,2.374298,-0.580157,0.000009\H,0,-0.687542,-1.75774
 1,-0.000004\H,0,3.347002,-1.007548,0.000013\\Version=ES64L-G16RevC.01\
 State=1-A\HF=-588.1518835\RMSD=7.511e-01\Dipole=-0.1830537,-0.4998831,
 -0.0000007\Quadrupole=5.9079632,-2.1987039,-3.7092593,-1.397032,0.0000

 Normal termination of Gaussian 16 at Sun Apr  6 08:30:49 2025.
