 Gaussian 16, Revision C.01,

 ----------------------------------------------------------------------
 #t hf aug-cc-pvdz symm=none int=(grid=ultrafine) guess=(read,tcheck) s
 table=(opt,rrhf)
 ----------------------------------------------------------------------
 -----
 title
 -----
 Symbolic Z-matrix:
 Charge =  0 Multiplicity = 1

 SCF Done:  E(RHF) =  -168.566584415     A.U. after   12 cycles
 Normal termination of Gaussian 16 at Sun Apr  6 08:30:49 2025.
 Gaussian 16:  ES64L-G16RevC.01  3-Jul-2019

 ----------------------------------------------------------------------
 #t hf aug-cc-pvdz iop(5/13=1,5/36=2,99/5=2) pseudo=read geom=check gue
 ss=(read,tcheck) scf=(maxcycle=1)
 ----------------------------------------------------------------------
 -----
 title
 -----
 Structure from the checkpoint file:  "propiolonitrile.chk"
 Charge =  0 Multiplicity = 1

                         Standard orientation:
 ---------------------------------------------------------------------
 Center     Atomic      Atomic             Coordinates (Angstroms)
 Number     Number       Type             X           Y           Z
 ---------------------------------------------------------------------
      1          7           0        0.000000    0.000000    1.892411
      2          6           0        0.000000    0.000000    0.737350
      3          6           0        0.000000    0.000000   -0.631058
      4          6           0        0.000000    0.000000   -1.831727
      5          1           0        0.000000    0.000000   -2.894266
 ---------------------------------------------------------------------

 SCF Done:  E(RHF) =  -169.316261378     A.U. after    2 cycles

 The electronic state is 1-SG.
 Alpha  occ. eigenvalues --  -15.79455 -11.50161 -11.47789 -11.46203  -1.34321
 Alpha  occ. eigenvalues --   -1.16261  -0.91947  -0.74239  -0.55549  -0.53490
 Alpha  occ. eigenvalues --   -0.53490  -0.39658  -0.39658
 Alpha virt. eigenvalues --    0.02271   0.06930   0.08465   0.08465   0.09902
 Alpha virt. eigenvalues --    0.12258   0.12258   0.12808   0.14253   0.14767
 Alpha virt. eigenvalues --    0.14767   0.19826   0.19826   0.23077   0.24244

 Mulliken charges:
               1
     1  N   -2.777436
     2  C    2.056009
     3  C    2.242561
     4  C   -2.159811
     5  H    0.638677
 Sum of Mulliken charges =   0.00000

 Dipole moment (field-independent basis, Debye):
    X=             -0.0000    Y=              0.0000    Z=             -3.5075  Tot=              3.5075

 Test job not archived.
 1\1\GINC-SE013\SP\RHF\Aug-CC-pVDZ\C3H1N1\OHZDE\06-Apr-2025\0\\#t hf au
 g-cc-pvdz iop(5/13=1,5/36=2,99/5=2) pseudo=read geom=check guess=(read
 ,tcheck) scf=(maxcycle=1)\\title\\0,1\N,0,0.,0.,1.892411\C,0,0.,0.,0.7
 3735\C,0,0.,0.,-0.631058\C,0,0.,0.,-1.831727\H,0,0.,0.,-2.894266\\Vers
 ion=ES64L-G16RevC.01\State=1-SG\HF=-169.3162614\RMSD=1.254e+00\Dipole=
 0.,0.,-1.3799451\Quadrupole=-0.8397809,-0.8397809,1.6795618,0.,0.,0.\P
 G=C*V [C*(H1C1C1C1N1)]\\@

 Normal termination of Gaussian 16 at Sun Apr  6 08:30:50 2025.
