 Gaussian 16, Revision C.01,

 ----------------------------------------------------------------------
 #t hf aug-cc-pvdz symm=none int=(grid=ultrafine) guess=(read,tcheck) s
 table=(opt,rrhf)
 ----------------------------------------------------------------------
 -----
 title
 -----
 Symbolic Z-matrix:
 Charge =  0 Multiplicity = 1

 SCF Done:  E(RHF) =  -1310.86806032     A.U. after   13 cycles
 Normal termination of Gaussian 16 at Sun Apr  6 08:30:43 2025.
 Gaussian 16:  ES64L-G16RevC.01  3-Jul-2019

 ----------------------------------------------------------------------
 #t hf aug-cc-pvdz iop(5/13=1,5/36=2,99/5=2) pseudo=read geom=check gue
 ss=(read,tcheck) scf=(maxcycle=1)
 ----------------------------------------------------------------------
 -----
 title
 -----
 Structure from the checkpoint file:  "propane-1-2-3-trithiol.chk"
 Charge =  0 Multiplicity = 1

                         Standard orientation:
 ---------------------------------------------------------------------
 Center     Atomic      Atomic             Coordinates (Angstroms)
 Number     Number       Type             X           Y           Z
 ---------------------------------------------------------------------
      1          6           0        0.834198   -0.936571   -0.030495
      2          6           0       -1.402371   -0.269951    0.991854
      3          6           0        0.042139    0.149384    0.691781
      4         16           0        2.619734   -0.495778   -0.173755
      5         16           0       -2.501238   -0.563857   -0.452043
      6         16           0        0.149502    1.790968   -0.137745
      7          1           0        0.429951   -1.103433   -1.026573
      8          1           0        0.765825   -1.867304    0.532760
      9          1           0       -1.408866   -1.167657    1.610121
     10          1           0       -1.897031    0.521267    1.550558
     11          1           0        0.520127    0.338062    1.655473
     12          1           0        3.083147   -1.750169   -0.026735
     13          1           0       -2.037822   -1.781895   -0.783799
     14          1           0       -0.587096    1.452627   -1.213971
 ---------------------------------------------------------------------

 SCF Done:  E(RHF) =  -1312.15721694     A.U. after    2 cycles

 The electronic state is 1-A.
 Alpha  occ. eigenvalues --  -75.69778 -75.68903 -75.68711 -13.15351 -13.14763
 Alpha  occ. eigenvalues --  -13.13299 -13.10461 -13.10424 -13.08237 -13.05120
 Alpha  occ. eigenvalues --  -13.04372 -13.02269 -11.46852 -11.43471 -11.40128
 Alpha  occ. eigenvalues --   -8.03630  -8.02714  -8.02601  -1.32280  -1.17048
 Alpha  occ. eigenvalues --   -1.12185  -1.02031  -0.94563  -0.82544  -0.65971
 Alpha  occ. eigenvalues --   -0.63909  -0.61819  -0.57321  -0.49812  -0.48408
 Alpha  occ. eigenvalues --   -0.47441  -0.40718  -0.39043  -0.37033  -0.26063
 Alpha  occ. eigenvalues --   -0.25490  -0.22953
 Alpha virt. eigenvalues --    0.02302   0.03766   0.04133   0.05051   0.05894
 Alpha virt. eigenvalues --    0.06394   0.06770   0.07024   0.08604   0.10917
 Alpha virt. eigenvalues --    0.11474   0.11943   0.13028   0.13957   0.14134

 Mulliken charges:
               1
     1  C   -4.123666
     2  C   -3.637900
     3  C   -0.579784
     4  S   -0.464165
     5  S   -0.681286
     6  S   -0.723509
     7  H    1.565785
     8  H    1.242993
     9  H    1.354506
    10  H    1.494409
    11  H    1.659617
    12  H    0.995714
    13  H    0.941044
    14  H    0.956243
 Sum of Mulliken charges =  -0.00000

 Dipole moment (field-independent basis, Debye):
    X=             -0.6135    Y=              2.3528    Z=              0.6412  Tot=              2.5146

 Test job not archived.
 1\1\GINC-SE108\SP\RHF\Aug-CC-pVDZ\C3H8S3\OHZDE\06-Apr-2025\0\\#t hf au
 g-cc-pvdz iop(5/13=1,5/36=2,99/5=2) pseudo=read geom=check guess=(read
 ,tcheck) scf=(maxcycle=1)\\title\\0,1\C,0,0.834198,-0.936571,-0.030495
 \C,0,-1.402371,-0.269951,0.991854\C,0,0.042139,0.149384,0.691781\S,0,2
 .619734,-0.495778,-0.173755\S,0,-2.501238,-0.563857,-0.452043\S,0,0.14
 9502,1.790968,-0.137745\H,0,0.429951,-1.103433,-1.026573\H,0,0.765825,
 -1.867304,0.53276\H,0,-1.408866,-1.167657,1.610121\H,0,-1.897031,0.521
 267,1.550558\H,0,0.520127,0.338062,1.655473\H,0,3.083147,-1.750169,-0.

 Normal termination of Gaussian 16 at Sun Apr  6 08:30:51 2025.
