 Gaussian 16, Revision C.01,

 ----------------------------------------------------------------------
 #t hf aug-cc-pvdz symm=none int=(grid=ultrafine) guess=(read,tcheck) s
 table=(opt,rrhf)
 ----------------------------------------------------------------------
 -----
 title
 -----
 Symbolic Z-matrix:
 Charge =  0 Multiplicity = 1

 SCF Done:  E(RHF) =  -383.994911821     A.U. after   13 cycles

 1\1\GINC-SE101\Stability\RHF\Aug-CC-pVDZ\C6H12O2\OHZDE\06-Apr-2025\0\\
 #t hf aug-cc-pvdz symm=none int=(grid=ultrafine) guess=(read,tcheck) s
 table=(opt,rrhf)\\title\\0,1\C,0,-1.00394,-0.403757,0.\C,0,-3.525526,-
 0.680888,0.\C,0,3.764809,0.667909,0.\C,0,-2.349682,0.286562,0.\C,0,2.3
 10162,1.136229,0.\C,0,1.344509,-0.032085,0.\O,0,-0.826705,-1.596688,0.
 \O,0,0.,0.497494,0.\H,0,-3.504242,-1.325262,0.877722\H,0,-4.466982,-0.
 131692,0.\H,0,-3.504242,-1.325262,-0.877722\H,0,3.988516,0.063792,-0.8
 81154\H,0,4.44692,1.517824,0.\H,0,3.988516,0.063792,0.881154\H,0,-2.37

 Normal termination of Gaussian 16 at Sun Apr  6 08:31:23 2025.
 Gaussian 16:  ES64L-G16RevC.01  3-Jul-2019

 ----------------------------------------------------------------------
 #t hf aug-cc-pvdz iop(5/13=1,5/36=2,99/5=2) pseudo=read geom=check gue
 ss=(read,tcheck) scf=(maxcycle=1)
 ----------------------------------------------------------------------
 -----
 title
 -----
 Structure from the checkpoint file:  "propyl_propanoate.chk"
 Charge =  0 Multiplicity = 1

                         Standard orientation:
 ---------------------------------------------------------------------
 Center     Atomic      Atomic             Coordinates (Angstroms)
 Number     Number       Type             X           Y           Z
 ---------------------------------------------------------------------
      1          6           0       -1.003940   -0.403757    0.000000
      2          6           0       -3.525526   -0.680889    0.000000
      3          6           0        3.764809    0.667909    0.000000
      4          6           0       -2.349682    0.286562    0.000000
      5          6           0        2.310162    1.136229    0.000000
      6          6           0        1.344509   -0.032085    0.000000
      7          8           0       -0.826705   -1.596688    0.000000
      8          8           0        0.000000    0.497494    0.000000
      9          1           0       -3.504242   -1.325263    0.877722
     10          1           0       -4.466982   -0.131693    0.000000
     11          1           0       -3.504242   -1.325263   -0.877722
     12          1           0        3.988516    0.063792   -0.881154
     13          1           0        4.446920    1.517824    0.000000
     14          1           0        3.988516    0.063792    0.881154
     15          1           0       -2.378363    0.948115    0.869070
     16          1           0       -2.378363    0.948115   -0.869070
     17          1           0        2.115703    1.758242   -0.876284
     18          1           0        2.115703    1.758242    0.876284
     19          1           0        1.474239   -0.663085   -0.880525
     20          1           0        1.474239   -0.663085    0.880525
 ---------------------------------------------------------------------

 SCF Done:  E(RHF) =  -385.784798972     A.U. after    2 cycles

 The electronic state is 1-A'.
 Alpha  occ. eigenvalues --  -21.08091 -21.04173 -11.52264 -11.44802 -11.41619
 Alpha  occ. eigenvalues --  -11.40014 -11.36756 -11.36071  -1.83629  -1.65550
 Alpha  occ. eigenvalues --   -1.20842  -1.17459  -1.00503  -0.92921  -0.85351
 Alpha  occ. eigenvalues --   -0.74659  -0.67504  -0.66247  -0.63522  -0.60018
 Alpha  occ. eigenvalues --   -0.57327  -0.55904  -0.52849  -0.51818  -0.50331
 Alpha  occ. eigenvalues --   -0.48178  -0.47924  -0.45300  -0.44624  -0.40613
 Alpha  occ. eigenvalues --   -0.31806  -0.28962
 Alpha virt. eigenvalues --    0.03529   0.04584   0.05082   0.05347   0.05606
 Alpha virt. eigenvalues --    0.05760   0.06522   0.07141   0.07383   0.08210
 Alpha virt. eigenvalues --    0.08323   0.08804   0.09763   0.12691   0.12767

 Mulliken charges:
               1
     1  C    6.886079
     2  C   -3.524901
     3  C   -3.839028
     4  C   -4.619989
     5  C   -3.454820
     6  C   -1.792142
     7  O   -3.093493
     8  O   -3.457074
     9  H    1.300080
    10  H    1.046422
    11  H    1.300080
    12  H    1.294077
    13  H    1.112445
    14  H    1.294077
    15  H    1.571727
    16  H    1.571727
    17  H    1.474459
    18  H    1.474459
    19  H    1.727908
    20  H    1.727908
 Sum of Mulliken charges =   0.00000

 Dipole moment (field-independent basis, Debye):
    X=              0.5232    Y=              1.3813    Z=             -0.0000  Tot=              1.4771

 Test job not archived.
 1\1\GINC-SE101\SP\RHF\Aug-CC-pVDZ\C6H12O2\OHZDE\06-Apr-2025\0\\#t hf a
 ug-cc-pvdz iop(5/13=1,5/36=2,99/5=2) pseudo=read geom=check guess=(rea
 d,tcheck) scf=(maxcycle=1)\\title\\0,1\C,0,-1.00394,-0.403757,0.\C,0,-
 3.525526,-0.680888,0.\C,0,3.764809,0.667909,0.\C,0,-2.349682,0.286562,
 0.\C,0,2.310162,1.136229,0.\C,0,1.344509,-0.032085,0.\O,0,-0.826705,-1
 .596688,0.\O,0,0.,0.497494,0.\H,0,-3.504242,-1.325262,0.877722\H,0,-4.
 466982,-0.131692,0.\H,0,-3.504242,-1.325262,-0.877722\H,0,3.988516,0.0
 63792,-0.881154\H,0,4.44692,1.517824,0.\H,0,3.988516,0.063792,0.881154

 Normal termination of Gaussian 16 at Sun Apr  6 08:31:36 2025.
