 Gaussian 16, Revision C.01,

 ----------------------------------------------------------------------
 #t hf aug-cc-pvdz symm=none int=(grid=ultrafine) guess=(read,tcheck) s
 table=(opt,rrhf)
 ----------------------------------------------------------------------
 -----
 title
 -----
 Symbolic Z-matrix:
 Charge =  0 Multiplicity = 1

 SCF Done:  E(RHF) =  -117.086693247     A.U. after   12 cycles
 Normal termination of Gaussian 16 at Sun Apr  6 08:30:13 2025.
 Gaussian 16:  ES64L-G16RevC.01  3-Jul-2019

 ----------------------------------------------------------------------
 #t hf aug-cc-pvdz iop(5/13=1,5/36=2,99/5=2) pseudo=read geom=check gue
 ss=(read,tcheck) scf=(maxcycle=1)
 ----------------------------------------------------------------------
 -----
 title
 -----
 Structure from the checkpoint file:  "propene.chk"
 Charge =  0 Multiplicity = 1

                         Standard orientation:
 ---------------------------------------------------------------------
 Center     Atomic      Atomic             Coordinates (Angstroms)
 Number     Number       Type             X           Y           Z
 ---------------------------------------------------------------------
      1          6           0        1.288205    0.152169    0.000000
      2          6           0        0.000000    0.471192    0.000000
      3          6           0       -1.134493   -0.504884    0.000000
      4          1           0        2.059749    0.910251    0.000000
      5          1           0        1.617497   -0.880355    0.000000
      6          1           0       -0.276862    1.521647    0.000000
      7          1           0       -1.772629   -0.363826    0.876178
      8          1           0       -0.777400   -1.534749    0.000000
      9          1           0       -1.772629   -0.363826   -0.876178
 ---------------------------------------------------------------------

 SCF Done:  E(RHF) =  -117.689050763     A.U. after    2 cycles

 The electronic state is 1-A'.
 Alpha  occ. eigenvalues --  -11.41100 -11.38007 -11.35783  -1.19642  -0.98994
 Alpha  occ. eigenvalues --   -0.78436  -0.63797  -0.56496  -0.56247  -0.50071
 Alpha  occ. eigenvalues --   -0.46813  -0.34183
 Alpha virt. eigenvalues --    0.03588   0.05681   0.06103   0.06260   0.06692
 Alpha virt. eigenvalues --    0.07024   0.10876   0.12137   0.14326   0.14379
 Alpha virt. eigenvalues --    0.15434   0.15974   0.17301   0.18254   0.18591

 Mulliken charges:
               1
     1  C   -3.042999
     2  C   -0.451982
     3  C   -4.249162
     4  H    1.343077
     5  H    1.419184
     6  H    1.333550
     7  H    1.189776
     8  H    1.268779
     9  H    1.189776
 Sum of Mulliken charges =  -0.00000

 Dipole moment (field-independent basis, Debye):
    X=             -0.3640    Y=              0.0047    Z=             -0.0000  Tot=              0.3640

 Test job not archived.
 1\1\GINC-SE023\SP\RHF\Aug-CC-pVDZ\C3H6\OHZDE\06-Apr-2025\0\\#t hf aug-
 cc-pvdz iop(5/13=1,5/36=2,99/5=2) pseudo=read geom=check guess=(read,t
 check) scf=(maxcycle=1)\\title\\0,1\C,0,1.288205,0.152169,0.\C,0,0.,0.
 471192,0.\C,0,-1.134493,-0.504884,0.\H,0,2.059749,0.910251,0.\H,0,1.61
 7497,-0.880355,0.\H,0,-0.276862,1.521647,0.\H,0,-1.772629,-0.363826,0.
 876178\H,0,-0.7774,-1.534749,0.\H,0,-1.772629,-0.363826,-0.876178\\Ver
 sion=ES64L-G16RevC.01\State=1-A'\HF=-117.6890508\RMSD=4.263e-01\Dipole
 =-0.1432081,0.0018397,0.\Quadrupole=0.6264747,0.7185128,-1.3449875,-0.

 Normal termination of Gaussian 16 at Sun Apr  6 08:30:48 2025.
