 Gaussian 16, Revision C.01,

 ----------------------------------------------------------------------
 #t hf aug-cc-pvdz symm=none int=(grid=ultrafine) guess=(read,tcheck) s
 table=(opt,rrhf)
 ----------------------------------------------------------------------
 -----
 title
 -----
 Symbolic Z-matrix:
 Charge =  0 Multiplicity = 1

 SCF Done:  E(RHF) =  -244.555195591     A.U. after   16 cycles
 Normal termination of Gaussian 16 at Sun Apr  6 08:30:16 2025.
 Gaussian 16:  ES64L-G16RevC.01  3-Jul-2019

 ----------------------------------------------------------------------
 #t hf aug-cc-pvdz iop(5/13=1,5/36=2,99/5=2) pseudo=read geom=check gue
 ss=(read,tcheck) scf=(maxcycle=1)
 ----------------------------------------------------------------------
 -----
 title
 -----
 Structure from the checkpoint file:  "prop-2-enenitrileoxide.chk"
 Charge =  0 Multiplicity = 1

                         Standard orientation:
 ---------------------------------------------------------------------
 Center     Atomic      Atomic             Coordinates (Angstroms)
 Number     Number       Type             X           Y           Z
 ---------------------------------------------------------------------
      1          8           0       -2.423172   -0.167625   -0.000000
      2          7           0       -1.229268    0.011793   -0.000004
      3          6           0       -0.078874    0.155417   -0.000002
      4          6           0        1.300610    0.480348    0.000003
      5          6           0        2.286856   -0.419406    0.000002
      6          1           0        1.529592    1.540379    0.000009
      7          1           0        2.091078   -1.482044   -0.000004
      8          1           0        3.318032   -0.098033    0.000007
 ---------------------------------------------------------------------

 SCF Done:  E(RHF) =  -245.660824804     A.U. after    2 cycles

 The electronic state is 1-A.
 Alpha  occ. eigenvalues --  -21.06686 -15.91852 -11.49833 -11.47336 -11.43671
 Alpha  occ. eigenvalues --   -1.83074  -1.31299  -1.18805  -0.92202  -0.73543
 Alpha  occ. eigenvalues --   -0.65740  -0.62514  -0.62262  -0.58861  -0.55815
 Alpha  occ. eigenvalues --   -0.43685  -0.29596  -0.27761
 Alpha virt. eigenvalues --    0.02305   0.04863   0.05415   0.07482   0.09499
 Alpha virt. eigenvalues --    0.09723   0.10843   0.11472   0.13192   0.13564
 Alpha virt. eigenvalues --    0.14654   0.15161   0.16903   0.17760   0.18541

 Mulliken charges:
               1
     1  O   -2.987943
     2  N    0.921617
     3  C    2.118778
     4  C   -0.764070
     5  C   -3.259678
     6  H    1.224097
     7  H    1.413165
     8  H    1.334034
 Sum of Mulliken charges =   0.00000

 Dipole moment (field-independent basis, Debye):
    X=              1.7520    Y=              0.2165    Z=              0.0000  Tot=              1.7654

 Test job not archived.
 1\1\GINC-SE200\SP\RHF\Aug-CC-pVDZ\C3H3N1O1\OHZDE\06-Apr-2025\0\\#t hf
 aug-cc-pvdz iop(5/13=1,5/36=2,99/5=2) pseudo=read geom=check guess=(re
 ad,tcheck) scf=(maxcycle=1)\\title\\0,1\O,0,-2.423172,-0.167625,0.\N,0
 ,-1.229268,0.011793,-0.000004\C,0,-0.078874,0.155417,-0.000002\C,0,1.3
 0061,0.480348,0.000003\C,0,2.286856,-0.419406,0.000002\H,0,1.529592,1.
 540379,0.000009\H,0,2.091078,-1.482044,-0.000004\H,0,3.318032,-0.09803
 3,0.000007\\Version=ES64L-G16RevC.01\State=1-A\HF=-245.6608248\RMSD=3.
 656e-01\Dipole=0.6893071,0.0851772,0.0000035\Quadrupole=1.0174852,0.97

 Normal termination of Gaussian 16 at Sun Apr  6 08:30:49 2025.
