 Gaussian 16, Revision C.01,

 ----------------------------------------------------------------------
 #t hf aug-cc-pvdz symm=none int=(grid=ultrafine) guess=(read,tcheck) s
 table=(opt,rrhf)
 ----------------------------------------------------------------------
 -----
 title
 -----
 Symbolic Z-matrix:
 Charge =  0 Multiplicity = 1

 SCF Done:  E(RHF) =  -264.465779756     A.U. after   15 cycles
 Normal termination of Gaussian 16 at Sun Apr  6 08:30:23 2025.
 Gaussian 16:  ES64L-G16RevC.01  3-Jul-2019

 ----------------------------------------------------------------------
 #t hf aug-cc-pvdz iop(5/13=1,5/36=2,99/5=2) pseudo=read geom=check gue
 ss=(read,tcheck) scf=(maxcycle=1)
 ----------------------------------------------------------------------
 -----
 title
 -----
 Structure from the checkpoint file:  "propiolic_acid.chk"
 Charge =  0 Multiplicity = 1

                         Standard orientation:
 ---------------------------------------------------------------------
 Center     Atomic      Atomic             Coordinates (Angstroms)
 Number     Number       Type             X           Y           Z
 ---------------------------------------------------------------------
      1          8           0       -1.140757    1.067901   -0.000039
      2          8           0       -1.122638   -1.159311   -0.000036
      3          6           0       -0.509953   -0.131001   -0.000019
      4          6           0        0.939527   -0.050347    0.000023
      5          6           0        2.137587    0.000371    0.000080
      6          1           0       -0.495557    1.786680   -0.000024
      7          1           0        3.199749    0.030461    0.000128
 ---------------------------------------------------------------------

 SCF Done:  E(RHF) =  -265.581524966     A.U. after    2 cycles

 The electronic state is 1-A.
 Alpha  occ. eigenvalues --  -21.14218 -21.07359 -11.56981 -11.46564 -11.44224
 Alpha  occ. eigenvalues --   -1.84263  -1.67438  -1.15807  -0.93605  -0.77376
 Alpha  occ. eigenvalues --   -0.72237  -0.58698  -0.57108  -0.50210  -0.41612
 Alpha  occ. eigenvalues --   -0.41164  -0.34994  -0.32716
 Alpha virt. eigenvalues --    0.02334   0.04735   0.09107   0.09269   0.09708
 Alpha virt. eigenvalues --    0.10630   0.12437   0.12880   0.13094   0.14382
 Alpha virt. eigenvalues --    0.14892   0.16876   0.18224   0.20164   0.21994

 Mulliken charges:
               1
     1  O   -2.768062
     2  O   -2.919134
     3  C    5.075330
     4  C    1.385241
     5  C   -2.639756
     6  H    1.041615
     7  H    0.824766
 Sum of Mulliken charges =   0.00000

 Dipole moment (field-independent basis, Debye):
    X=              2.0297    Y=              1.6645    Z=              0.0001  Tot=              2.6250

 Test job not archived.
 1\1\GINC-SE009\SP\RHF\Aug-CC-pVDZ\C3H2O2\OHZDE\06-Apr-2025\0\\#t hf au
 g-cc-pvdz iop(5/13=1,5/36=2,99/5=2) pseudo=read geom=check guess=(read
 ,tcheck) scf=(maxcycle=1)\\title\\0,1\O,0,-1.140757,1.067901,-0.000039
 \O,0,-1.122638,-1.159311,-0.000036\C,0,-0.509953,-0.131001,-0.000019\C
 ,0,0.939527,-0.050347,0.000023\C,0,2.137587,0.000371,0.00008\H,0,-0.49
 5557,1.78668,-0.000024\H,0,3.199749,0.030461,0.000128\\Version=ES64L-G
 16RevC.01\State=1-A\HF=-265.581525\RMSD=7.664e-01\Dipole=0.7985535,0.6
 548788,0.0000318\Quadrupole=2.4247358,-0.777998,-1.6467378,-0.462291,0

 Normal termination of Gaussian 16 at Sun Apr  6 08:30:48 2025.
