 Gaussian 16, Revision C.01,

 ----------------------------------------------------------------------
 #t hf aug-cc-pvdz symm=none int=(grid=ultrafine) guess=(read,tcheck) s
 table=(opt,rrhf)
 ----------------------------------------------------------------------
 -----
 title
 -----
 Symbolic Z-matrix:
 Charge =  0 Multiplicity = 1

 SCF Done:  E(RHF) =  -345.458398337     A.U. after   16 cycles
 Normal termination of Gaussian 16 at Sun Apr  6 08:31:21 2025.
 Gaussian 16:  ES64L-G16RevC.01  3-Jul-2019

 ----------------------------------------------------------------------
 #t hf aug-cc-pvdz iop(5/13=1,5/36=2,99/5=2) pseudo=read geom=check gue
 ss=(read,tcheck) scf=(maxcycle=1)
 ----------------------------------------------------------------------
 -----
 title
 -----
 Structure from the checkpoint file:  "prop-1-ynylbenzene.chk"
 Charge =  0 Multiplicity = 1

                         Standard orientation:
 ---------------------------------------------------------------------
 Center     Atomic      Atomic             Coordinates (Angstroms)
 Number     Number       Type             X           Y           Z
 ---------------------------------------------------------------------
      1          6           0       -1.391545    0.000201   -0.000002
      2          6           0       -2.595600    0.000392   -0.000004
      3          6           0        2.836362   -0.000147    0.000002
      4          6           0        2.137248    1.202242    0.000001
      5          6           0        2.137077   -1.202403    0.000001
      6          6           0        0.750328    1.206082   -0.000001
      7          6           0        0.750116   -1.206050   -0.000001
      8          6           0        0.034638    0.000067   -0.000002
      9          6           0       -4.050167   -0.000024    0.000003
     10          1           0        3.918041   -0.000216    0.000003
     11          1           0        2.674572    2.141336    0.000001
     12          1           0        2.674269   -2.141571    0.000002
     13          1           0        0.206696    2.140516   -0.000001
     14          1           0        0.206275   -2.140361   -0.000001
     15          1           0       -4.443661   -0.509666    0.881896
     16          1           0       -4.443259    1.018099   -0.000365
     17          1           0       -4.443669   -0.510309   -0.881514
 ---------------------------------------------------------------------

 SCF Done:  E(RHF) =  -347.125772273     A.U. after    2 cycles

 The electronic state is 1-A.
 Alpha  occ. eigenvalues --  -11.52601 -11.45060 -11.44544 -11.43272 -11.41563
 Alpha  occ. eigenvalues --  -11.40482 -11.39856 -11.39148 -11.36785  -1.35610
 Alpha  occ. eigenvalues --   -1.18161  -1.11016  -1.09388  -0.98714  -0.86800
 Alpha  occ. eigenvalues --   -0.86414  -0.73617  -0.68033  -0.62128  -0.59016
 Alpha  occ. eigenvalues --   -0.58506  -0.58313  -0.57144  -0.56986  -0.51451
 Alpha  occ. eigenvalues --   -0.45856  -0.45378  -0.40321  -0.34964  -0.33165
 Alpha  occ. eigenvalues --   -0.29080
 Alpha virt. eigenvalues --    0.02927   0.04459   0.05229   0.05568   0.06595
 Alpha virt. eigenvalues --    0.06807   0.06960   0.07273   0.09408   0.10254
 Alpha virt. eigenvalues --    0.10411   0.11435   0.12536   0.13495   0.13521

 Mulliken charges:
               1
     1  C    1.867322
     2  C    2.634204
     3  C   -2.255915
     4  C   -2.419468
     5  C   -2.273505
     6  C   -3.463723
     7  C   -3.321379
     8  C    4.663128
     9  C   -5.489098
    10  H    1.535276
    11  H    1.480000
    12  H    1.477271
    13  H    1.516827
    14  H    1.512780
    15  H    0.855302
    16  H    0.825729
    17  H    0.855249
 Sum of Mulliken charges =  -0.00000

 Dipole moment (field-independent basis, Debye):
    X=             -0.3824    Y=             -0.0023    Z=              0.0000  Tot=              0.3824

 Test job not archived.
 1\1\GINC-SE165\SP\RHF\Aug-CC-pVDZ\C9H8\OHZDE\06-Apr-2025\0\\#t hf aug-
 cc-pvdz iop(5/13=1,5/36=2,99/5=2) pseudo=read geom=check guess=(read,t
 check) scf=(maxcycle=1)\\title\\0,1\C,0,-1.391545,0.000201,-0.000002\C
 ,0,-2.5956,0.000392,-0.000004\C,0,2.836362,-0.000147,0.000002\C,0,2.13
 7248,1.202242,0.000001\C,0,2.137077,-1.202403,0.000001\C,0,0.750328,1.
 206082,-0.000001\C,0,0.750116,-1.20605,-0.000001\C,0,0.034638,0.000067
 ,-0.000002\C,0,-4.050167,-0.000024,0.000003\H,0,3.918041,-0.000216,0.0
 00003\H,0,2.674572,2.141336,0.000001\H,0,2.674269,-2.141571,0.000002\H

 Normal termination of Gaussian 16 at Sun Apr  6 08:31:37 2025.
