 Gaussian 16, Revision C.01,

 ----------------------------------------------------------------------
 #t hf aug-cc-pvdz symm=none int=(grid=ultrafine) guess=(read,tcheck) s
 table=(opt,rrhf)
 ----------------------------------------------------------------------
 -----
 title
 -----
 Symbolic Z-matrix:
 Charge =  0 Multiplicity = 1

 SCF Done:  E(RHF) =  -265.617068022     A.U. after   14 cycles
 Normal termination of Gaussian 16 at Sun Apr  6 08:29:05 2025.
 Gaussian 16:  ES64L-G16RevC.01  3-Jul-2019

 ----------------------------------------------------------------------
 #t hf aug-cc-pvdz iop(5/13=1,5/36=2,99/5=2) pseudo=read geom=check gue
 ss=(read,tcheck) scf=(maxcycle=1)
 ----------------------------------------------------------------------
 -----
 title
 -----
 Structure from the checkpoint file:  "prop-2-yne-1-1-diol.chk"
 Charge =  0 Multiplicity = 1

                         Standard orientation:
 ---------------------------------------------------------------------
 Center     Atomic      Atomic             Coordinates (Angstroms)
 Number     Number       Type             X           Y           Z
 ---------------------------------------------------------------------
      1          8           0       -1.069401   -1.177081   -0.114653
      2          8           0       -1.069399    1.177108   -0.114381
      3          6           0       -0.471048   -0.000047    0.382369
      4          6           0        0.979054   -0.000017    0.143241
      5          6           0        2.155246    0.000008   -0.089537
      6          1           0       -0.691133   -1.390931   -0.974818
      7          1           0       -0.691105    1.391185   -0.974478
      8          1           0       -0.685912   -0.000169    1.449763
      9          1           0        3.199039    0.000030   -0.284622
 ---------------------------------------------------------------------

 SCF Done:  E(RHF) =  -266.771639645     A.U. after    2 cycles

 The electronic state is 1-A.
 Alpha  occ. eigenvalues --  -21.08932 -21.08835 -11.51890 -11.43281 -11.41617
 Alpha  occ. eigenvalues --   -1.79615  -1.66481  -1.13796  -0.97223  -0.78439
 Alpha  occ. eigenvalues --   -0.69061  -0.63214  -0.62753  -0.49113  -0.46213
 Alpha  occ. eigenvalues --   -0.40739  -0.37343  -0.35456  -0.31386
 Alpha virt. eigenvalues --    0.02930   0.04871   0.06380   0.06391   0.09679
 Alpha virt. eigenvalues --    0.10701   0.11061   0.12526   0.12862   0.14520
 Alpha virt. eigenvalues --    0.15116   0.15352   0.17216   0.17579   0.20473

 Mulliken charges:
               1
     1  O   -2.649900
     2  O   -2.649894
     3  C    2.276309
     4  C    2.907544
     5  C   -3.447660
     6  H    0.719441
     7  H    0.719453
     8  H    1.325244
     9  H    0.799463
 Sum of Mulliken charges =   0.00000

 Dipole moment (field-independent basis, Debye):
    X=              0.9805    Y=              0.0001    Z=             -0.6841  Tot=              1.1956

 Test job not archived.
 1\1\GINC-SE041\SP\RHF\Aug-CC-pVDZ\C3H4O2\OHZDE\06-Apr-2025\0\\#t hf au
 g-cc-pvdz iop(5/13=1,5/36=2,99/5=2) pseudo=read geom=check guess=(read
 ,tcheck) scf=(maxcycle=1)\\title\\0,1\O,0,-1.069401,-1.177081,-0.11465
 3\O,0,-1.069399,1.177108,-0.114381\C,0,-0.471048,-0.000047,0.382369\C,
 0,0.979054,-0.000017,0.143241\C,0,2.155246,0.000008,-0.089537\H,0,-0.6
 91133,-1.390931,-0.974818\H,0,-0.691105,1.391185,-0.974478\H,0,-0.6859
 12,-0.000169,1.449763\H,0,3.199039,0.00003,-0.284622\\Version=ES64L-G1
 6RevC.01\State=1-A\HF=-266.7716396\RMSD=9.199e-01\Dipole=0.385777,0.00

 Normal termination of Gaussian 16 at Sun Apr  6 08:30:11 2025.
