 Gaussian 16, Revision C.01,

 ----------------------------------------------------------------------
 #t hf aug-cc-pvdz symm=none int=(grid=ultrafine) guess=(read,tcheck) s
 table=(opt,rrhf)
 ----------------------------------------------------------------------
 -----
 title
 -----
 Symbolic Z-matrix:
 Charge =  0 Multiplicity = 1

 SCF Done:  E(RHF) =  -118.276328973     A.U. after   10 cycles
 Normal termination of Gaussian 16 at Sun Apr  6 08:29:02 2025.
 Gaussian 16:  ES64L-G16RevC.01  3-Jul-2019

 ----------------------------------------------------------------------
 #t hf aug-cc-pvdz iop(5/13=1,5/36=2,99/5=2) pseudo=read geom=check gue
 ss=(read,tcheck) scf=(maxcycle=1)
 ----------------------------------------------------------------------
 -----
 title
 -----
 Structure from the checkpoint file:  "propane.chk"
 Charge =  0 Multiplicity = 1

                         Standard orientation:
 ---------------------------------------------------------------------
 Center     Atomic      Atomic             Coordinates (Angstroms)
 Number     Number       Type             X           Y           Z
 ---------------------------------------------------------------------
      1          6           0        0.000000   -0.000000    0.584601
      2          6           0        0.000000    1.273888   -0.259060
      3          6           0       -0.000000   -1.273888   -0.259060
      4          1           0        0.880629    1.318580   -0.903482
      5          1           0       -0.880629    1.318580   -0.903482
      6          1           0       -0.880629   -1.318580   -0.903482
      7          1           0        0.000000    2.168536    0.365318
      8          1           0        0.880629   -1.318580   -0.903482
      9          1           0       -0.000000   -2.168536    0.365318
     10          1           0        0.873365   -0.000000    1.242204
     11          1           0       -0.873365    0.000000    1.242204
 ---------------------------------------------------------------------

 SCF Done:  E(RHF) =  -118.915976362     A.U. after    2 cycles

 The electronic state is 1-A1.
 Alpha  occ. eigenvalues --  -11.39725 -11.36813 -11.33856  -1.20005  -0.99067
 Alpha  occ. eigenvalues --   -0.83533  -0.62488  -0.59564  -0.54271  -0.52465
 Alpha  occ. eigenvalues --   -0.45496  -0.45437  -0.44440
 Alpha virt. eigenvalues --    0.03895   0.05553   0.06027   0.06354   0.06654
 Alpha virt. eigenvalues --    0.06717   0.06942   0.07669   0.11408   0.13929
 Alpha virt. eigenvalues --    0.14885   0.15797   0.15836   0.16996   0.18248

 Mulliken charges:
               1
     1  C   -3.206707
     2  C   -3.527671
     3  C   -3.527671
     4  H    1.287026
     5  H    1.287026
     6  H    1.287026
     7  H    1.191152
     8  H    1.287026
     9  H    1.191152
    10  H    1.365819
    11  H    1.365819
 Sum of Mulliken charges =  -0.00000

 Dipole moment (field-independent basis, Debye):
    X=             -0.0000    Y=             -0.0000    Z=              0.1415  Tot=              0.1415

 Test job not archived.
 1\1\GINC-SE146\SP\RHF\Aug-CC-pVDZ\C3H8\OHZDE\06-Apr-2025\0\\#t hf aug-
 cc-pvdz iop(5/13=1,5/36=2,99/5=2) pseudo=read geom=check guess=(read,t
 check) scf=(maxcycle=1)\\title\\0,1\C,0,0.,0.,0.584601\C,0,0.,1.273888
 ,-0.25906\C,0,0.,-1.273888,-0.25906\H,0,0.880629,1.31858,-0.903482\H,0
 ,-0.880629,1.31858,-0.903482\H,0,-0.880629,-1.31858,-0.903482\H,0,0.,2
 .168536,0.365318\H,0,0.880629,-1.31858,-0.903482\H,0,0.,-2.168536,0.36
 5318\H,0,0.873365,0.,1.242204\H,0,-0.873365,0.,1.242204\\Version=ES64L
 -G16RevC.01\State=1-A1\HF=-118.9159764\RMSD=2.462e-01\Dipole=0.,0.,0.0

 Normal termination of Gaussian 16 at Sun Apr  6 08:30:10 2025.
