 Gaussian 16, Revision C.01,

 ----------------------------------------------------------------------
 #t hf aug-cc-pvdz symm=none int=(grid=ultrafine) guess=(read,tcheck) s
 table=(opt,rrhf)
 ----------------------------------------------------------------------
 -----
 title
 -----
 Symbolic Z-matrix:
 Charge =  0 Multiplicity = 1

 SCF Done:  E(RHF) =  -265.673682803     A.U. after   15 cycles
 Normal termination of Gaussian 16 at Sun Apr  6 08:29:04 2025.
 Gaussian 16:  ES64L-G16RevC.01  3-Jul-2019

 ----------------------------------------------------------------------
 #t hf aug-cc-pvdz iop(5/13=1,5/36=2,99/5=2) pseudo=read geom=check gue
 ss=(read,tcheck) scf=(maxcycle=1)
 ----------------------------------------------------------------------
 -----
 title
 -----
 Structure from the checkpoint file:  "propenalol.chk"
 Charge =  0 Multiplicity = 1

                         Standard orientation:
 ---------------------------------------------------------------------
 Center     Atomic      Atomic             Coordinates (Angstroms)
 Number     Number       Type             X           Y           Z
 ---------------------------------------------------------------------
      1          6           0        0.000000    1.096648    0.000000
      2          6           0        1.231022    0.361916    0.000000
      3          6           0       -1.183818    0.424873    0.000000
      4          8           0        1.286331   -0.874778    0.000000
      5          8           0       -1.283038   -0.888616    0.000000
      6          1           0       -0.346283   -1.239665    0.000000
      7          1           0        0.009428    2.175177    0.000000
      8          1           0        2.168876    0.938076    0.000000
      9          1           0       -2.141591    0.932940    0.000000
 ---------------------------------------------------------------------

 SCF Done:  E(RHF) =  -266.822905140     A.U. after    2 cycles

 The electronic state is 1-A'.
 Alpha  occ. eigenvalues --  -21.11123 -21.05758 -11.49825 -11.49338 -11.38981
 Alpha  occ. eigenvalues --   -1.79273  -1.70222  -1.16054  -0.93047  -0.81782
 Alpha  occ. eigenvalues --   -0.70409  -0.61235  -0.58461  -0.54137  -0.52618
 Alpha  occ. eigenvalues --   -0.45813  -0.44378  -0.29602  -0.29119
 Alpha virt. eigenvalues --    0.03152   0.04865   0.05265   0.07838   0.09042
 Alpha virt. eigenvalues --    0.11286   0.11795   0.12398   0.13435   0.13839
 Alpha virt. eigenvalues --    0.13997   0.14531   0.15497   0.15965   0.17271

 Mulliken charges:
               1
     1  C   -1.568787
     2  C    1.074623
     3  C    1.056812
     4  O   -2.953621
     5  O   -3.292388
     6  H    1.097261
     7  H    1.423307
     8  H    1.558901
     9  H    1.603891
 Sum of Mulliken charges =   0.00000

 Dipole moment (field-independent basis, Debye):
    X=             -1.0536    Y=              0.7328    Z=              0.0000  Tot=              1.2834

 Test job not archived.
 1\1\GINC-SE013\SP\RHF\Aug-CC-pVDZ\C3H4O2\OHZDE\06-Apr-2025\0\\#t hf au
 g-cc-pvdz iop(5/13=1,5/36=2,99/5=2) pseudo=read geom=check guess=(read
 ,tcheck) scf=(maxcycle=1)\\title\\0,1\C,0,0.,1.096648,0.\C,0,1.231022,
 0.361916,0.\C,0,-1.183818,0.424873,0.\O,0,1.286331,-0.874778,0.\O,0,-1
 .283038,-0.888616,0.\H,0,-0.346283,-1.239665,0.\H,0,0.009428,2.175177,
 0.\H,0,2.168876,0.938076,0.\H,0,-2.141591,0.93294,0.\\Version=ES64L-G1
 6RevC.01\State=1-A'\HF=-266.8229051\RMSD=5.554e-01\Dipole=-0.4145091,0
 .2883087,0.\Quadrupole=0.8896738,0.4080803,-1.2977541,0.2435506,0.,0.\

 Normal termination of Gaussian 16 at Sun Apr  6 08:30:11 2025.
