 Gaussian 16, Revision C.01,

 ----------------------------------------------------------------------
 #t hf aug-cc-pvdz symm=none int=(grid=ultrafine) guess=(read,tcheck) s
 table=(opt,rrhf)
 ----------------------------------------------------------------------
 -----
 title
 -----
 Symbolic Z-matrix:
 Charge =  0 Multiplicity = 1

 SCF Done:  E(RHF) =  -266.887531638     A.U. after   13 cycles
 Normal termination of Gaussian 16 at Sun Apr  6 08:30:17 2025.
 Gaussian 16:  ES64L-G16RevC.01  3-Jul-2019

 ----------------------------------------------------------------------
 #t hf aug-cc-pvdz iop(5/13=1,5/36=2,99/5=2) pseudo=read geom=check gue
 ss=(read,tcheck) scf=(maxcycle=1)
 ----------------------------------------------------------------------
 -----
 title
 -----
 Structure from the checkpoint file:  "propanoic_acid.chk"
 Charge =  0 Multiplicity = 1

                         Standard orientation:
 ---------------------------------------------------------------------
 Center     Atomic      Atomic             Coordinates (Angstroms)
 Number     Number       Type             X           Y           Z
 ---------------------------------------------------------------------
      1          1           0       -1.766142   -0.526208   -1.297472
      2          6           0       -1.849296    0.110726   -0.416946
      3          6           0       -0.795460   -0.266086    0.634887
      4          6           0        0.604920   -0.137267    0.093049
      5          8           0        1.306287   -1.044919   -0.274495
      6          8           0        1.008287    1.158088    0.032116
      7          1           0       -2.849620   -0.014338   -0.003869
      8          1           0       -1.738498    1.147718   -0.730793
      9          1           0       -0.895780    0.381920    1.506215
     10          1           0        1.897322    1.160106   -0.352283
     11          1           0       -0.924854   -1.298789    0.951287
 ---------------------------------------------------------------------

 SCF Done:  E(RHF) =  -268.067566287     A.U. after    2 cycles

 The electronic state is 1-A.
 Alpha  occ. eigenvalues --  -21.12086 -21.05269 -11.52209 -11.42137 -11.37616
 Alpha  occ. eigenvalues --   -1.82575  -1.65083  -1.19231  -0.95638  -0.79169
 Alpha  occ. eigenvalues --   -0.65998  -0.62425  -0.58537  -0.57703  -0.53769
 Alpha  occ. eigenvalues --   -0.49938  -0.47847  -0.44854  -0.33850  -0.29370
 Alpha virt. eigenvalues --    0.03517   0.05276   0.05856   0.06222   0.06519
 Alpha virt. eigenvalues --    0.06896   0.10912   0.11001   0.12013   0.13242
 Alpha virt. eigenvalues --    0.13569   0.15332   0.16013   0.17566   0.18296

 Mulliken charges:
               1
     1  H    1.314064
     2  C   -3.788754
     3  C   -3.590687
     4  C    6.002008
     5  O   -3.097535
     6  O   -2.895629
     7  H    1.159912
     8  H    1.315710
     9  H    1.441385
    10  H    0.837122
    11  H    1.302405
 Sum of Mulliken charges =  -0.00000

 Dipole moment (field-independent basis, Debye):
    X=             -0.9150    Y=              1.0581    Z=              0.2980  Tot=              1.4303

 Test job not archived.
 1\1\GINC-SE209\SP\RHF\Aug-CC-pVDZ\C3H6O2\OHZDE\06-Apr-2025\0\\#t hf au
 g-cc-pvdz iop(5/13=1,5/36=2,99/5=2) pseudo=read geom=check guess=(read
 ,tcheck) scf=(maxcycle=1)\\title\\0,1\H,0,-1.766142,-0.526208,-1.29747
 2\C,0,-1.849296,0.110726,-0.416946\C,0,-0.79546,-0.266086,0.634887\C,0
 ,0.60492,-0.137267,0.093049\O,0,1.306287,-1.044919,-0.274495\O,0,1.008
 287,1.158088,0.032116\H,0,-2.84962,-0.014338,-0.003869\H,0,-1.738498,1
 .147718,-0.730793\H,0,-0.89578,0.38192,1.506215\H,0,1.897322,1.160106,
 -0.352283\H,0,-0.924854,-1.298789,0.951287\\Version=ES64L-G16RevC.01\S

 Normal termination of Gaussian 16 at Sun Apr  6 08:30:49 2025.
