 Gaussian 16, Revision C.01,

 ----------------------------------------------------------------------
 #t hf aug-cc-pvdz symm=none int=(grid=ultrafine) guess=(read,tcheck) s
 table=(opt,rrhf)
 ----------------------------------------------------------------------
 -----
 title
 -----
 Symbolic Z-matrix:
 Charge =  0 Multiplicity = 1

 SCF Done:  E(RHF) =  -247.051863441     A.U. after   13 cycles
 Normal termination of Gaussian 16 at Sun Apr  6 08:29:07 2025.
 Gaussian 16:  ES64L-G16RevC.01  3-Jul-2019

 ----------------------------------------------------------------------
 #t hf aug-cc-pvdz iop(5/13=1,5/36=2,99/5=2) pseudo=read geom=check gue
 ss=(read,tcheck) scf=(maxcycle=1)
 ----------------------------------------------------------------------
 -----
 title
 -----
 Structure from the checkpoint file:  "propanamide.chk"
 Charge =  0 Multiplicity = 1

                         Standard orientation:
 ---------------------------------------------------------------------
 Center     Atomic      Atomic             Coordinates (Angstroms)
 Number     Number       Type             X           Y           Z
 ---------------------------------------------------------------------
      1          1           0       -2.592675   -0.045641   -0.145798
      2          1           0       -1.757839   -1.561246   -0.123394
      3          7           0       -1.728931   -0.558727   -0.107702
      4          8           0       -0.540022    1.352356    0.063774
      5          6           0       -0.562261    0.136158    0.032402
      6          1           0        0.704554   -1.095974    1.200102
      7          1           0        0.596109   -1.605295   -0.469148
      8          6           0        0.688051   -0.724248    0.170792
      9          1           0        2.841756   -0.595111    0.039596
     10          1           0        1.993138    0.372041   -1.170851
     11          1           0        2.052216    0.921934    0.496008
     12          6           0        1.971783    0.038345   -0.133659
 ---------------------------------------------------------------------

 SCF Done:  E(RHF) =  -248.196012369     A.U. after    2 cycles

 The electronic state is 1-A.
 Alpha  occ. eigenvalues --  -21.01844 -15.77554 -11.49874 -11.41064 -11.36248
 Alpha  occ. eigenvalues --   -1.69913  -1.34476  -1.16841  -0.94394  -0.78586
 Alpha  occ. eigenvalues --   -0.70838  -0.64734  -0.63218  -0.53108  -0.52845
 Alpha  occ. eigenvalues --   -0.49120  -0.47026  -0.46171  -0.32203  -0.28316
 Alpha virt. eigenvalues --    0.03320   0.04711   0.05482   0.05926   0.06567
 Alpha virt. eigenvalues --    0.06938   0.07768   0.11441   0.12228   0.12777
 Alpha virt. eigenvalues --    0.13554   0.14441   0.15430   0.16733   0.17591

 Mulliken charges:
               1
     1  H    0.742816
     2  H    0.780592
     3  N   -3.018214
     4  O   -3.116501
     5  C    4.973956
     6  H    1.420674
     7  H    1.433740
     8  C   -3.391931
     9  H    1.098160
    10  H    1.229543
    11  H    1.280637
    12  C   -3.433472
 Sum of Mulliken charges =  -0.00000

 Dipole moment (field-independent basis, Debye):
    X=             -0.6525    Y=             -2.3220    Z=             -0.0382  Tot=              2.4123

 Test job not archived.
 1\1\GINC-SE106\SP\RHF\Aug-CC-pVDZ\C3H7N1O1\OHZDE\06-Apr-2025\0\\#t hf
 aug-cc-pvdz iop(5/13=1,5/36=2,99/5=2) pseudo=read geom=check guess=(re
 ad,tcheck) scf=(maxcycle=1)\\title\\0,1\H,0,-2.592675,-0.045641,-0.145
 798\H,0,-1.757839,-1.561246,-0.123394\N,0,-1.728931,-0.558727,-0.10770
 2\O,0,-0.540022,1.352356,0.063774\C,0,-0.562261,0.136158,0.032402\H,0,
 0.704554,-1.095974,1.200102\H,0,0.596109,-1.605295,-0.469148\C,0,0.688
 051,-0.724248,0.170792\H,0,2.841756,-0.595111,0.039596\H,0,1.993138,0.
 372041,-1.170851\H,0,2.052216,0.921934,0.496008\C,0,1.971783,0.038345,

 Normal termination of Gaussian 16 at Sun Apr  6 08:30:11 2025.
