 Gaussian 16, Revision C.01,

 ----------------------------------------------------------------------
 #t hf aug-cc-pvdz symm=none int=(grid=ultrafine) guess=(read,tcheck) s
 table=(opt,rrhf)
 ----------------------------------------------------------------------
 -----
 title
 -----
 Symbolic Z-matrix:
 Charge =  0 Multiplicity = 1

 SCF Done:  E(RHF) =  -447.372882940     A.U. after   13 cycles
 Normal termination of Gaussian 16 at Sun Apr  6 08:31:44 2025.
 Gaussian 16:  ES64L-G16RevC.01  3-Jul-2019

 ----------------------------------------------------------------------
 #t hf aug-cc-pvdz iop(5/13=1,5/36=2,99/5=2) pseudo=read geom=check gue
 ss=(read,tcheck) scf=(maxcycle=1)
 ----------------------------------------------------------------------
 -----
 title
 -----
 Structure from the checkpoint file:  "pyrazino2-3-bpyrazine.chk"
 Charge =  0 Multiplicity = 1

                         Standard orientation:
 ---------------------------------------------------------------------
 Center     Atomic      Atomic             Coordinates (Angstroms)
 Number     Number       Type             X           Y           Z
 ---------------------------------------------------------------------
      1          6           0        0.000000    0.000000    0.712293
      2          7           0        0.000000    1.158741    1.413954
      3          7           0       -0.000000   -1.158741    1.413954
      4          6           0        0.000000   -2.261085    0.709672
      5          6           0        0.000000    2.261085    0.709672
      6          6           0        0.000000   -2.261085   -0.709672
      7          7           0       -0.000000   -1.158741   -1.413954
      8          6           0        0.000000    0.000000   -0.712293
      9          7           0        0.000000    1.158741   -1.413954
     10          6           0        0.000000    2.261085   -0.709672
     11          1           0        0.000000    3.201418   -1.250194
     12          1           0       -0.000000   -3.201418    1.250194
     13          1           0       -0.000000    3.201418    1.250194
     14          1           0       -0.000000   -3.201418   -1.250194
 ---------------------------------------------------------------------

 SCF Done:  E(RHF) =  -449.385701245     A.U. after    2 cycles

 The electronic state is 1-AG.
 Alpha  occ. eigenvalues --  -15.77633 -15.77386 -15.77366 -15.77340 -11.52468
 Alpha  occ. eigenvalues --  -11.48961 -11.48570 -11.43337 -11.42979 -11.42173
 Alpha  occ. eigenvalues --   -1.58266  -1.43781  -1.40320  -1.30272  -1.15316
 Alpha  occ. eigenvalues --   -0.99428  -0.95985  -0.91736  -0.79034  -0.73774
 Alpha  occ. eigenvalues --   -0.72589  -0.64284  -0.63611  -0.61877  -0.60920
 Alpha  occ. eigenvalues --   -0.52405  -0.51550  -0.49737  -0.48805  -0.44966
 Alpha  occ. eigenvalues --   -0.40494  -0.37404  -0.35148  -0.32395
 Alpha virt. eigenvalues --    0.02972   0.04853   0.04939   0.05022   0.05902
 Alpha virt. eigenvalues --    0.08704   0.09366   0.10567   0.10713   0.10861
 Alpha virt. eigenvalues --    0.11504   0.11870   0.12244   0.12465   0.13183

 Mulliken charges:
               1
     1  C    4.923286
     2  N   -4.097697
     3  N   -4.097697
     4  C   -0.021086
     5  C   -0.021086
     6  C   -0.021086
     7  N   -4.097697
     8  C    4.923286
     9  N   -4.097697
    10  C   -0.021086
    11  H    1.657140
    12  H    1.657140
    13  H    1.657140
    14  H    1.657140
 Sum of Mulliken charges =  -0.00000

 Dipole moment (field-independent basis, Debye):
    X=             -0.0000    Y=              0.0000    Z=              0.0000  Tot=              0.0000

 Test job not archived.
 1\1\GINC-SE146\SP\RHF\Aug-CC-pVDZ\C6H4N4\OHZDE\06-Apr-2025\0\\#t hf au
 g-cc-pvdz iop(5/13=1,5/36=2,99/5=2) pseudo=read geom=check guess=(read
 ,tcheck) scf=(maxcycle=1)\\title\\0,1\C,0,0.,0.,0.712293\N,0,0.,1.1587
 41,1.413954\N,0,0.,-1.158741,1.413954\C,0,0.,-2.261085,0.709672\C,0,0.
 ,2.261085,0.709672\C,0,0.,-2.261085,-0.709672\N,0,0.,-1.158741,-1.4139
 54\C,0,0.,0.,-0.712293\N,0,0.,1.158741,-1.413954\C,0,0.,2.261085,-0.70
 9672\H,0,0.,3.201418,-1.250194\H,0,0.,-3.201418,1.250194\H,0,0.,3.2014
 18,1.250194\H,0,0.,-3.201418,-1.250194\\Version=ES64L-G16RevC.01\State

 Normal termination of Gaussian 16 at Sun Apr  6 08:32:39 2025.
