 Gaussian 16, Revision C.01,

 ----------------------------------------------------------------------
 #t hf aug-cc-pvdz symm=none int=(grid=ultrafine) guess=(read,tcheck) s
 table=(opt,rrhf)
 ----------------------------------------------------------------------
 -----
 title
 -----
 Symbolic Z-matrix:
 Charge =  0 Multiplicity = 1

 SCF Done:  E(RHF) =  -450.363166448     A.U. after   16 cycles
 Normal termination of Gaussian 16 at Sun Apr  6 08:31:40 2025.
 Gaussian 16:  ES64L-G16RevC.01  3-Jul-2019

 ----------------------------------------------------------------------
 #t hf aug-cc-pvdz iop(5/13=1,5/36=2,99/5=2) pseudo=read geom=check gue
 ss=(read,tcheck) scf=(maxcycle=1)
 ----------------------------------------------------------------------
 -----
 title
 -----
 Structure from the checkpoint file:  "pyrazine-2-carboxylic_acid.chk"
 Charge =  0 Multiplicity = 1

                         Standard orientation:
 ---------------------------------------------------------------------
 Center     Atomic      Atomic             Coordinates (Angstroms)
 Number     Number       Type             X           Y           Z
 ---------------------------------------------------------------------
      1          6           0        0.136654   -2.474879    0.000000
      2          6           0       -1.086112   -1.807655    0.000000
      3          6           0        1.225830   -0.491904    0.000000
      4          6           0       -0.000000    0.176466   -0.000000
      5          6           0       -0.001609    1.673965   -0.000000
      6          7           0        1.295697   -1.820585    0.000000
      7          7           0       -1.158456   -0.482162   -0.000000
      8          8           0        1.008914    2.334974   -0.000000
      9          8           0       -1.233925    2.207653   -0.000000
     10          1           0        0.179101   -3.557509    0.000000
     11          1           0       -2.020705   -2.355521    0.000000
     12          1           0        2.152353    0.065709    0.000000
     13          1           0       -1.119932    3.169586   -0.000000
 ---------------------------------------------------------------------

 SCF Done:  E(RHF) =  -452.313124506     A.U. after    2 cycles

 The electronic state is 1-A'.
 Alpha  occ. eigenvalues --  -21.13218 -21.06477 -15.78458 -15.77704 -11.55054
 Alpha  occ. eigenvalues --  -11.49717 -11.48378 -11.43095 -11.42232  -1.84167
 Alpha  occ. eigenvalues --   -1.66668  -1.52668  -1.35244  -1.16975  -0.98729
 Alpha  occ. eigenvalues --   -0.94742  -0.83957  -0.73884  -0.68169  -0.66328
 Alpha  occ. eigenvalues --   -0.62910  -0.61738  -0.60012  -0.55030  -0.54125
 Alpha  occ. eigenvalues --   -0.48133  -0.46072  -0.43148  -0.37508  -0.36329
 Alpha  occ. eigenvalues --   -0.33935  -0.30881
 Alpha virt. eigenvalues --    0.03065   0.05058   0.05341   0.06600   0.07551
 Alpha virt. eigenvalues --    0.09260   0.09536   0.10415   0.10495   0.10997
 Alpha virt. eigenvalues --    0.11932   0.12272   0.12968   0.13671   0.14216

 Mulliken charges:
               1
     1  C    0.014017
     2  C    0.594380
     3  C   -0.432767
     4  C    1.865966
     5  C    7.382148
     6  N   -3.817747
     7  N   -4.641565
     8  O   -3.494682
     9  O   -3.403220
    10  H    1.513784
    11  H    1.609417
    12  H    1.678372
    13  H    1.131898
 Sum of Mulliken charges =   0.00000

 Dipole moment (field-independent basis, Debye):
    X=             -1.2497    Y=             -0.9216    Z=             -0.0000  Tot=              1.5527

 Test job not archived.
 1\1\GINC-SE106\SP\RHF\Aug-CC-pVDZ\C5H4N2O2\OHZDE\06-Apr-2025\0\\#t hf
 aug-cc-pvdz iop(5/13=1,5/36=2,99/5=2) pseudo=read geom=check guess=(re
 ad,tcheck) scf=(maxcycle=1)\\title\\0,1\C,0,0.136653,-2.474879,0.\C,0,
 -1.086113,-1.807655,0.\C,0,1.22583,-0.491905,0.\C,0,0.,0.176466,0.\C,0
 ,-0.001608,1.673965,0.\N,0,1.295696,-1.820586,0.\N,0,-1.158456,-0.4821
 62,0.\O,0,1.008915,2.334974,0.\O,0,-1.233924,2.207653,0.\H,0,0.179099,
 -3.557509,0.\H,0,-2.020706,-2.35552,0.\H,0,2.152353,0.065708,0.\H,0,-1
 .119931,3.169586,0.\\Version=ES64L-G16RevC.01\State=1-A'\HF=-452.31312

 Normal termination of Gaussian 16 at Sun Apr  6 08:32:40 2025.
