 Gaussian 16, Revision C.01,

 ----------------------------------------------------------------------
 #t hf aug-cc-pvdz symm=none int=(grid=ultrafine) guess=(read,tcheck) s
 table=(opt,rrhf)
 ----------------------------------------------------------------------
 -----
 title
 -----
 Symbolic Z-matrix:
 Charge =  0 Multiplicity = 1

 SCF Done:  E(RHF) =  -262.715935921     A.U. after   11 cycles
 Normal termination of Gaussian 16 at Sun Apr  6 08:30:55 2025.
 Gaussian 16:  ES64L-G16RevC.01  3-Jul-2019

 ----------------------------------------------------------------------
 #t hf aug-cc-pvdz iop(5/13=1,5/36=2,99/5=2) pseudo=read geom=check gue
 ss=(read,tcheck) scf=(maxcycle=1)
 ----------------------------------------------------------------------
 -----
 title
 -----
 Structure from the checkpoint file:  "pyrazine.chk"
 Charge =  0 Multiplicity = 1

                         Standard orientation:
 ---------------------------------------------------------------------
 Center     Atomic      Atomic             Coordinates (Angstroms)
 Number     Number       Type             X           Y           Z
 ---------------------------------------------------------------------
      1          6           0        0.000000    1.130554    0.695666
      2          7           0        0.000000    0.000000    1.399240
      3          6           0        0.000000    1.130554   -0.695666
      4          6           0       -0.000000   -1.130554    0.695666
      5          7           0        0.000000    0.000000   -1.399240
      6          6           0       -0.000000   -1.130554   -0.695666
      7          1           0        0.000000   -2.060631   -1.251616
      8          1           0        0.000000    2.060631   -1.251616
      9          1           0       -0.000000   -2.060631    1.251616
     10          1           0        0.000000    2.060631    1.251616
 ---------------------------------------------------------------------

 SCF Done:  E(RHF) =  -263.919673227     A.U. after    2 cycles

 The electronic state is 1-AG.
 Alpha  occ. eigenvalues --  -15.76572 -15.76491 -11.47542 -11.46537 -11.40904
 Alpha  occ. eigenvalues --  -11.40253  -1.51147  -1.33310  -1.13768  -0.92971
 Alpha  occ. eigenvalues --   -0.92224  -0.74062  -0.67375  -0.63984  -0.60481
 Alpha  occ. eigenvalues --   -0.57698  -0.50993  -0.46317  -0.41821  -0.35484
 Alpha  occ. eigenvalues --   -0.34256
 Alpha virt. eigenvalues --    0.03223   0.05278   0.05540   0.06136   0.09694
 Alpha virt. eigenvalues --    0.10337   0.10502   0.10791   0.11643   0.12498
 Alpha virt. eigenvalues --    0.12514   0.14078   0.14909   0.14962   0.15825

 Mulliken charges:
               1
     1  C    0.411126
     2  N   -3.853349
     3  C    0.411126
     4  C    0.411126
     5  N   -3.853349
     6  C    0.411126
     7  H    1.515549
     8  H    1.515549
     9  H    1.515549
    10  H    1.515549
 Sum of Mulliken charges =  -0.00000

 Dipole moment (field-independent basis, Debye):
    X=             -0.0000    Y=              0.0000    Z=             -0.0000  Tot=              0.0000

 Test job not archived.
 1\1\GINC-SE107\SP\RHF\Aug-CC-pVDZ\C4H4N2\OHZDE\06-Apr-2025\0\\#t hf au
 g-cc-pvdz iop(5/13=1,5/36=2,99/5=2) pseudo=read geom=check guess=(read
 ,tcheck) scf=(maxcycle=1)\\title\\0,1\C,0,0.,1.130554,0.695666\N,0,0.,
 0.,1.39924\C,0,0.,1.130554,-0.695666\C,0,0.,-1.130554,0.695666\N,0,0.,
 0.,-1.39924\C,0,0.,-1.130554,-0.695666\H,0,0.,-2.060631,-1.251616\H,0,
 0.,2.060631,-1.251616\H,0,0.,-2.060631,1.251616\H,0,0.,2.060631,1.2516
 16\\Version=ES64L-G16RevC.01\State=1-AG\HF=-263.9196732\RMSD=1.087e+00
 \Dipole=0.,0.,0.\Quadrupole=-1.0692358,5.3296155,-4.2603796,0.,0.,0.\P

 Normal termination of Gaussian 16 at Sun Apr  6 08:30:57 2025.
