 Gaussian 16, Revision C.01,

 ----------------------------------------------------------------------
 #t hf aug-cc-pvdz symm=none int=(grid=ultrafine) guess=(read,tcheck) s
 table=(opt,rrhf)
 ----------------------------------------------------------------------
 -----
 title
 -----
 Symbolic Z-matrix:
 Charge =  0 Multiplicity = 1

 SCF Done:  E(RHF) =  -246.724774699     A.U. after   13 cycles
 Normal termination of Gaussian 16 at Sun Apr  6 08:30:57 2025.
 Gaussian 16:  ES64L-G16RevC.01  3-Jul-2019

 ----------------------------------------------------------------------
 #t hf aug-cc-pvdz iop(5/13=1,5/36=2,99/5=2) pseudo=read geom=check gue
 ss=(read,tcheck) scf=(maxcycle=1)
 ----------------------------------------------------------------------
 -----
 title
 -----
 Structure from the checkpoint file:  "pyridine.chk"
 Charge =  0 Multiplicity = 1

                         Standard orientation:
 ---------------------------------------------------------------------
 Center     Atomic      Atomic             Coordinates (Angstroms)
 Number     Number       Type             X           Y           Z
 ---------------------------------------------------------------------
      1          6           0        0.000000    1.138944    0.719367
      2          7           0        0.000000   -0.000000    1.412722
      3          6           0        0.000000    1.193219   -0.669712
      4          6           0       -0.000000   -1.138944    0.719367
      5          6           0       -0.000000   -1.193219   -0.669712
      6          6           0       -0.000000    0.000000   -1.378970
      7          1           0        0.000000   -2.147907   -1.177548
      8          1           0        0.000000    2.053255    1.302467
      9          1           0        0.000000    2.147907   -1.177548
     10          1           0       -0.000000   -2.053255    1.302467
     11          1           0       -0.000000    0.000000   -2.460925
 ---------------------------------------------------------------------

 SCF Done:  E(RHF) =  -247.889973921     A.U. after    2 cycles

 The electronic state is 1-A1.
 Alpha  occ. eigenvalues --  -15.73690 -11.48079 -11.44515 -11.43163 -11.40903
 Alpha  occ. eigenvalues --  -11.37768  -1.44738  -1.18929  -1.11279  -0.88760
 Alpha  occ. eigenvalues --   -0.88732  -0.73584  -0.65511  -0.60087  -0.59044
 Alpha  occ. eigenvalues --   -0.55455  -0.54003  -0.47301  -0.36919  -0.35828
 Alpha  occ. eigenvalues --   -0.34057
 Alpha virt. eigenvalues --    0.03142   0.05091   0.05164   0.05892   0.06577
 Alpha virt. eigenvalues --    0.10179   0.10810   0.11087   0.12522   0.12769
 Alpha virt. eigenvalues --    0.12784   0.14263   0.14405   0.14611   0.14688

 Mulliken charges:
               1
     1  C   -1.164242
     2  N   -3.363142
     3  C   -0.761124
     4  C   -1.164242
     5  C   -0.761124
     6  C   -0.075439
     7  H    1.369803
     8  H    1.521379
     9  H    1.369803
    10  H    1.521379
    11  H    1.506950
 Sum of Mulliken charges =   0.00000

 Dipole moment (field-independent basis, Debye):
    X=              0.0000    Y=             -0.0000    Z=             -1.9241  Tot=              1.9241

 Test job not archived.
 1\1\GINC-SE085\SP\RHF\Aug-CC-pVDZ\C5H5N1\OHZDE\06-Apr-2025\0\\#t hf au
 g-cc-pvdz iop(5/13=1,5/36=2,99/5=2) pseudo=read geom=check guess=(read
 ,tcheck) scf=(maxcycle=1)\\title\\0,1\C,0,0.,1.138944,0.719367\N,0,0.,
 0.,1.412722\C,0,0.,1.193219,-0.669712\C,0,0.,-1.138944,0.719367\C,0,0.
 ,-1.193219,-0.669712\C,0,0.,0.,-1.37897\H,0,0.,-2.147907,-1.177548\H,0
 ,0.,2.053255,1.302467\H,0,0.,2.147907,-1.177548\H,0,0.,-2.053255,1.302
 467\H,0,0.,0.,-2.460925\\Version=ES64L-G16RevC.01\State=1-A1\HF=-247.8
 899739\RMSD=1.486e+00\Dipole=0.,0.,-0.7569827\Quadrupole=-2.577264,3.6

 Normal termination of Gaussian 16 at Sun Apr  6 08:31:00 2025.
