 Gaussian 16, Revision C.01,

 ----------------------------------------------------------------------
 #t hf aug-cc-pvdz symm=none int=(grid=ultrafine) guess=(read,tcheck) s
 table=(opt,rrhf)
 ----------------------------------------------------------------------
 -----
 title
 -----
 Symbolic Z-matrix:
 Charge =  0 Multiplicity = 1

 SCF Done:  E(RHF) =  -1041.79109499     A.U. after   15 cycles
 Normal termination of Gaussian 16 at Sun Apr  6 08:31:28 2025.
 Gaussian 16:  ES64L-G16RevC.01  3-Jul-2019

 ----------------------------------------------------------------------
 #t hf aug-cc-pvdz iop(5/13=1,5/36=2,99/5=2) pseudo=read geom=check gue
 ss=(read,tcheck) scf=(maxcycle=1)
 ----------------------------------------------------------------------
 -----
 title
 -----
 Structure from the checkpoint file:  "pyridine-2-4-dithiol.chk"
 Charge =  0 Multiplicity = 1

                         Standard orientation:
 ---------------------------------------------------------------------
 Center     Atomic      Atomic             Coordinates (Angstroms)
 Number     Number       Type             X           Y           Z
 ---------------------------------------------------------------------
      1          6           0       -1.178117   -1.374042    0.000000
      2          6           0        0.000000    0.710936    0.000000
      3          6           0        0.054673   -2.002123    0.000000
      4          6           0       -1.206605    0.023456    0.000000
      5          6           0        1.184142   -0.028878    0.000000
      6          7           0        1.224295   -1.357495    0.000000
      7         16           0       -2.784231    0.826539    0.000000
      8         16           0        2.727524    0.857050    0.000000
      9          1           0       -2.088791   -1.955558    0.000000
     10          1           0        0.031617    1.791274    0.000000
     11          1           0        0.111277   -3.084243    0.000000
     12          1           0       -2.326622    2.090660    0.000000
     13          1           0        3.485210   -0.253177    0.000000
 ---------------------------------------------------------------------

 SCF Done:  E(RHF) =  -1043.38742308     A.U. after    2 cycles

 The electronic state is 1-A'.
 Alpha  occ. eigenvalues --  -75.71984 -75.70401 -15.74397 -13.19971 -13.17938
 Alpha  occ. eigenvalues --  -13.16345 -13.14118 -13.03715 -13.01967 -11.50419
 Alpha  occ. eigenvalues --  -11.48519 -11.46262 -11.43176 -11.39617  -8.06018
 Alpha  occ. eigenvalues --   -8.04480  -1.47836  -1.26193  -1.19452  -1.09740
 Alpha  occ. eigenvalues --   -1.06535  -0.90442  -0.85362  -0.70806  -0.65609
 Alpha  occ. eigenvalues --   -0.64525  -0.57238  -0.57163  -0.52832  -0.50394
 Alpha  occ. eigenvalues --   -0.43525  -0.43038  -0.42364  -0.38171  -0.34607
 Alpha  occ. eigenvalues --   -0.25177  -0.24133
 Alpha virt. eigenvalues --    0.02542   0.04285   0.04847   0.05323   0.05721
 Alpha virt. eigenvalues --    0.08221   0.08853   0.09253   0.09765   0.11027
 Alpha virt. eigenvalues --    0.11980   0.12298   0.12853   0.12947   0.13495

 Mulliken charges:
               1
     1  C   -2.685187
     2  C   -3.190452
     3  C   -0.606433
     4  C    3.868414
     5  C    0.560552
     6  N   -3.910161
     7  S   -0.666900
     8  S   -0.480412
     9  H    1.639520
    10  H    1.806354
    11  H    1.593860
    12  H    1.088794
    13  H    0.982049
 Sum of Mulliken charges =   0.00000

 Dipole moment (field-independent basis, Debye):
    X=             -2.3838    Y=              1.3501    Z=              0.0000  Tot=              2.7396

 Test job not archived.
 1\1\GINC-SE046\SP\RHF\Aug-CC-pVDZ\C5H5N1S2\OHZDE\06-Apr-2025\0\\#t hf
 aug-cc-pvdz iop(5/13=1,5/36=2,99/5=2) pseudo=read geom=check guess=(re
 ad,tcheck) scf=(maxcycle=1)\\title\\0,1\C,0,-1.178117,-1.374042,0.\C,0
 ,0.,0.710936,0.\C,0,0.054673,-2.002123,0.\C,0,-1.206605,0.023456,0.\C,
 0,1.184142,-0.028878,0.\N,0,1.224295,-1.357495,0.\S,0,-2.784231,0.8265
 39,0.\S,0,2.727524,0.85705,0.\H,0,-2.088791,-1.955558,0.\H,0,0.031617,
 1.791274,0.\H,0,0.111277,-3.084243,0.\H,0,-2.326622,2.09066,0.\H,0,3.4
 8521,-0.253177,0.\\Version=ES64L-G16RevC.01\State=1-A'\HF=-1043.387423

 Normal termination of Gaussian 16 at Sun Apr  6 08:31:35 2025.
