 Gaussian 16, Revision C.01,

 ----------------------------------------------------------------------
 #t hf aug-cc-pvdz symm=none int=(grid=ultrafine) guess=(read,tcheck) s
 table=(opt,rrhf)
 ----------------------------------------------------------------------
 -----
 title
 -----
 Symbolic Z-matrix:
 Charge =  0 Multiplicity = 1

 SCF Done:  E(RHF) =  -359.468203054     A.U. after   15 cycles
 Normal termination of Gaussian 16 at Sun Apr  6 08:31:21 2025.
 Gaussian 16:  ES64L-G16RevC.01  3-Jul-2019

 ----------------------------------------------------------------------
 #t hf aug-cc-pvdz iop(5/13=1,5/36=2,99/5=2) pseudo=read geom=check gue
 ss=(read,tcheck) scf=(maxcycle=1)
 ----------------------------------------------------------------------
 -----
 title
 -----
 Structure from the checkpoint file:  "pyridine-3-carbaldehyde.chk"
 Charge =  0 Multiplicity = 1

                         Standard orientation:
 ---------------------------------------------------------------------
 Center     Atomic      Atomic             Coordinates (Angstroms)
 Number     Number       Type             X           Y           Z
 ---------------------------------------------------------------------
      1          6           0        1.610317   -1.209436   -0.000000
      2          6           0        1.329993    0.147978   -0.000000
      3          6           0        0.543915   -2.101297   -0.000000
      4          6           0       -0.997140   -0.422562   -0.000000
      5          6           0        0.000000    0.559527    0.000000
      6          6           0       -0.339161    1.998058    0.000000
      7          7           0       -0.739333   -1.725611   -0.000000
      8          8           0       -1.461675    2.444254    0.000000
      9          1           0        2.627285   -1.575291   -0.000000
     10          1           0        2.126453    0.882601    0.000000
     11          1           0        0.725761   -3.169850   -0.000000
     12          1           0       -2.037530   -0.121485    0.000000
     13          1           0        0.539218    2.675668    0.000000
 ---------------------------------------------------------------------

 SCF Done:  E(RHF) =  -361.086182887     A.U. after    2 cycles

 The electronic state is 1-A'.
 Alpha  occ. eigenvalues --  -21.06807 -15.75382 -11.50133 -11.49580 -11.46669
 Alpha  occ. eigenvalues --  -11.46068 -11.43000 -11.39915  -1.71706  -1.46546
 Alpha  occ. eigenvalues --   -1.22375  -1.14437  -0.96096  -0.91386  -0.83540
 Alpha  occ. eigenvalues --   -0.74387  -0.67703  -0.63258  -0.60346  -0.57518
 Alpha  occ. eigenvalues --   -0.56985  -0.54738  -0.47922  -0.47792  -0.38445
 Alpha  occ. eigenvalues --   -0.37739  -0.34118  -0.30277
 Alpha virt. eigenvalues --    0.02826   0.04625   0.04879   0.06612   0.06801
 Alpha virt. eigenvalues --    0.07800   0.08603   0.08623   0.11438   0.11525
 Alpha virt. eigenvalues --    0.11996   0.12109   0.12501   0.13426   0.13562

 Mulliken charges:
               1
     1  C   -1.542433
     2  C   -0.559405
     3  C   -1.406732
     4  C   -1.552319
     5  C    3.755926
     6  C    0.454077
     7  N   -3.541892
     8  O   -3.115136
     9  H    1.338274
    10  H    1.762621
    11  H    1.516632
    12  H    1.570536
    13  H    1.319851
 Sum of Mulliken charges =   0.00000

 Dipole moment (field-independent basis, Debye):
    X=              2.4180    Y=             -0.1886    Z=              0.0000  Tot=              2.4254

 Test job not archived.
 1\1\GINC-SE047\SP\RHF\Aug-CC-pVDZ\C6H5N1O1\OHZDE\06-Apr-2025\0\\#t hf
 aug-cc-pvdz iop(5/13=1,5/36=2,99/5=2) pseudo=read geom=check guess=(re
 ad,tcheck) scf=(maxcycle=1)\\title\\0,1\C,0,1.610317,-1.209436,0.\C,0,
 1.329993,0.147978,0.\C,0,0.543915,-2.101297,0.\C,0,-0.99714,-0.422562,
 0.\C,0,0.,0.559527,0.\C,0,-0.339161,1.998058,0.\N,0,-0.739333,-1.72561
 1,0.\O,0,-1.461675,2.444254,0.\H,0,2.627285,-1.575291,0.\H,0,2.126453,
 0.882601,0.\H,0,0.725761,-3.16985,0.\H,0,-2.03753,-0.121485,0.\H,0,0.5
 39218,2.675668,0.\\Version=ES64L-G16RevC.01\State=1-A'\HF=-361.0861829

 Normal termination of Gaussian 16 at Sun Apr  6 08:31:34 2025.
