 Gaussian 16, Revision C.01,

 ----------------------------------------------------------------------
 #t hf aug-cc-pvdz symm=none int=(grid=ultrafine) guess=(read,tcheck) s
 table=(opt,rrhf)
 ----------------------------------------------------------------------
 -----
 title
 -----
 Symbolic Z-matrix:
 Charge =  0 Multiplicity = 1

 SCF Done:  E(RHF) =  -317.788988191     A.U. after   14 cycles
 Normal termination of Gaussian 16 at Sun Apr  6 08:31:02 2025.
 Gaussian 16:  ES64L-G16RevC.01  3-Jul-2019

 ----------------------------------------------------------------------
 #t hf aug-cc-pvdz iop(5/13=1,5/36=2,99/5=2) pseudo=read geom=check gue
 ss=(read,tcheck) scf=(maxcycle=1)
 ----------------------------------------------------------------------
 -----
 title
 -----
 Structure from the checkpoint file:  "pyrimidin-2-amine.chk"
 Charge =  0 Multiplicity = 1

                         Standard orientation:
 ---------------------------------------------------------------------
 Center     Atomic      Atomic             Coordinates (Angstroms)
 Number     Number       Type             X           Y           Z
 ---------------------------------------------------------------------
      1          6           0       -0.000845   -1.808309    0.000000
      2          6           0        0.002500   -1.071896    1.177316
      3          6           0        0.002500   -1.071896   -1.177316
      4          6           0       -0.003688    0.863909   -0.000000
      5          7           0        0.002500    0.255572    1.197627
      6          7           0        0.002500    0.255572   -1.197627
      7          7           0       -0.041543    2.223054   -0.000000
      8          1           0       -0.000837   -2.887318    0.000000
      9          1           0        0.007769   -1.564229    2.143784
     10          1           0        0.007769   -1.564229   -2.143784
     11          1           0        0.119153    2.702771   -0.866351
     12          1           0        0.119153    2.702771    0.866351
 ---------------------------------------------------------------------

 SCF Done:  E(RHF) =  -319.253261437     A.U. after    2 cycles

 The electronic state is 1-A'.
 Alpha  occ. eigenvalues --  -15.76708 -15.72756 -15.72645 -11.48370 -11.45799
 Alpha  occ. eigenvalues --  -11.45791 -11.38154  -1.53623  -1.33410  -1.30276
 Alpha  occ. eigenvalues --   -1.12258  -0.92483  -0.89495  -0.74178  -0.70416
 Alpha  occ. eigenvalues --   -0.64294  -0.60010  -0.59811  -0.55932  -0.55684
 Alpha  occ. eigenvalues --   -0.44754  -0.43320  -0.40390  -0.33690  -0.29758
 Alpha virt. eigenvalues --    0.03507   0.05069   0.05582   0.05671   0.06562
 Alpha virt. eigenvalues --    0.09887   0.10943   0.11267   0.12130   0.12674
 Alpha virt. eigenvalues --    0.13324   0.14340   0.14847   0.14952   0.15293

 Mulliken charges:
               1
     1  C   -0.472711
     2  C   -0.115474
     3  C   -0.115474
     4  C    4.053898
     5  N   -3.188394
     6  N   -3.188394
     7  N   -2.866222
     8  H    1.393612
     9  H    1.589981
    10  H    1.589981
    11  H    0.659598
    12  H    0.659598
 Sum of Mulliken charges =  -0.00000

 Dipole moment (field-independent basis, Debye):
    X=              0.3998    Y=             -0.0374    Z=              0.0000  Tot=              0.4015

 Test job not archived.
 1\1\GINC-SE085\SP\RHF\Aug-CC-pVDZ\C4H5N3\OHZDE\06-Apr-2025\0\\#t hf au
 g-cc-pvdz iop(5/13=1,5/36=2,99/5=2) pseudo=read geom=check guess=(read
 ,tcheck) scf=(maxcycle=1)\\title\\0,1\C,0,-0.000845,-1.808309,0.\C,0,0
 .0025,-1.071896,1.177316\C,0,0.0025,-1.071896,-1.177316\C,0,-0.003688,
 0.863909,0.\N,0,0.0025,0.255572,1.197627\N,0,0.0025,0.255572,-1.197627
 \N,0,-0.041543,2.223054,0.\H,0,-0.000837,-2.887318,0.\H,0,0.007769,-1.
 564229,2.143784\H,0,0.007769,-1.564229,-2.143784\H,0,0.119153,2.702771
 ,-0.866351\H,0,0.119153,2.702771,0.866351\\Version=ES64L-G16RevC.01\St

 Normal termination of Gaussian 16 at Sun Apr  6 08:31:06 2025.
