 Gaussian 16, Revision C.01,

 ----------------------------------------------------------------------
 #t hf aug-cc-pvdz symm=none int=(grid=ultrafine) guess=(read,tcheck) s
 table=(opt,rrhf)
 ----------------------------------------------------------------------
 -----
 title
 -----
 Symbolic Z-matrix:
 Charge =  0 Multiplicity = 1

 SCF Done:  E(RHF) =  -262.682992513     A.U. after   13 cycles
 Normal termination of Gaussian 16 at Sun Apr  6 08:30:55 2025.
 Gaussian 16:  ES64L-G16RevC.01  3-Jul-2019

 ----------------------------------------------------------------------
 #t hf aug-cc-pvdz iop(5/13=1,5/36=2,99/5=2) pseudo=read geom=check gue
 ss=(read,tcheck) scf=(maxcycle=1)
 ----------------------------------------------------------------------
 -----
 title
 -----
 Structure from the checkpoint file:  "pyridazine.chk"
 Charge =  0 Multiplicity = 1

                         Standard orientation:
 ---------------------------------------------------------------------
 Center     Atomic      Atomic             Coordinates (Angstroms)
 Number     Number       Type             X           Y           Z
 ---------------------------------------------------------------------
      1          6           0        0.000000    0.688857    1.174003
      2          6           0       -0.000000   -0.688857    1.174003
      3          6           0        0.000000   -1.319429   -0.067431
      4          6           0        0.000000    1.319429   -0.067431
      5          1           0        0.000000    1.265199    2.088781
      6          1           0       -0.000000   -1.265199    2.088781
      7          1           0        0.000000   -2.398824   -0.151216
      8          1           0        0.000000    2.398824   -0.151216
      9          7           0        0.000000    0.664263   -1.225286
     10          7           0       -0.000000   -0.664263   -1.225286
 ---------------------------------------------------------------------

 SCF Done:  E(RHF) =  -263.896343261     A.U. after    2 cycles

 The electronic state is 1-A1.
 Alpha  occ. eigenvalues --  -15.77611 -15.76960 -11.50176 -11.44981 -11.43970
 Alpha  occ. eigenvalues --  -11.39885  -1.55355  -1.22124  -1.20691  -0.93140
 Alpha  occ. eigenvalues --   -0.91483  -0.74621  -0.66711  -0.63802  -0.58524
 Alpha  occ. eigenvalues --   -0.57732  -0.55777  -0.42681  -0.39045  -0.37457
 Alpha  occ. eigenvalues --   -0.34607
 Alpha virt. eigenvalues --    0.02836   0.04738   0.05204   0.05712   0.09122
 Alpha virt. eigenvalues --    0.09643   0.10919   0.12063   0.12444   0.13238
 Alpha virt. eigenvalues --    0.13849   0.13889   0.14081   0.14251   0.15980

 Mulliken charges:
               1
     1  C   -0.125975
     2  C   -0.125975
     3  C   -0.767686
     4  C   -0.767686
     5  H    1.467192
     6  H    1.467192
     7  H    1.457402
     8  H    1.457402
     9  N   -2.030934
    10  N   -2.030934
 Sum of Mulliken charges =  -0.00000

 Dipole moment (field-independent basis, Debye):
    X=              0.0000    Y=              0.0000    Z=              3.6254  Tot=              3.6254

 Test job not archived.
 1\1\GINC-SE146\SP\RHF\Aug-CC-pVDZ\C4H4N2\OHZDE\06-Apr-2025\0\\#t hf au
 g-cc-pvdz iop(5/13=1,5/36=2,99/5=2) pseudo=read geom=check guess=(read
 ,tcheck) scf=(maxcycle=1)\\title\\0,1\C,0,0.,0.688857,1.174003\C,0,0.,
 -0.688857,1.174003\C,0,0.,-1.319429,-0.067431\C,0,0.,1.319429,-0.06743
 1\H,0,0.,1.265199,2.088781\H,0,0.,-1.265199,2.088781\H,0,0.,-2.398824,
 -0.151216\H,0,0.,2.398824,-0.151216\N,0,0.,0.664263,-1.225286\N,0,0.,-
 0.664263,-1.225286\\Version=ES64L-G16RevC.01\State=1-A1\HF=-263.896343
 3\RMSD=1.353e+00\Dipole=0.,0.,1.4263457\Quadrupole=-1.3419748,3.402144

 Normal termination of Gaussian 16 at Sun Apr  6 08:30:58 2025.
