 Gaussian 16, Revision C.01,

 ----------------------------------------------------------------------
 #t hf aug-cc-pvdz symm=none int=(grid=ultrafine) guess=(read,tcheck) s
 table=(opt,rrhf)
 ----------------------------------------------------------------------
 -----
 title
 -----
 Symbolic Z-matrix:
 Charge =  0 Multiplicity = 1

 SCF Done:  E(RHF) =  -338.464261727     A.U. after   15 cycles
 Normal termination of Gaussian 16 at Sun Apr  6 08:31:07 2025.
 Gaussian 16:  ES64L-G16RevC.01  3-Jul-2019

 ----------------------------------------------------------------------
 #t hf aug-cc-pvdz iop(5/13=1,5/36=2,99/5=2) pseudo=read geom=check gue
 ss=(read,tcheck) scf=(maxcycle=1)
 ----------------------------------------------------------------------
 -----
 title
 -----
 Structure from the checkpoint file:  "pyridine-4-carbonitrile.chk"
 Charge =  0 Multiplicity = 1

                         Standard orientation:
 ---------------------------------------------------------------------
 Center     Atomic      Atomic             Coordinates (Angstroms)
 Number     Number       Type             X           Y           Z
 ---------------------------------------------------------------------
      1          6           0        0.000000    0.000000    2.029610
      2          6           0        0.000000    1.200354   -0.112893
      3          6           0       -0.000000   -1.200354   -0.112893
      4          6           0        0.000000    1.140883   -1.499716
      5          6           0       -0.000000   -1.140883   -1.499716
      6          6           0        0.000000    0.000000    0.598544
      7          7           0        0.000000    0.000000    3.181206
      8          7           0        0.000000    0.000000   -2.189569
      9          1           0        0.000000    2.149584    0.402220
     10          1           0       -0.000000   -2.149584    0.402220
     11          1           0        0.000000    2.054587   -2.081755
     12          1           0       -0.000000   -2.054587   -2.081755
 ---------------------------------------------------------------------

 SCF Done:  E(RHF) =  -340.011265387     A.U. after    2 cycles

 The electronic state is 1-A1.
 Alpha  occ. eigenvalues --  -15.77970 -15.76800 -11.53363 -11.47892 -11.47853
 Alpha  occ. eigenvalues --  -11.45417 -11.45079 -11.41475  -1.48330  -1.33380
 Alpha  occ. eigenvalues --   -1.22387  -1.14626  -0.96292  -0.92406  -0.79746
 Alpha  occ. eigenvalues --   -0.69249  -0.64569  -0.63792  -0.62204  -0.58269
 Alpha  occ. eigenvalues --   -0.53125  -0.52021  -0.49724  -0.44751  -0.38844
 Alpha  occ. eigenvalues --   -0.37711  -0.36938
 Alpha virt. eigenvalues --    0.02528   0.04897   0.05957   0.06044   0.07409
 Alpha virt. eigenvalues --    0.08307   0.09079   0.09511   0.10468   0.11400
 Alpha virt. eigenvalues --    0.11648   0.12048   0.12287   0.12788   0.12925

 Mulliken charges:
               1
     1  C   -0.067659
     2  C   -2.379542
     3  C   -2.379542
     4  C   -0.927088
     5  C   -0.927088
     6  C    6.425243
     7  N   -2.087261
     8  N   -3.794535
     9  H    1.540337
    10  H    1.540337
    11  H    1.528398
    12  H    1.528398
 Sum of Mulliken charges =   0.00000

 Dipole moment (field-independent basis, Debye):
    X=             -0.0000    Y=              0.0000    Z=             -1.9568  Tot=              1.9568

 Test job not archived.
 1\1\GINC-SE084\SP\RHF\Aug-CC-pVDZ\C6H4N2\OHZDE\06-Apr-2025\0\\#t hf au
 g-cc-pvdz iop(5/13=1,5/36=2,99/5=2) pseudo=read geom=check guess=(read
 ,tcheck) scf=(maxcycle=1)\\title\\0,1\C,0,0.,0.,2.02961\C,0,0.,1.20035
 4,-0.112893\C,0,0.,-1.200354,-0.112893\C,0,0.,1.140883,-1.499716\C,0,0
 .,-1.140883,-1.499716\C,0,0.,0.,0.598544\N,0,0.,0.,3.181206\N,0,0.,0.,
 -2.189569\H,0,0.,2.149584,0.40222\H,0,0.,-2.149584,0.40222\H,0,0.,2.05
 4587,-2.081755\H,0,0.,-2.054587,-2.081755\\Version=ES64L-G16RevC.01\St
 ate=1-A1\HF=-340.0112654\RMSD=2.331e+00\Dipole=0.,0.,-0.7698513\Quadru

 Normal termination of Gaussian 16 at Sun Apr  6 08:31:34 2025.
