 Gaussian 16, Revision C.01,

 ----------------------------------------------------------------------
 #t hf aug-cc-pvdz symm=none int=(grid=ultrafine) guess=(read,tcheck) s
 table=(opt,rrhf)
 ----------------------------------------------------------------------
 -----
 title
 -----
 Symbolic Z-matrix:
 Charge =  0 Multiplicity = 1

 SCF Done:  E(RHF) =  -396.492795761     A.U. after   14 cycles
 Normal termination of Gaussian 16 at Sun Apr  6 08:31:19 2025.
 Gaussian 16:  ES64L-G16RevC.01  3-Jul-2019

 ----------------------------------------------------------------------
 #t hf aug-cc-pvdz iop(5/13=1,5/36=2,99/5=2) pseudo=read geom=check gue
 ss=(read,tcheck) scf=(maxcycle=1)
 ----------------------------------------------------------------------
 -----
 title
 -----
 Structure from the checkpoint file:  "pyridine-2-4-diol.chk"
 Charge =  0 Multiplicity = 1

                         Standard orientation:
 ---------------------------------------------------------------------
 Center     Atomic      Atomic             Coordinates (Angstroms)
 Number     Number       Type             X           Y           Z
 ---------------------------------------------------------------------
      1          6           0       -1.181319   -1.083539    0.000000
      2          6           0        0.000000    1.010809    0.000000
      3          6           0        0.048798   -1.709300    0.000000
      4          6           0       -1.198215    0.314134    0.000000
      5          6           0        1.176033    0.261682    0.000000
      6          7           0        1.220451   -1.060717    0.000000
      7          8           0       -2.406742    0.931648    0.000000
      8          8           0        2.354509    0.926245    0.000000
      9          1           0       -2.104345   -1.642803    0.000000
     10          1           0        0.041008    2.091380    0.000000
     11          1           0        0.107341   -2.790875    0.000000
     12          1           0       -2.290414    1.887774    0.000000
     13          1           0        3.049335    0.253679    0.000000
 ---------------------------------------------------------------------

 SCF Done:  E(RHF) =  -398.241756545     A.U. after    2 cycles

 The electronic state is 1-A'.
 Alpha  occ. eigenvalues --  -21.12419 -21.10902 -15.72860 -11.52452 -11.50098
 Alpha  occ. eigenvalues --  -11.45840 -11.40844 -11.38650  -1.79088  -1.76711
 Alpha  occ. eigenvalues --   -1.42197  -1.17129  -1.10365  -0.91076  -0.86995
 Alpha  occ. eigenvalues --   -0.72349  -0.69614  -0.65522  -0.60453  -0.59393
 Alpha  occ. eigenvalues --   -0.58041  -0.53436  -0.50069  -0.45304  -0.44350
 Alpha  occ. eigenvalues --   -0.42279  -0.37514  -0.31304  -0.29049
 Alpha virt. eigenvalues --    0.03249   0.05240   0.05638   0.06155   0.06557
 Alpha virt. eigenvalues --    0.10058   0.10736   0.11560   0.11716   0.12546
 Alpha virt. eigenvalues --    0.13260   0.13314   0.13643   0.14780   0.14807

 Mulliken charges:
               1
     1  C   -1.521431
     2  C   -3.193040
     3  C   -0.789655
     4  C    6.308842
     5  C    3.923461
     6  N   -3.395919
     7  O   -4.273542
     8  O   -3.820110
     9  H    1.587155
    10  H    1.575948
    11  H    1.565666
    12  H    1.048621
    13  H    0.984005
 Sum of Mulliken charges =  -0.00000

 Dipole moment (field-independent basis, Debye):
    X=             -1.0462    Y=              1.1555    Z=              0.0000  Tot=              1.5587

 Test job not archived.
 1\1\GINC-SE046\SP\RHF\Aug-CC-pVDZ\C5H5N1O2\OHZDE\06-Apr-2025\0\\#t hf
 aug-cc-pvdz iop(5/13=1,5/36=2,99/5=2) pseudo=read geom=check guess=(re
 ad,tcheck) scf=(maxcycle=1)\\title\\0,1\C,0,-1.181319,-1.083539,0.\C,0
 ,0.,1.010809,0.\C,0,0.048798,-1.7093,0.\C,0,-1.198215,0.314134,0.\C,0,
 1.176033,0.261682,0.\N,0,1.220451,-1.060717,0.\O,0,-2.406742,0.931648,
 0.\O,0,2.354509,0.926245,0.\H,0,-2.104345,-1.642803,0.\H,0,0.041008,2.
 09138,0.\H,0,0.107341,-2.790875,0.\H,0,-2.290414,1.887774,0.\H,0,3.049
 335,0.253679,0.\\Version=ES64L-G16RevC.01\State=1-A'\HF=-398.2417565\R

 Normal termination of Gaussian 16 at Sun Apr  6 08:31:34 2025.
