 Gaussian 16, Revision C.01,

 ----------------------------------------------------------------------
 #t hf aug-cc-pvdz symm=none int=(grid=ultrafine) guess=(read,tcheck) s
 table=(opt,rrhf)
 ----------------------------------------------------------------------
 -----
 title
 -----
 Symbolic Z-matrix:
 Charge =  0 Multiplicity = 1

 SCF Done:  E(RHF) =  -359.465972127     A.U. after   16 cycles
 Normal termination of Gaussian 16 at Sun Apr  6 08:31:23 2025.
 Gaussian 16:  ES64L-G16RevC.01  3-Jul-2019

 ----------------------------------------------------------------------
 #t hf aug-cc-pvdz iop(5/13=1,5/36=2,99/5=2) pseudo=read geom=check gue
 ss=(read,tcheck) scf=(maxcycle=1)
 ----------------------------------------------------------------------
 -----
 title
 -----
 Structure from the checkpoint file:  "pyridine-4-carbaldehyde.chk"
 Charge =  0 Multiplicity = 1

                         Standard orientation:
 ---------------------------------------------------------------------
 Center     Atomic      Atomic             Coordinates (Angstroms)
 Number     Number       Type             X           Y           Z
 ---------------------------------------------------------------------
      1          6           0        1.317704    0.115038    0.000000
      2          6           0       -1.022687   -0.385775   -0.000000
      3          6           0        1.558392   -1.254677    0.000000
      4          6           0       -0.677231   -1.728443    0.000000
      5          6           0       -0.000000    0.561086   -0.000000
      6          6           0       -0.292864    2.016587   -0.000000
      7          7           0        0.586424   -2.165062    0.000000
      8          8           0       -1.402646    2.490215   -0.000000
      9          1           0        2.141104    0.817975    0.000000
     10          1           0       -2.055648   -0.068068   -0.000000
     11          1           0        2.573168   -1.634741    0.000000
     12          1           0       -1.445137   -2.492744   -0.000000
     13          1           0        0.602825    2.668397   -0.000000
 ---------------------------------------------------------------------

 SCF Done:  E(RHF) =  -361.083935065     A.U. after    2 cycles

 The electronic state is 1-A'.
 Alpha  occ. eigenvalues --  -21.07932 -15.75805 -11.50586 -11.49066 -11.46573
 Alpha  occ. eigenvalues --  -11.45204 -11.43839 -11.39660  -1.72588  -1.46408
 Alpha  occ. eigenvalues --   -1.22615  -1.13293  -0.97359  -0.91134  -0.83454
 Alpha  occ. eigenvalues --   -0.73055  -0.67733  -0.63485  -0.61182  -0.58968
 Alpha  occ. eigenvalues --   -0.56792  -0.52787  -0.48518  -0.48237  -0.37766
 Alpha  occ. eigenvalues --   -0.36554  -0.35691  -0.31214
 Alpha virt. eigenvalues --    0.02927   0.04764   0.05699   0.06145   0.06826
 Alpha virt. eigenvalues --    0.07336   0.08913   0.09433   0.10818   0.11380
 Alpha virt. eigenvalues --    0.11789   0.12015   0.12567   0.12912   0.13725

 Mulliken charges:
               1
     1  C   -1.180159
     2  C   -2.197198
     3  C   -1.587762
     4  C   -1.359390
     5  C    5.306386
     6  C    0.246245
     7  N   -3.644114
     8  O   -3.079826
     9  H    1.588134
    10  H    1.576175
    11  H    1.482075
    12  H    1.497928
    13  H    1.351506
 Sum of Mulliken charges =   0.00000

 Dipole moment (field-independent basis, Debye):
    X=              0.5192    Y=              0.5913    Z=             -0.0000  Tot=              0.7869

 Test job not archived.
 1\1\GINC-SE084\SP\RHF\Aug-CC-pVDZ\C6H5N1O1\OHZDE\06-Apr-2025\0\\#t hf
 aug-cc-pvdz iop(5/13=1,5/36=2,99/5=2) pseudo=read geom=check guess=(re
 ad,tcheck) scf=(maxcycle=1)\\title\\0,1\C,0,1.317704,0.115038,0.\C,0,-
 1.022687,-0.385775,0.\C,0,1.558392,-1.254677,0.\C,0,-0.677231,-1.72844
 3,0.\C,0,0.,0.561086,0.\C,0,-0.292864,2.016587,0.\N,0,0.586424,-2.1650
 62,0.\O,0,-1.402646,2.490215,0.\H,0,2.141104,0.817975,0.\H,0,-2.055648
 ,-0.068068,0.\H,0,2.573168,-1.634741,0.\H,0,-1.445137,-2.492744,0.\H,0
 ,0.602825,2.668397,0.\\Version=ES64L-G16RevC.01\State=1-A'\HF=-361.083

 Normal termination of Gaussian 16 at Sun Apr  6 08:31:34 2025.
