 Gaussian 16, Revision C.01,

 ----------------------------------------------------------------------
 #t hf aug-cc-pvdz symm=none int=(grid=ultrafine) guess=(read,tcheck) s
 table=(opt,rrhf)
 ----------------------------------------------------------------------
 -----
 title
 -----
 Symbolic Z-matrix:
 Charge =  0 Multiplicity = 1

 SCF Done:  E(RHF) =  -338.466790562     A.U. after   16 cycles
 Normal termination of Gaussian 16 at Sun Apr  6 08:31:09 2025.
 Gaussian 16:  ES64L-G16RevC.01  3-Jul-2019

 ----------------------------------------------------------------------
 #t hf aug-cc-pvdz iop(5/13=1,5/36=2,99/5=2) pseudo=read geom=check gue
 ss=(read,tcheck) scf=(maxcycle=1)
 ----------------------------------------------------------------------
 -----
 title
 -----
 Structure from the checkpoint file:  "pyridine-3-carbonitrile.chk"
 Charge =  0 Multiplicity = 1

                         Standard orientation:
 ---------------------------------------------------------------------
 Center     Atomic      Atomic             Coordinates (Angstroms)
 Number     Number       Type             X           Y           Z
 ---------------------------------------------------------------------
      1          6           0       -0.053693    2.019437   -0.000000
      2          6           0        1.204654   -1.469386    0.000000
      3          6           0        1.220966   -0.085509    0.000000
      4          6           0       -0.022972   -2.123259    0.000000
      5          6           0       -1.181722   -0.159565   -0.000000
      6          6           0       -0.000000    0.592498   -0.000000
      7          7           0       -0.100145    3.170672   -0.000000
      8          7           0       -1.195466   -1.486799   -0.000000
      9          1           0        2.124938   -2.035655    0.000000
     10          1           0        2.150017    0.466484    0.000000
     11          1           0       -0.067714   -3.205810    0.000000
     12          1           0       -2.141358    0.342572   -0.000000
 ---------------------------------------------------------------------

 SCF Done:  E(RHF) =  -340.013205779     A.U. after    2 cycles

 The electronic state is 1-A'.
 Alpha  occ. eigenvalues --  -15.77034 -15.76591 -11.52717 -11.48763 -11.47252
 Alpha  occ. eigenvalues --  -11.46223 -11.44324 -11.41478  -1.48648  -1.32365
 Alpha  occ. eigenvalues --   -1.22271  -1.15584  -0.95269  -0.92625  -0.78612
 Alpha  occ. eigenvalues --   -0.73087  -0.64784  -0.63640  -0.58699  -0.58481
 Alpha  occ. eigenvalues --   -0.54860  -0.50718  -0.49027  -0.45475  -0.39482
 Alpha  occ. eigenvalues --   -0.38256  -0.35516
 Alpha virt. eigenvalues --    0.02453   0.04793   0.05104   0.06325   0.07381
 Alpha virt. eigenvalues --    0.08304   0.08698   0.09816   0.11045   0.11255
 Alpha virt. eigenvalues --    0.12093   0.12337   0.12371   0.13158   0.13165

 Mulliken charges:
               1
     1  C    0.740900
     2  C   -0.983282
     3  C   -1.658644
     4  C   -1.298731
     5  C   -1.192332
     6  C    4.092639
     7  N   -2.305579
     8  N   -3.621840
     9  H    1.372268
    10  H    1.739085
    11  H    1.538117
    12  H    1.577399
 Sum of Mulliken charges =   0.00000

 Dipole moment (field-independent basis, Debye):
    X=              1.8135    Y=             -3.1575    Z=              0.0000  Tot=              3.6412

 Test job not archived.
 1\1\GINC-SE047\SP\RHF\Aug-CC-pVDZ\C6H4N2\OHZDE\06-Apr-2025\0\\#t hf au
 g-cc-pvdz iop(5/13=1,5/36=2,99/5=2) pseudo=read geom=check guess=(read
 ,tcheck) scf=(maxcycle=1)\\title\\0,1\C,0,-0.053693,2.019437,0.\C,0,1.
 204654,-1.469386,0.\C,0,1.220966,-0.085509,0.\C,0,-0.022972,-2.123259,
 0.\C,0,-1.181722,-0.159565,0.\C,0,0.,0.592498,0.\N,0,-0.100145,3.17067
 2,0.\N,0,-1.195466,-1.486799,0.\H,0,2.124938,-2.035655,0.\H,0,2.150017
 ,0.466484,0.\H,0,-0.067713,-3.20581,0.\H,0,-2.141358,0.342572,0.\\Vers
 ion=ES64L-G16RevC.01\State=1-A'\HF=-340.0132058\RMSD=1.862e+00\Dipole=

 Normal termination of Gaussian 16 at Sun Apr  6 08:31:35 2025.
