 Gaussian 16, Revision C.01,

 ----------------------------------------------------------------------
 #t hf aug-cc-pvdz symm=none int=(grid=ultrafine) guess=(read,tcheck) s
 table=(opt,rrhf)
 ----------------------------------------------------------------------
 -----
 title
 -----
 Symbolic Z-matrix:
 Charge =  0 Multiplicity = 1

 SCF Done:  E(RHF) =  -354.460327953     A.U. after   15 cycles
 Normal termination of Gaussian 16 at Sun Apr  6 08:31:47 2025.
 Gaussian 16:  ES64L-G16RevC.01  3-Jul-2019

 ----------------------------------------------------------------------
 #t hf aug-cc-pvdz iop(5/13=1,5/36=2,99/5=2) pseudo=read geom=check gue
 ss=(read,tcheck) scf=(maxcycle=1)
 ----------------------------------------------------------------------
 -----
 title
 -----
 Structure from the checkpoint file:  "pyrimidine-2-carbonitrile.chk"
 Charge =  0 Multiplicity = 1

                         Standard orientation:
 ---------------------------------------------------------------------
 Center     Atomic      Atomic             Coordinates (Angstroms)
 Number     Number       Type             X           Y           Z
 ---------------------------------------------------------------------
      1          6           0        0.000000    0.000000    1.983144
      2          6           0        0.000000   -0.000000   -2.114003
      3          6           0        0.000000    1.182119   -1.386720
      4          6           0       -0.000000   -1.182119   -1.386720
      5          6           0        0.000000    0.000000    0.536531
      6          7           0        0.000000    0.000000    3.132944
      7          7           0        0.000000    1.194621   -0.055327
      8          7           0       -0.000000   -1.194621   -0.055327
      9          1           0        0.000000   -0.000000   -3.193985
     10          1           0        0.000000    2.147839   -1.877717
     11          1           0       -0.000000   -2.147839   -1.877717
 ---------------------------------------------------------------------

 SCF Done:  E(RHF) =  -356.049804914     A.U. after    2 cycles

 The electronic state is 1-A1.
 Alpha  occ. eigenvalues --  -15.78239 -15.78144 -15.77586 -11.52936 -11.50549
 Alpha  occ. eigenvalues --  -11.49104 -11.44111 -11.42806  -1.56064  -1.34310
 Alpha  occ. eigenvalues --   -1.31525  -1.20504  -0.98954  -0.95803  -0.81841
 Alpha  occ. eigenvalues --   -0.70418  -0.68366  -0.62658  -0.62051  -0.60253
 Alpha  occ. eigenvalues --   -0.53491  -0.48249  -0.46337  -0.45579  -0.43410
 Alpha  occ. eigenvalues --   -0.38041  -0.38004
 Alpha virt. eigenvalues --    0.02230   0.04608   0.04665   0.07152   0.07395
 Alpha virt. eigenvalues --    0.08525   0.09204   0.10217   0.10863   0.12413
 Alpha virt. eigenvalues --    0.12522   0.12775   0.13416   0.13742   0.13843

 Mulliken charges:
               1
     1  C    0.931493
     2  C   -0.679512
     3  C    0.246940
     4  C    0.246940
     5  C    3.779708
     6  N   -2.316365
     7  N   -3.412465
     8  N   -3.412465
     9  H    1.403274
    10  H    1.606226
    11  H    1.606226
 Sum of Mulliken charges =   0.00000

 Dipole moment (field-independent basis, Debye):
    X=              0.0000    Y=             -0.0000    Z=             -5.7138  Tot=              5.7138

 Test job not archived.
 1\1\GINC-SE009\SP\RHF\Aug-CC-pVDZ\C5H3N3\OHZDE\06-Apr-2025\0\\#t hf au
 g-cc-pvdz iop(5/13=1,5/36=2,99/5=2) pseudo=read geom=check guess=(read
 ,tcheck) scf=(maxcycle=1)\\title\\0,1\C,0,0.,0.,1.983144\C,0,0.,0.,-2.
 114003\C,0,0.,1.182119,-1.38672\C,0,0.,-1.182119,-1.38672\C,0,0.,0.,0.
 536531\N,0,0.,0.,3.132944\N,0,0.,1.194621,-0.055327\N,0,0.,-1.194621,-
 0.055327\H,0,0.,0.,-3.193985\H,0,0.,2.147839,-1.877717\H,0,0.,-2.14783
 9,-1.877717\\Version=ES64L-G16RevC.01\State=1-A1\HF=-356.0498049\RMSD=
 9.293e-01\Dipole=0.,0.,-2.2479967\Quadrupole=0.6262527,1.0167716,-1.64

 Normal termination of Gaussian 16 at Sun Apr  6 08:32:39 2025.
