 Gaussian 16, Revision C.01,

 ----------------------------------------------------------------------
 #t hf aug-cc-pvdz symm=none int=(grid=ultrafine) guess=(read,tcheck) s
 table=(opt,rrhf)
 ----------------------------------------------------------------------
 -----
 title
 -----
 Symbolic Z-matrix:
 Charge =  0 Multiplicity = 1

 SCF Done:  E(RHF) =  -284.919797451     A.U. after   13 cycles
 Normal termination of Gaussian 16 at Sun Apr  6 08:32:57 2025.
 Gaussian 16:  ES64L-G16RevC.01  3-Jul-2019

 ----------------------------------------------------------------------
 #t hf aug-cc-pvdz iop(5/13=1,5/36=2,99/5=2) pseudo=read geom=check gue
 ss=(read,tcheck) scf=(maxcycle=1)
 ----------------------------------------------------------------------
 -----
 title
 -----
 Structure from the checkpoint file:  "pyrrolidin-2-one.chk"
 Charge =  0 Multiplicity = 1

                         Standard orientation:
 ---------------------------------------------------------------------
 Center     Atomic      Atomic             Coordinates (Angstroms)
 Number     Number       Type             X           Y           Z
 ---------------------------------------------------------------------
      1          6           0       -0.903175    0.001036   -0.006994
      2          6           0        0.005478    1.220666    0.132987
      3          6           0        1.412127    0.693606   -0.180358
      4          6           0        1.324994   -0.815730    0.127683
      5          7           0       -0.088155   -1.094127   -0.072504
      6          8           0       -2.116544   -0.011504   -0.038990
      7          1           0       -0.330880    2.020914   -0.521866
      8          1           0       -0.083303    1.580279    1.160742
      9          1           0        1.635799    0.834612   -1.237813
     10          1           0        2.197405    1.180877    0.393609
     11          1           0        1.945173   -1.412323   -0.541075
     12          1           0        1.632814   -1.032529    1.156074
     13          1           0       -0.484123   -2.018367   -0.030135
 ---------------------------------------------------------------------

 SCF Done:  E(RHF) =  -286.233283507     A.U. after    2 cycles

 The electronic state is 1-A.
 Alpha  occ. eigenvalues --  -21.01673 -15.75577 -11.49278 -11.45981 -11.41429
 Alpha  occ. eigenvalues --  -11.37358  -1.69423  -1.43707  -1.16453  -1.04183
 Alpha  occ. eigenvalues --   -0.87404  -0.80615  -0.68829  -0.66513  -0.58984
 Alpha  occ. eigenvalues --   -0.57147  -0.53625  -0.53040  -0.47747  -0.46694
 Alpha  occ. eigenvalues --   -0.44543  -0.30600  -0.27048
 Alpha virt. eigenvalues --    0.03282   0.05109   0.05277   0.05528   0.05686
 Alpha virt. eigenvalues --    0.06214   0.06989   0.10595   0.10891   0.12483
 Alpha virt. eigenvalues --    0.13013   0.13722   0.14427   0.15007   0.15282

 Mulliken charges:
               1
     1  C    4.954425
     2  C   -3.349628
     3  C   -2.483938
     4  C   -2.292516
     5  N   -2.386368
     6  O   -3.389847
     7  H    1.314814
     8  H    1.382343
     9  H    1.347579
    10  H    1.306876
    11  H    1.388196
    12  H    1.484992
    13  H    0.723071
 Sum of Mulliken charges =   0.00000

 Dipole moment (field-independent basis, Debye):
    X=              2.9639    Y=             -0.5481    Z=              0.2462  Tot=              3.0242

 Test job not archived.
 1\1\GINC-SE044\SP\RHF\Aug-CC-pVDZ\C4H7N1O1\OHZDE\06-Apr-2025\0\\#t hf
 aug-cc-pvdz iop(5/13=1,5/36=2,99/5=2) pseudo=read geom=check guess=(re
 ad,tcheck) scf=(maxcycle=1)\\title\\0,1\C,0,-0.903175,0.001036,-0.0069
 94\C,0,0.005478,1.220666,0.132987\C,0,1.412127,0.693606,-0.180358\C,0,
 1.324994,-0.81573,0.127683\N,0,-0.088155,-1.094127,-0.072504\O,0,-2.11
 6544,-0.011504,-0.03899\H,0,-0.33088,2.020914,-0.521866\H,0,-0.083303,
 1.580279,1.160742\H,0,1.635799,0.834612,-1.237813\H,0,2.197405,1.18087
 7,0.393609\H,0,1.945173,-1.412323,-0.541075\H,0,1.632814,-1.032529,1.1

 Normal termination of Gaussian 16 at Sun Apr  6 08:33:03 2025.
