 Gaussian 16, Revision C.01,

 ----------------------------------------------------------------------
 #t hf aug-cc-pvdz symm=none int=(grid=ultrafine) guess=(read,tcheck) s
 table=(opt,rrhf)
 ----------------------------------------------------------------------
 -----
 title
 -----
 Symbolic Z-matrix:
 Charge =  0 Multiplicity = 1

 SCF Done:  E(RHF) =  -1077.52678064     A.U. after   17 cycles
 Normal termination of Gaussian 16 at Sun Apr  6 08:31:53 2025.
 Gaussian 16:  ES64L-G16RevC.01  3-Jul-2019

 ----------------------------------------------------------------------
 #t hf aug-cc-pvdz iop(5/13=1,5/36=2,99/5=2) pseudo=read geom=check gue
 ss=(read,tcheck) scf=(maxcycle=1)
 ----------------------------------------------------------------------
 -----
 title
 -----
 Structure from the checkpoint file:  "pyrrolo-1-2-oxadithiazole.chk"
 Charge =  0 Multiplicity = 1

                         Standard orientation:
 ---------------------------------------------------------------------
 Center     Atomic      Atomic             Coordinates (Angstroms)
 Number     Number       Type             X           Y           Z
 ---------------------------------------------------------------------
      1         16           0       -1.051061    1.281881   -0.283900
      2         16           0       -1.895278   -0.532601    0.338547
      3          8           0       -0.614494   -1.427165   -0.363889
      4          7           0        0.475661    0.575388    0.138694
      5          6           0        0.558745   -0.776721   -0.091504
      6          6           0        1.756359    1.099948    0.219774
      7          6           0        1.870920   -1.154035   -0.105040
      8          6           0        2.624545    0.047815    0.089137
      9          1           0        1.921997    2.142592    0.418071
     10          1           0        2.246994   -2.155899   -0.208071
     11          1           0        3.695337    0.112379    0.181703
 ---------------------------------------------------------------------

 SCF Done:  E(RHF) =  -1079.24187452     A.U. after    2 cycles

 The electronic state is 1-A.
 Alpha  occ. eigenvalues --  -75.78007 -75.76716 -21.12401 -15.79417 -13.24667
 Alpha  occ. eigenvalues --  -13.21977 -13.16695 -13.14693 -13.10946 -13.09619
 Alpha  occ. eigenvalues --  -11.49090 -11.45113 -11.41550 -11.36800  -8.11515
 Alpha  occ. eigenvalues --   -8.10551  -1.83486  -1.52055  -1.26342  -1.11467
 Alpha  occ. eigenvalues --   -1.04827  -0.96850  -0.82845  -0.77013  -0.71523
 Alpha  occ. eigenvalues --   -0.63512  -0.58362  -0.56132  -0.52611  -0.51289
 Alpha  occ. eigenvalues --   -0.48911  -0.44042  -0.39711  -0.35922  -0.30379
 Alpha  occ. eigenvalues --   -0.27526  -0.21079
 Alpha virt. eigenvalues --    0.03256   0.04142   0.04746   0.05832   0.06136
 Alpha virt. eigenvalues --    0.08635   0.10326   0.10891   0.11351   0.11968
 Alpha virt. eigenvalues --    0.12875   0.13753   0.14157   0.15089   0.15242

 Mulliken charges:
               1
     1  S    0.474565
     2  S    0.464895
     3  O   -3.339321
     4  N   -2.219824
     5  C    3.877736
     6  C   -0.718514
     7  C   -2.211939
     8  C   -0.344518
     9  H    1.263086
    10  H    1.377922
    11  H    1.375910
 Sum of Mulliken charges =  -0.00000

 Dipole moment (field-independent basis, Debye):
    X=             -1.8168    Y=              1.0842    Z=              0.1208  Tot=              2.1192

 Test job not archived.
 1\1\GINC-SE136\SP\RHF\Aug-CC-pVDZ\C4H3N1O1S2\OHZDE\06-Apr-2025\0\\#t h
 f aug-cc-pvdz iop(5/13=1,5/36=2,99/5=2) pseudo=read geom=check guess=(
 read,tcheck) scf=(maxcycle=1)\\title\\0,1\S,0,-1.051061,1.281881,-0.28
 39\S,0,-1.895278,-0.532601,0.338547\O,0,-0.614494,-1.427165,-0.363889\
 N,0,0.475661,0.575388,0.138694\C,0,0.558745,-0.776721,-0.091504\C,0,1.
 756359,1.099948,0.219774\C,0,1.87092,-1.154035,-0.10504\C,0,2.624545,0
 .047815,0.089137\H,0,1.921997,2.142592,0.418071\H,0,2.246994,-2.155899
 ,-0.208071\H,0,3.695337,0.112379,0.181703\\Version=ES64L-G16RevC.01\St

 Normal termination of Gaussian 16 at Sun Apr  6 08:32:40 2025.
