 Gaussian 16, Revision C.01,

 ----------------------------------------------------------------------
 #t hf aug-cc-pvdz symm=none int=(grid=ultrafine) guess=(read,tcheck) s
 table=(opt,rrhf)
 ----------------------------------------------------------------------
 -----
 title
 -----
 Symbolic Z-matrix:
 Charge =  0 Multiplicity = 1

 SCF Done:  E(RHF) =  -208.838608894     A.U. after   13 cycles
 Normal termination of Gaussian 16 at Sun Apr  6 08:31:37 2025.
 Gaussian 16:  ES64L-G16RevC.01  3-Jul-2019

 ----------------------------------------------------------------------
 #t hf aug-cc-pvdz iop(5/13=1,5/36=2,99/5=2) pseudo=read geom=check gue
 ss=(read,tcheck) scf=(maxcycle=1)
 ----------------------------------------------------------------------
 -----
 title
 -----
 Structure from the checkpoint file:  "pyrrole.chk"
 Charge =  0 Multiplicity = 1

                         Standard orientation:
 ---------------------------------------------------------------------
 Center     Atomic      Atomic             Coordinates (Angstroms)
 Number     Number       Type             X           Y           Z
 ---------------------------------------------------------------------
      1          6           0        0.000000    0.710696   -0.980035
      2          6           0       -0.000000   -0.710696   -0.980035
      3          6           0        0.000000    1.121982    0.330484
      4          6           0       -0.000000   -1.121982    0.330484
      5          7           0        0.000000    0.000000    1.118833
      6          1           0        0.000000    1.356378   -1.841340
      7          1           0       -0.000000   -1.356378   -1.841340
      8          1           0        0.000000    2.107246    0.761724
      9          1           0       -0.000000   -2.107246    0.761724
     10          1           0        0.000000    0.000000    2.121999
 ---------------------------------------------------------------------

 SCF Done:  E(RHF) =  -209.837267068     A.U. after    2 cycles

 The electronic state is 1-A1.
 Alpha  occ. eigenvalues --  -15.78262 -11.44763 -11.40919 -11.39142 -11.34279
 Alpha  occ. eigenvalues --   -1.49337  -1.12506  -1.03813  -0.81136  -0.78379
 Alpha  occ. eigenvalues --   -0.74847  -0.56206  -0.55708  -0.55612  -0.50659
 Alpha  occ. eigenvalues --   -0.48031  -0.32029  -0.28440
 Alpha virt. eigenvalues --    0.03535   0.05068   0.05667   0.06072   0.06188
 Alpha virt. eigenvalues --    0.11168   0.11755   0.12191   0.14541   0.14584
 Alpha virt. eigenvalues --    0.14848   0.14886   0.15507   0.15740   0.16057

 Mulliken charges:
               1
     1  C   -0.923171
     2  C   -0.923171
     3  C   -0.348911
     4  C   -0.348911
     5  N   -3.365730
     6  H    1.298755
     7  H    1.298755
     8  H    1.265625
     9  H    1.265625
    10  H    0.781132
 Sum of Mulliken charges =  -0.00000

 Dipole moment (field-independent basis, Debye):
    X=             -0.0000    Y=              0.0000    Z=              1.9163  Tot=              1.9163

 Test job not archived.
 1\1\GINC-SE023\SP\RHF\Aug-CC-pVDZ\C4H5N1\OHZDE\06-Apr-2025\0\\#t hf au
 g-cc-pvdz iop(5/13=1,5/36=2,99/5=2) pseudo=read geom=check guess=(read
 ,tcheck) scf=(maxcycle=1)\\title\\0,1\C,0,0.,0.710696,-0.980035\C,0,0.
 ,-0.710696,-0.980035\C,0,0.,1.121982,0.330484\C,0,0.,-1.121982,0.33048
 4\N,0,0.,0.,1.118833\H,0,0.,1.356378,-1.84134\H,0,0.,-1.356378,-1.8413
 4\H,0,0.,2.107246,0.761724\H,0,0.,-2.107246,0.761724\H,0,0.,0.,2.12199
 9\\Version=ES64L-G16RevC.01\State=1-A1\HF=-209.8372671\RMSD=1.312e+00\
 Dipole=0.,0.,0.7539476\Quadrupole=-4.4114599,0.9441753,3.4672846,0.,0.

 Normal termination of Gaussian 16 at Sun Apr  6 08:32:37 2025.
