 Gaussian 16, Revision C.01,

 ----------------------------------------------------------------------
 #t hf aug-cc-pvdz symm=none int=(grid=ultrafine) guess=(read,tcheck) s
 table=(opt,rrhf)
 ----------------------------------------------------------------------
 -----
 title
 -----
 Symbolic Z-matrix:
 Charge =  0 Multiplicity = 1

 SCF Done:  E(RHF) =  -211.174100908     A.U. after   11 cycles
 Normal termination of Gaussian 16 at Sun Apr  6 08:31:46 2025.
 Gaussian 16:  ES64L-G16RevC.01  3-Jul-2019

 ----------------------------------------------------------------------
 #t hf aug-cc-pvdz iop(5/13=1,5/36=2,99/5=2) pseudo=read geom=check gue
 ss=(read,tcheck) scf=(maxcycle=1)
 ----------------------------------------------------------------------
 -----
 title
 -----
 Structure from the checkpoint file:  "pyrrolidine.chk"
 Charge =  0 Multiplicity = 1

                         Standard orientation:
 ---------------------------------------------------------------------
 Center     Atomic      Atomic             Coordinates (Angstroms)
 Number     Number       Type             X           Y           Z
 ---------------------------------------------------------------------
      1          6           0        0.098831    1.023382    0.776623
      2          6           0        0.098831    1.023382   -0.776623
      3          6           0        0.098831   -0.465440    1.163404
      4          6           0        0.098831   -0.465440   -1.163404
      5          7           0       -0.516767   -1.106166    0.000000
      6          1           0        0.959997    1.544372    1.192744
      7          1           0       -0.795896    1.513765    1.157193
      8          1           0       -0.795896    1.513765   -1.157193
      9          1           0        0.959997    1.544372   -1.192744
     10          1           0        1.132013   -0.807155    1.332694
     11          1           0       -0.473545   -0.671624    2.067900
     12          1           0       -0.473545   -0.671624   -2.067900
     13          1           0        1.132013   -0.807155   -1.332694
     14          1           0       -0.399708   -2.110863    0.000000
 ---------------------------------------------------------------------

 SCF Done:  E(RHF) =  -212.236908856     A.U. after    2 cycles

 The electronic state is 1-A'.
 Alpha  occ. eigenvalues --  -15.70407 -11.48991 -11.39355 -11.37217 -11.33947
 Alpha  occ. eigenvalues --   -1.41974  -1.11868  -1.05352  -0.83864  -0.82137
 Alpha  occ. eigenvalues --   -0.69550  -0.66382  -0.58650  -0.55133  -0.48318
 Alpha  occ. eigenvalues --   -0.48102  -0.45229  -0.43529  -0.43511  -0.32181
 Alpha virt. eigenvalues --    0.04187   0.05802   0.05829   0.06048   0.06142
 Alpha virt. eigenvalues --    0.06176   0.06474   0.06632   0.09178   0.11277
 Alpha virt. eigenvalues --    0.13344   0.14136   0.14910   0.15170   0.15235

 Mulliken charges:
               1
     1  C   -2.433605
     2  C   -2.433605
     3  C   -2.455515
     4  C   -2.455515
     5  N   -1.842209
     6  H    1.352355
     7  H    1.340243
     8  H    1.340243
     9  H    1.352355
    10  H    1.445939
    11  H    1.360354
    12  H    1.360354
    13  H    1.445939
    14  H    0.622666
 Sum of Mulliken charges =   0.00000

 Dipole moment (field-independent basis, Debye):
    X=              0.6585    Y=             -0.2502    Z=              0.0000  Tot=              0.7044

 Test job not archived.
 1\1\GINC-SE055\SP\RHF\Aug-CC-pVDZ\C4H9N1\OHZDE\06-Apr-2025\0\\#t hf au
 g-cc-pvdz iop(5/13=1,5/36=2,99/5=2) pseudo=read geom=check guess=(read
 ,tcheck) scf=(maxcycle=1)\\title\\0,1\C,0,0.098831,1.023382,0.776623\C
 ,0,0.098831,1.023382,-0.776623\C,0,0.098831,-0.46544,1.163404\C,0,0.09
 8831,-0.46544,-1.163404\N,0,-0.516767,-1.106166,0.\H,0,0.959997,1.5443
 72,1.192744\H,0,-0.795896,1.513765,1.157193\H,0,-0.795896,1.513765,-1.
 157193\H,0,0.959997,1.544372,-1.192744\H,0,1.132013,-0.807155,1.332694
 \H,0,-0.473545,-0.671624,2.0679\H,0,-0.473545,-0.671624,-2.0679\H,0,1.

 Normal termination of Gaussian 16 at Sun Apr  6 08:32:37 2025.
