 Gaussian 16, Revision C.01,

 ----------------------------------------------------------------------
 #t hf aug-cc-pvdz symm=none int=(grid=ultrafine) guess=(read,tcheck) s
 table=(opt,rrhf)
 ----------------------------------------------------------------------
 -----
 title
 -----
 Symbolic Z-matrix:
 Charge =  0 Multiplicity = 1

 SCF Done:  E(RHF) =  -302.908305846     A.U. after   14 cycles
 Normal termination of Gaussian 16 at Sun Apr  6 08:32:05 2025.
 Gaussian 16:  ES64L-G16RevC.01  3-Jul-2019

 ----------------------------------------------------------------------
 #t hf aug-cc-pvdz iop(5/13=1,5/36=2,99/5=2) pseudo=read geom=check gue
 ss=(read,tcheck) scf=(maxcycle=1)
 ----------------------------------------------------------------------
 -----
 title
 -----
 Structure from the checkpoint file:  "pyrrolidine-1-carbonitrile.chk"
 Charge =  0 Multiplicity = 1

                         Standard orientation:
 ---------------------------------------------------------------------
 Center     Atomic      Atomic             Coordinates (Angstroms)
 Number     Number       Type             X           Y           Z
 ---------------------------------------------------------------------
      1          1           0        0.006474   -0.227339    2.044374
      2          1           0       -1.635546   -0.354899    1.408749
      3          6           0       -0.624771   -0.007610    1.187918
      4          1           0        0.006474   -0.227339   -2.044374
      5          1           0       -1.635546   -0.354899   -1.408749
      6          6           0       -0.624771   -0.007610   -1.187918
      7          1           0       -1.486817    2.000076   -1.189456
      8          1           0        0.267197    1.975221   -1.154715
      9          6           0       -0.624771    1.478937   -0.776179
     10          1           0       -1.486817    2.000076    1.189456
     11          1           0        0.267197    1.975221    1.154715
     12          6           0       -0.624771    1.478937    0.776179
     13          7           0       -0.139113   -0.737456    0.000000
     14          6           0        1.096623   -1.229239   -0.000000
     15          7           0        2.155136   -1.700631   -0.000000
 ---------------------------------------------------------------------

 SCF Done:  E(RHF) =  -304.352771514     A.U. after    2 cycles

 The electronic state is 1-A'.
 Alpha  occ. eigenvalues --  -15.76944 -15.73387 -11.52244 -11.44848 -11.44153
 Alpha  occ. eigenvalues --  -11.40866 -11.37407  -1.50926  -1.28231  -1.16985
 Alpha  occ. eigenvalues --   -1.10020  -0.92562  -0.86356  -0.75015  -0.69819
 Alpha  occ. eigenvalues --   -0.63839  -0.62932  -0.55825  -0.54841  -0.50705
 Alpha  occ. eigenvalues --   -0.49828  -0.48694  -0.47188  -0.47072  -0.41015
 Alpha  occ. eigenvalues --   -0.31876
 Alpha virt. eigenvalues --    0.03022   0.04994   0.05066   0.05151   0.05752
 Alpha virt. eigenvalues --    0.05819   0.06383   0.08573   0.09449   0.10161
 Alpha virt. eigenvalues --    0.12224   0.12597   0.12834   0.14088   0.14115

 Mulliken charges:
               1
     1  H    1.568339
     2  H    1.402205
     3  C   -2.609583
     4  H    1.568339
     5  H    1.402205
     6  C   -2.609583
     7  H    1.370081
     8  H    1.354572
     9  C   -2.615780
    10  H    1.370081
    11  H    1.354572
    12  C   -2.615780
    13  N   -1.877853
    14  C    3.868093
    15  N   -2.929911
 Sum of Mulliken charges =   0.00000

 Dipole moment (field-independent basis, Debye):
    X=             -3.8418    Y=              2.9301    Z=              0.0000  Tot=              4.8317

 Test job not archived.
 1\1\GINC-SE049\SP\RHF\Aug-CC-pVDZ\C5H8N2\OHZDE\06-Apr-2025\0\\#t hf au
 g-cc-pvdz iop(5/13=1,5/36=2,99/5=2) pseudo=read geom=check guess=(read
 ,tcheck) scf=(maxcycle=1)\\title\\0,1\H,0,0.006474,-0.227339,2.044374\
 H,0,-1.635546,-0.354899,1.408749\C,0,-0.624771,-0.00761,1.187918\H,0,0
 .006474,-0.227339,-2.044374\H,0,-1.635546,-0.354899,-1.408749\C,0,-0.6
 24771,-0.00761,-1.187918\H,0,-1.486817,2.000076,-1.189456\H,0,0.267197
 ,1.975221,-1.154715\C,0,-0.624771,1.478937,-0.776179\H,0,-1.486817,2.0
 00076,1.189456\H,0,0.267197,1.975221,1.154715\C,0,-0.624771,1.478937,0

 Normal termination of Gaussian 16 at Sun Apr  6 08:32:39 2025.
