 Gaussian 16, Revision C.01,

 ----------------------------------------------------------------------
 #t hf aug-cc-pvdz symm=none int=(grid=ultrafine) guess=(read,tcheck) s
 table=(opt,rrhf)
 ----------------------------------------------------------------------
 -----
 title
 -----
 Symbolic Z-matrix:
 Charge =  0 Multiplicity = 1

 SCF Done:  E(RHF) =  -269.645425006     A.U. after   12 cycles
 Normal termination of Gaussian 16 at Sun Apr  6 08:32:01 2025.
 Gaussian 16:  ES64L-G16RevC.01  3-Jul-2019

 ----------------------------------------------------------------------
 #t hf aug-cc-pvdz iop(5/13=1,5/36=2,99/5=2) pseudo=read geom=check gue
 ss=(read,tcheck) scf=(maxcycle=1)
 ----------------------------------------------------------------------
 -----
 title
 -----
 Structure from the checkpoint file:  "quadricyclane.chk"
 Charge =  0 Multiplicity = 1

                         Standard orientation:
 ---------------------------------------------------------------------
 Center     Atomic      Atomic             Coordinates (Angstroms)
 Number     Number       Type             X           Y           Z
 ---------------------------------------------------------------------
      1          6           0       -0.756547    0.773373   -0.707390
      2          6           0        0.756547    0.773373   -0.707390
      3          6           0        0.000000    1.149648    0.549230
      4          6           0       -0.756547   -0.773373   -0.707390
      5          6           0        0.756547   -0.773373   -0.707390
      6          6           0       -0.000000   -1.149648    0.549230
      7          6           0       -0.000000   -0.000000    1.534441
      8          1           0       -1.443256    1.422663   -1.227100
      9          1           0        1.443256    1.422663   -1.227100
     10          1           0        0.000000    2.180720    0.872633
     11          1           0       -1.443256   -1.422663   -1.227100
     12          1           0        1.443256   -1.422663   -1.227100
     13          1           0       -0.000000   -2.180720    0.872633
     14          1           0        0.887300   -0.000000    2.171546
     15          1           0       -0.887300    0.000000    2.171546
 ---------------------------------------------------------------------

 SCF Done:  E(RHF) =  -270.971895773     A.U. after    2 cycles

 The electronic state is 1-A1.
 Alpha  occ. eigenvalues --  -11.48687 -11.48608 -11.44427 -11.40072 -11.38450
 Alpha  occ. eigenvalues --  -11.37236 -11.33822  -1.49710  -1.12930  -1.07161
 Alpha  occ. eigenvalues --   -0.91212  -0.80967  -0.79269  -0.74836  -0.74738
 Alpha  occ. eigenvalues --   -0.59889  -0.58595  -0.58238  -0.50743  -0.46250
 Alpha  occ. eigenvalues --   -0.45105  -0.41775  -0.36084  -0.35366  -0.28833
 Alpha virt. eigenvalues --    0.04113   0.05046   0.05069   0.05317   0.05451
 Alpha virt. eigenvalues --    0.06498   0.06688   0.06877   0.10076   0.12106
 Alpha virt. eigenvalues --    0.12336   0.12949   0.14036   0.14545   0.15243

 Mulliken charges:
               1
     1  C   -0.885099
     2  C   -0.885099
     3  C   -0.903972
     4  C   -0.885099
     5  C   -0.885099
     6  C   -0.903972
     7  C   -5.016988
     8  H    1.260170
     9  H    1.260170
    10  H    1.415529
    11  H    1.260170
    12  H    1.260170
    13  H    1.415529
    14  H    1.246794
    15  H    1.246794
 Sum of Mulliken charges =   0.00000

 Dipole moment (field-independent basis, Debye):
    X=              0.0000    Y=              0.0000    Z=             -0.0747  Tot=              0.0747

 Test job not archived.
 1\1\GINC-SE146\SP\RHF\Aug-CC-pVDZ\C7H8\OHZDE\06-Apr-2025\0\\#t hf aug-
 cc-pvdz iop(5/13=1,5/36=2,99/5=2) pseudo=read geom=check guess=(read,t
 check) scf=(maxcycle=1)\\title\\0,1\C,0,-0.756547,0.773373,-0.70739\C,
 0,0.756547,0.773373,-0.70739\C,0,0.,1.149648,0.54923\C,0,-0.756547,-0.
 773373,-0.70739\C,0,0.756547,-0.773373,-0.70739\C,0,0.,-1.149648,0.549
 23\C,0,0.,0.,1.534441\H,0,-1.443256,1.422663,-1.2271\H,0,1.443256,1.42
 2663,-1.2271\H,0,0.,2.18072,0.872633\H,0,-1.443256,-1.422663,-1.2271\H
 ,0,1.443256,-1.422663,-1.2271\H,0,0.,-2.18072,0.872633\H,0,0.8873,0.,2

 Normal termination of Gaussian 16 at Sun Apr  6 08:32:38 2025.
