 Gaussian 16, Revision C.01,

 ----------------------------------------------------------------------
 #t hf aug-cc-pvdz symm=none int=(grid=ultrafine) guess=(read,tcheck) s
 table=(opt,rrhf)
 ----------------------------------------------------------------------
 -----
 title
 -----
 Symbolic Z-matrix:
 Charge =  0 Multiplicity = 1

 SCF Done:  E(RHF) =  -327.114313251     A.U. after   12 cycles

 1\1\GINC-SE041\Stability\RHF\Aug-CC-pVDZ\C7H13N1\OHZDE\06-Apr-2025\0\\
 #t hf aug-cc-pvdz symm=none int=(grid=ultrafine) guess=(read,tcheck) s
 table=(opt,rrhf)\\title\\0,1\N,0,0.,0.,1.286725\C,0,0.,1.384344,0.7969
 64\C,0,-1.198877,-0.692172,0.796964\C,0,1.198877,-0.692172,0.796964\C,
 0,0.,1.443662,-0.760521\C,0,-1.250248,-0.721831,-0.760521\C,0,1.250248
 ,-0.721831,-0.760521\C,0,0.,0.,-1.290089\H,0,0.877475,1.885976,1.20793
 1\H,0,-0.877475,1.885976,1.207931\H,0,-2.07204,-0.183072,1.207931\H,0,
 -1.194565,-1.702903,1.207931\H,0,1.194565,-1.702903,1.207931\H,0,2.072

 Normal termination of Gaussian 16 at Sun Apr  6 08:32:50 2025.
 Gaussian 16:  ES64L-G16RevC.01  3-Jul-2019

 ----------------------------------------------------------------------
 #t hf aug-cc-pvdz iop(5/13=1,5/36=2,99/5=2) pseudo=read geom=check gue
 ss=(read,tcheck) scf=(maxcycle=1)
 ----------------------------------------------------------------------
 -----
 title
 -----
 Structure from the checkpoint file:  "quinuclidine.chk"
 Charge =  0 Multiplicity = 1

                         Standard orientation:
 ---------------------------------------------------------------------
 Center     Atomic      Atomic             Coordinates (Angstroms)
 Number     Number       Type             X           Y           Z
 ---------------------------------------------------------------------
      1          7           0       -1.286725    0.000000    0.000000
      2          6           0       -0.796964   -1.384344    0.000000
      3          6           0       -0.796964    0.692172    1.198877
      4          6           0       -0.796964    0.692172   -1.198877
      5          6           0        0.760521   -1.443662   -0.000000
      6          6           0        0.760521    0.721831    1.250248
      7          6           0        0.760521    0.721831   -1.250248
      8          6           0        1.290089    0.000000   -0.000000
      9          1           0       -1.207931   -1.885976   -0.877475
     10          1           0       -1.207931   -1.885976    0.877475
     11          1           0       -1.207931    0.183072    2.072040
     12          1           0       -1.207931    1.702903    1.194565
     13          1           0       -1.207931    1.702903   -1.194565
     14          1           0       -1.207931    0.183072   -2.072040
     15          1           0        1.131569   -1.977815   -0.877284
     16          1           0        1.131569   -1.977815    0.877284
     17          1           0        1.131569    0.229157    2.151480
     18          1           0        1.131569    1.748657    1.274196
     19          1           0        1.131569    1.748657   -1.274196
     20          1           0        1.131569    0.229157   -2.151480
     21          1           0        2.380678    0.000000   -0.000000
 ---------------------------------------------------------------------

 SCF Done:  E(RHF) =  -328.768605987     A.U. after    2 cycles

 The electronic state is 1-A'.
 Alpha  occ. eigenvalues --  -15.68873 -11.45665 -11.45665 -11.43749 -11.38427
 Alpha  occ. eigenvalues --  -11.36645 -11.36645 -11.33669  -1.46747  -1.19901
 Alpha  occ. eigenvalues --   -1.10864  -1.10864  -0.89949  -0.89949  -0.86753
 Alpha  occ. eigenvalues --   -0.71530  -0.68016  -0.66879  -0.66879  -0.56602
 Alpha  occ. eigenvalues --   -0.53859  -0.53859  -0.51597  -0.51597  -0.47436
 Alpha  occ. eigenvalues --   -0.47088  -0.47088  -0.44549  -0.38400  -0.38400
 Alpha  occ. eigenvalues --   -0.27753
 Alpha virt. eigenvalues --    0.04053   0.04967   0.04967   0.05364   0.05364
 Alpha virt. eigenvalues --    0.05421   0.06683   0.06683   0.06876   0.08191
 Alpha virt. eigenvalues --    0.08479   0.08479   0.11085   0.11205   0.12867

 Mulliken charges:
               1
     1  N   -1.706097
     2  C   -2.565855
     3  C   -2.565856
     4  C   -2.565856
     5  C   -3.098225
     6  C   -3.098226
     7  C   -3.098226
     8  C    0.658433
     9  H    1.364413
    10  H    1.364413
    11  H    1.364413
    12  H    1.364413
    13  H    1.364413
    14  H    1.364413
    15  H    1.359730
    16  H    1.359730
    17  H    1.359729
    18  H    1.359731
    19  H    1.359731
    20  H    1.359729
    21  H    1.695054
 Sum of Mulliken charges =   0.00000

 Dipole moment (field-independent basis, Debye):
    X=              0.6864    Y=              0.0000    Z=             -0.0000  Tot=              0.6864

 Test job not archived.
 1\1\GINC-SE041\SP\RHF\Aug-CC-pVDZ\C7H13N1\OHZDE\06-Apr-2025\0\\#t hf a
 ug-cc-pvdz iop(5/13=1,5/36=2,99/5=2) pseudo=read geom=check guess=(rea
 d,tcheck) scf=(maxcycle=1)\\title\\0,1\N,0,0.,0.,1.286725\C,0,0.,1.384
 344,0.796964\C,0,-1.198877,-0.692172,0.796964\C,0,1.198877,-0.692172,0
 .796964\C,0,0.,1.443662,-0.760521\C,0,-1.250248,-0.721831,-0.760521\C,
 0,1.250248,-0.721831,-0.760521\C,0,0.,0.,-1.290089\H,0,0.877475,1.8859
 76,1.207931\H,0,-0.877475,1.885976,1.207931\H,0,-2.07204,-0.183072,1.2
 07931\H,0,-1.194565,-1.702903,1.207931\H,0,1.194565,-1.702903,1.207931

 Normal termination of Gaussian 16 at Sun Apr  6 08:32:57 2025.
