 Gaussian 16, Revision C.01,

 ----------------------------------------------------------------------
 #t hf aug-cc-pvdz symm=none int=(grid=ultrafine) guess=(read,tcheck) s
 table=(opt,rrhf)
 ----------------------------------------------------------------------
 -----
 title
 -----
 Symbolic Z-matrix:
 Charge =  0 Multiplicity = 1

 SCF Done:  E(RHF) =  -415.385362536     A.U. after   15 cycles
 Normal termination of Gaussian 16 at Sun Apr  6 08:32:41 2025.
 Gaussian 16:  ES64L-G16RevC.01  3-Jul-2019

 ----------------------------------------------------------------------
 #t hf aug-cc-pvdz iop(5/13=1,5/36=2,99/5=2) pseudo=read geom=check gue
 ss=(read,tcheck) scf=(maxcycle=1)
 ----------------------------------------------------------------------
 -----
 title
 -----
 Structure from the checkpoint file:  "quinoxaline.chk"
 Charge =  0 Multiplicity = 1

                         Standard orientation:
 ---------------------------------------------------------------------
 Center     Atomic      Atomic             Coordinates (Angstroms)
 Number     Number       Type             X           Y           Z
 ---------------------------------------------------------------------
      1          6           0        0.000000    0.706926    2.368951
      2          6           0       -0.000000   -0.706926    2.368951
      3          6           0        0.000000    1.406054    1.190448
      4          6           0       -0.000000   -1.406054    1.190448
      5          6           0        0.000000    0.708403   -2.312800
      6          6           0       -0.000000   -0.708403   -2.312800
      7          6           0        0.000000    0.712878   -0.041323
      8          6           0       -0.000000   -0.712878   -0.041323
      9          7           0        0.000000    1.410993   -1.208183
     10          7           0       -0.000000   -1.410993   -1.208183
     11          1           0        0.000000    1.237156    3.311638
     12          1           0       -0.000000   -1.237156    3.311638
     13          1           0        0.000000    2.486877    1.166492
     14          1           0       -0.000000   -2.486877    1.166492
     15          1           0        0.000000    1.250205   -3.252504
     16          1           0       -0.000000   -1.250205   -3.252504
 ---------------------------------------------------------------------

 SCF Done:  E(RHF) =  -417.311496453     A.U. after    2 cycles

 The electronic state is 1-A1.
 Alpha  occ. eigenvalues --  -15.76307 -15.76190 -11.53841 -11.47797 -11.46246
 Alpha  occ. eigenvalues --  -11.44468 -11.42599 -11.42252 -11.41265 -11.37500
 Alpha  occ. eigenvalues --   -1.52299  -1.34327  -1.29931  -1.11538  -1.10015
 Alpha  occ. eigenvalues --   -0.94969  -0.91366  -0.87090  -0.75141  -0.71295
 Alpha  occ. eigenvalues --   -0.70213  -0.62150  -0.61719  -0.59218  -0.57740
 Alpha  occ. eigenvalues --   -0.55930  -0.47983  -0.47438  -0.46646  -0.45583
 Alpha  occ. eigenvalues --   -0.44523  -0.33619  -0.33081  -0.31109
 Alpha virt. eigenvalues --    0.03243   0.04877   0.05204   0.05586   0.06156
 Alpha virt. eigenvalues --    0.07012   0.07109   0.10008   0.10206   0.11547
 Alpha virt. eigenvalues --    0.12457   0.12624   0.12784   0.12822   0.13442

 Mulliken charges:
               1
     1  C   -0.604619
     2  C   -0.604619
     3  C   -1.368306
     4  C   -1.368306
     5  C    0.152483
     6  C    0.152483
     7  C    1.675883
     8  C    1.675883
     9  N   -4.853343
    10  N   -4.853343
    11  H    1.555061
    12  H    1.555061
    13  H    1.757271
    14  H    1.757271
    15  H    1.685570
    16  H    1.685570
 Sum of Mulliken charges =   0.00000

 Dipole moment (field-independent basis, Debye):
    X=             -0.0000    Y=              0.0000    Z=              0.2712  Tot=              0.2712

 Test job not archived.
 1\1\GINC-SE013\SP\RHF\Aug-CC-pVDZ\C8H6N2\OHZDE\06-Apr-2025\0\\#t hf au
 g-cc-pvdz iop(5/13=1,5/36=2,99/5=2) pseudo=read geom=check guess=(read
 ,tcheck) scf=(maxcycle=1)\\title\\0,1\C,0,0.,0.706926,2.368951\C,0,0.,
 -0.706926,2.368951\C,0,0.,1.406054,1.190448\C,0,0.,-1.406054,1.190448\
 C,0,0.,0.708403,-2.3128\C,0,0.,-0.708403,-2.3128\C,0,0.,0.712878,-0.04
 1323\C,0,0.,-0.712878,-0.041323\N,0,0.,1.410993,-1.208183\N,0,0.,-1.41
 0993,-1.208183\H,0,0.,1.237156,3.311638\H,0,0.,-1.237156,3.311638\H,0,
 0.,2.486877,1.166492\H,0,0.,-2.486877,1.166492\H,0,0.,1.250205,-3.2525

 Normal termination of Gaussian 16 at Sun Apr  6 08:32:50 2025.
