 Gaussian 16, Revision C.01,

 ----------------------------------------------------------------------
 #t hf aug-cc-pvdz symm=none int=(grid=ultrafine) guess=(read,tcheck) s
 table=(opt,rrhf)
 ----------------------------------------------------------------------
 -----
 title
 -----
 Symbolic Z-matrix:
 Charge =  0 Multiplicity = 1

 SCF Done:  E(RHF) =  -399.392455679     A.U. after   17 cycles
 Normal termination of Gaussian 16 at Sun Apr  6 08:33:09 2025.
 Gaussian 16:  ES64L-G16RevC.01  3-Jul-2019

 ----------------------------------------------------------------------
 #t hf aug-cc-pvdz iop(5/13=1,5/36=2,99/5=2) pseudo=read geom=check gue
 ss=(read,tcheck) scf=(maxcycle=1)
 ----------------------------------------------------------------------
 -----
 title
 -----
 Structure from the checkpoint file:  "quinoline.chk"
 Charge =  0 Multiplicity = 1

                         Standard orientation:
 ---------------------------------------------------------------------
 Center     Atomic      Atomic             Coordinates (Angstroms)
 Number     Number       Type             X           Y           Z
 ---------------------------------------------------------------------
      1          6           0        0.000000    0.703651    0.000000
      2          7           0       -1.128178    1.465945   -0.000000
      3          6           0        1.258493    1.350388    0.000000
      4          6           0       -2.286918    0.851830   -0.000000
      5          6           0       -2.438097   -0.553100   -0.000000
      6          6           0       -1.316052   -1.335881   -0.000000
      7          6           0       -0.043208   -0.722482   -0.000000
      8          6           0        2.416244    0.616895    0.000000
      9          6           0        2.373746   -0.794928    0.000000
     10          6           0        1.170348   -1.450387    0.000000
     11          1           0       -3.428480   -0.986603   -0.000000
     12          1           0       -3.168814    1.484250   -0.000000
     13          1           0        3.297826   -1.356965    0.000000
     14          1           0        3.374149    1.119515    0.000000
     15          1           0       -1.387749   -2.416474   -0.000000
     16          1           0        1.132723   -2.532563    0.000000
     17          1           0        1.270259    2.431307    0.000000
 ---------------------------------------------------------------------

 SCF Done:  E(RHF) =  -401.278765428     A.U. after    2 cycles

 The electronic state is 1-A'.
 Alpha  occ. eigenvalues --  -15.73535 -11.52221 -11.48466 -11.45142 -11.44581
 Alpha  occ. eigenvalues --  -11.43334 -11.41772 -11.41488 -11.40239 -11.37195
 Alpha  occ. eigenvalues --   -1.46896  -1.29228  -1.20163  -1.09685  -1.07792
 Alpha  occ. eigenvalues --   -0.91731  -0.89081  -0.85896  -0.73923  -0.70811
 Alpha  occ. eigenvalues --   -0.68846  -0.61740  -0.59492  -0.56312  -0.55940
 Alpha  occ. eigenvalues --   -0.55231  -0.54643  -0.47073  -0.46273  -0.43848
 Alpha  occ. eigenvalues --   -0.40634  -0.35261  -0.32187  -0.29444
 Alpha virt. eigenvalues --    0.03205   0.04670   0.04967   0.05620   0.06392
 Alpha virt. eigenvalues --    0.06786   0.07464   0.08154   0.09496   0.10427
 Alpha virt. eigenvalues --    0.11148   0.11418   0.12786   0.13269   0.13359

 Mulliken charges:
               1
     1  C    0.702284
     2  N   -4.481216
     3  C   -2.373518
     4  C   -1.698252
     5  C   -2.216929
     6  C   -1.131313
     7  C    5.399716
     8  C   -1.444329
     9  C   -2.509481
    10  C   -1.451955
    11  H    1.420597
    12  H    1.629477
    13  H    1.482008
    14  H    1.492817
    15  H    1.694495
    16  H    1.731341
    17  H    1.754260
 Sum of Mulliken charges =   0.00000

 Dipole moment (field-independent basis, Debye):
    X=              0.0199    Y=             -1.7604    Z=             -0.0000  Tot=              1.7605

 Test job not archived.
 1\1\GINC-SE212\SP\RHF\Aug-CC-pVDZ\C9H7N1\OHZDE\06-Apr-2025\0\\#t hf au
 g-cc-pvdz iop(5/13=1,5/36=2,99/5=2) pseudo=read geom=check guess=(read
 ,tcheck) scf=(maxcycle=1)\\title\\0,1\C,0,0.,0.703651,0.\N,0,-1.128178
 ,1.465945,0.\C,0,1.258493,1.350388,0.\C,0,-2.286918,0.85183,0.\C,0,-2.
 438097,-0.5531,0.\C,0,-1.316052,-1.335881,0.\C,0,-0.043208,-0.722482,0
 .\C,0,2.416244,0.616895,0.\C,0,2.373746,-0.794928,0.\C,0,1.170348,-1.4
 50387,0.\H,0,-3.42848,-0.986603,0.\H,0,-3.168814,1.48425,0.\H,0,3.2978
 26,-1.356965,0.\H,0,3.374149,1.119515,0.\H,0,-1.387749,-2.416474,0.\H,

 Normal termination of Gaussian 16 at Sun Apr  6 08:34:01 2025.
