 Gaussian 16, Revision C.01,

 ----------------------------------------------------------------------
 #t hf aug-cc-pvdz symm=none int=(grid=ultrafine) guess=(read,tcheck) s
 table=(opt,rrhf)
 ----------------------------------------------------------------------
 -----
 title
 -----
 Symbolic Z-matrix:
 Charge =  0 Multiplicity = 1

 SCF Done:  E(RHF) =  -415.394415194     A.U. after   17 cycles
 Normal termination of Gaussian 16 at Sun Apr  6 08:32:57 2025.
 Gaussian 16:  ES64L-G16RevC.01  3-Jul-2019

 ----------------------------------------------------------------------
 #t hf aug-cc-pvdz iop(5/13=1,5/36=2,99/5=2) pseudo=read geom=check gue
 ss=(read,tcheck) scf=(maxcycle=1)
 ----------------------------------------------------------------------
 -----
 title
 -----
 Structure from the checkpoint file:  "quinazoline.chk"
 Charge =  0 Multiplicity = 1

                         Standard orientation:
 ---------------------------------------------------------------------
 Center     Atomic      Atomic             Coordinates (Angstroms)
 Number     Number       Type             X           Y           Z
 ---------------------------------------------------------------------
      1          6           0       -0.000000    0.710654    0.000000
      2          7           0       -1.139196    1.455520   -0.000000
      3          6           0        1.262828    1.344587    0.000000
      4          6           0       -2.272688    0.801977   -0.000000
      5          7           0       -2.447219   -0.545954   -0.000000
      6          6           0       -1.355631   -1.271463   -0.000000
      7          6           0       -0.059588   -0.708461   -0.000000
      8          6           0        2.405933    0.586778    0.000000
      9          6           0        2.345352   -0.825470    0.000000
     10          6           0        1.133349   -1.465216    0.000000
     11          1           0       -3.182755    1.390554   -0.000000
     12          1           0       -1.474928   -2.351670   -0.000000
     13          1           0        3.262970   -1.397525    0.000000
     14          1           0        3.372410    1.072811    0.000000
     15          1           0        1.075626   -2.546382    0.000000
     16          1           0        1.294255    2.424936    0.000000
 ---------------------------------------------------------------------

 SCF Done:  E(RHF) =  -417.320216649     A.U. after    2 cycles

 The electronic state is 1-A'.
 Alpha  occ. eigenvalues --  -15.74555 -15.74024 -11.53355 -11.48316 -11.46761
 Alpha  occ. eigenvalues --  -11.44697 -11.43980 -11.42742 -11.42410 -11.38434
 Alpha  occ. eigenvalues --   -1.52324  -1.33508  -1.29564  -1.13902  -1.10247
 Alpha  occ. eigenvalues --   -0.94886  -0.91575  -0.87747  -0.75336  -0.72066
 Alpha  occ. eigenvalues --   -0.69358  -0.62318  -0.61467  -0.59164  -0.57140
 Alpha  occ. eigenvalues --   -0.56656  -0.51117  -0.48778  -0.47875  -0.43004
 Alpha  occ. eigenvalues --   -0.40924  -0.34757  -0.34223  -0.31030
 Alpha virt. eigenvalues --    0.03072   0.04633   0.04972   0.05961   0.06458
 Alpha virt. eigenvalues --    0.07078   0.07501   0.09162   0.10059   0.10330
 Alpha virt. eigenvalues --    0.11339   0.11819   0.12216   0.12798   0.13359

 Mulliken charges:
               1
     1  C    1.859479
     2  N   -4.420439
     3  C   -2.333703
     4  C    0.804326
     5  N   -3.438597
     6  C   -2.090821
     7  C    3.183941
     8  C   -1.224046
     9  C   -2.377364
    10  C    0.337628
    11  H    1.737131
    12  H    1.420224
    13  H    1.514522
    14  H    1.511390
    15  H    1.780703
    16  H    1.735626
 Sum of Mulliken charges =  -0.00000

 Dipole moment (field-independent basis, Debye):
    X=              2.1712    Y=             -1.2026    Z=              0.0000  Tot=              2.4820

 Test job not archived.
 1\1\GINC-SE200\SP\RHF\Aug-CC-pVDZ\C8H6N2\OHZDE\06-Apr-2025\0\\#t hf au
 g-cc-pvdz iop(5/13=1,5/36=2,99/5=2) pseudo=read geom=check guess=(read
 ,tcheck) scf=(maxcycle=1)\\title\\0,1\C,0,0.039427,-0.709559,0.\N,0,1.
 218194,-1.390076,0.\C,0,-1.186285,-1.412578,0.\C,0,2.313681,-0.674653,
 0.\N,0,2.41316,0.680885,0.\C,0,1.283002,1.344715,0.\C,0,0.020191,0.710
 676,0.\C,0,-2.369673,-0.719355,0.\C,0,-2.387537,0.694079,0.\C,0,-1.212
 893,1.400081,0.\H,0,3.255001,-1.211833,0.\H,0,1.342186,2.429877,0.\H,0
 ,-3.335479,1.214343,0.\H,0,-3.307696,-1.25826,0.\H,0,-1.215242,2.48278

 Normal termination of Gaussian 16 at Sun Apr  6 08:33:10 2025.
