 Gaussian 16, Revision C.01,

 ----------------------------------------------------------------------
 #t hf aug-cc-pvdz symm=none int=(grid=ultrafine) guess=(read,tcheck) s
 table=(opt,rrhf)
 ----------------------------------------------------------------------
 -----
 title
 -----
 Symbolic Z-matrix:
 Charge =  0 Multiplicity = 1

 SCF Done:  E(RHF) =  -474.251888092     A.U. after   17 cycles
 Normal termination of Gaussian 16 at Sun Apr  6 08:34:03 2025.
 Gaussian 16:  ES64L-G16RevC.01  3-Jul-2019

 ----------------------------------------------------------------------
 #t hf aug-cc-pvdz iop(5/13=1,5/36=2,99/5=2) pseudo=read geom=check gue
 ss=(read,tcheck) scf=(maxcycle=1)
 ----------------------------------------------------------------------
 -----
 title
 -----
 Structure from the checkpoint file:  "quinolizin-4-one.chk"
 Charge =  0 Multiplicity = 1

                         Standard orientation:
 ---------------------------------------------------------------------
 Center     Atomic      Atomic             Coordinates (Angstroms)
 Number     Number       Type             X           Y           Z
 ---------------------------------------------------------------------
      1          6           0        2.686397   -0.273423    0.000000
      2          6           0       -1.985692   -1.496840    0.000000
      3          6           0        1.738403   -1.247443    0.000000
      4          6           0       -2.345922   -0.171173    0.000000
      5          6           0        2.286782    1.088691    0.000000
      6          6           0       -0.649162   -1.894413    0.000000
      7          6           0        0.967175    1.392721    0.000000
      8          6           0        0.349704   -0.934931    0.000000
      9          6           0       -1.385928    0.877094    0.000000
     10          7           0        0.000000    0.414424    0.000000
     11          8           0       -1.598323    2.082097    0.000000
     12          1           0        3.736243   -0.531123    0.000000
     13          1           0       -2.760365   -2.253012    0.000000
     14          1           0        2.008742   -2.293605    0.000000
     15          1           0       -3.380584    0.135968    0.000000
     16          1           0        3.014750    1.885443    0.000000
     17          1           0       -0.368673   -2.936075    0.000000
     18          1           0        0.565929    2.392966    0.000000
 ---------------------------------------------------------------------

 SCF Done:  E(RHF) =  -476.430255234     A.U. after    2 cycles

 The electronic state is 1-A'.
 Alpha  occ. eigenvalues --  -21.01403 -15.81149 -11.53893 -11.51402 -11.49537
 Alpha  occ. eigenvalues --  -11.48046 -11.46040 -11.43547 -11.41663 -11.40405
 Alpha  occ. eigenvalues --  -11.38429  -1.70601  -1.51987  -1.26908  -1.23786
 Alpha  occ. eigenvalues --   -1.13535  -1.05300  -0.93306  -0.92229  -0.87202
 Alpha  occ. eigenvalues --   -0.75995  -0.72699  -0.69477  -0.64905  -0.63005
 Alpha  occ. eigenvalues --   -0.62693  -0.58550  -0.57661  -0.54109  -0.50702
 Alpha  occ. eigenvalues --   -0.48994  -0.46837  -0.45310  -0.45104  -0.39371
 Alpha  occ. eigenvalues --   -0.34892  -0.28785  -0.22608
 Alpha virt. eigenvalues --    0.02803   0.04424   0.04800   0.05534   0.06348
 Alpha virt. eigenvalues --    0.06964   0.07680   0.07794   0.08955   0.09724
 Alpha virt. eigenvalues --    0.10176   0.11496   0.11870   0.12603   0.12786

 Mulliken charges:
               1
     1  C   -0.775886
     2  C    0.494016
     3  C   -2.305920
     4  C   -3.813888
     5  C   -1.009146
     6  C   -2.773398
     7  C   -0.227941
     8  C    2.677247
     9  C    4.809967
    10  N   -3.793354
    11  O   -4.198998
    12  H    1.508847
    13  H    1.493414
    14  H    1.586418
    15  H    1.468989
    16  H    1.393440
    17  H    1.657266
    18  H    1.808927
 Sum of Mulliken charges =   0.00000

 Dipole moment (field-independent basis, Debye):
    X=              3.1588    Y=             -1.6005    Z=              0.0000  Tot=              3.5411

 Test job not archived.
 1\1\GINC-SE013\SP\RHF\Aug-CC-pVDZ\C9H7N1O1\OHZDE\06-Apr-2025\0\\#t hf
 aug-cc-pvdz iop(5/13=1,5/36=2,99/5=2) pseudo=read geom=check guess=(re
 ad,tcheck) scf=(maxcycle=1)\\title\\0,1\C,0,2.686397,-0.273422,0.\C,0,
 -1.985691,-1.496841,0.\C,0,1.738404,-1.247442,0.\C,0,-2.345922,-0.1711
 74,0.\C,0,2.286782,1.088692,0.\C,0,-0.649161,-1.894413,0.\C,0,0.967175
 ,1.392721,0.\C,0,0.349704,-0.934931,0.\C,0,-1.385928,0.877093,0.\N,0,0
 .,0.414424,0.\O,0,-1.598324,2.082096,0.\H,0,3.736243,-0.531122,0.\H,0,
 -2.760364,-2.253013,0.\H,0,2.008743,-2.293604,0.\H,0,-3.380584,0.13596

 Normal termination of Gaussian 16 at Sun Apr  6 08:34:14 2025.
