 Gaussian 16, Revision C.01,

 ----------------------------------------------------------------------
 #t hf aug-cc-pvdz symm=none int=(grid=ultrafine) guess=(read,tcheck) s
 table=(opt,rrhf)
 ----------------------------------------------------------------------
 -----
 title
 -----
 Symbolic Z-matrix:
 Charge =  0 Multiplicity = 1

 SCF Done:  E(RHF) =  -1075.17089788     A.U. after   12 cycles

 1\1\GINC-SE010\Stability\RHF\Aug-CC-pVDZ\C4H8Cl2\OHZDE\06-Apr-2025\0\\
 #t hf aug-cc-pvdz symm=none int=(grid=ultrafine) guess=(read,tcheck) s
 table=(opt,rrhf)\\title\\0,1\Cl,0,-0.963836,1.196188,-1.568576\Cl,0,0.
 963836,-1.196188,1.568576\C,0,-1.87728,-0.439478,0.405978\C,0,1.87728,
 0.439478,-0.405978\C,0,-0.655802,0.388883,0.056013\C,0,0.655802,-0.388
 883,-0.056013\H,0,-2.76875,0.184001,0.39551\H,0,2.76875,-0.184001,-0.3
 9551\H,0,1.76393,0.869887,-1.399295\H,0,-1.76393,-0.869887,1.399295\H,
 0,-2.014805,-1.248691,-0.311234\H,0,2.014805,1.248691,0.311234\H,0,0.5

 Normal termination of Gaussian 16 at Sun Apr  6 08:08:46 2025.
 Gaussian 16:  ES64L-G16RevC.01  3-Jul-2019

 ----------------------------------------------------------------------
 #t hf aug-cc-pvdz iop(5/13=1,5/36=2,99/5=2) pseudo=read geom=check gue
 ss=(read,tcheck) scf=(maxcycle=1)
 ----------------------------------------------------------------------
 -----
 title
 -----
 Structure from the checkpoint file:  "R-S-2-3-dichlorobutane.chk"
 Charge =  0 Multiplicity = 1

                         Standard orientation:
 ---------------------------------------------------------------------
 Center     Atomic      Atomic             Coordinates (Angstroms)
 Number     Number       Type             X           Y           Z
 ---------------------------------------------------------------------
      1         17           0       -0.963836    1.196188   -1.568576
      2         17           0        0.963836   -1.196188    1.568576
      3          6           0       -1.877280   -0.439478    0.405978
      4          6           0        1.877280    0.439478   -0.405978
      5          6           0       -0.655802    0.388883    0.056013
      6          6           0        0.655802   -0.388883   -0.056013
      7          1           0       -2.768750    0.184001    0.395510
      8          1           0        2.768750   -0.184001   -0.395510
      9          1           0        1.763930    0.869887   -1.399295
     10          1           0       -1.763930   -0.869887    1.399295
     11          1           0       -2.014805   -1.248691   -0.311234
     12          1           0        2.014805    1.248691    0.311234
     13          1           0        0.528989   -1.216949   -0.749644
     14          1           0       -0.528989    1.216949    0.749644
 ---------------------------------------------------------------------

 SCF Done:  E(RHF) =  -1076.47658090     A.U. after    2 cycles

 The electronic state is 1-AG.
 Alpha  occ. eigenvalues --  -99.88140 -99.88129 -11.49429 -11.45889 -11.39485
 Alpha  occ. eigenvalues --  -11.38367 -10.45412 -10.45393  -9.65393  -9.65312
 Alpha  occ. eigenvalues --   -9.64813  -9.64732  -9.64575  -9.64532  -1.39553
 Alpha  occ. eigenvalues --   -1.29965  -1.16287  -1.09941  -0.95595  -0.85275
 Alpha  occ. eigenvalues --   -0.69445  -0.66374  -0.62814  -0.62609  -0.55792
 Alpha  occ. eigenvalues --   -0.54661  -0.53542  -0.52073  -0.50984  -0.50295
 Alpha  occ. eigenvalues --   -0.48563  -0.46361  -0.44159
 Alpha virt. eigenvalues --    0.03850   0.05074   0.05830   0.06001   0.06476
 Alpha virt. eigenvalues --    0.06842   0.07124   0.07869   0.08386   0.08522
 Alpha virt. eigenvalues --    0.11364   0.11900   0.11942   0.13484   0.14068

 Mulliken charges:
               1
     1  Cl   0.032816
     2  Cl   0.032816
     3  C   -3.294258
     4  C   -3.294258
     5  C   -2.287343
     6  C   -2.287343
     7  H    1.188156
     8  H    1.188156
     9  H    1.287951
    10  H    1.287951
    11  H    1.290331
    12  H    1.290331
    13  H    1.782346
    14  H    1.782346
 Sum of Mulliken charges =  -0.00000

 Dipole moment (field-independent basis, Debye):
    X=              0.0000    Y=              0.0000    Z=              0.0000  Tot=              0.0000

 Test job not archived.
 1\1\GINC-SE010\SP\RHF\Aug-CC-pVDZ\C4H8Cl2\OHZDE\06-Apr-2025\0\\#t hf a
 ug-cc-pvdz iop(5/13=1,5/36=2,99/5=2) pseudo=read geom=check guess=(rea
 d,tcheck) scf=(maxcycle=1)\\title\\0,1\Cl,0,-0.963836,1.196188,-1.5685
 76\Cl,0,0.963836,-1.196188,1.568576\C,0,-1.87728,-0.439478,0.405978\C,
 0,1.87728,0.439478,-0.405978\C,0,-0.655802,0.388883,0.056013\C,0,0.655
 802,-0.388883,-0.056013\H,0,-2.76875,0.184001,0.39551\H,0,2.76875,-0.1
 84001,-0.39551\H,0,1.76393,0.869887,-1.399295\H,0,-1.76393,-0.869887,1
 .399295\H,0,-2.014805,-1.248691,-0.311234\H,0,2.014805,1.248691,0.3112

 Normal termination of Gaussian 16 at Sun Apr  6 08:08:49 2025.
