 Gaussian 16, Revision C.01,

 ----------------------------------------------------------------------
 #t hf aug-cc-pvdz symm=none int=(grid=ultrafine) guess=(read,tcheck) s
 table=(opt,rrhf)
 ----------------------------------------------------------------------
 -----
 title
 -----
 Symbolic Z-matrix:
 Charge =  0 Multiplicity = 1

 SCF Done:  E(RHF) =  -796.043546611     A.U. after   16 cycles
 Normal termination of Gaussian 16 at Sun Apr  6 08:09:48 2025.
 Gaussian 16:  ES64L-G16RevC.01  3-Jul-2019

 ----------------------------------------------------------------------
 #t hf aug-cc-pvdz iop(5/13=1,5/36=2,99/5=2) pseudo=read geom=check gue
 ss=(read,tcheck) scf=(maxcycle=1)
 ----------------------------------------------------------------------
 -----
 title
 -----
 Structure from the checkpoint file:  "S-2-pyridinyl_ethanethioate.chk"
 Charge =  0 Multiplicity = 1

                         Standard orientation:
 ---------------------------------------------------------------------
 Center     Atomic      Atomic             Coordinates (Angstroms)
 Number     Number       Type             X           Y           Z
 ---------------------------------------------------------------------
      1          6           0        2.274150    1.388749   -0.000069
      2          6           0        3.234944    0.386128    0.000107
      3          6           0        0.927785    1.052725   -0.000171
      4          6           0        2.801859   -0.932997    0.000173
      5          6           0        0.607018   -0.304386   -0.000074
      6          6           0       -2.244819    0.347643    0.000025
      7          6           0       -3.658489   -0.190391    0.000171
      8          7           0        1.514712   -1.276021    0.000089
      9          8           0       -1.993920    1.525908    0.000110
     10         16           0       -1.049030   -0.997881   -0.000205
     11          1           0        2.565776    2.430616   -0.000132
     12          1           0        4.290895    0.616050    0.000187
     13          1           0        0.153685    1.800661   -0.000305
     14          1           0        3.511957   -1.751445    0.000302
     15          1           0       -4.172879    0.194508   -0.880641
     16          1           0       -4.172111    0.193012    0.882092
     17          1           0       -3.699155   -1.277234   -0.000689
 ---------------------------------------------------------------------

 SCF Done:  E(RHF) =  -798.097723370     A.U. after    2 cycles

 The electronic state is 1-A.
 Alpha  occ. eigenvalues --  -75.71093 -21.06828 -15.74650 -13.18069 -13.13096
 Alpha  occ. eigenvalues --  -13.02981 -11.51521 -11.50225 -11.47167 -11.44697
 Alpha  occ. eigenvalues --  -11.41897 -11.40344 -11.38655  -8.05407  -1.73079
 Alpha  occ. eigenvalues --   -1.46986  -1.22117  -1.19678  -1.12578  -1.05712
 Alpha  occ. eigenvalues --   -0.90268  -0.88019  -0.77535  -0.70657  -0.66266
 Alpha  occ. eigenvalues --   -0.62131  -0.61252  -0.60959  -0.57490  -0.56200
 Alpha  occ. eigenvalues --   -0.56167  -0.53549  -0.49127  -0.46236  -0.41703
 Alpha  occ. eigenvalues --   -0.38780  -0.36391  -0.35450  -0.26885  -0.24748
 Alpha virt. eigenvalues --    0.03072   0.03837   0.05422   0.05585   0.06243
 Alpha virt. eigenvalues --    0.06301   0.07701   0.09230   0.10007   0.10226
 Alpha virt. eigenvalues --    0.10363   0.11239   0.12247   0.12331   0.12975

 Mulliken charges:
               1
     1  C   -0.475278
     2  C   -0.921258
     3  C   -1.582375
     4  C   -1.293892
     5  C    0.009581
     6  C    3.160135
     7  C   -4.762734
     8  N   -3.280865
     9  O   -3.442006
    10  S    1.887199
    11  H    1.543158
    12  H    1.454173
    13  H    2.194061
    14  H    1.624030
    15  H    1.221884
    16  H    1.222104
    17  H    1.442084
 Sum of Mulliken charges =   0.00000

 Dipole moment (field-independent basis, Debye):
    X=              0.4376    Y=             -0.3193    Z=             -0.0002  Tot=              0.5417

 Test job not archived.
 1\1\GINC-SE014\SP\RHF\Aug-CC-pVDZ\C7H7N1O1S1\OHZDE\06-Apr-2025\0\\#t h
 f aug-cc-pvdz iop(5/13=1,5/36=2,99/5=2) pseudo=read geom=check guess=(
 read,tcheck) scf=(maxcycle=1)\\title\\0,1\C,0,2.27415,1.388749,-0.0000
 69\C,0,3.234944,0.386128,0.000107\C,0,0.927785,1.052725,-0.000171\C,0,
 2.801859,-0.932997,0.000173\C,0,0.607018,-0.304386,-0.000074\C,0,-2.24
 4819,0.347643,0.000025\C,0,-3.658489,-0.190391,0.000171\N,0,1.514712,-
 1.276021,0.000089\O,0,-1.99392,1.525908,0.00011\S,0,-1.04903,-0.997881
 ,-0.000205\H,0,2.565776,2.430616,-0.000132\H,0,4.290895,0.61605,0.0001

 Normal termination of Gaussian 16 at Sun Apr  6 08:10:14 2025.
