 Gaussian 16, Revision C.01,

 ----------------------------------------------------------------------
 #t hf aug-cc-pvdz symm=none int=(grid=ultrafine) guess=(read,tcheck) s
 table=(opt,rrhf)
 ----------------------------------------------------------------------
 -----
 title
 -----
 Symbolic Z-matrix:
 Charge =  0 Multiplicity = 1

 SCF Done:  E(RHF) =  -628.556054074     A.U. after   14 cycles
 Normal termination of Gaussian 16 at Sun Apr  6 08:08:42 2025.
 Gaussian 16:  ES64L-G16RevC.01  3-Jul-2019

 ----------------------------------------------------------------------
 #t hf aug-cc-pvdz iop(5/13=1,5/36=2,99/5=2) pseudo=read geom=check gue
 ss=(read,tcheck) scf=(maxcycle=1)
 ----------------------------------------------------------------------
 -----
 title
 -----
 Structure from the checkpoint file:  "S-ethyl_ethanethioate.chk"
 Charge =  0 Multiplicity = 1

                         Standard orientation:
 ---------------------------------------------------------------------
 Center     Atomic      Atomic             Coordinates (Angstroms)
 Number     Number       Type             X           Y           Z
 ---------------------------------------------------------------------
      1          8           0       -2.357106   -0.826508    0.000023
      2          6           0       -1.415289   -0.075802    0.000085
      3         16           0        0.232683   -0.804196   -0.000140
      4          1           0       -1.076024    1.860038    0.880271
      5          1           0       -2.611239    1.674996    0.000488
      6          1           0       -1.076214    1.860311   -0.879564
      7          6           0       -1.552652    1.427474    0.000338
      8          1           0        1.252246    1.209742   -0.884316
      9          1           0        1.252388    1.209438    0.884567
     10          6           0        1.422814    0.598820    0.000007
     11          1           0        3.026676   -0.571696    0.882060
     12          1           0        3.561268    0.860316   -0.000120
     13          1           0        3.026534   -0.571397   -0.882700
     14          6           0        2.841508    0.040750   -0.000202
 ---------------------------------------------------------------------

 SCF Done:  E(RHF) =  -629.877054619     A.U. after    2 cycles

 The electronic state is 1-A.
 Alpha  occ. eigenvalues --  -75.69103 -21.05911 -13.13672 -13.10862 -13.02324
 Alpha  occ. eigenvalues --  -11.50343 -11.43481 -11.40385 -11.38617  -8.03335
 Alpha  occ. eigenvalues --   -1.71932  -1.25545  -1.12555  -1.05739  -0.89472
 Alpha  occ. eigenvalues --   -0.74732  -0.65174  -0.64582  -0.60687  -0.59189
 Alpha  occ. eigenvalues --   -0.55067  -0.52655  -0.51727  -0.47170  -0.45538
 Alpha  occ. eigenvalues --   -0.37956  -0.26877  -0.24176
 Alpha virt. eigenvalues --    0.02576   0.03959   0.05169   0.05476   0.06299
 Alpha virt. eigenvalues --    0.06660   0.07847   0.08209   0.08667   0.10470
 Alpha virt. eigenvalues --    0.12395   0.12899   0.14051   0.14113   0.14328

 Mulliken charges:
               1
     1  O   -2.960297
     2  C    2.118973
     3  S    1.860890
     4  H    1.499659
     5  H    1.116758
     6  H    1.499674
     7  C   -4.625135
     8  H    1.667124
     9  H    1.667136
    10  C   -3.581172
    11  H    1.303377
    12  H    1.051924
    13  H    1.303374
    14  C   -3.922285
 Sum of Mulliken charges =  -0.00000

 Dipole moment (field-independent basis, Debye):
    X=              2.0230    Y=              0.7916    Z=             -0.0000  Tot=              2.1724

 Test job not archived.
 1\1\GINC-SE023\SP\RHF\Aug-CC-pVDZ\C4H8O1S1\OHZDE\06-Apr-2025\0\\#t hf
 aug-cc-pvdz iop(5/13=1,5/36=2,99/5=2) pseudo=read geom=check guess=(re
 ad,tcheck) scf=(maxcycle=1)\\title\\0,1\O,0,-2.357106,-0.826508,0.0000
 23\C,0,-1.415289,-0.075802,0.000085\S,0,0.232683,-0.804196,-0.00014\H,
 0,-1.076024,1.860038,0.880271\H,0,-2.611239,1.674996,0.000488\H,0,-1.0
 76214,1.860311,-0.879564\C,0,-1.552652,1.427474,0.000338\H,0,1.252246,
 1.209742,-0.884316\H,0,1.252388,1.209438,0.884567\C,0,1.422814,0.59882
 ,0.000007\H,0,3.026676,-0.571696,0.88206\H,0,3.561268,0.860316,-0.0001

 Normal termination of Gaussian 16 at Sun Apr  6 08:08:47 2025.
