 Gaussian 16, Revision C.01,

 ----------------------------------------------------------------------
 #t hf aug-cc-pvdz symm=none int=(grid=ultrafine) guess=(read,tcheck) s
 table=(opt,rrhf)
 ----------------------------------------------------------------------
 -----
 title
 -----
 Symbolic Z-matrix:
 Charge =  0 Multiplicity = 1

 SCF Done:  E(RHF) =  -851.454377359     A.U. after   19 cycles
 Normal termination of Gaussian 16 at Sun Apr  6 08:09:22 2025.
 Gaussian 16:  ES64L-G16RevC.01  3-Jul-2019

 ----------------------------------------------------------------------
 #t hf aug-cc-pvdz iop(5/13=1,5/36=2,99/5=2) pseudo=read geom=check gue
 ss=(read,tcheck) scf=(maxcycle=1)
 ----------------------------------------------------------------------
 -----
 title
 -----
 Structure from the checkpoint file:  "S-hydroperoxy_hexa-2-4-diynethioate.chk"
 Charge =  0 Multiplicity = 1

                         Standard orientation:
 ---------------------------------------------------------------------
 Center     Atomic      Atomic             Coordinates (Angstroms)
 Number     Number       Type             X           Y           Z
 ---------------------------------------------------------------------
      1         16           0        1.777893   -1.017043   -0.098312
      2          8           0        3.331071   -0.521658   -0.383927
      3          8           0        1.564558    1.616301   -0.260640
      4          8           0        3.903677    0.151691    0.784045
      5          6           0        0.945852    0.577476   -0.185281
      6          6           0       -0.473005    0.441711   -0.112433
      7          6           0       -1.670367    0.263764   -0.051931
      8          6           0       -3.011782    0.084916    0.015677
      9          6           0       -4.208213   -0.073703    0.076329
     10          6           0       -5.641659   -0.262465    0.148528
     11          1           0        3.588858    1.056127    0.611506
     12          1           0       -6.026208   -0.654858   -0.794688
     13          1           0       -6.149180    0.680904    0.356636
     14          1           0       -5.899149   -0.970358    0.938381
 ---------------------------------------------------------------------

 SCF Done:  E(RHF) =  -853.640898788     A.U. after    2 cycles

 The electronic state is 1-A.
 Alpha  occ. eigenvalues --  -75.76444 -21.13474 -21.13155 -21.09280 -13.24403
 Alpha  occ. eigenvalues --  -13.17791 -13.09196 -11.56538 -11.52784 -11.48767
 Alpha  occ. eigenvalues --  -11.46085 -11.45506 -11.44545  -8.10376  -1.95030
 Alpha  occ. eigenvalues --   -1.74743  -1.47957  -1.25524  -1.18396  -1.11118
 Alpha  occ. eigenvalues --   -1.03636  -0.92353  -0.79924  -0.66929  -0.63771
 Alpha  occ. eigenvalues --   -0.62171  -0.62035  -0.61976  -0.58222  -0.57004
 Alpha  occ. eigenvalues --   -0.52680  -0.49349  -0.47447  -0.46088  -0.39839
 Alpha  occ. eigenvalues --   -0.34732  -0.34296  -0.31922  -0.29743  -0.25966
 Alpha virt. eigenvalues --    0.01541   0.05226   0.05505   0.05541   0.06276
 Alpha virt. eigenvalues --    0.07291   0.07943   0.08345   0.09167   0.10793
 Alpha virt. eigenvalues --    0.11680   0.12277   0.12478   0.13183   0.13616

 Mulliken charges:
               1
     1  S    1.617992
     2  O   -1.274919
     3  O   -3.203712
     4  O   -0.999510
     5  C   -0.316049
     6  C   -3.167935
     7  C    5.821391
     8  C    6.378163
     9  C   -2.429013
    10  C   -5.289975
    11  H    1.084972
    12  H    0.593609
    13  H    0.593708
    14  H    0.591279
 Sum of Mulliken charges =  -0.00000

 Dipole moment (field-independent basis, Debye):
    X=             -3.6388    Y=             -1.4655    Z=              0.6789  Tot=              3.9812

 Test job not archived.
 1\1\GINC-SE028\SP\RHF\Aug-CC-pVDZ\C6H4O3S1\OHZDE\06-Apr-2025\0\\#t hf
 aug-cc-pvdz iop(5/13=1,5/36=2,99/5=2) pseudo=read geom=check guess=(re
 ad,tcheck) scf=(maxcycle=1)\\title\\0,1\S,0,1.777893,-1.017043,-0.0983
 12\O,0,3.331071,-0.521658,-0.383927\O,0,1.564558,1.616301,-0.26064\O,0
 ,3.903677,0.151691,0.784045\C,0,0.945852,0.577476,-0.185281\C,0,-0.473
 005,0.441711,-0.112433\C,0,-1.670367,0.263764,-0.051931\C,0,-3.011782,
 0.084916,0.015677\C,0,-4.208213,-0.073703,0.076329\C,0,-5.641659,-0.26
 2465,0.148528\H,0,3.588858,1.056127,0.611506\H,0,-6.026208,-0.654858,-

 Normal termination of Gaussian 16 at Sun Apr  6 08:10:10 2025.
