 Gaussian 16, Revision C.01,

 ----------------------------------------------------------------------
 #t hf aug-cc-pvdz symm=none int=(grid=ultrafine) guess=(read,tcheck) s
 table=(opt,rrhf)
 ----------------------------------------------------------------------
 -----
 title
 -----
 Symbolic Z-matrix:
 Charge =  0 Multiplicity = 1

 SCF Done:  E(RHF) =  -780.053444248     A.U. after   16 cycles
 Normal termination of Gaussian 16 at Sun Apr  6 08:09:53 2025.
 Gaussian 16:  ES64L-G16RevC.01  3-Jul-2019

 ----------------------------------------------------------------------
 #t hf aug-cc-pvdz iop(5/13=1,5/36=2,99/5=2) pseudo=read geom=check gue
 ss=(read,tcheck) scf=(maxcycle=1)
 ----------------------------------------------------------------------
 -----
 title
 -----
 Structure from the checkpoint file:  "S-methyl_benzenecarbothioate.chk"
 Charge =  0 Multiplicity = 1

                         Standard orientation:
 ---------------------------------------------------------------------
 Center     Atomic      Atomic             Coordinates (Angstroms)
 Number     Number       Type             X           Y           Z
 ---------------------------------------------------------------------
      1          6           0        1.333065    3.036686    0.000000
      2          6           0       -0.058033    3.001626    0.000000
      3          6           0        2.057969    1.849796    0.000000
      4          6           0       -0.721944    1.784420    0.000000
      5          6           0        1.395636    0.630072    0.000000
      6          6           0        0.000000    0.587581    0.000000
      7          6           0       -0.775412   -0.687600    0.000000
      8          6           0       -1.161168   -3.408295    0.000000
      9          8           0       -1.984399   -0.723520    0.000000
     10         16           0        0.197665   -2.203581    0.000000
     11          1           0        1.851085    3.986336    0.000000
     12          1           0       -0.623442    3.923567    0.000000
     13          1           0        3.139026    1.874086    0.000000
     14          1           0       -1.801297    1.738555    0.000000
     15          1           0        1.969563   -0.285827    0.000000
     16          1           0       -1.773676   -3.283052    0.887927
     17          1           0       -0.695712   -4.390868    0.000000
     18          1           0       -1.773676   -3.283052   -0.887927
 ---------------------------------------------------------------------

 SCF Done:  E(RHF) =  -782.061038753     A.U. after    2 cycles

 The electronic state is 1-A'.
 Alpha  occ. eigenvalues --  -75.69517 -21.05770 -13.13969 -13.11931 -13.02251
 Alpha  occ. eigenvalues --  -11.52976 -11.51643 -11.44706 -11.44129 -11.42610
 Alpha  occ. eigenvalues --  -11.41844 -11.39884 -11.37796  -8.03777  -1.72309
 Alpha  occ. eigenvalues --   -1.35925  -1.21169  -1.12527  -1.10581  -0.98458
 Alpha  occ. eigenvalues --   -0.90237  -0.87579  -0.77544  -0.71354  -0.64655
 Alpha  occ. eigenvalues --   -0.62299  -0.59590  -0.59372  -0.58610  -0.56606
 Alpha  occ. eigenvalues --   -0.54186  -0.49682  -0.47318  -0.46820  -0.45256
 Alpha  occ. eigenvalues --   -0.40387  -0.34255  -0.33096  -0.26525  -0.24669
 Alpha virt. eigenvalues --    0.03065   0.03770   0.04835   0.05383   0.06209
 Alpha virt. eigenvalues --    0.06505   0.06763   0.07643   0.08730   0.09586
 Alpha virt. eigenvalues --    0.10649   0.11357   0.12232   0.12809   0.12871

 Mulliken charges:
               1
     1  C   -3.062380
     2  C   -1.274403
     3  C   -2.534344
     4  C   -3.463273
     5  C    0.852298
     6  C    4.101208
     7  C    0.895608
     8  C   -5.314815
     9  O   -3.854810
    10  S    1.154520
    11  H    1.524764
    12  H    1.459625
    13  H    1.504698
    14  H    1.740218
    15  H    2.114055
    16  H    1.465758
    17  H    1.225517
    18  H    1.465758
 Sum of Mulliken charges =  -0.00000

 Dipole moment (field-independent basis, Debye):
    X=              1.7440    Y=             -0.0368    Z=              0.0000  Tot=              1.7444

 Test job not archived.
 1\1\GINC-SE044\SP\RHF\Aug-CC-pVDZ\C8H8O1S1\OHZDE\06-Apr-2025\0\\#t hf
 aug-cc-pvdz iop(5/13=1,5/36=2,99/5=2) pseudo=read geom=check guess=(re
 ad,tcheck) scf=(maxcycle=1)\\title\\0,1\C,0,1.333065,3.036686,0.\C,0,-
 0.058033,3.001626,0.\C,0,2.057969,1.849796,0.\C,0,-0.721944,1.78442,0.
 \C,0,1.395636,0.630072,0.\C,0,0.,0.587581,0.\C,0,-0.775412,-0.6876,0.\
 C,0,-1.161168,-3.408295,0.\O,0,-1.984399,-0.72352,0.\S,0,0.197665,-2.2
 03581,0.\H,0,1.851085,3.986336,0.\H,0,-0.623442,3.923567,0.\H,0,3.1390
 26,1.874086,0.\H,0,-1.801297,1.738555,0.\H,0,1.969563,-0.285827,0.\H,0

 Normal termination of Gaussian 16 at Sun Apr  6 08:10:13 2025.
