 Gaussian 16, Revision C.01,

 ----------------------------------------------------------------------
 #t hf aug-cc-pvdz symm=none int=(grid=ultrafine) guess=(read,tcheck) s
 table=(opt,rrhf)
 ----------------------------------------------------------------------
 -----
 title
 -----
 Symbolic Z-matrix:
 Charge =  0 Multiplicity = 1

 SCF Done:  E(RHF) =  -742.108831243     A.U. after   16 cycles
 Normal termination of Gaussian 16 at Sun Apr  6 08:09:31 2025.
 Gaussian 16:  ES64L-G16RevC.01  3-Jul-2019

 ----------------------------------------------------------------------
 #t hf aug-cc-pvdz iop(5/13=1,5/36=2,99/5=2) pseudo=read geom=check gue
 ss=(read,tcheck) scf=(maxcycle=1)
 ----------------------------------------------------------------------
 -----
 title
 -----
 Structure from the checkpoint file:  "S-methylsulfinylbenzene.chk"
 Charge =  0 Multiplicity = 1

                         Standard orientation:
 ---------------------------------------------------------------------
 Center     Atomic      Atomic             Coordinates (Angstroms)
 Number     Number       Type             X           Y           Z
 ---------------------------------------------------------------------
      1          6           0       -2.865077    0.100616    0.165518
      2          6           0       -2.070507    1.223857    0.366327
      3          6           0       -2.286294   -1.104138   -0.223924
      4          6           0       -0.692839    1.148380    0.186907
      5          6           0       -0.911773   -1.187321   -0.409725
      6          6           0       -0.127095   -0.061385   -0.186065
      7          6           0        2.115664   -0.968781    1.096612
      8          8           0        2.191158    1.279499   -0.345256
      9         16           0        1.671473   -0.126541   -0.469671
     10          1           0       -3.936059    0.164368    0.301992
     11          1           0       -2.522707    2.162209    0.657897
     12          1           0       -2.905625   -1.974771   -0.391995
     13          1           0       -0.051411    2.009136    0.320028
     14          1           0       -0.461290   -2.117623   -0.732907
     15          1           0        1.639276   -1.946560    1.131766
     16          1           0        1.794165   -0.342110    1.925393
     17          1           0        3.198354   -1.073357    1.090709
 ---------------------------------------------------------------------

 SCF Done:  E(RHF) =  -743.978655965     A.U. after    2 cycles

 The electronic state is 1-A.
 Alpha  occ. eigenvalues --  -75.78844 -20.99965 -13.34196 -13.26502 -13.18959
 Alpha  occ. eigenvalues --  -11.53169 -11.44896 -11.44764 -11.42456 -11.41962
 Alpha  occ. eigenvalues --  -11.40861 -11.37863  -8.13044  -1.68400  -1.36302
 Alpha  occ. eigenvalues --   -1.17854  -1.10799  -1.09018  -0.94900  -0.88196
 Alpha  occ. eigenvalues --   -0.83981  -0.72617  -0.65540  -0.62009  -0.61363
 Alpha  occ. eigenvalues --   -0.59820  -0.58658  -0.56014  -0.53463  -0.48812
 Alpha  occ. eigenvalues --   -0.46639  -0.43592  -0.37731  -0.35369  -0.34476
 Alpha  occ. eigenvalues --   -0.32631  -0.25553
 Alpha virt. eigenvalues --    0.02874   0.04305   0.04837   0.05152   0.05772
 Alpha virt. eigenvalues --    0.06548   0.06772   0.07802   0.09567   0.09645
 Alpha virt. eigenvalues --    0.10554   0.10847   0.12049   0.12660   0.13018

 Mulliken charges:
               1
     1  C   -2.850404
     2  C   -0.532499
     3  C   -0.978874
     4  C   -3.998286
     5  C   -3.048951
     6  C    2.830529
     7  C   -4.639792
     8  O   -2.579546
     9  S    3.161501
    10  H    1.538945
    11  H    1.520386
    12  H    1.512555
    13  H    1.838294
    14  H    1.861007
    15  H    1.563920
    16  H    1.556246
    17  H    1.244968
 Sum of Mulliken charges =   0.00000

 Dipole moment (field-independent basis, Debye):
    X=             -1.4960    Y=             -1.3812    Z=              0.0140  Tot=              2.0361

 Test job not archived.
 1\1\GINC-SE104\SP\RHF\Aug-CC-pVDZ\C7H8O1S1\OHZDE\06-Apr-2025\0\\#t hf
 aug-cc-pvdz iop(5/13=1,5/36=2,99/5=2) pseudo=read geom=check guess=(re
 ad,tcheck) scf=(maxcycle=1)\\title\\0,1\C,0,-2.865077,0.100616,0.16551
 8\C,0,-2.070507,1.223857,0.366327\C,0,-2.286294,-1.104138,-0.223924\C,
 0,-0.692839,1.14838,0.186907\C,0,-0.911773,-1.187321,-0.409725\C,0,-0.
 127095,-0.061385,-0.186065\C,0,2.115664,-0.968781,1.096612\O,0,2.19115
 8,1.279499,-0.345256\S,0,1.671473,-0.126541,-0.469671\H,0,-3.936059,0.
 164368,0.301992\H,0,-2.522707,2.162209,0.657897\H,0,-2.905625,-1.97477

 Normal termination of Gaussian 16 at Sun Apr  6 08:10:13 2025.
