 Gaussian 16, Revision C.01,

 ----------------------------------------------------------------------
 #t hf aug-cc-pvdz symm=none int=(grid=ultrafine) guess=(read,tcheck) s
 table=(opt,rrhf)
 ----------------------------------------------------------------------
 -----
 title
 -----
 Symbolic Z-matrix:
 Charge =  0 Multiplicity = 1

 SCF Done:  E(RHF) =  -777.981558625     A.U. after   15 cycles
 Normal termination of Gaussian 16 at Sun Apr  6 08:09:18 2025.
 Gaussian 16:  ES64L-G16RevC.01  3-Jul-2019

 ----------------------------------------------------------------------
 #t hf aug-cc-pvdz iop(5/13=1,5/36=2,99/5=2) pseudo=read geom=check gue
 ss=(read,tcheck) scf=(maxcycle=1)
 ----------------------------------------------------------------------
 -----
 title
 -----
 Structure from the checkpoint file:  "S-methyl-3-furancarbothioate.chk"
 Charge =  0 Multiplicity = 1

                         Standard orientation:
 ---------------------------------------------------------------------
 Center     Atomic      Atomic             Coordinates (Angstroms)
 Number     Number       Type             X           Y           Z
 ---------------------------------------------------------------------
      1          6           0       -1.392165    1.170066    0.000000
      2          6           0       -1.428012    2.519619    0.000000
      3          6           0        0.691129    1.983502    0.000000
      4          6           0        0.000000    0.807541    0.000000
      5          6           0        0.635993   -0.516796    0.000000
      6          6           0        0.661715   -3.268787    0.000000
      7          8           0        1.835393   -0.684653    0.000000
      8          8           0       -0.157808    3.030443    0.000000
      9         16           0       -0.521930   -1.891204    0.000000
     10          1           0       -2.241204    0.509673    0.000000
     11          1           0       -2.223626    3.241441    0.000000
     12          1           0        1.742596    2.204050    0.000000
     13          1           0        1.285248   -3.226145    0.888112
     14          1           0        1.285248   -3.226145   -0.888112
     15          1           0        0.069983   -4.180792    0.000000
 ---------------------------------------------------------------------

 SCF Done:  E(RHF) =  -779.909362501     A.U. after    2 cycles

 The electronic state is 1-A'.
 Alpha  occ. eigenvalues --  -75.69837 -21.13712 -21.05758 -13.13853 -13.11677
 Alpha  occ. eigenvalues --  -13.02527 -11.52110 -11.49341 -11.46682 -11.44365
 Alpha  occ. eigenvalues --  -11.40185 -11.39908  -8.04103  -1.86933  -1.71869
 Alpha  occ. eigenvalues --   -1.25262  -1.19365  -1.08621  -0.99371  -0.87977
 Alpha  occ. eigenvalues --   -0.82530  -0.78581  -0.66741  -0.61561  -0.60453
 Alpha  occ. eigenvalues --   -0.59121  -0.57983  -0.55744  -0.53460  -0.49740
 Alpha  occ. eigenvalues --   -0.49573  -0.44244  -0.40552  -0.34835  -0.32502
 Alpha  occ. eigenvalues --   -0.26782  -0.24896
 Alpha virt. eigenvalues --    0.03164   0.03742   0.04845   0.06123   0.06543
 Alpha virt. eigenvalues --    0.06851   0.08993   0.09808   0.10362   0.10555
 Alpha virt. eigenvalues --    0.11422   0.12339   0.12928   0.13296   0.13760

 Mulliken charges:
               1
     1  C   -2.248709
     2  C   -0.451305
     3  C   -1.703701
     4  C    3.982494
     5  C    3.928561
     6  C   -5.351086
     7  O   -3.691591
     8  O   -4.018802
     9  S    1.138233
    10  H    1.489437
    11  H    1.360790
    12  H    1.389284
    13  H    1.468918
    14  H    1.468918
    15  H    1.238558
 Sum of Mulliken charges =  -0.00000

 Dipole moment (field-independent basis, Debye):
    X=             -1.8615    Y=              0.2159    Z=             -0.0000  Tot=              1.8740

 Test job not archived.
 1\1\GINC-SE042\SP\RHF\Aug-CC-pVDZ\C6H6O2S1\OHZDE\06-Apr-2025\0\\#t hf
 aug-cc-pvdz iop(5/13=1,5/36=2,99/5=2) pseudo=read geom=check guess=(re
 ad,tcheck) scf=(maxcycle=1)\\title\\0,1\C,0,-1.392165,1.170066,0.\C,0,
 -1.428012,2.519619,0.\C,0,0.691129,1.983502,0.\C,0,0.,0.807541,0.\C,0,
 0.635993,-0.516796,0.\C,0,0.661715,-3.268787,0.\O,0,1.835393,-0.684653
 ,0.\O,0,-0.157808,3.030443,0.\S,0,-0.52193,-1.891204,0.\H,0,-2.241204,
 0.509673,0.\H,0,-2.223626,3.241441,0.\H,0,1.742596,2.20405,0.\H,0,1.28
 5248,-3.226145,0.888112\H,0,1.285248,-3.226145,-0.888112\H,0,0.069983,

 Normal termination of Gaussian 16 at Sun Apr  6 08:10:11 2025.
