 Gaussian 16, Revision C.01,

 ----------------------------------------------------------------------
 #t hf aug-cc-pvdz symm=none int=(grid=ultrafine) guess=(read,tcheck) s
 table=(opt,rrhf)
 ----------------------------------------------------------------------
 -----
 title
 -----
 Symbolic Z-matrix:
 Charge =  0 Multiplicity = 1

 SCF Done:  E(RHF) =  -550.467664889     A.U. after   14 cycles
 Normal termination of Gaussian 16 at Sun Apr  6 08:08:22 2025.
 Gaussian 16:  ES64L-G16RevC.01  3-Jul-2019

 ----------------------------------------------------------------------
 #t hf aug-cc-pvdz iop(5/13=1,5/36=2,99/5=2) pseudo=read geom=check gue
 ss=(read,tcheck) scf=(maxcycle=1)
 ----------------------------------------------------------------------
 -----
 title
 -----
 Structure from the checkpoint file:  "S-methyl_thioformate.chk"
 Charge =  0 Multiplicity = 1

                         Standard orientation:
 ---------------------------------------------------------------------
 Center     Atomic      Atomic             Coordinates (Angstroms)
 Number     Number       Type             X           Y           Z
 ---------------------------------------------------------------------
      1          6           0       -0.591523   -0.910088    0.000000
      2          6           0        1.806424    0.511742    0.000000
      3          8           0       -1.751511   -1.205927    0.000000
      4         16           0        0.000000    0.769997    0.000000
      5          1           0        0.228373   -1.652841    0.000000
      6          1           0        2.021441   -0.556170    0.000000
      7          1           0        2.236433    0.963278    0.889535
      8          1           0        2.236433    0.963278   -0.889535
 ---------------------------------------------------------------------

 SCF Done:  E(RHF) =  -551.374813847     A.U. after    2 cycles

 The electronic state is 1-A'.
 Alpha  occ. eigenvalues --  -75.70592 -21.07720 -13.13496 -13.10228 -13.03212
 Alpha  occ. eigenvalues --  -11.50104 -11.41938  -8.04865  -1.72628  -1.22881
 Alpha  occ. eigenvalues --   -0.99665  -0.83967  -0.62276  -0.61469  -0.61048
 Alpha  occ. eigenvalues --   -0.50725  -0.49082  -0.41328  -0.28363  -0.25015
 Alpha virt. eigenvalues --    0.02231   0.04566   0.05249   0.05905   0.08969
 Alpha virt. eigenvalues --    0.10309   0.10855   0.12091   0.13430   0.14190
 Alpha virt. eigenvalues --    0.14635   0.16605   0.17343   0.18360   0.18642

 Mulliken charges:
               1
     1  C    0.125549
     2  C   -4.561673
     3  O   -2.449537
     4  S    1.439168
     5  H    1.358557
     6  H    1.285966
     7  H    1.400985
     8  H    1.400985
 Sum of Mulliken charges =   0.00000

 Dipole moment (field-independent basis, Debye):
    X=              1.6476    Y=              1.6054    Z=              0.0000  Tot=              2.3004

 Test job not archived.
 1\1\GINC-SE101\SP\RHF\Aug-CC-pVDZ\C2H4O1S1\OHZDE\06-Apr-2025\0\\#t hf
 aug-cc-pvdz iop(5/13=1,5/36=2,99/5=2) pseudo=read geom=check guess=(re
 ad,tcheck) scf=(maxcycle=1)\\title\\0,1\C,0,-0.591523,-0.910088,0.\C,0
 ,1.806424,0.511742,0.\O,0,-1.751511,-1.205927,0.\S,0,0.,0.769997,0.\H,
 0,0.228373,-1.652841,0.\H,0,2.021441,-0.55617,0.\H,0,2.236433,0.963278
 ,0.889535\H,0,2.236433,0.963278,-0.889535\\Version=ES64L-G16RevC.01\St
 ate=1-A'\HF=-551.3748138\RMSD=8.037e-02\Dipole=0.6482167,0.6316105,0.\
 Quadrupole=-0.5060363,1.1216725,-0.6156362,-0.8144531,0.,0.\PG=CS [SG(

 Normal termination of Gaussian 16 at Sun Apr  6 08:08:25 2025.
