 Gaussian 16, Revision C.01,

 ----------------------------------------------------------------------
 #t hf aug-cc-pvdz symm=none int=(grid=ultrafine) guess=(read,tcheck) s
 table=(opt,rrhf)
 ----------------------------------------------------------------------
 -----
 title
 -----
 Symbolic Z-matrix:
 Charge =  0 Multiplicity = 1

 SCF Done:  E(RHF) =  -848.102677588     A.U. after   18 cycles
 Normal termination of Gaussian 16 at Sun Apr  6 08:09:17 2025.
 Gaussian 16:  ES64L-G16RevC.01  3-Jul-2019

 ----------------------------------------------------------------------
 #t hf aug-cc-pvdz iop(5/13=1,5/36=2,99/5=2) pseudo=read geom=check gue
 ss=(read,tcheck) scf=(maxcycle=1)
 ----------------------------------------------------------------------
 -----
 title
 -----
 Structure from the checkpoint file:  "S-nitrosocysteine.chk"
 Charge =  0 Multiplicity = 1

                         Standard orientation:
 ---------------------------------------------------------------------
 Center     Atomic      Atomic             Coordinates (Angstroms)
 Number     Number       Type             X           Y           Z
 ---------------------------------------------------------------------
      1         16           0       -1.708055   -0.944543    0.238777
      2          8           0        2.543314    1.082665   -0.736842
      3          8           0        3.099840   -0.995616   -0.091408
      4          8           0       -3.637533    0.704920   -0.308545
      5          7           0        0.648212    1.175180    1.198357
      6          7           0       -2.500457    0.538811   -0.543859
      7          6           0        0.958154   -0.108039    0.596436
      8          6           0       -0.057481   -0.638317   -0.450388
      9          6           0        2.322002   -0.078776   -0.081186
     10          1           0        1.047909   -0.847293    1.390980
     11          1           0        0.293305   -1.573053   -0.885849
     12          1           0       -0.196720    0.090629   -1.251576
     13          1           0       -0.227541    1.132950    1.703394
     14          1           0        0.584033    1.910377    0.505497
     15          1           0        3.412596    1.016178   -1.159186
 ---------------------------------------------------------------------

 SCF Done:  E(RHF) =  -850.276800635     A.U. after    2 cycles

 The electronic state is 1-A.
 Alpha  occ. eigenvalues --  -75.72735 -21.17197 -21.13659 -21.06822 -15.92522
 Alpha  occ. eigenvalues --  -15.75158 -13.16655 -13.12886 -13.07440 -11.54346
 Alpha  occ. eigenvalues --  -11.47956 -11.42540  -8.06740  -1.91370  -1.84338
 Alpha  occ. eigenvalues --   -1.66963  -1.38153  -1.23992  -1.09662  -0.97939
 Alpha  occ. eigenvalues --   -0.88375  -0.82031  -0.68983  -0.66978  -0.64526
 Alpha  occ. eigenvalues --   -0.63330  -0.61344  -0.60415  -0.57788  -0.57087
 Alpha  occ. eigenvalues --   -0.54834  -0.51416  -0.47605  -0.42021  -0.38059
 Alpha  occ. eigenvalues --   -0.35091  -0.30728  -0.26743  -0.26242
 Alpha virt. eigenvalues --    0.03655   0.05131   0.05403   0.05537   0.06173
 Alpha virt. eigenvalues --    0.06973   0.07939   0.09425   0.10516   0.11057
 Alpha virt. eigenvalues --    0.11796   0.12222   0.13507   0.13918   0.15074

 Mulliken charges:
               1
     1  S    1.201037
     2  O   -3.083935
     3  O   -3.268648
     4  O   -1.886782
     5  N   -2.949076
     6  N    1.159175
     7  C   -0.935471
     8  C   -3.855077
     9  C    6.752681
    10  H    1.735383
    11  H    1.397704
    12  H    1.605740
    13  H    0.675543
    14  H    0.575624
    15  H    0.876103
 Sum of Mulliken charges =   0.00000

 Dipole moment (field-independent basis, Debye):
    X=             -1.1434    Y=             -0.3087    Z=              0.0926  Tot=              1.1879

 Test job not archived.
 1\1\GINC-SE155\SP\RHF\Aug-CC-pVDZ\C3H6N2O3S1\OHZDE\06-Apr-2025\0\\#t h
 f aug-cc-pvdz iop(5/13=1,5/36=2,99/5=2) pseudo=read geom=check guess=(
 read,tcheck) scf=(maxcycle=1)\\title\\0,1\S,0,-1.708055,-0.944543,0.23
 8777\O,0,2.543314,1.082665,-0.736842\O,0,3.09984,-0.995616,-0.091408\O
 ,0,-3.637533,0.70492,-0.308545\N,0,0.648212,1.17518,1.198357\N,0,-2.50
 0457,0.538811,-0.543859\C,0,0.958154,-0.108039,0.596436\C,0,-0.057481,
 -0.638317,-0.450388\C,0,2.322002,-0.078776,-0.081186\H,0,1.047909,-0.8
 47293,1.39098\H,0,0.293305,-1.573053,-0.885849\H,0,-0.19672,0.090629,-

 Normal termination of Gaussian 16 at Sun Apr  6 08:10:11 2025.
