 Gaussian 16, Revision C.01,

 ----------------------------------------------------------------------
 #t hf aug-cc-pvdz symm=none int=(grid=ultrafine) guess=(read,tcheck) s
 table=(opt,rrhf)
 ----------------------------------------------------------------------
 -----
 title
 -----
 Symbolic Z-matrix:
 Charge =  0 Multiplicity = 1

 SCF Done:  E(RHF) =  -321.902419393     A.U. after   14 cycles
 Normal termination of Gaussian 16 at Sun Apr  6 08:31:52 2025.
 Gaussian 16:  ES64L-G16RevC.01  3-Jul-2019

 ----------------------------------------------------------------------
 #t hf aug-cc-pvdz iop(5/13=1,5/36=2,99/5=2) pseudo=read geom=check gue
 ss=(read,tcheck) scf=(maxcycle=1)
 ----------------------------------------------------------------------
 -----
 title
 -----
 Structure from the checkpoint file:  "sarcosine.chk"
 Charge =  0 Multiplicity = 1

                         Standard orientation:
 ---------------------------------------------------------------------
 Center     Atomic      Atomic             Coordinates (Angstroms)
 Number     Number       Type             X           Y           Z
 ---------------------------------------------------------------------
      1          1           0       -1.062995    1.233708   -0.007749
      2          7           0       -1.287298    0.301061   -0.329906
      3          1           0       -2.668450   -0.329662    1.188710
      4          1           0       -2.886524   -1.049290   -0.414325
      5          1           0       -3.337280    0.630006   -0.147704
      6          6           0       -2.603422   -0.132820    0.107415
      7          1           0       -0.323323   -1.023463    1.042073
      8          1           0       -0.185290   -1.445839   -0.662916
      9          6           0       -0.216255   -0.595054    0.027536
     10          8           0        1.244161    1.313708    0.076402
     11          6           0        1.122183    0.123838    0.016980
     12          1           0        1.964442   -1.602938   -0.095392
     13          8           0        2.217773   -0.675674   -0.014519
 ---------------------------------------------------------------------

 SCF Done:  E(RHF) =  -323.333189209     A.U. after    2 cycles

 The electronic state is 1-A.
 Alpha  occ. eigenvalues --  -21.13057 -21.05538 -15.72716 -11.53500 -11.42845
 Alpha  occ. eigenvalues --  -11.39182  -1.83010  -1.66209  -1.39316  -1.08696
 Alpha  occ. eigenvalues --   -0.93609  -0.80100  -0.71830  -0.67148  -0.62389
 Alpha  occ. eigenvalues --   -0.59233  -0.56363  -0.53511  -0.51216  -0.49903
 Alpha  occ. eigenvalues --   -0.44911  -0.35075  -0.33550  -0.30732
 Alpha virt. eigenvalues --    0.03212   0.04412   0.05325   0.05542   0.06878
 Alpha virt. eigenvalues --    0.07224   0.08471   0.09543   0.11623   0.12556
 Alpha virt. eigenvalues --    0.12812   0.13673   0.14749   0.15745   0.15936

 Mulliken charges:
               1
     1  H    0.632638
     2  N   -2.268071
     3  H    1.278568
     4  H    1.316818
     5  H    1.298127
     6  C   -3.291029
     7  H    1.506242
     8  H    1.460544
     9  C   -2.264146
    10  O   -3.014253
    11  C    5.386410
    12  H    1.036089
    13  O   -3.077937
 Sum of Mulliken charges =  -0.00000

 Dipole moment (field-independent basis, Debye):
    X=             -0.9792    Y=             -1.8276    Z=              0.5407  Tot=              2.1428

 Test job not archived.
 1\1\GINC-SE042\SP\RHF\Aug-CC-pVDZ\C3H7N1O2\OHZDE\06-Apr-2025\0\\#t hf
 aug-cc-pvdz iop(5/13=1,5/36=2,99/5=2) pseudo=read geom=check guess=(re
 ad,tcheck) scf=(maxcycle=1)\\title\\0,1\H,0,-1.062995,1.233708,-0.0077
 49\N,0,-1.287298,0.301061,-0.329906\H,0,-2.66845,-0.329662,1.18871\H,0
 ,-2.886524,-1.04929,-0.414325\H,0,-3.33728,0.630006,-0.147704\C,0,-2.6
 03422,-0.13282,0.107415\H,0,-0.323323,-1.023463,1.042073\H,0,-0.18529,
 -1.445839,-0.662916\C,0,-0.216255,-0.595054,0.027536\O,0,1.244161,1.31
 3708,0.076402\C,0,1.122183,0.123838,0.01698\H,0,1.964442,-1.602938,-0.

 Normal termination of Gaussian 16 at Sun Apr  6 08:32:39 2025.
