 Gaussian 16, Revision C.01,

 ----------------------------------------------------------------------
 #t hf aug-cc-pvdz symm=none int=(grid=ultrafine) guess=(read,tcheck) s
 table=(opt,rrhf)
 ----------------------------------------------------------------------
 -----
 title
 -----
 Symbolic Z-matrix:
 Charge =  0 Multiplicity = 1

 SCF Done:  E(RHF) =  -386.882962520     A.U. after   14 cycles
 Normal termination of Gaussian 16 at Sun Apr  6 08:34:36 2025.
 Gaussian 16:  ES64L-G16RevC.01  3-Jul-2019

 ----------------------------------------------------------------------
 #t hf aug-cc-pvdz iop(5/13=1,5/36=2,99/5=2) pseudo=read geom=check gue
 ss=(read,tcheck) scf=(maxcycle=1)
 ----------------------------------------------------------------------
 -----
 title
 -----
 Structure from the checkpoint file:  "sec-butylbenzene.chk"
 Charge =  0 Multiplicity = 1

                         Standard orientation:
 ---------------------------------------------------------------------
 Center     Atomic      Atomic             Coordinates (Angstroms)
 Number     Number       Type             X           Y           Z
 ---------------------------------------------------------------------
      1          6           0        2.857988   -0.186371   -0.233131
      2          6           0        2.053766    0.384179   -1.214486
      3          6           0        2.290498   -0.563987    0.976902
      4          6           0        0.697008    0.573868   -0.984913
      5          6           0        0.930680   -0.371454    1.200202
      6          6           0        0.110355    0.199210    0.227134
      7          6           0       -2.106231   -1.897819   -0.384502
      8          6           0       -1.735472    1.906080    0.469313
      9          6           0       -2.268736   -0.382193   -0.478594
     10          6           0       -1.370680    0.413775    0.488686
     11          1           0        3.914630   -0.333895   -0.411250
     12          1           0        2.484835    0.682992   -2.161028
     13          1           0        2.904128   -1.009341    1.748912
     14          1           0        0.089544    1.020400   -1.761714
     15          1           0        0.498685   -0.670061    2.147496
     16          1           0       -2.781757   -2.406774   -1.073300
     17          1           0       -1.088989   -2.207419   -0.625697
     18          1           0       -2.330630   -2.254856    0.622994
     19          1           0       -1.578291    2.339587   -0.519828
     20          1           0       -2.785198    2.048697    0.731767
     21          1           0       -1.128084    2.469271    1.178299
     22          1           0       -2.072665   -0.053669   -1.503150
     23          1           0       -3.308762   -0.116218   -0.270236
     24          1           0       -1.572502    0.039560    1.497058
 ---------------------------------------------------------------------

 SCF Done:  E(RHF) =  -388.831107940     A.U. after    2 cycles

 The electronic state is 1-A.
 Alpha  occ. eigenvalues --  -11.51615 -11.44992 -11.42825 -11.42055 -11.40294
 Alpha  occ. eigenvalues --  -11.39960 -11.39690 -11.37680 -11.35941 -11.34920
 Alpha  occ. eigenvalues --   -1.36105  -1.23249  -1.09746  -1.08576  -1.05090
 Alpha  occ. eigenvalues --   -0.92055  -0.87108  -0.85627  -0.79402  -0.70347
 Alpha  occ. eigenvalues --   -0.65572  -0.62120  -0.59299  -0.58798  -0.57211
 Alpha  occ. eigenvalues --   -0.56629  -0.54714  -0.51841  -0.49966  -0.49171
 Alpha  occ. eigenvalues --   -0.47757  -0.45813  -0.42782  -0.42363  -0.39829
 Alpha  occ. eigenvalues --   -0.32470  -0.31140
 Alpha virt. eigenvalues --    0.03749   0.04618   0.05082   0.05220   0.05633
 Alpha virt. eigenvalues --    0.05877   0.05921   0.06542   0.06849   0.07335
 Alpha virt. eigenvalues --    0.07917   0.08482   0.08912   0.10161   0.12009

 Mulliken charges:
               1
     1  C   -3.503510
     2  C   -1.808823
     3  C   -1.249339
     4  C   -2.950255
     5  C   -4.081831
     6  C    7.742372
     7  C   -4.259777
     8  C   -4.806937
     9  C   -3.417507
    10  C   -2.278515
    11  H    1.581511
    12  H    1.517040
    13  H    1.524725
    14  H    2.048149
    15  H    1.698547
    16  H    1.069747
    17  H    1.508969
    18  H    1.236060
    19  H    1.373909
    20  H    1.234179
    21  H    1.252798
    22  H    1.584233
    23  H    1.442982
    24  H    1.541274
 Sum of Mulliken charges =  -0.00000

 Dipole moment (field-independent basis, Debye):
    X=             -0.2161    Y=             -0.0072    Z=              0.0215  Tot=              0.2172

 Test job not archived.
 1\1\GINC-SE103\SP\RHF\Aug-CC-pVDZ\C10H14\OHZDE\06-Apr-2025\0\\#t hf au
 g-cc-pvdz iop(5/13=1,5/36=2,99/5=2) pseudo=read geom=check guess=(read
 ,tcheck) scf=(maxcycle=1)\\title\\0,1\C,0,2.857988,-0.186371,-0.233131
 \C,0,2.053766,0.384179,-1.214486\C,0,2.290498,-0.563987,0.976902\C,0,0
 .697008,0.573868,-0.984913\C,0,0.93068,-0.371454,1.200202\C,0,0.110355
 ,0.19921,0.227134\C,0,-2.106231,-1.897819,-0.384502\C,0,-1.735472,1.90
 608,0.469313\C,0,-2.268736,-0.382193,-0.478594\C,0,-1.37068,0.413775,0
 .488686\H,0,3.91463,-0.333895,-0.41125\H,0,2.484835,0.682992,-2.161028

 Normal termination of Gaussian 16 at Sun Apr  6 08:35:26 2025.
