 Gaussian 16, Revision C.01,

 ----------------------------------------------------------------------
 #t hf aug-cc-pvdz symm=none int=(grid=ultrafine) guess=(read,tcheck) s
 table=(opt,rrhf)
 ----------------------------------------------------------------------
 -----
 title
 -----
 Symbolic Z-matrix:
 Charge =  0 Multiplicity = 1

 SCF Done:  E(RHF) =  -396.792676285     A.U. after   14 cycles
 Normal termination of Gaussian 16 at Sun Apr  6 08:32:09 2025.
 Gaussian 16:  ES64L-G16RevC.01  3-Jul-2019

 ----------------------------------------------------------------------
 #t hf aug-cc-pvdz iop(5/13=1,5/36=2,99/5=2) pseudo=read geom=check gue
 ss=(read,tcheck) scf=(maxcycle=1)
 ----------------------------------------------------------------------
 -----
 title
 -----
 Structure from the checkpoint file:  "serine.chk"
 Charge =  0 Multiplicity = 1

                         Standard orientation:
 ---------------------------------------------------------------------
 Center     Atomic      Atomic             Coordinates (Angstroms)
 Number     Number       Type             X           Y           Z
 ---------------------------------------------------------------------
      1          7           0       -0.177991    1.757044   -0.045284
      2          6           0       -0.174557    0.454696    0.630245
      3          6           0        1.009523   -0.385808    0.110632
      4          8           0        1.076352   -1.580041    0.246542
      5          8           0        1.963473    0.331956   -0.488889
      6          1           0        1.615569    1.250303   -0.522903
      7          6           0       -1.479889   -0.332217    0.505893
      8          8           0       -1.818406   -0.558856   -0.858546
      9          1           0        0.029220    0.618593    1.692314
     10          1           0       -2.295702    0.252625    0.931383
     11          1           0       -1.398556   -1.270636    1.055345
     12          1           0       -1.310349   -1.313636   -1.174889
     13          1           0       -0.748545    1.709812   -0.883078
     14          1           0       -0.547515    2.489126    0.545335
 ---------------------------------------------------------------------

 SCF Done:  E(RHF) =  -398.519219089     A.U. after    2 cycles

 The electronic state is 1-A.
 Alpha  occ. eigenvalues --  -21.11021 -21.08337 -21.04796 -15.76816 -11.52790
 Alpha  occ. eigenvalues --  -11.47534 -11.41878  -1.82360  -1.72384  -1.65524
 Alpha  occ. eigenvalues --   -1.37142  -1.09470  -0.94026  -0.77469  -0.73478
 Alpha  occ. eigenvalues --   -0.69945  -0.65902  -0.60757  -0.60264  -0.55389
 Alpha  occ. eigenvalues --   -0.50753  -0.50499  -0.45636  -0.42303  -0.40290
 Alpha  occ. eigenvalues --   -0.33957  -0.32913  -0.28990
 Alpha virt. eigenvalues --    0.03231   0.04624   0.05136   0.05289   0.06546
 Alpha virt. eigenvalues --    0.06891   0.07395   0.10479   0.11544   0.12556
 Alpha virt. eigenvalues --    0.13196   0.13770   0.14070   0.15207   0.15366

 Mulliken charges:
               1
     1  N   -2.404351
     2  C   -1.864632
     3  C    6.274739
     4  O   -3.206522
     5  O   -3.120387
     6  H    1.077654
     7  C   -0.541832
     8  O   -2.407899
     9  H    1.721020
    10  H    1.250077
    11  H    1.425534
    12  H    0.683639
    13  H    0.606956
    14  H    0.506005
 Sum of Mulliken charges =   0.00000

 Dipole moment (field-independent basis, Debye):
    X=             -1.7403    Y=              2.2643    Z=              0.5630  Tot=              2.9108

 Test job not archived.
 1\1\GINC-SE104\SP\RHF\Aug-CC-pVDZ\C3H7N1O3\OHZDE\06-Apr-2025\0\\#t hf
 aug-cc-pvdz iop(5/13=1,5/36=2,99/5=2) pseudo=read geom=check guess=(re
 ad,tcheck) scf=(maxcycle=1)\\title\\0,1\N,0,-0.177991,1.757044,-0.0452
 84\C,0,-0.174557,0.454696,0.630245\C,0,1.009523,-0.385808,0.110632\O,0
 ,1.076352,-1.580041,0.246542\O,0,1.963473,0.331956,-0.488889\H,0,1.615
 569,1.250303,-0.522903\C,0,-1.479889,-0.332217,0.505893\O,0,-1.818406,
 -0.558856,-0.858546\H,0,0.02922,0.618593,1.692314\H,0,-2.295702,0.2526
 25,0.931383\H,0,-1.398556,-1.270636,1.055345\H,0,-1.310349,-1.313636,-

 Normal termination of Gaussian 16 at Sun Apr  6 08:32:40 2025.
