 Gaussian 16, Revision C.01,

 ----------------------------------------------------------------------
 #t hf aug-cc-pvdz symm=none int=(grid=ultrafine) guess=(read,tcheck) s
 table=(opt,rrhf)
 ----------------------------------------------------------------------
 -----
 title
 -----
 Symbolic Z-matrix:
 Charge =  0 Multiplicity = 1

 SCF Done:  E(RHF) =  -345.428137970     A.U. after   12 cycles
 Normal termination of Gaussian 16 at Sun Apr  6 08:32:43 2025.
 Gaussian 16:  ES64L-G16RevC.01  3-Jul-2019

 ----------------------------------------------------------------------
 #t hf aug-cc-pvdz iop(5/13=1,5/36=2,99/5=2) pseudo=read geom=check gue
 ss=(read,tcheck) scf=(maxcycle=1)
 ----------------------------------------------------------------------
 -----
 title
 -----
 Structure from the checkpoint file:  "spiro4-4nona-1-3-6-8-tetraene.chk"
 Charge =  0 Multiplicity = 1

                         Standard orientation:
 ---------------------------------------------------------------------
 Center     Atomic      Atomic             Coordinates (Angstroms)
 Number     Number       Type             X           Y           Z
 ---------------------------------------------------------------------
      1          6           0        0.000000    0.000000    0.000000
      2          6           0        0.000000    1.177445    0.958848
      3          6           0       -0.000000   -1.177445    0.958848
      4          6           0        1.177445   -0.000000   -0.958848
      5          6           0       -1.177445    0.000000   -0.958848
      6          6           0        0.000000    0.734608    2.223211
      7          6           0       -0.000000   -0.734608    2.223211
      8          6           0        0.734608    0.000000   -2.223211
      9          6           0       -0.734608    0.000000   -2.223211
     10          1           0        0.000000    2.201549    0.620322
     11          1           0       -0.000000   -2.201549    0.620322
     12          1           0        2.201549   -0.000000   -0.620322
     13          1           0       -2.201549    0.000000   -0.620322
     14          1           0        0.000000    1.348828    3.111832
     15          1           0       -0.000000   -1.348828    3.111832
     16          1           0        1.348828   -0.000000   -3.111832
     17          1           0       -1.348828    0.000000   -3.111832
 ---------------------------------------------------------------------

 SCF Done:  E(RHF) =  -347.102725291     A.U. after    2 cycles

 The electronic state is 1-A1.
 Alpha  occ. eigenvalues --  -11.48089 -11.47332 -11.47332 -11.42657 -11.40383
 Alpha  occ. eigenvalues --  -11.39528 -11.39528 -11.38252 -11.35412  -1.40711
 Alpha  occ. eigenvalues --   -1.24912  -1.02544  -1.02544  -1.01643  -0.84842
 Alpha  occ. eigenvalues --   -0.76477  -0.76477  -0.75046  -0.72332  -0.65794
 Alpha  occ. eigenvalues --   -0.54198  -0.54198  -0.51987  -0.51987  -0.48249
 Alpha  occ. eigenvalues --   -0.48007  -0.43891  -0.39078  -0.39078  -0.32995
 Alpha  occ. eigenvalues --   -0.26662
 Alpha virt. eigenvalues --    0.03684   0.04660   0.05210   0.05382   0.05382
 Alpha virt. eigenvalues --    0.05927   0.07388   0.07388   0.09311   0.09311
 Alpha virt. eigenvalues --    0.11004   0.12320   0.13051   0.13305   0.13305

 Mulliken charges:
               1
     1  C    1.190107
     2  C   -2.387241
     3  C   -2.387241
     4  C   -2.387241
     5  C   -2.387241
     6  C   -0.765617
     7  C   -0.765617
     8  C   -0.765617
     9  C   -0.765617
    10  H    1.465682
    11  H    1.465682
    12  H    1.465682
    13  H    1.465682
    14  H    1.389649
    15  H    1.389649
    16  H    1.389649
    17  H    1.389649
 Sum of Mulliken charges =   0.00000

 Dipole moment (field-independent basis, Debye):
    X=             -0.0000    Y=              0.0000    Z=              0.0000  Tot=              0.0000

 Test job not archived.
 1\1\GINC-SE208\SP\RHF\Aug-CC-pVDZ\C9H8\OHZDE\06-Apr-2025\0\\#t hf aug-
 cc-pvdz iop(5/13=1,5/36=2,99/5=2) pseudo=read geom=check guess=(read,t
 check) scf=(maxcycle=1)\\title\\0,1\C,0,0.,0.,0.\C,0,0.,1.177445,0.958
 848\C,0,0.,-1.177445,0.958848\C,0,1.177445,0.,-0.958848\C,0,-1.177445,
 0.,-0.958848\C,0,0.,0.734608,2.223211\C,0,0.,-0.734608,2.223211\C,0,0.
 734608,0.,-2.223211\C,0,-0.734608,0.,-2.223211\H,0,0.,2.201549,0.62032
 2\H,0,0.,-2.201549,0.620322\H,0,2.201549,0.,-0.620322\H,0,-2.201549,0.
 ,-0.620322\H,0,0.,1.348828,3.111832\H,0,0.,-1.348828,3.111832\H,0,1.34

 Normal termination of Gaussian 16 at Sun Apr  6 08:32:52 2025.
