 Gaussian 16, Revision C.01,

 ----------------------------------------------------------------------
 #t hf aug-cc-pvdz symm=none int=(grid=ultrafine) guess=(read,tcheck) s
 table=(opt,rrhf)
 ----------------------------------------------------------------------
 -----
 title
 -----
 Symbolic Z-matrix:
 Charge =  0 Multiplicity = 1

 SCF Done:  E(RHF) =  -193.936798254     A.U. after   11 cycles
 Normal termination of Gaussian 16 at Sun Apr  6 08:32:00 2025.
 Gaussian 16:  ES64L-G16RevC.01  3-Jul-2019

 ----------------------------------------------------------------------
 #t hf aug-cc-pvdz iop(5/13=1,5/36=2,99/5=2) pseudo=read geom=check gue
 ss=(read,tcheck) scf=(maxcycle=1)
 ----------------------------------------------------------------------
 -----
 title
 -----
 Structure from the checkpoint file:  "spiropentane.chk"
 Charge =  0 Multiplicity = 1

                         Standard orientation:
 ---------------------------------------------------------------------
 Center     Atomic      Atomic             Coordinates (Angstroms)
 Number     Number       Type             X           Y           Z
 ---------------------------------------------------------------------
      1          6           0        0.000000    0.000000    0.000000
      2          6           0        0.000000    0.763303    1.266524
      3          6           0       -0.000000   -0.763303    1.266524
      4          6           0       -0.763303    0.000000   -1.266524
      5          6           0        0.763303   -0.000000   -1.266524
      6          1           0        0.910461    1.264133    1.569347
      7          1           0       -0.910461    1.264133    1.569347
      8          1           0       -0.910461   -1.264133    1.569347
      9          1           0        0.910461   -1.264133    1.569347
     10          1           0       -1.264133   -0.910461   -1.569347
     11          1           0       -1.264133    0.910461   -1.569347
     12          1           0        1.264133    0.910461   -1.569347
     13          1           0        1.264133   -0.910461   -1.569347
 ---------------------------------------------------------------------

 SCF Done:  E(RHF) =  -194.914693023     A.U. after    2 cycles

 The electronic state is 1-A1.
 Alpha  occ. eigenvalues --  -11.42495 -11.42495 -11.41027 -11.37610 -11.35886
 Alpha  occ. eigenvalues --   -1.35439  -1.15169  -0.86115  -0.86115  -0.77165
 Alpha  occ. eigenvalues --   -0.64207  -0.64207  -0.63485  -0.51074  -0.49665
 Alpha  occ. eigenvalues --   -0.46955  -0.37973  -0.37973  -0.35721
 Alpha virt. eigenvalues --    0.04125   0.05468   0.05719   0.05719   0.06175
 Alpha virt. eigenvalues --    0.06631   0.06631   0.08870   0.09869   0.10989
 Alpha virt. eigenvalues --    0.13815   0.13815   0.14732   0.15089   0.15576

 Mulliken charges:
               1
     1  C    2.235492
     2  C   -2.837954
     3  C   -2.837954
     4  C   -2.837954
     5  C   -2.837954
     6  H    1.139541
     7  H    1.139541
     8  H    1.139541
     9  H    1.139541
    10  H    1.139541
    11  H    1.139541
    12  H    1.139541
    13  H    1.139541
 Sum of Mulliken charges =   0.00000

 Dipole moment (field-independent basis, Debye):
    X=             -0.0000    Y=              0.0000    Z=             -0.0000  Tot=              0.0000

 Test job not archived.
 1\1\GINC-SE209\SP\RHF\Aug-CC-pVDZ\C5H8\OHZDE\06-Apr-2025\0\\#t hf aug-
 cc-pvdz iop(5/13=1,5/36=2,99/5=2) pseudo=read geom=check guess=(read,t
 check) scf=(maxcycle=1)\\title\\0,1\C,0,0.,0.,0.\C,0,0.,0.763303,1.266
 524\C,0,0.,-0.763303,1.266524\C,0,-0.763303,0.,-1.266524\C,0,0.763303,
 0.,-1.266524\H,0,0.910461,1.264133,1.569347\H,0,-0.910461,1.264133,1.5
 69347\H,0,-0.910461,-1.264133,1.569347\H,0,0.910461,-1.264133,1.569347
 \H,0,-1.264133,-0.910461,-1.569347\H,0,-1.264133,0.910461,-1.569347\H,
 0,1.264133,0.910461,-1.569347\H,0,1.264133,-0.910461,-1.569347\\Versio

 Normal termination of Gaussian 16 at Sun Apr  6 08:32:37 2025.
