 Gaussian 16, Revision C.01,

 ----------------------------------------------------------------------
 #t hf aug-cc-pvdz symm=none int=(grid=ultrafine) guess=(read,tcheck) s
 table=(opt,rrhf)
 ----------------------------------------------------------------------
 -----
 title
 -----
 Symbolic Z-matrix:
 Charge =  0 Multiplicity = 1

 SCF Done:  E(RHF) =  -307.619562935     A.U. after   15 cycles
 Normal termination of Gaussian 16 at Sun Apr  6 08:32:19 2025.
 Gaussian 16:  ES64L-G16RevC.01  3-Jul-2019

 ----------------------------------------------------------------------
 #t hf aug-cc-pvdz iop(5/13=1,5/36=2,99/5=2) pseudo=read geom=check gue
 ss=(read,tcheck) scf=(maxcycle=1)
 ----------------------------------------------------------------------
 -----
 title
 -----
 Structure from the checkpoint file:  "styrene.chk"
 Charge =  0 Multiplicity = 1

                         Standard orientation:
 ---------------------------------------------------------------------
 Center     Atomic      Atomic             Coordinates (Angstroms)
 Number     Number       Type             X           Y           Z
 ---------------------------------------------------------------------
      1          6           0        0.646281   -2.178017    0.000000
      2          6           0        1.654479   -1.222905    0.000000
      3          6           0       -0.685207   -1.768319    0.000000
      4          6           0        1.332018    0.128421    0.000000
      5          6           0       -1.004470   -0.419868    0.000000
      6          6           0        0.000000    0.557656    0.000000
      7          6           0       -1.470206    2.598351    0.000000
      8          6           0       -0.279787    1.999196    0.000000
      9          1           0        0.891660   -3.231362    0.000000
     10          1           0        2.692244   -1.528409    0.000000
     11          1           0       -1.476757   -2.505897    0.000000
     12          1           0        2.123019    0.867889    0.000000
     13          1           0       -2.044665   -0.124640    0.000000
     14          1           0       -1.545935    3.676443    0.000000
     15          1           0       -2.403023    2.050610    0.000000
     16          1           0        0.604810    2.628272    0.000000
 ---------------------------------------------------------------------

 SCF Done:  E(RHF) =  -309.113191051     A.U. after    2 cycles

 The electronic state is 1-A'.
 Alpha  occ. eigenvalues --  -11.51307 -11.44277 -11.42994 -11.41707 -11.40688
 Alpha  occ. eigenvalues --  -11.40382 -11.39099 -11.36076  -1.35715  -1.17756
 Alpha  occ. eigenvalues --   -1.09265  -1.05466  -0.89007  -0.86138  -0.79176
 Alpha  occ. eigenvalues --   -0.70949  -0.65945  -0.62228  -0.58328  -0.57897
 Alpha  occ. eigenvalues --   -0.53633  -0.51211  -0.50265  -0.43959  -0.43761
 Alpha  occ. eigenvalues --   -0.40256  -0.33033  -0.29143
 Alpha virt. eigenvalues --    0.03400   0.04814   0.05016   0.05682   0.06434
 Alpha virt. eigenvalues --    0.06977   0.07446   0.08634   0.09145   0.10238
 Alpha virt. eigenvalues --    0.11142   0.12127   0.12675   0.13761   0.14128

 Mulliken charges:
               1
     1  C   -3.106460
     2  C   -2.100004
     3  C   -3.551187
     4  C   -2.484533
     5  C   -0.169317
     6  C    4.464659
     7  C   -4.247127
     8  C   -0.911803
     9  H    1.492738
    10  H    1.450953
    11  H    1.430302
    12  H    1.642234
    13  H    1.905976
    14  H    1.319812
    15  H    1.416262
    16  H    1.447496
 Sum of Mulliken charges =  -0.00000

 Dipole moment (field-independent basis, Debye):
    X=              0.0397    Y=             -0.2120    Z=              0.0000  Tot=              0.2157

 Test job not archived.
 1\1\GINC-SE222\SP\RHF\Aug-CC-pVDZ\C8H8\OHZDE\06-Apr-2025\0\\#t hf aug-
 cc-pvdz iop(5/13=1,5/36=2,99/5=2) pseudo=read geom=check guess=(read,t
 check) scf=(maxcycle=1)\\title\\0,1\C,0,0.646281,-2.178017,0.\C,0,1.65
 4479,-1.222905,0.\C,0,-0.685207,-1.768319,0.\C,0,1.332018,0.128421,0.\
 C,0,-1.00447,-0.419868,0.\C,0,0.,0.557656,0.\C,0,-1.470206,2.598351,0.
 \C,0,-0.279787,1.999196,0.\H,0,0.89166,-3.231362,0.\H,0,2.692244,-1.52
 8409,0.\H,0,-1.476757,-2.505897,0.\H,0,2.123019,0.867889,0.\H,0,-2.044
 665,-0.12464,0.\H,0,-1.545935,3.676443,0.\H,0,-2.403023,2.05061,0.\H,0

 Normal termination of Gaussian 16 at Sun Apr  6 08:32:41 2025.
