 Gaussian 16, Revision C.01,

 ----------------------------------------------------------------------
 #t hf aug-cc-pvdz symm=none int=(grid=ultrafine) guess=(read,tcheck) s
 table=(opt,rrhf)
 ----------------------------------------------------------------------
 -----
 title
 -----
 Symbolic Z-matrix:
 Charge =  0 Multiplicity = 1

 SCF Done:  E(RHF) =  -262.721320498     A.U. after   13 cycles
 Normal termination of Gaussian 16 at Sun Apr  6 08:31:39 2025.
 Gaussian 16:  ES64L-G16RevC.01  3-Jul-2019

 ----------------------------------------------------------------------
 #t hf aug-cc-pvdz iop(5/13=1,5/36=2,99/5=2) pseudo=read geom=check gue
 ss=(read,tcheck) scf=(maxcycle=1)
 ----------------------------------------------------------------------
 -----
 title
 -----
 Structure from the checkpoint file:  "succinonitrile.chk"
 Charge =  0 Multiplicity = 1

                         Standard orientation:
 ---------------------------------------------------------------------
 Center     Atomic      Atomic             Coordinates (Angstroms)
 Number     Number       Type             X           Y           Z
 ---------------------------------------------------------------------
      1          6           0        0.422954    0.646920    0.000000
      2          6           0       -0.422954   -0.646920    0.000000
      3          6           0       -0.422954    1.834859    0.000000
      4          6           0        0.422954   -1.834859    0.000000
      5          7           0        1.107673   -2.757950    0.000000
      6          7           0       -1.107673    2.757950    0.000000
      7          1           0        1.069525    0.672423    0.877634
      8          1           0        1.069525    0.672423   -0.877634
      9          1           0       -1.069525   -0.672423    0.877634
     10          1           0       -1.069525   -0.672423   -0.877634
 ---------------------------------------------------------------------

 SCF Done:  E(RHF) =  -263.919576634     A.U. after    2 cycles

 The electronic state is 1-AG.
 Alpha  occ. eigenvalues --  -15.78062 -15.78061 -11.51114 -11.48007 -11.45246
 Alpha  occ. eigenvalues --  -11.43984  -1.37329  -1.32107  -1.22421  -1.03427
 Alpha  occ. eigenvalues --   -0.76312  -0.71086  -0.68985  -0.61548  -0.59698
 Alpha  occ. eigenvalues --   -0.54745  -0.52384  -0.47245  -0.45639  -0.45286
 Alpha  occ. eigenvalues --   -0.43796
 Alpha virt. eigenvalues --    0.02011   0.05137   0.05306   0.06116   0.08194
 Alpha virt. eigenvalues --    0.09164   0.09846   0.10514   0.11027   0.11090
 Alpha virt. eigenvalues --    0.11587   0.13865   0.15186   0.16092   0.16503

 Mulliken charges:
               1
     1  C   -3.076713
     2  C   -3.076713
     3  C    2.452608
     4  C    2.452608
     5  N   -2.430285
     6  N   -2.430285
     7  H    1.527195
     8  H    1.527195
     9  H    1.527195
    10  H    1.527195
 Sum of Mulliken charges =  -0.00000

 Dipole moment (field-independent basis, Debye):
    X=             -0.0000    Y=              0.0000    Z=              0.0000  Tot=              0.0000

 Test job not archived.
 1\1\GINC-SE085\SP\RHF\Aug-CC-pVDZ\C4H4N2\OHZDE\06-Apr-2025\0\\#t hf au
 g-cc-pvdz iop(5/13=1,5/36=2,99/5=2) pseudo=read geom=check guess=(read
 ,tcheck) scf=(maxcycle=1)\\title\\0,1\C,0,0.422954,0.64692,0.\C,0,-0.4
 22954,-0.64692,0.\C,0,-0.422954,1.834859,0.\C,0,0.422954,-1.834859,0.\
 N,0,1.107673,-2.75795,0.\N,0,-1.107673,2.75795,0.\H,0,1.069525,0.67242
 3,0.877634\H,0,1.069525,0.672423,-0.877634\H,0,-1.069525,-0.672423,0.8
 77634\H,0,-1.069525,-0.672423,-0.877634\\Version=ES64L-G16RevC.01\Stat
 e=1-AG\HF=-263.9195766\RMSD=3.077e-01\Dipole=0.,0.,0.\Quadrupole=3.013

 Normal termination of Gaussian 16 at Sun Apr  6 08:32:37 2025.
