 Gaussian 16, Revision C.01,

 ----------------------------------------------------------------------
 #t hf aug-cc-pvdz symm=none int=(grid=ultrafine) guess=(read,tcheck) s
 table=(opt,rrhf)
 ----------------------------------------------------------------------
 -----
 title
 -----
 Symbolic Z-matrix:
 Charge =  0 Multiplicity = 1

 SCF Done:  E(RHF) =  -454.534732395     A.U. after   13 cycles
 Normal termination of Gaussian 16 at Sun Apr  6 08:32:05 2025.
 Gaussian 16:  ES64L-G16RevC.01  3-Jul-2019

 ----------------------------------------------------------------------
 #t hf aug-cc-pvdz iop(5/13=1,5/36=2,99/5=2) pseudo=read geom=check gue
 ss=(read,tcheck) scf=(maxcycle=1)
 ----------------------------------------------------------------------
 -----
 title
 -----
 Structure from the checkpoint file:  "succinic_acid.chk"
 Charge =  0 Multiplicity = 1

                         Standard orientation:
 ---------------------------------------------------------------------
 Center     Atomic      Atomic             Coordinates (Angstroms)
 Number     Number       Type             X           Y           Z
 ---------------------------------------------------------------------
      1          8           0       -2.569105   -0.409889   -0.572480
      2          6           0       -1.603311   -0.035392    0.038272
      3          6           0       -0.692304    1.087981   -0.403001
      4          6           0        0.695435    1.135208    0.232886
      5          6           0        1.604629   -0.043381   -0.033539
      6          8           0        2.579645   -0.312785    0.616746
      7          8           0        1.230271   -0.763568   -1.119024
      8          8           0       -1.243334   -0.568197    1.231448
      9          1           0       -1.222247    2.014615   -0.166974
     10          1           0       -0.636885    1.034304   -1.487924
     11          1           0        0.640007    1.245840    1.313535
     12          1           0        1.226901    2.014895   -0.139503
     13          1           0        1.873901   -1.480386   -1.220794
     14          1           0       -1.888183   -1.260241    1.440431
 ---------------------------------------------------------------------

 SCF Done:  E(RHF) =  -456.460053042     A.U. after    2 cycles

 The electronic state is 1-A.
 Alpha  occ. eigenvalues --  -21.13188 -21.13171 -21.05957 -21.05946 -11.53713
 Alpha  occ. eigenvalues --  -11.53693 -11.45075 -11.40836  -1.84194  -1.83161
 Alpha  occ. eigenvalues --   -1.66117  -1.66034  -1.22454  -1.02362  -0.83240
 Alpha  occ. eigenvalues --   -0.79718  -0.66458  -0.66041  -0.64052  -0.59952
 Alpha  occ. eigenvalues --   -0.59718  -0.57688  -0.53639  -0.51652  -0.50284
 Alpha  occ. eigenvalues --   -0.46528  -0.45537  -0.34750  -0.34625  -0.30329
 Alpha  occ. eigenvalues --   -0.30101
 Alpha virt. eigenvalues --    0.03168   0.04657   0.05550   0.05758   0.06596
 Alpha virt. eigenvalues --    0.06688   0.09856   0.09882   0.10894   0.12953
 Alpha virt. eigenvalues --    0.13127   0.13756   0.14433   0.15168   0.15184

 Mulliken charges:
               1
     1  O   -3.086668
     2  C    5.771584
     3  C   -3.370105
     4  C   -3.361063
     5  C    5.759430
     6  O   -3.086784
     7  O   -2.924045
     8  O   -2.929140
     9  H    1.312369
    10  H    1.357352
    11  H    1.359226
    12  H    1.307640
    13  H    0.945838
    14  H    0.944367
 Sum of Mulliken charges =   0.00000

 Dipole moment (field-independent basis, Debye):
    X=             -0.0107    Y=              0.4048    Z=             -0.0230  Tot=              0.4056

 Test job not archived.
 1\1\GINC-SE223\SP\RHF\Aug-CC-pVDZ\C4H6O4\OHZDE\06-Apr-2025\0\\#t hf au
 g-cc-pvdz iop(5/13=1,5/36=2,99/5=2) pseudo=read geom=check guess=(read
 ,tcheck) scf=(maxcycle=1)\\title\\0,1\O,0,-2.569105,-0.409889,-0.57248
 \C,0,-1.603311,-0.035392,0.038272\C,0,-0.692304,1.087981,-0.403001\C,0
 ,0.695435,1.135208,0.232886\C,0,1.604629,-0.043381,-0.033539\O,0,2.579
 645,-0.312785,0.616746\O,0,1.230271,-0.763568,-1.119024\O,0,-1.243334,
 -0.568197,1.231448\H,0,-1.222247,2.014615,-0.166974\H,0,-0.636885,1.03
 4304,-1.487924\H,0,0.640007,1.24584,1.313535\H,0,1.226901,2.014895,-0.

 Normal termination of Gaussian 16 at Sun Apr  6 08:32:40 2025.
