 Gaussian 16, Revision C.01,

 ----------------------------------------------------------------------
 #t hf aug-cc-pvdz symm=none int=(grid=ultrafine) guess=(read,tcheck) s
 table=(opt,rrhf)
 ----------------------------------------------------------------------
 -----
 title
 -----
 Symbolic Z-matrix:
 Charge =  0 Multiplicity = 1

 SCF Done:  E(RHF) =  -1009.40409580     A.U. after   14 cycles
 Normal termination of Gaussian 16 at Sun Apr  6 08:31:37 2025.
 Gaussian 16:  ES64L-G16RevC.01  3-Jul-2019

 ----------------------------------------------------------------------
 #t hf aug-cc-pvdz iop(5/13=1,5/36=2,99/5=2) pseudo=read geom=check gue
 ss=(read,tcheck) scf=(maxcycle=1)
 ----------------------------------------------------------------------
 -----
 title
 -----
 Structure from the checkpoint file:  "sulfanylacetyl_chloride.chk"
 Charge =  0 Multiplicity = 1

                         Standard orientation:
 ---------------------------------------------------------------------
 Center     Atomic      Atomic             Coordinates (Angstroms)
 Number     Number       Type             X           Y           Z
 ---------------------------------------------------------------------
      1         17           0        1.676546   -0.809324   -0.064042
      2         16           0       -1.948152   -0.418639   -0.243515
      3          8           0        0.873755    1.670610   -0.356742
      4          6           0        0.580777    0.624501    0.110504
      5          6           0       -0.682958    0.310390    0.867857
      6          1           0       -2.149817    0.689707   -0.979994
      7          1           0       -1.058018    1.227789    1.313361
      8          1           0       -0.499959   -0.434986    1.635345
 ---------------------------------------------------------------------

 SCF Done:  E(RHF) =  -1010.53849174     A.U. after    2 cycles

 The electronic state is 1-A.
 Alpha  occ. eigenvalues --  -99.90574 -75.71993 -21.11066 -13.15392 -13.12172
 Alpha  occ. eigenvalues --  -13.04967 -11.56136 -11.45010 -10.47897  -9.67747
 Alpha  occ. eigenvalues --   -9.67035  -9.66932  -8.05814  -1.77125  -1.33465
 Alpha  occ. eigenvalues --   -1.22832  -1.02513  -0.82352  -0.70186  -0.64587
 Alpha  occ. eigenvalues --   -0.60574  -0.56698  -0.52427  -0.51020  -0.47682
 Alpha  occ. eigenvalues --   -0.41269  -0.35652  -0.26743
 Alpha virt. eigenvalues --    0.02669   0.04239   0.05452   0.07430   0.07923
 Alpha virt. eigenvalues --    0.09657   0.10830   0.11517   0.11669   0.11813
 Alpha virt. eigenvalues --    0.14110   0.14840   0.15581   0.16630   0.17102

 Mulliken charges:
               1
     1  Cl  -0.094052
     2  S   -0.242057
     3  O   -2.675817
     4  C    2.700993
     5  C   -3.534007
     6  H    0.967649
     7  H    1.307997
     8  H    1.569294
 Sum of Mulliken charges =  -0.00000

 Dipole moment (field-independent basis, Debye):
    X=             -2.7355    Y=              0.2122    Z=              0.8974  Tot=              2.8868

 Test job not archived.
 1\1\GINC-SE086\SP\RHF\Aug-CC-pVDZ\C2H3Cl1O1S1\OHZDE\06-Apr-2025\0\\#t
 hf aug-cc-pvdz iop(5/13=1,5/36=2,99/5=2) pseudo=read geom=check guess=
 (read,tcheck) scf=(maxcycle=1)\\title\\0,1\Cl,0,1.676546,-0.809324,-0.
 064042\S,0,-1.948152,-0.418639,-0.243515\O,0,0.873755,1.67061,-0.35674
 2\C,0,0.580777,0.624501,0.110504\C,0,-0.682958,0.31039,0.867857\H,0,-2
 .149817,0.689707,-0.979994\H,0,-1.058018,1.227789,1.313361\H,0,-0.4999
 59,-0.434986,1.635345\\Version=ES64L-G16RevC.01\State=1-A\HF=-1010.538
 4917\RMSD=1.502e-01\Dipole=-1.076236,0.0835021,0.3530465\Quadrupole=-1

 Normal termination of Gaussian 16 at Sun Apr  6 08:32:37 2025.
