 Gaussian 16, Revision C.01,

 ----------------------------------------------------------------------
 #t hf aug-cc-pvdz symm=none int=(grid=ultrafine) guess=(read,tcheck) s
 table=(opt,rrhf)
 ----------------------------------------------------------------------
 -----
 title
 -----
 Symbolic Z-matrix:
 Charge =  0 Multiplicity = 1

 SCF Done:  E(RHF) =  -700.197143337     A.U. after   14 cycles
 Normal termination of Gaussian 16 at Sun Apr  6 08:31:40 2025.
 Gaussian 16:  ES64L-G16RevC.01  3-Jul-2019

 ----------------------------------------------------------------------
 #t hf aug-cc-pvdz iop(5/13=1,5/36=2,99/5=2) pseudo=read geom=check gue
 ss=(read,tcheck) scf=(maxcycle=1)
 ----------------------------------------------------------------------
 -----
 title
 -----
 Structure from the checkpoint file:  "sulfanyl-2-hydroxyacetate.chk"
 Charge =  0 Multiplicity = 1

                         Standard orientation:
 ---------------------------------------------------------------------
 Center     Atomic      Atomic             Coordinates (Angstroms)
 Number     Number       Type             X           Y           Z
 ---------------------------------------------------------------------
      1         16           0        2.048400   -0.290055   -0.000004
      2          8           0        0.344735   -0.570900    0.000028
      3          8           0        0.114295    1.662368   -0.000031
      4          8           0       -2.201166   -1.044702   -0.000050
      5          6           0       -0.370001    0.558920    0.000004
      6          6           0       -1.869456    0.327817    0.000042
      7          1           0        2.266181   -1.618423    0.000025
      8          1           0       -3.158635   -1.130729   -0.000000
      9          1           0       -2.254090    0.847812   -0.883395
     10          1           0       -2.254023    0.847674    0.883591
 ---------------------------------------------------------------------

 SCF Done:  E(RHF) =  -701.683714271     A.U. after    2 cycles

 The electronic state is 1-A.
 Alpha  occ. eigenvalues --  -75.75286 -21.11798 -21.09329 -21.05962 -13.21649
 Alpha  occ. eigenvalues --  -13.16693 -13.06280 -11.53532 -11.44417  -8.08650
 Alpha  occ. eigenvalues --   -1.86432  -1.72787  -1.67445  -1.11546  -1.04350
 Alpha  occ. eigenvalues --   -0.77189  -0.67427  -0.67011  -0.64056  -0.55480
 Alpha  occ. eigenvalues --   -0.54947  -0.51179  -0.44076  -0.38726  -0.38535
 Alpha  occ. eigenvalues --   -0.33783  -0.31253  -0.23790
 Alpha virt. eigenvalues --    0.03055   0.04177   0.05600   0.05906   0.07815
 Alpha virt. eigenvalues --    0.08761   0.11795   0.12205   0.13419   0.14380
 Alpha virt. eigenvalues --    0.15332   0.15682   0.17095   0.17898   0.18435

 Mulliken charges:
               1
     1  S   -0.236493
     2  O   -2.535609
     3  O   -2.912265
     4  O   -2.753124
     5  C    5.006960
     6  C   -1.031843
     7  H    0.970801
     8  H    0.890396
     9  H    1.300586
    10  H    1.300591
 Sum of Mulliken charges =   0.00000

 Dipole moment (field-independent basis, Debye):
    X=             -0.6142    Y=             -0.1162    Z=              0.0001  Tot=              0.6251

 Test job not archived.
 1\1\GINC-SE086\SP\RHF\Aug-CC-pVDZ\C2H4O3S1\OHZDE\06-Apr-2025\0\\#t hf
 aug-cc-pvdz iop(5/13=1,5/36=2,99/5=2) pseudo=read geom=check guess=(re
 ad,tcheck) scf=(maxcycle=1)\\title\\0,1\S,0,2.0484,-0.290055,-0.000004
 \O,0,0.344735,-0.5709,0.000028\O,0,0.114295,1.662368,-0.000031\O,0,-2.
 201166,-1.044702,-0.00005\C,0,-0.370001,0.55892,0.000004\C,0,-1.869456
 ,0.327817,0.000042\H,0,2.266181,-1.618423,0.000025\H,0,-3.158635,-1.13
 0729,0.\H,0,-2.25409,0.847812,-0.883395\H,0,-2.254023,0.847674,0.88359
 1\\Version=ES64L-G16RevC.01\State=1-A\HF=-701.6837143\RMSD=1.995e-01\D

 Normal termination of Gaussian 16 at Sun Apr  6 08:32:38 2025.
