 Gaussian 16, Revision C.01,

 ----------------------------------------------------------------------
 #t hf aug-cc-pvdz symm=none int=(grid=ultrafine) guess=(read,tcheck) s
 table=(opt,rrhf)
 ----------------------------------------------------------------------
 -----
 title
 -----
 Symbolic Z-matrix:
 Charge =  0 Multiplicity = 1

 SCF Done:  E(RHF) =  -926.988111746     A.U. after   14 cycles
 Normal termination of Gaussian 16 at Sun Apr  6 08:32:42 2025.
 Gaussian 16:  ES64L-G16RevC.01  3-Jul-2019

 ----------------------------------------------------------------------
 #t hf aug-cc-pvdz iop(5/13=1,5/36=2,99/5=2) pseudo=read geom=check gue
 ss=(read,tcheck) scf=(maxcycle=1)
 ----------------------------------------------------------------------
 -----
 title
 -----
 Structure from the checkpoint file:  "sulfanylmethylthiocyanate.chk"
 Charge =  0 Multiplicity = 1

                         Standard orientation:
 ---------------------------------------------------------------------
 Center     Atomic      Atomic             Coordinates (Angstroms)
 Number     Number       Type             X           Y           Z
 ---------------------------------------------------------------------
      1         16           0       -0.581423    0.778059   -0.046508
      2         16           0        2.290563   -0.099694   -0.028882
      3          7           0       -3.075461   -0.603242    0.072586
      4          6           0        0.575090   -0.674352   -0.075835
      5          6           0       -2.060382   -0.051436    0.023082
      6          1           0        2.304288    0.255860    1.269161
      7          1           0        0.444681   -1.205612   -1.013319
      8          1           0        0.344772   -1.326672    0.758810
 ---------------------------------------------------------------------

 SCF Done:  E(RHF) =  -928.035318851     A.U. after    2 cycles

 The electronic state is 1-A.
 Alpha  occ. eigenvalues --  -75.75299 -75.72691 -15.77651 -13.22260 -13.16004
 Alpha  occ. eigenvalues --  -13.15196 -13.12442 -13.07967 -13.05467 -11.46487
 Alpha  occ. eigenvalues --  -11.44728  -8.09431  -8.06567  -1.34815  -1.26431
 Alpha  occ. eigenvalues --   -1.14182  -0.94968  -0.69331  -0.67168  -0.55574
 Alpha  occ. eigenvalues --   -0.54251  -0.50217  -0.49777  -0.44577  -0.40791
 Alpha  occ. eigenvalues --   -0.27492  -0.26844
 Alpha virt. eigenvalues --    0.01630   0.03341   0.04880   0.05715   0.07858
 Alpha virt. eigenvalues --    0.09476   0.10897   0.11143   0.12653   0.13281
 Alpha virt. eigenvalues --    0.13652   0.14823   0.14998   0.15599   0.16054

 Mulliken charges:
               1
     1  S    1.858209
     2  S   -0.190335
     3  N   -1.984903
     4  C   -4.439788
     5  C    0.621010
     6  H    1.021617
     7  H    1.613111
     8  H    1.501078
 Sum of Mulliken charges =  -0.00000

 Dipole moment (field-independent basis, Debye):
    X=              5.1234    Y=              1.3782    Z=             -0.9852  Tot=              5.3962

 Test job not archived.
 1\1\GINC-SE107\SP\RHF\Aug-CC-pVDZ\C2H3N1S2\OHZDE\06-Apr-2025\0\\#t hf
 aug-cc-pvdz iop(5/13=1,5/36=2,99/5=2) pseudo=read geom=check guess=(re
 ad,tcheck) scf=(maxcycle=1)\\title\\0,1\S,0,-0.581423,0.778059,-0.0465
 08\S,0,2.290563,-0.099694,-0.028882\N,0,-3.075461,-0.603242,0.072586\C
 ,0,0.57509,-0.674352,-0.075835\C,0,-2.060382,-0.051436,0.023082\H,0,2.
 304288,0.25586,1.269161\H,0,0.444681,-1.205612,-1.013319\H,0,0.344772,
 -1.326672,0.75881\\Version=ES64L-G16RevC.01\State=1-A\HF=-928.0353189\
 RMSD=1.072e-01\Dipole=2.0157023,0.5422151,-0.387592\Quadrupole=-3.5265

 Normal termination of Gaussian 16 at Sun Apr  6 08:32:48 2025.
