 Gaussian 16, Revision C.01,

 ----------------------------------------------------------------------
 #t hf aug-cc-pvdz symm=none int=(grid=ultrafine) guess=(read,tcheck) s
 table=(opt,rrhf)
 ----------------------------------------------------------------------
 -----
 title
 -----
 Symbolic Z-matrix:
 Charge =  0 Multiplicity = 1

 SCF Done:  E(RHF) =  -549.223503970     A.U. after   14 cycles
 Normal termination of Gaussian 16 at Sun Apr  6 08:31:34 2025.
 Gaussian 16:  ES64L-G16RevC.01  3-Jul-2019

 ----------------------------------------------------------------------
 #t hf aug-cc-pvdz iop(5/13=1,5/36=2,99/5=2) pseudo=read geom=check gue
 ss=(read,tcheck) scf=(maxcycle=1)
 ----------------------------------------------------------------------
 -----
 title
 -----
 Structure from the checkpoint file:  "sulfanylacetylenol.chk"
 Charge =  0 Multiplicity = 1

                         Standard orientation:
 ---------------------------------------------------------------------
 Center     Atomic      Atomic             Coordinates (Angstroms)
 Number     Number       Type             X           Y           Z
 ---------------------------------------------------------------------
      1         16           0       -1.717687   -0.094549    0.004331
      2          8           0        2.473344   -0.005347   -0.104993
      3          6           0       -0.032037    0.049767   -0.007089
      4          6           0        1.170348    0.011478    0.003985
      5          1           0       -2.024932    1.220216    0.023363
      6          1           0        2.891302   -0.032124    0.765910
 ---------------------------------------------------------------------

 SCF Done:  E(RHF) =  -550.096241797     A.U. after    2 cycles

 The electronic state is 1-A.
 Alpha  occ. eigenvalues --  -75.72563 -21.15967 -13.20392 -13.14226 -13.03978
 Alpha  occ. eigenvalues --  -11.45572 -11.40164  -8.06471  -1.79491  -1.20753
 Alpha  occ. eigenvalues --   -1.02081  -0.74303  -0.61214  -0.56679  -0.53257
 Alpha  occ. eigenvalues --   -0.45851  -0.41417  -0.31623  -0.23875
 Alpha virt. eigenvalues --    0.02251   0.04285   0.07436   0.08448   0.11346
 Alpha virt. eigenvalues --    0.12351   0.12926   0.14161   0.14865   0.16869
 Alpha virt. eigenvalues --    0.18063   0.18412   0.19178   0.21545   0.22711

 Mulliken charges:
               1
     1  S   -0.561582
     2  O   -3.151649
     3  C   -0.019503
     4  C    1.777122
     5  H    1.095595
     6  H    0.860017
 Sum of Mulliken charges =   0.00000

 Dipole moment (field-independent basis, Debye):
    X=              0.3072    Y=             -0.9855    Z=              0.7967  Tot=              1.3040

 Test job not archived.
 1\1\GINC-SE106\SP\RHF\Aug-CC-pVDZ\C2H2O1S1\OHZDE\06-Apr-2025\0\\#t hf
 aug-cc-pvdz iop(5/13=1,5/36=2,99/5=2) pseudo=read geom=check guess=(re
 ad,tcheck) scf=(maxcycle=1)\\title\\0,1\S,0,-1.717687,-0.094549,0.0043
 31\O,0,2.473344,-0.005347,-0.104993\C,0,-0.032037,0.049767,-0.007089\C
 ,0,1.170348,0.011478,0.003985\H,0,-2.024932,1.220216,0.023363\H,0,2.89
 1302,-0.032124,0.76591\\Version=ES64L-G16RevC.01\State=1-A\HF=-550.096
 2418\RMSD=8.424e-01\Dipole=0.1208725,-0.3877322,0.3134615\Quadrupole=5
 .4443673,-1.8368252,-3.6075421,0.5952085,2.4033617,-0.0214457\PG=C01 [

 Normal termination of Gaussian 16 at Sun Apr  6 08:32:36 2025.
