 Gaussian 16, Revision C.01,

 ----------------------------------------------------------------------
 #t hf aug-cc-pvdz symm=none int=(grid=ultrafine) guess=(read,tcheck) s
 table=(opt,rrhf)
 ----------------------------------------------------------------------
 -----
 title
 -----
 Symbolic Z-matrix:
 Charge =  0 Multiplicity = 1

 SCF Done:  E(RHF) =  -309.855572164     A.U. after   12 cycles
 Normal termination of Gaussian 16 at Sun Apr  6 08:32:42 2025.
 Gaussian 16:  ES64L-G16RevC.01  3-Jul-2019

 ----------------------------------------------------------------------
 #t hf aug-cc-pvdz iop(5/13=1,5/36=2,99/5=2) pseudo=read geom=check gue
 ss=(read,tcheck) scf=(maxcycle=1)
 ----------------------------------------------------------------------
 -----
 title
 -----
 Structure from the checkpoint file:  "syn-tricyclo4-2-0-02-5octane.chk"
 Charge =  0 Multiplicity = 1

                         Standard orientation:
 ---------------------------------------------------------------------
 Center     Atomic      Atomic             Coordinates (Angstroms)
 Number     Number       Type             X           Y           Z
 ---------------------------------------------------------------------
      1          6           0       -0.780890    0.782120    0.714182
      2          6           0        0.780890    0.782120    0.714182
      3          6           0        0.780890   -0.782120    0.714182
      4          6           0       -0.780890   -0.782120    0.714182
      5          6           0       -1.552994    0.779426   -0.630946
      6          6           0       -1.552994   -0.779426   -0.630946
      7          1           0       -1.230266    1.359101    1.520382
      8          1           0       -1.230266   -1.359101    1.520382
      9          1           0       -1.058422    1.259186   -1.474246
     10          1           0       -2.550804    1.207825   -0.545553
     11          1           0       -2.550804   -1.207825   -0.545553
     12          1           0       -1.058422   -1.259186   -1.474246
     13          6           0        1.552994   -0.779426   -0.630946
     14          6           0        1.552994    0.779426   -0.630946
     15          1           0        1.230266    1.359101    1.520382
     16          1           0        1.230266   -1.359101    1.520382
     17          1           0        2.550804   -1.207825   -0.545553
     18          1           0        1.058422   -1.259186   -1.474246
     19          1           0        2.550804    1.207825   -0.545553
     20          1           0        1.058422    1.259186   -1.474246
 ---------------------------------------------------------------------

 SCF Done:  E(RHF) =  -311.432526796     A.U. after    2 cycles

 The electronic state is 1-A1.
 Alpha  occ. eigenvalues --  -11.61147 -11.49003 -11.46222 -11.40803 -11.36352
 Alpha  occ. eigenvalues --  -11.36217 -11.35085 -11.32199  -1.41423  -1.20778
 Alpha  occ. eigenvalues --   -1.02048  -0.98982  -0.90708  -0.85530  -0.81093
 Alpha  occ. eigenvalues --   -0.70961  -0.68769  -0.65433  -0.61720  -0.56355
 Alpha  occ. eigenvalues --   -0.55612  -0.55118  -0.49538  -0.46165  -0.45134
 Alpha  occ. eigenvalues --   -0.41832  -0.38392  -0.36818  -0.34919  -0.32869
 Alpha virt. eigenvalues --    0.04288   0.04605   0.04690   0.05087   0.05508
 Alpha virt. eigenvalues --    0.06275   0.06593   0.07174   0.07723   0.08131
 Alpha virt. eigenvalues --    0.08571   0.11092   0.11357   0.11828   0.13974

 Mulliken charges:
               1
     1  C   -1.411524
     2  C   -1.411524
     3  C   -1.411524
     4  C   -1.411524
     5  C   -3.021462
     6  C   -3.021462
     7  H    1.578527
     8  H    1.578527
     9  H    1.563647
    10  H    1.290811
    11  H    1.290811
    12  H    1.563647
    13  C   -3.021462
    14  C   -3.021462
    15  H    1.578527
    16  H    1.578527
    17  H    1.290811
    18  H    1.563647
    19  H    1.290811
    20  H    1.563647
 Sum of Mulliken charges =  -0.00000

 Dipole moment (field-independent basis, Debye):
    X=              0.0000    Y=              0.0000    Z=              0.2498  Tot=              0.2498

 Test job not archived.
 1\1\GINC-SE107\SP\RHF\Aug-CC-pVDZ\C8H12\OHZDE\06-Apr-2025\0\\#t hf aug
 -cc-pvdz iop(5/13=1,5/36=2,99/5=2) pseudo=read geom=check guess=(read,
 tcheck) scf=(maxcycle=1)\\title\\0,1\C,0,-0.78089,0.78212,0.714182\C,0
 ,0.78089,0.78212,0.714182\C,0,0.78089,-0.78212,0.714182\C,0,-0.78089,-
 0.78212,0.714182\C,0,-1.552994,0.779426,-0.630946\C,0,-1.552994,-0.779
 426,-0.630946\H,0,-1.230266,1.359101,1.520382\H,0,-1.230266,-1.359101,
 1.520382\H,0,-1.058422,1.259186,-1.474246\H,0,-2.550804,1.207825,-0.54
 5553\H,0,-2.550804,-1.207825,-0.545553\H,0,-1.058422,-1.259186,-1.4742

 Normal termination of Gaussian 16 at Sun Apr  6 08:32:52 2025.
