 Gaussian 16, Revision C.01,

 ----------------------------------------------------------------------
 #t hf aug-cc-pvdz symm=none int=(grid=ultrafine) guess=(read,tcheck) s
 table=(opt,rrhf)
 ----------------------------------------------------------------------
 -----
 title
 -----
 Symbolic Z-matrix:
 Charge =  0 Multiplicity = 1

 SCF Done:  E(RHF) =  -743.554935459     A.U. after   13 cycles
 Normal termination of Gaussian 16 at Sun Apr  6 08:32:57 2025.
 Gaussian 16:  ES64L-G16RevC.01  3-Jul-2019

 ----------------------------------------------------------------------
 #t hf aug-cc-pvdz iop(5/13=1,5/36=2,99/5=2) pseudo=read geom=check gue
 ss=(read,tcheck) scf=(maxcycle=1)
 ----------------------------------------------------------------------
 -----
 title
 -----
 Structure from the checkpoint file:  "t-butylmethylsulfone.chk"
 Charge =  0 Multiplicity = 1

                         Standard orientation:
 ---------------------------------------------------------------------
 Center     Atomic      Atomic             Coordinates (Angstroms)
 Number     Number       Type             X           Y           Z
 ---------------------------------------------------------------------
      1          6           0       -1.390811    0.856682   -1.268373
      2          6           0       -1.015837    0.089879   -0.000005
      3          6           0       -1.643181   -1.309663   -0.000111
      4          6           0       -1.390836    0.856501    1.268466
      5         16           0        0.822500   -0.225263   -0.000009
      6          6           0        1.634089    1.387915    0.000134
      7          8           0        1.168494   -0.878127    1.262513
      8          8           0        1.168524   -0.877920   -1.262630
      9          1           0       -1.046643    0.337279   -2.160653
     10          1           0       -2.477629    0.942210   -1.319652
     11          1           0       -0.985356    1.868581   -1.272654
     12          1           0       -1.352891   -1.874065    0.884264
     13          1           0       -2.728961   -1.202795   -0.000121
     14          1           0       -1.352864   -1.873940   -0.884557
     15          1           0       -0.985388    1.868403    1.272894
     16          1           0       -2.477655    0.942015    1.319740
     17          1           0       -1.046678    0.336974    2.160677
     18          1           0        2.695942    1.152116    0.000133
     19          1           0        1.370738    1.934035   -0.900315
     20          1           0        1.370707    1.933886    0.900664
 ---------------------------------------------------------------------

 SCF Done:  E(RHF) =  -745.481082140     A.U. after    2 cycles

 The electronic state is 1-A.
 Alpha  occ. eigenvalues --  -75.86564 -21.02822 -21.02787 -13.48026 -13.39274
 Alpha  occ. eigenvalues --  -13.34305 -11.45323 -11.42486 -11.41344 -11.40762
 Alpha  occ. eigenvalues --  -11.37758  -8.21531  -1.80695  -1.63154  -1.30373
 Alpha  occ. eigenvalues --   -1.13692  -1.03678  -1.03061  -0.94201  -0.78514
 Alpha  occ. eigenvalues --   -0.67951  -0.63917  -0.63170  -0.63021  -0.60669
 Alpha  occ. eigenvalues --   -0.58453  -0.56540  -0.53578  -0.53505  -0.49366
 Alpha  occ. eigenvalues --   -0.47667  -0.46507  -0.41581  -0.37651  -0.36713
 Alpha  occ. eigenvalues --   -0.33406  -0.32370
 Alpha virt. eigenvalues --    0.03081   0.04300   0.04925   0.05123   0.05641
 Alpha virt. eigenvalues --    0.05711   0.06172   0.06945   0.07302   0.08830
 Alpha virt. eigenvalues --    0.09012   0.09222   0.11443   0.11546   0.12961

 Mulliken charges:
               1
     1  C   -4.973404
     2  C    3.361262
     3  C   -4.628086
     4  C   -4.973382
     5  S    6.471527
     6  C   -5.068689
     7  O   -2.713016
     8  O   -2.713016
     9  H    1.218595
    10  H    1.055268
    11  H    1.399500
    12  H    1.274086
    13  H    1.229215
    14  H    1.274072
    15  H    1.399508
    16  H    1.055258
    17  H    1.218579
    18  H    1.310867
    19  H    1.400926
    20  H    1.400930
 Sum of Mulliken charges =   0.00000

 Dipole moment (field-independent basis, Debye):
    X=             -1.5664    Y=              1.8339    Z=              0.0001  Tot=              2.4118

 Test job not archived.
 1\1\GINC-SE108\SP\RHF\Aug-CC-pVDZ\C5H12O2S1\OHZDE\06-Apr-2025\0\\#t hf
  aug-cc-pvdz iop(5/13=1,5/36=2,99/5=2) pseudo=read geom=check guess=(r
 ead,tcheck) scf=(maxcycle=1)\\title\\0,1\C,0,-1.390811,0.856682,-1.268
 373\C,0,-1.015837,0.089879,-0.000005\C,0,-1.643181,-1.309663,-0.000111
 \C,0,-1.390836,0.856501,1.268466\S,0,0.8225,-0.225263,-0.000009\C,0,1.
 634089,1.387915,0.000134\O,0,1.168494,-0.878127,1.262513\O,0,1.168524,
 -0.87792,-1.26263\H,0,-1.046643,0.337279,-2.160653\H,0,-2.477629,0.942
 211,-1.319652\H,0,-0.985355,1.868581,-1.272654\H,0,-1.352891,-1.874065

 Normal termination of Gaussian 16 at Sun Apr  6 08:33:52 2025.
