 Gaussian 16, Revision C.01,

 ----------------------------------------------------------------------
 #t hf aug-cc-pvdz symm=none int=(grid=ultrafine) guess=(read,tcheck) s
 table=(opt,rrhf)
 ----------------------------------------------------------------------
 -----
 title
 -----
 Symbolic Z-matrix:
 Charge =  0 Multiplicity = 1

 SCF Done:  E(RHF) =  -414.211459084     A.U. after   14 cycles
 Normal termination of Gaussian 16 at Sun Apr  6 08:32:27 2025.
 Gaussian 16:  ES64L-G16RevC.01  3-Jul-2019

 ----------------------------------------------------------------------
 #t hf aug-cc-pvdz iop(5/13=1,5/36=2,99/5=2) pseudo=read geom=check gue
 ss=(read,tcheck) scf=(maxcycle=1)
 ----------------------------------------------------------------------
 -----
 title
 -----
 Structure from the checkpoint file:  "terephthalonitrile.chk"
 Charge =  0 Multiplicity = 1

                         Standard orientation:
 ---------------------------------------------------------------------
 Center     Atomic      Atomic             Coordinates (Angstroms)
 Number     Number       Type             X           Y           Z
 ---------------------------------------------------------------------
      1          6           0        0.000000    0.000000    2.819994
      2          6           0        0.000000    0.000000   -2.819994
      3          6           0        0.000000    1.212111    0.691573
      4          6           0        0.000000    1.212111   -0.691573
      5          6           0       -0.000000   -1.212111    0.691573
      6          6           0       -0.000000   -1.212111   -0.691573
      7          6           0        0.000000    0.000000    1.390135
      8          6           0        0.000000    0.000000   -1.390135
      9          7           0        0.000000    0.000000    3.971955
     10          7           0        0.000000    0.000000   -3.971955
     11          1           0        0.000000    2.144546    1.236677
     12          1           0        0.000000    2.144546   -1.236677
     13          1           0       -0.000000   -2.144546    1.236677
     14          1           0       -0.000000   -2.144546   -1.236677
 ---------------------------------------------------------------------

 SCF Done:  E(RHF) =  -416.096046735     A.U. after    2 cycles

 The electronic state is 1-AG.
 Alpha  occ. eigenvalues --  -15.78301 -15.78269 -11.59286 -11.50976 -11.50878
 Alpha  occ. eigenvalues --  -11.50064 -11.46413 -11.45868 -11.45724 -11.42456
 Alpha  occ. eigenvalues --   -1.43529  -1.33657  -1.29887  -1.17711  -1.15406
 Alpha  occ. eigenvalues --   -0.98240  -0.92749  -0.80489  -0.79178  -0.66990
 Alpha  occ. eigenvalues --   -0.65236  -0.63773  -0.59055  -0.58817  -0.53918
 Alpha  occ. eigenvalues --   -0.52897  -0.52406  -0.50363  -0.45939  -0.45420
 Alpha  occ. eigenvalues --   -0.45194  -0.38433  -0.35481
 Alpha virt. eigenvalues --    0.01916   0.05319   0.05335   0.05890   0.05929
 Alpha virt. eigenvalues --    0.06984   0.07732   0.09034   0.09659   0.09712
 Alpha virt. eigenvalues --    0.10653   0.11223   0.11692   0.11759   0.12149

 Mulliken charges:
               1
     1  C   -1.425824
     2  C   -1.425824
     3  C   -2.433648
     4  C   -2.433648
     5  C   -2.433648
     6  C   -2.433648
     7  C    4.823256
     8  C    4.823256
     9  N   -2.072476
    10  N   -2.072476
    11  H    1.771170
    12  H    1.771170
    13  H    1.771170
    14  H    1.771170
 Sum of Mulliken charges =  -0.00000

 Dipole moment (field-independent basis, Debye):
    X=             -0.0000    Y=             -0.0000    Z=             -0.0000  Tot=              0.0000

 Test job not archived.
 1\1\GINC-SE108\SP\RHF\Aug-CC-pVDZ\C8H4N2\OHZDE\06-Apr-2025\0\\#t hf au
 g-cc-pvdz iop(5/13=1,5/36=2,99/5=2) pseudo=read geom=check guess=(read
 ,tcheck) scf=(maxcycle=1)\\title\\0,1\C,0,0.,0.,2.819994\C,0,0.,0.,-2.
 819994\C,0,0.,1.212111,0.691573\C,0,0.,1.212111,-0.691573\C,0,0.,-1.21
 2111,0.691573\C,0,0.,-1.212111,-0.691573\C,0,0.,0.,1.390135\C,0,0.,0.,
 -1.390135\N,0,0.,0.,3.971955\N,0,0.,0.,-3.971955\H,0,0.,2.144546,1.236
 677\H,0,0.,2.144546,-1.236677\H,0,0.,-2.144546,1.236677\H,0,0.,-2.1445
 46,-1.236677\\Version=ES64L-G16RevC.01\State=1-AG\HF=-416.0960467\RMSD

 Normal termination of Gaussian 16 at Sun Apr  6 08:32:40 2025.
