 Gaussian 16, Revision C.01,

 ----------------------------------------------------------------------
 #t hf aug-cc-pvdz symm=none int=(grid=ultrafine) guess=(read,tcheck) s
 table=(opt,rrhf)
 ----------------------------------------------------------------------
 -----
 title
 -----
 Symbolic Z-matrix:
 Charge =  0 Multiplicity = 1

 SCF Done:  E(RHF) =  -386.878948571     A.U. after   14 cycles
 Normal termination of Gaussian 16 at Sun Apr  6 08:34:40 2025.
 Gaussian 16:  ES64L-G16RevC.01  3-Jul-2019

 ----------------------------------------------------------------------
 #t hf aug-cc-pvdz iop(5/13=1,5/36=2,99/5=2) pseudo=read geom=check gue
 ss=(read,tcheck) scf=(maxcycle=1)
 ----------------------------------------------------------------------
 -----
 title
 -----
 Structure from the checkpoint file:  "tertbutylbenzene.chk"
 Charge =  0 Multiplicity = 1

                         Standard orientation:
 ---------------------------------------------------------------------
 Center     Atomic      Atomic             Coordinates (Angstroms)
 Number     Number       Type             X           Y           Z
 ---------------------------------------------------------------------
      1          6           0        1.016390    2.717163    0.000000
      2          6           0        1.881445    1.628485    0.000000
      3          6           0       -0.351319    2.489477    0.000000
      4          6           0        1.378116    0.335664    0.000000
      5          6           0       -0.850314    1.189521    0.000000
      6          6           0        0.000795    0.083541    0.000000
      7          6           0        0.000795   -2.093932    1.258284
      8          6           0        0.000795   -2.093932   -1.258284
      9          6           0       -2.048330   -1.439541    0.000000
     10          6           0       -0.514092   -1.363859    0.000000
     11          1           0        1.405258    3.726594    0.000000
     12          1           0        2.952226    1.785794    0.000000
     13          1           0       -1.040642    3.323885    0.000000
     14          1           0        2.076582   -0.490211    0.000000
     15          1           0       -1.921023    1.051194    0.000000
     16          1           0       -0.357843   -3.125177    1.270861
     17          1           0        1.089525   -2.120203    1.294620
     18          1           0       -0.351283   -1.601521    2.165820
     19          1           0        1.089525   -2.120203   -1.294620
     20          1           0       -0.357843   -3.125177   -1.270861
     21          1           0       -0.351283   -1.601521   -2.165820
     22          1           0       -2.361319   -2.484481    0.000000
     23          1           0       -2.478782   -0.967247    0.883628
     24          1           0       -2.478782   -0.967247   -0.883628
 ---------------------------------------------------------------------

 SCF Done:  E(RHF) =  -388.833505037     A.U. after    2 cycles

 The electronic state is 1-A'.
 Alpha  occ. eigenvalues --  -11.51622 -11.44999 -11.42785 -11.41875 -11.40114
 Alpha  occ. eigenvalues --  -11.39981 -11.39243 -11.38396 -11.37561 -11.35131
 Alpha  occ. eigenvalues --   -1.36852  -1.24217  -1.08698  -1.06965  -1.00409
 Alpha  occ. eigenvalues --   -1.00323  -0.87424  -0.85418  -0.77665  -0.70675
 Alpha  occ. eigenvalues --   -0.64245  -0.61568  -0.60740  -0.60485  -0.57430
 Alpha  occ. eigenvalues --   -0.55749  -0.54561  -0.51599  -0.51086  -0.49750
 Alpha  occ. eigenvalues --   -0.49359  -0.45688  -0.43291  -0.40841  -0.39613
 Alpha  occ. eigenvalues --   -0.32361  -0.31261
 Alpha virt. eigenvalues --    0.03574   0.04702   0.04930   0.05528   0.05532
 Alpha virt. eigenvalues --    0.05815   0.06358   0.06608   0.06676   0.07204
 Alpha virt. eigenvalues --    0.08064   0.08969   0.09372   0.10253   0.11425

 Mulliken charges:
               1
     1  C   -3.661453
     2  C   -2.653085
     3  C   -2.070137
     4  C   -2.074715
     5  C   -2.444695
     6  C    6.425412
     7  C   -4.948015
     8  C   -4.948015
     9  C   -5.177299
    10  C    1.937831
    11  H    1.567974
    12  H    1.467572
    13  H    1.517518
    14  H    2.041461
    15  H    1.763197
    16  H    1.268114
    17  H    1.337273
    18  H    1.224137
    19  H    1.337273
    20  H    1.268114
    21  H    1.224137
    22  H    0.950437
    23  H    1.323485
    24  H    1.323485
 Sum of Mulliken charges =   0.00000

 Dipole moment (field-independent basis, Debye):
    X=             -0.0823    Y=             -0.1923    Z=              0.0000  Tot=              0.2092

 Test job not archived.
 1\1\GINC-SE170\SP\RHF\Aug-CC-pVDZ\C10H14\OHZDE\06-Apr-2025\0\\#t hf au
 g-cc-pvdz iop(5/13=1,5/36=2,99/5=2) pseudo=read geom=check guess=(read
 ,tcheck) scf=(maxcycle=1)\\title\\0,1\C,0,1.01639,2.717163,0.\C,0,1.88
 1445,1.628485,0.\C,0,-0.351319,2.489477,0.\C,0,1.378116,0.335664,0.\C,
 0,-0.850314,1.189521,0.\C,0,0.000795,0.083541,0.\C,0,0.000795,-2.09393
 2,1.258284\C,0,0.000795,-2.093932,-1.258284\C,0,-2.04833,-1.439541,0.\
 C,0,-0.514092,-1.363859,0.\H,0,1.405258,3.726594,0.\H,0,2.952226,1.785
 794,0.\H,0,-1.040642,3.323885,0.\H,0,2.076582,-0.490211,0.\H,0,-1.9210

 Normal termination of Gaussian 16 at Sun Apr  6 08:35:21 2025.
