 Gaussian 16, Revision C.01,

 ----------------------------------------------------------------------
 #t hf aug-cc-pvdz symm=none int=(grid=ultrafine) guess=(read,tcheck) s
 table=(opt,rrhf)
 ----------------------------------------------------------------------
 -----
 title
 -----
 Symbolic Z-matrix:
 Charge =  0 Multiplicity = 1

 SCF Done:  E(RHF) =  -306.958522386     A.U. after   14 cycles

 1\1\GINC-SE167\Stability\RHF\Aug-CC-pVDZ\C4H10O2\OHZDE\06-Apr-2025\0\\
 #t hf aug-cc-pvdz symm=none int=(grid=ultrafine) guess=(read,tcheck) s
 table=(opt,rrhf)\\title\\0,1\C,0,-0.389046,-0.000005,0.034711\O,0,0.73
 8307,-0.064366,-0.877245\O,0,1.978654,0.098687,-0.135089\C,0,-1.568549
 ,-0.139826,-0.926939\C,0,-0.342451,-1.161836,1.025628\C,0,-0.410298,1.
 351768,0.745235\H,0,2.385379,-0.765132,-0.282112\H,0,-1.561837,0.66417
 9,-1.661962\H,0,-2.504086,-0.091572,-0.369874\H,0,-1.529057,-1.092846,
 -1.453933\H,0,-0.427183,2.162831,0.017417\H,0,0.469173,1.471463,1.3749

 Normal termination of Gaussian 16 at Sun Apr  6 08:32:09 2025.
 Gaussian 16:  ES64L-G16RevC.01  3-Jul-2019

 ----------------------------------------------------------------------
 #t hf aug-cc-pvdz iop(5/13=1,5/36=2,99/5=2) pseudo=read geom=check gue
 ss=(read,tcheck) scf=(maxcycle=1)
 ----------------------------------------------------------------------
 -----
 title
 -----
 Structure from the checkpoint file:  "tertbutylhydroperoxide.chk"
 Charge =  0 Multiplicity = 1

                         Standard orientation:
 ---------------------------------------------------------------------
 Center     Atomic      Atomic             Coordinates (Angstroms)
 Number     Number       Type             X           Y           Z
 ---------------------------------------------------------------------
      1          6           0       -0.389046   -0.000005    0.034711
      2          8           0        0.738307   -0.064366   -0.877245
      3          8           0        1.978654    0.098688   -0.135089
      4          6           0       -1.568549   -0.139827   -0.926939
      5          6           0       -0.342451   -1.161836    1.025628
      6          6           0       -0.410299    1.351768    0.745235
      7          1           0        2.385379   -0.765131   -0.282112
      8          1           0       -1.561837    0.664178   -1.661962
      9          1           0       -2.504086   -0.091573   -0.369874
     10          1           0       -1.529057   -1.092847   -1.453933
     11          1           0       -0.427184    2.162831    0.017417
     12          1           0        0.469172    1.471463    1.374999
     13          1           0       -1.297115    1.433057    1.375024
     14          1           0       -0.300457   -2.114938    0.496791
     15          1           0       -1.234525   -1.159419    1.652852
     16          1           0        0.526087   -1.082798    1.677660
 ---------------------------------------------------------------------

 SCF Done:  E(RHF) =  -308.388830892     A.U. after    2 cycles

 The electronic state is 1-A.
 Alpha  occ. eigenvalues --  -21.10629 -21.08001 -11.44714 -11.39446 -11.39089
 Alpha  occ. eigenvalues --  -11.35041  -1.92433  -1.45041  -1.18631  -1.01697
 Alpha  occ. eigenvalues --   -1.01410  -0.78118  -0.64437  -0.62938  -0.62162
 Alpha  occ. eigenvalues --   -0.58773  -0.55454  -0.53353  -0.51614  -0.47909
 Alpha  occ. eigenvalues --   -0.46606  -0.45736  -0.40253  -0.32685  -0.28351
 Alpha virt. eigenvalues --    0.03877   0.05406   0.05455   0.05601   0.05780
 Alpha virt. eigenvalues --    0.06100   0.06314   0.07362   0.07768   0.09692
 Alpha virt. eigenvalues --    0.12024   0.13996   0.14198   0.14707   0.15584

 Mulliken charges:
               1
     1  C    3.890261
     2  O   -2.624837
     3  O   -1.093490
     4  C   -3.887551
     5  C   -4.207409
     6  C   -4.331316
     7  H    0.927045
     8  H    1.255859
     9  H    1.195467
    10  H    1.248893
    11  H    1.283621
    12  H    1.395518
    13  H    1.176712
    14  H    1.235665
    15  H    1.190843
    16  H    1.344720
 Sum of Mulliken charges =   0.00000

 Dipole moment (field-independent basis, Debye):
    X=             -0.3524    Y=             -0.5647    Z=              0.3518  Tot=              0.7529

 Test job not archived.
 1\1\GINC-SE167\SP\RHF\Aug-CC-pVDZ\C4H10O2\OHZDE\06-Apr-2025\0\\#t hf a
 ug-cc-pvdz iop(5/13=1,5/36=2,99/5=2) pseudo=read geom=check guess=(rea
 d,tcheck) scf=(maxcycle=1)\\title\\0,1\C,0,-0.389046,-0.000005,0.03471
 1\O,0,0.738307,-0.064366,-0.877245\O,0,1.978654,0.098687,-0.135089\C,0
 ,-1.568549,-0.139826,-0.926939\C,0,-0.342451,-1.161836,1.025628\C,0,-0
 .410298,1.351768,0.745235\H,0,2.385379,-0.765132,-0.282112\H,0,-1.5618
 37,0.664179,-1.661962\H,0,-2.504086,-0.091572,-0.369874\H,0,-1.529057,
 -1.092846,-1.453933\H,0,-0.427183,2.162831,0.017417\H,0,0.469173,1.471

 Normal termination of Gaussian 16 at Sun Apr  6 08:32:39 2025.
