 Gaussian 16, Revision C.01,

 ----------------------------------------------------------------------
 #t hf aug-cc-pvdz symm=none int=(grid=ultrafine) guess=(read,tcheck) s
 table=(opt,rrhf)
 ----------------------------------------------------------------------
 -----
 title
 -----
 Symbolic Z-matrix:
 Charge =  0 Multiplicity = 1

 SCF Done:  E(RHF) =  -312.267474502     A.U. after   12 cycles
 Normal termination of Gaussian 16 at Sun Apr  6 08:33:32 2025.
 Gaussian 16:  ES64L-G16RevC.01  3-Jul-2019

 ----------------------------------------------------------------------
 #t hf aug-cc-pvdz iop(5/13=1,5/36=2,99/5=2) pseudo=read geom=check gue
 ss=(read,tcheck) scf=(maxcycle=1)
 ----------------------------------------------------------------------
 -----
 title
 -----
 Structure from the checkpoint file:  "tertbutylcyclobutane.chk"
 Charge =  0 Multiplicity = 1

                         Standard orientation:
 ---------------------------------------------------------------------
 Center     Atomic      Atomic             Coordinates (Angstroms)
 Number     Number       Type             X           Y           Z
 ---------------------------------------------------------------------
      1          6           0       -0.176910   -0.999418   -0.000000
      2          6           0        0.539789    0.364342    0.000000
      3          6           0        0.254060   -1.777499    1.254087
      4          6           0       -1.706916   -0.860851   -0.000000
      5          6           0        0.254060    1.442946    1.082409
      6          6           0        0.254060   -1.777499   -1.254087
      7          6           0        0.486107    2.526258    0.000000
      8          1           0       -0.178689    3.388865    0.000000
      9          1           0        0.895719    1.457716    1.962608
     10          6           0        0.254060    1.442946   -1.082409
     11          1           0        0.895719    1.457716   -1.962608
     12          1           0       -2.173656   -1.847725   -0.000000
     13          1           0       -0.206452   -2.767279   -1.276969
     14          1           0       -0.785006    1.429853    1.411389
     15          1           0       -0.785006    1.429853   -1.411389
     16          1           0        1.615876    0.164339   -0.000000
     17          1           0       -0.038955   -1.254061   -2.165956
     18          1           0       -2.067434   -0.330830    0.882403
     19          1           0       -2.067434   -0.330830   -0.882403
     20          1           0       -0.206452   -2.767279    1.276969
     21          1           0        1.337322   -1.913005   -1.279707
     22          1           0        1.516228    2.882374    0.000000
     23          1           0        1.337322   -1.913005    1.279707
     24          1           0       -0.038955   -1.254061    2.165956
 ---------------------------------------------------------------------

 SCF Done:  E(RHF) =  -313.908888748     A.U. after    2 cycles

 The electronic state is 1-A'.
 Alpha  occ. eigenvalues --  -11.48667 -11.42547 -11.38979 -11.38931 -11.38109
 Alpha  occ. eigenvalues --  -11.38031 -11.35511 -11.33094  -1.35406  -1.21759
 Alpha  occ. eigenvalues --   -0.99987  -0.99890  -0.94742  -0.94486  -0.81286
 Alpha  occ. eigenvalues --   -0.74649  -0.65920  -0.64911  -0.59947  -0.59711
 Alpha  occ. eigenvalues --   -0.56437  -0.54513  -0.53024  -0.52987  -0.50008
 Alpha  occ. eigenvalues --   -0.48212  -0.46296  -0.44328  -0.42531  -0.40370
 Alpha  occ. eigenvalues --   -0.38066  -0.35607
 Alpha virt. eigenvalues --    0.04334   0.04650   0.05029   0.05337   0.05510
 Alpha virt. eigenvalues --    0.05618   0.05827   0.06554   0.06747   0.07976
 Alpha virt. eigenvalues --    0.08052   0.08768   0.08769   0.08796   0.09299

 Mulliken charges:
               1
     1  C    4.669217
     2  C    1.813907
     3  C   -5.359667
     4  C   -5.571871
     5  C   -3.588624
     6  C   -5.359667
     7  C   -3.339913
     8  H    1.240924
     9  H    1.164524
    10  C   -3.588624
    11  H    1.164524
    12  H    1.124867
    13  H    1.158859
    14  H    1.447964
    15  H    1.447964
    16  H    1.470994
    17  H    1.383812
    18  H    1.280461
    19  H    1.280461
    20  H    1.158859
    21  H    1.142134
    22  H    1.332952
    23  H    1.142134
    24  H    1.383812
 Sum of Mulliken charges =  -0.00000

 Dipole moment (field-independent basis, Debye):
    X=              0.0476    Y=              0.0387    Z=              0.0000  Tot=              0.0614

 Test job not archived.
 1\1\GINC-SE167\SP\RHF\Aug-CC-pVDZ\C8H16\OHZDE\06-Apr-2025\0\\#t hf aug
 -cc-pvdz iop(5/13=1,5/36=2,99/5=2) pseudo=read geom=check guess=(read,
 tcheck) scf=(maxcycle=1)\\title\\0,1\C,0,-0.17691,-0.999418,0.\C,0,0.5
 39789,0.364342,0.\C,0,0.25406,-1.777499,1.254087\C,0,-1.706916,-0.8608
 51,0.\C,0,0.25406,1.442946,1.082409\C,0,0.25406,-1.777499,-1.254087\C,
 0,0.486107,2.526258,0.\H,0,-0.178689,3.388865,0.\H,0,0.895719,1.457716
 ,1.962608\C,0,0.25406,1.442946,-1.082409\H,0,0.895719,1.457716,-1.9626
 08\H,0,-2.173656,-1.847725,0.\H,0,-0.206452,-2.767279,-1.276969\H,0,-0

 Normal termination of Gaussian 16 at Sun Apr  6 08:34:00 2025.
