 Gaussian 16, Revision C.01,

 ----------------------------------------------------------------------
 #t hf aug-cc-pvdz symm=none int=(grid=ultrafine) guess=(read,tcheck) s
 table=(opt,rrhf)
 ----------------------------------------------------------------------
 -----
 title
 -----
 Symbolic Z-matrix:
 Charge =  0 Multiplicity = 1

 SCF Done:  E(RHF) =  -592.722461083     A.U. after   13 cycles

 1\1\GINC-SE023\Stability\RHF\Aug-CC-pVDZ\C5H10S1\OHZDE\06-Apr-2025\0\\
 #t hf aug-cc-pvdz symm=none int=(grid=ultrafine) guess=(read,tcheck) s
 table=(opt,rrhf)\\title\\0,1\C,0,-2.277189,0.125824,0.21236\H,0,-2.220
 83,0.016412,1.295791\H,0,-2.855694,1.024383,-0.016248\H,0,-2.824192,-0
 .729215,-0.185129\S,0,0.123265,-1.298216,-0.068974\C,0,1.67673,-0.3648
 75,0.283148\H,0,2.502112,-0.834989,-0.246639\H,0,1.880084,-0.410297,1.
 35212\C,0,-0.886248,0.229699,-0.395836\H,0,-0.974067,0.321657,-1.47958
 1\C,0,1.420648,1.071535,-0.176011\H,0,1.587312,1.148737,-1.252546\H,0,

 Normal termination of Gaussian 16 at Sun Apr  6 08:34:36 2025.
 Gaussian 16:  ES64L-G16RevC.01  3-Jul-2019

 ----------------------------------------------------------------------
 #t hf aug-cc-pvdz iop(5/13=1,5/36=2,99/5=2) pseudo=read geom=check gue
 ss=(read,tcheck) scf=(maxcycle=1)
 ----------------------------------------------------------------------
 -----
 title
 -----
 Structure from the checkpoint file:  "tetrahydro-2-methylthiophene.chk"
 Charge =  0 Multiplicity = 1

                         Standard orientation:
 ---------------------------------------------------------------------
 Center     Atomic      Atomic             Coordinates (Angstroms)
 Number     Number       Type             X           Y           Z
 ---------------------------------------------------------------------
      1          6           0       -2.277189    0.125824    0.212360
      2          1           0       -2.220830    0.016412    1.295791
      3          1           0       -2.855694    1.024384   -0.016248
      4          1           0       -2.824192   -0.729215   -0.185129
      5         16           0        0.123265   -1.298216   -0.068974
      6          6           0        1.676730   -0.364875    0.283148
      7          1           0        2.502112   -0.834989   -0.246639
      8          1           0        1.880084   -0.410297    1.352120
      9          6           0       -0.886248    0.229699   -0.395836
     10          1           0       -0.974067    0.321657   -1.479581
     11          6           0        1.420648    1.071535   -0.176011
     12          1           0        1.587312    1.148737   -1.252546
     13          1           0        2.105520    1.766873    0.312872
     14          6           0       -0.039816    1.384131    0.141919
     15          1           0       -0.360577    2.332565   -0.294901
     16          1           0       -0.176661    1.457447    1.224367
 ---------------------------------------------------------------------

 SCF Done:  E(RHF) =  -593.962339710     A.U. after    2 cycles

 The electronic state is 1-A.
 Alpha  occ. eigenvalues --  -75.65702 -13.10852 -13.08621 -13.00691 -11.43921
 Alpha  occ. eigenvalues --  -11.42744 -11.39895 -11.37528 -11.35592  -7.99745
 Alpha  occ. eigenvalues --   -1.33451  -1.12713  -1.06697  -0.97315  -0.83447
 Alpha  occ. eigenvalues --   -0.80527  -0.66205  -0.63936  -0.61040  -0.56903
 Alpha  occ. eigenvalues --   -0.55346  -0.50427  -0.47311  -0.46273  -0.43724
 Alpha  occ. eigenvalues --   -0.39830  -0.33734  -0.21354
 Alpha virt. eigenvalues --    0.03803   0.04497   0.05546   0.05719   0.05839
 Alpha virt. eigenvalues --    0.06116   0.06531   0.06812   0.07065   0.08952
 Alpha virt. eigenvalues --    0.09619   0.12086   0.13100   0.13804   0.14273

 Mulliken charges:
               1
     1  C   -4.084515
     2  H    1.364154
     3  H    1.218268
     4  H    1.178535
     5  S    0.921955
     6  C   -3.628975
     7  H    1.425237
     8  H    1.478232
     9  C   -1.389068
    10  H    1.649334
    11  C   -2.655014
    12  H    1.442225
    13  H    1.230726
    14  C   -2.966693
    15  H    1.283882
    16  H    1.531717
 Sum of Mulliken charges =   0.00000

 Dipole moment (field-independent basis, Debye):
    X=              0.1583    Y=              0.3051    Z=             -0.1147  Tot=              0.3624

 Test job not archived.
 1\1\GINC-SE023\SP\RHF\Aug-CC-pVDZ\C5H10S1\OHZDE\06-Apr-2025\0\\#t hf a
 ug-cc-pvdz iop(5/13=1,5/36=2,99/5=2) pseudo=read geom=check guess=(rea
 d,tcheck) scf=(maxcycle=1)\\title\\0,1\C,0,-2.277189,0.125824,0.21236\
 H,0,-2.22083,0.016412,1.295791\H,0,-2.855694,1.024383,-0.016248\H,0,-2
 .824192,-0.729215,-0.185129\S,0,0.123265,-1.298216,-0.068974\C,0,1.676
 73,-0.364875,0.283148\H,0,2.502112,-0.834989,-0.246639\H,0,1.880084,-0
 .410297,1.35212\C,0,-0.886248,0.229699,-0.395836\H,0,-0.974067,0.32165
 7,-1.479581\C,0,1.420648,1.071535,-0.176011\H,0,1.587312,1.148737,-1.2

 Normal termination of Gaussian 16 at Sun Apr  6 08:35:15 2025.
