 Gaussian 16, Revision C.01,

 ----------------------------------------------------------------------
 #t hf aug-cc-pvdz symm=none int=(grid=ultrafine) guess=(read,tcheck) s
 table=(opt,rrhf)
 ----------------------------------------------------------------------
 -----
 title
 -----
 Symbolic Z-matrix:
 Charge =  0 Multiplicity = 1

 SCF Done:  E(RHF) =  -444.963332415     A.U. after   13 cycles
 Normal termination of Gaussian 16 at Sun Apr  6 08:33:00 2025.
 Gaussian 16:  ES64L-G16RevC.01  3-Jul-2019

 ----------------------------------------------------------------------
 #t hf aug-cc-pvdz iop(5/13=1,5/36=2,99/5=2) pseudo=read geom=check gue
 ss=(read,tcheck) scf=(maxcycle=1)
 ----------------------------------------------------------------------
 -----
 title
 -----
 Structure from the checkpoint file:  "tetracyanoethylene.chk"
 Charge =  0 Multiplicity = 1

                         Standard orientation:
 ---------------------------------------------------------------------
 Center     Atomic      Atomic             Coordinates (Angstroms)
 Number     Number       Type             X           Y           Z
 ---------------------------------------------------------------------
      1          6           0        0.000000    0.000000    0.681974
      2          6           0        0.000000    0.000000   -0.681974
      3          6           0        0.000000    1.213865    1.428575
      4          6           0       -0.000000   -1.213865    1.428575
      5          6           0        0.000000    1.213865   -1.428575
      6          6           0       -0.000000   -1.213865   -1.428575
      7          7           0        0.000000    2.183501    2.049472
      8          7           0       -0.000000   -2.183501    2.049472
      9          7           0        0.000000    2.183501   -2.049472
     10          7           0       -0.000000   -2.183501   -2.049472
 ---------------------------------------------------------------------

 SCF Done:  E(RHF) =  -446.887419543     A.U. after    2 cycles

 The electronic state is 1-AG.
 Alpha  occ. eigenvalues --  -15.84132 -15.84102 -15.84099 -15.84047 -11.68141
 Alpha  occ. eigenvalues --  -11.57885 -11.52015 -11.51763 -11.50867 -11.49728
 Alpha  occ. eigenvalues --   -1.47781  -1.38622  -1.35994  -1.35881  -1.28364
 Alpha  occ. eigenvalues --   -1.11395  -0.92587  -0.81775  -0.80141  -0.65693
 Alpha  occ. eigenvalues --   -0.60328  -0.60290  -0.59535  -0.57360  -0.55927
 Alpha  occ. eigenvalues --   -0.52820  -0.52083  -0.51551  -0.51520  -0.51228
 Alpha  occ. eigenvalues --   -0.48974  -0.40179
 Alpha virt. eigenvalues --   -0.02731   0.01858   0.07467   0.08251   0.08426
 Alpha virt. eigenvalues --    0.08992   0.09282   0.09493   0.09865   0.10656
 Alpha virt. eigenvalues --    0.10972   0.12180   0.12345   0.13338   0.13443

 Mulliken charges:
               1
     1  C    2.673809
     2  C    2.673809
     3  C    0.937679
     4  C    0.937679
     5  C    0.937679
     6  C    0.937679
     7  N   -2.274583
     8  N   -2.274583
     9  N   -2.274583
    10  N   -2.274583
 Sum of Mulliken charges =   0.00000

 Dipole moment (field-independent basis, Debye):
    X=              0.0000    Y=              0.0000    Z=             -0.0000  Tot=              0.0000

 Test job not archived.
 1\1\GINC-SE014\SP\RHF\Aug-CC-pVDZ\C6N4\OHZDE\06-Apr-2025\0\\#t hf aug-
 cc-pvdz iop(5/13=1,5/36=2,99/5=2) pseudo=read geom=check guess=(read,t
 check) scf=(maxcycle=1)\\title\\0,1\C,0,0.,0.,0.681974\C,0,0.,0.,-0.68
 1974\C,0,0.,1.213865,1.428575\C,0,0.,-1.213865,1.428575\C,0,0.,1.21386
 5,-1.428575\C,0,0.,-1.213865,-1.428575\N,0,0.,2.183501,2.049472\N,0,0.
 ,-2.183501,2.049472\N,0,0.,2.183501,-2.049472\N,0,0.,-2.183501,-2.0494
 72\\Version=ES64L-G16RevC.01\State=1-AG\HF=-446.8874195\RMSD=4.839e+00
 \Dipole=0.,0.,0.\Quadrupole=6.1292706,-5.3915539,-0.7377167,0.,0.,0.\P

 Normal termination of Gaussian 16 at Sun Apr  6 08:33:04 2025.
