 Gaussian 16, Revision C.01,

 ----------------------------------------------------------------------
 #t hf aug-cc-pvdz symm=none int=(grid=ultrafine) guess=(read,tcheck) s
 table=(opt,rrhf)
 ----------------------------------------------------------------------
 -----
 title
 -----
 Symbolic Z-matrix:
 Charge =  0 Multiplicity = 1

 SCF Done:  E(RHF) =  -231.005886921     A.U. after   11 cycles
 Normal termination of Gaussian 16 at Sun Apr  6 08:34:20 2025.
 Gaussian 16:  ES64L-G16RevC.01  3-Jul-2019

 ----------------------------------------------------------------------
 #t hf aug-cc-pvdz iop(5/13=1,5/36=2,99/5=2) pseudo=read geom=check gue
 ss=(read,tcheck) scf=(maxcycle=1)
 ----------------------------------------------------------------------
 -----
 title
 -----
 Structure from the checkpoint file:  "tetrahydrofuran.chk"
 Charge =  0 Multiplicity = 1

                         Standard orientation:
 ---------------------------------------------------------------------
 Center     Atomic      Atomic             Coordinates (Angstroms)
 Number     Number       Type             X           Y           Z
 ---------------------------------------------------------------------
      1          6           0        0.000000    0.766501   -0.994198
      2          6           0       -0.000000   -0.766501   -0.994198
      3          6           0        0.461326    1.081053    0.428368
      4          6           0       -0.461326   -1.081053    0.428368
      5          8           0       -0.000000    0.000000    1.249603
      6          1           0        0.652460    1.198961   -1.751443
      7          1           0       -1.009869    1.145990   -1.159921
      8          1           0       -0.652460   -1.198961   -1.751443
      9          1           0        1.009869   -1.145990   -1.159921
     10          1           0        1.553740    1.135699    0.488606
     11          1           0        0.050023    2.012637    0.819323
     12          1           0       -1.553740   -1.135699    0.488606
     13          1           0       -0.050023   -2.012637    0.819323
 ---------------------------------------------------------------------

 SCF Done:  E(RHF) =  -232.103482625     A.U. after    2 cycles

 The electronic state is 1-A.
 Alpha  occ. eigenvalues --  -21.02591 -11.44105 -11.42055 -11.39051 -11.35376
 Alpha  occ. eigenvalues --   -1.74151  -1.19162  -1.06574  -0.84148  -0.83883
 Alpha  occ. eigenvalues --   -0.67652  -0.67373  -0.59872  -0.55654  -0.49277
 Alpha  occ. eigenvalues --   -0.46747  -0.46474  -0.45367  -0.36067  -0.28028
 Alpha virt. eigenvalues --    0.03806   0.05444   0.05538   0.05782   0.05985
 Alpha virt. eigenvalues --    0.06139   0.06492   0.07001   0.11480   0.13382
 Alpha virt. eigenvalues --    0.13919   0.14197   0.14741   0.14791   0.15531

 Mulliken charges:
               1
     1  C   -2.920715
     2  C   -2.920715
     3  C   -1.059134
     4  C   -1.059134
     5  O   -2.849240
     6  H    1.287261
     7  H    1.350480
     8  H    1.287261
     9  H    1.350480
    10  H    1.434232
    11  H    1.332496
    12  H    1.434232
    13  H    1.332496
 Sum of Mulliken charges =  -0.00000

 Dipole moment (field-independent basis, Debye):
    X=              0.0000    Y=             -0.0000    Z=             -1.0647  Tot=              1.0647

 Test job not archived.
 1\1\GINC-SE104\SP\RHF\Aug-CC-pVDZ\C4H8O1\OHZDE\06-Apr-2025\0\\#t hf au
 g-cc-pvdz iop(5/13=1,5/36=2,99/5=2) pseudo=read geom=check guess=(read
 ,tcheck) scf=(maxcycle=1)\\title\\0,1\C,0,0.,0.766501,-0.994198\C,0,0.
 ,-0.766501,-0.994198\C,0,0.461326,1.081053,0.428368\C,0,-0.461326,-1.0
 81053,0.428368\O,0,0.,0.,1.249603\H,0,0.65246,1.198961,-1.751443\H,0,-
 1.009869,1.14599,-1.159921\H,0,-0.65246,-1.198961,-1.751443\H,0,1.0098
 69,-1.14599,-1.159921\H,0,1.55374,1.135699,0.488606\H,0,0.050023,2.012
 637,0.819323\H,0,-1.55374,-1.135699,0.488606\H,0,-0.050023,-2.012637,0

 Normal termination of Gaussian 16 at Sun Apr  6 08:35:12 2025.
