 Gaussian 16, Revision C.01,

 ----------------------------------------------------------------------
 #t hf aug-cc-pvdz symm=none int=(grid=ultrafine) guess=(read,tcheck) s
 table=(opt,rrhf)
 ----------------------------------------------------------------------
 -----
 title
 -----
 Symbolic Z-matrix:
 Charge =  0 Multiplicity = 1

 SCF Done:  E(RHF) =  -553.682089282     A.U. after   12 cycles
 Normal termination of Gaussian 16 at Sun Apr  6 08:34:22 2025.
 Gaussian 16:  ES64L-G16RevC.01  3-Jul-2019

 ----------------------------------------------------------------------
 #t hf aug-cc-pvdz iop(5/13=1,5/36=2,99/5=2) pseudo=read geom=check gue
 ss=(read,tcheck) scf=(maxcycle=1)
 ----------------------------------------------------------------------
 -----
 title
 -----
 Structure from the checkpoint file:  "tetrahydrothiophene.chk"
 Charge =  0 Multiplicity = 1

                         Standard orientation:
 ---------------------------------------------------------------------
 Center     Atomic      Atomic             Coordinates (Angstroms)
 Number     Number       Type             X           Y           Z
 ---------------------------------------------------------------------
      1          1           0        0.727709    2.103092    0.342737
      2          1           0       -0.986957    1.809222    0.025908
      3          6           0        0.000000    1.349368    0.050917
      4          1           0        1.422074    0.557865   -1.364380
      5          1           0        0.016317    1.302538   -2.122147
      6          6           0        0.340403    0.685094   -1.282406
      7          1           0       -0.016317   -1.302538   -2.122147
      8          1           0       -1.422074   -0.557865   -1.364380
      9          6           0       -0.340403   -0.685094   -1.282406
     10          1           0        0.986957   -1.809222    0.025908
     11          1           0       -0.727709   -2.103092    0.342737
     12          6           0       -0.000000   -1.349368    0.050917
     13         16           0        0.000000   -0.000000    1.313352
 ---------------------------------------------------------------------

 SCF Done:  E(RHF) =  -554.716724358     A.U. after    2 cycles

 The electronic state is 1-A.
 Alpha  occ. eigenvalues --  -75.65961 -13.09586 -13.08538 -12.99895 -11.42991
 Alpha  occ. eigenvalues --  -11.41946 -11.38691 -11.36020  -7.99986  -1.32065
 Alpha  occ. eigenvalues --   -1.06764  -1.06636  -0.84240  -0.82892  -0.66126
 Alpha  occ. eigenvalues --   -0.65168  -0.60465  -0.53807  -0.48748  -0.46920
 Alpha  occ. eigenvalues --   -0.45368  -0.41671  -0.34439  -0.21235
 Alpha virt. eigenvalues --    0.03503   0.04841   0.05561   0.05847   0.05987
 Alpha virt. eigenvalues --    0.06426   0.06644   0.07114   0.07989   0.12930
 Alpha virt. eigenvalues --    0.13874   0.14219   0.14373   0.14773   0.15307

 Mulliken charges:
               1
     1  H    1.401530
     2  H    1.462156
     3  C   -3.497204
     4  H    1.409197
     5  H    1.285483
     6  C   -2.617457
     7  H    1.285483
     8  H    1.409197
     9  C   -2.617457
    10  H    1.462156
    11  H    1.401530
    12  C   -3.497204
    13  S    1.112590
 Sum of Mulliken charges =  -0.00000

 Dipole moment (field-independent basis, Debye):
    X=             -0.0000    Y=             -0.0000    Z=             -0.3665  Tot=              0.3665

 Test job not archived.
 1\1\GINC-SE150\SP\RHF\Aug-CC-pVDZ\C4H8S1\OHZDE\06-Apr-2025\0\\#t hf au
 g-cc-pvdz iop(5/13=1,5/36=2,99/5=2) pseudo=read geom=check guess=(read
 ,tcheck) scf=(maxcycle=1)\\title\\0,1\H,0,0.727709,2.103092,0.342737\H
 ,0,-0.986957,1.809222,0.025908\C,0,0.,1.349368,0.050917\H,0,1.422074,0
 .557865,-1.36438\H,0,0.016317,1.302538,-2.122147\C,0,0.340403,0.685094
 ,-1.282406\H,0,-0.016317,-1.302538,-2.122147\H,0,-1.422074,-0.557865,-
 1.36438\C,0,-0.340403,-0.685094,-1.282406\H,0,0.986957,-1.809222,0.025
 908\H,0,-0.727709,-2.103092,0.342737\C,0,0.,-1.349368,0.050917\S,0,0.,

 Normal termination of Gaussian 16 at Sun Apr  6 08:35:12 2025.
