 Gaussian 16, Revision C.01,

 ----------------------------------------------------------------------
 #t hf aug-cc-pvdz symm=none int=(grid=ultrafine) guess=(read,tcheck) s
 table=(opt,rrhf)
 ----------------------------------------------------------------------
 -----
 title
 -----
 Symbolic Z-matrix:
 Charge =  0 Multiplicity = 1

 SCF Done:  E(RHF) =  -666.434703051     A.U. after   15 cycles
 Normal termination of Gaussian 16 at Sun Apr  6 08:34:44 2025.
 Gaussian 16:  ES64L-G16RevC.01  3-Jul-2019

 ----------------------------------------------------------------------
 #t hf aug-cc-pvdz iop(5/13=1,5/36=2,99/5=2) pseudo=read geom=check gue
 ss=(read,tcheck) scf=(maxcycle=1)
 ----------------------------------------------------------------------
 -----
 title
 -----
 Structure from the checkpoint file:  "tetrahydro-2H-thiopyran-2-one.chk"
 Charge =  0 Multiplicity = 1

                         Standard orientation:
 ---------------------------------------------------------------------
 Center     Atomic      Atomic             Coordinates (Angstroms)
 Number     Number       Type             X           Y           Z
 ---------------------------------------------------------------------
      1          6           0        1.198990    0.282454   -0.007474
      2          6           0        0.320746    1.512346   -0.137212
      3          6           0       -1.130693    1.395994    0.326233
      4          6           0       -1.862920    0.229298   -0.332913
      5          6           0       -1.354110   -1.115285    0.160621
      6          8           0        2.401259    0.353704    0.028692
      7         16           0        0.466430   -1.359194   -0.017043
      8          1           0        0.844847    2.313553    0.384969
      9          1           0        0.347721    1.769982   -1.201227
     10          1           0       -1.165947    1.279754    1.413293
     11          1           0       -1.641073    2.333624    0.100488
     12          1           0       -2.931348    0.287652   -0.110885
     13          1           0       -1.760809    0.292351   -1.419347
     14          1           0       -1.596179   -1.250292    1.214503
     15          1           0       -1.802249   -1.937985   -0.394177
 ---------------------------------------------------------------------

 SCF Done:  E(RHF) =  -667.927827688     A.U. after    2 cycles

 The electronic state is 1-A.
 Alpha  occ. eigenvalues --  -75.69056 -21.05520 -13.13290 -13.11435 -13.02708
 Alpha  occ. eigenvalues --  -11.50506 -11.45315 -11.43492 -11.40940 -11.37924
 Alpha  occ. eigenvalues --   -8.03291  -1.71754  -1.30943  -1.15310  -1.10089
 Alpha  occ. eigenvalues --   -0.94053  -0.86790  -0.73966  -0.65815  -0.64410
 Alpha  occ. eigenvalues --   -0.63233  -0.58019  -0.56287  -0.53646  -0.49508
 Alpha  occ. eigenvalues --   -0.48731  -0.44195  -0.43578  -0.37295  -0.26189
 Alpha  occ. eigenvalues --   -0.24087
 Alpha virt. eigenvalues --    0.02874   0.04589   0.05109   0.05266   0.05417
 Alpha virt. eigenvalues --    0.06160   0.06670   0.07569   0.08942   0.11179
 Alpha virt. eigenvalues --    0.11842   0.12562   0.13111   0.13519   0.14021

 Mulliken charges:
               1
     1  C    2.392212
     2  C   -3.255848
     3  C   -2.794010
     4  C   -2.728968
     5  C   -3.443612
     6  O   -2.988989
     7  S    1.599702
     8  H    1.380670
     9  H    1.418920
    10  H    1.496286
    11  H    1.258487
    12  H    1.279305
    13  H    1.422163
    14  H    1.513946
    15  H    1.449735
 Sum of Mulliken charges =   0.00000

 Dipole moment (field-independent basis, Debye):
    X=             -2.2723    Y=             -0.5833    Z=              0.0021  Tot=              2.3460

 Test job not archived.
 1\1\GINC-SE036\SP\RHF\Aug-CC-pVDZ\C5H8O1S1\OHZDE\06-Apr-2025\0\\#t hf
 aug-cc-pvdz iop(5/13=1,5/36=2,99/5=2) pseudo=read geom=check guess=(re
 ad,tcheck) scf=(maxcycle=1)\\title\\0,1\C,0,1.19899,0.282455,-0.007474
 \C,0,0.320745,1.512346,-0.137212\C,0,-1.130694,1.395994,0.326233\C,0,-
 1.86292,0.229297,-0.332913\C,0,-1.354109,-1.115286,0.160621\O,0,2.4012
 59,0.353705,0.028692\S,0,0.466431,-1.359194,-0.017043\H,0,0.844846,2.3
 13553,0.384969\H,0,0.34772,1.769982,-1.201227\H,0,-1.165948,1.279754,1
 .413293\H,0,-1.641074,2.333623,0.100488\H,0,-2.931348,0.287651,-0.1108

 Normal termination of Gaussian 16 at Sun Apr  6 08:35:16 2025.
