 Gaussian 16, Revision C.01,

 ----------------------------------------------------------------------
 #t hf aug-cc-pvdz symm=none int=(grid=ultrafine) guess=(read,tcheck) s
 table=(opt,rrhf)
 ----------------------------------------------------------------------
 -----
 title
 -----
 Symbolic Z-matrix:
 Charge =  0 Multiplicity = 1

 SCF Done:  E(RHF) =  -343.781302669     A.U. after   14 cycles
 Normal termination of Gaussian 16 at Sun Apr  6 08:34:41 2025.
 Gaussian 16:  ES64L-G16RevC.01  3-Jul-2019

 ----------------------------------------------------------------------
 #t hf aug-cc-pvdz iop(5/13=1,5/36=2,99/5=2) pseudo=read geom=check gue
 ss=(read,tcheck) scf=(maxcycle=1)
 ----------------------------------------------------------------------
 -----
 title
 -----
 Structure from the checkpoint file:  "tetrahydropyran-2-one.chk"
 Charge =  0 Multiplicity = 1

                         Standard orientation:
 ---------------------------------------------------------------------
 Center     Atomic      Atomic             Coordinates (Angstroms)
 Number     Number       Type             X           Y           Z
 ---------------------------------------------------------------------
      1          6           0       -1.136499   -0.015675   -0.013358
      2          6           0       -0.351177    1.282015   -0.109345
      3          6           0        1.121374    1.196395    0.288033
      4          6           0        1.730375   -0.061094   -0.320692
      5          6           0        0.967631   -1.274376    0.171548
      6          8           0       -2.337675   -0.038845    0.011767
      7          8           0       -0.460963   -1.190435   -0.035842
      8          1           0       -0.435798    1.586810   -1.156969
      9          1           0       -0.898296    2.025035    0.467869
     10          1           0        1.649445    2.092882   -0.038416
     11          1           0        1.214168    1.154900    1.376777
     12          1           0        1.688686   -0.010986   -1.412045
     13          1           0        2.779640   -0.174267   -0.041841
     14          1           0        1.269887   -2.184408   -0.342725
     15          1           0        1.131141   -1.419315    1.242831
 ---------------------------------------------------------------------

 SCF Done:  E(RHF) =  -345.338684300     A.U. after    2 cycles

 The electronic state is 1-A.
 Alpha  occ. eigenvalues --  -21.08116 -21.03456 -11.51807 -11.46031 -11.44388
 Alpha  occ. eigenvalues --  -11.40948 -11.37926  -1.83195  -1.65120  -1.26115
 Alpha  occ. eigenvalues --   -1.11622  -0.95694  -0.88752  -0.74909  -0.68153
 Alpha  occ. eigenvalues --   -0.65487  -0.63728  -0.60154  -0.58606  -0.53193
 Alpha  occ. eigenvalues --   -0.51583  -0.49356  -0.46504  -0.44492  -0.38485
 Alpha  occ. eigenvalues --   -0.30587  -0.28205
 Alpha virt. eigenvalues --    0.03208   0.04687   0.04819   0.04855   0.05287
 Alpha virt. eigenvalues --    0.05535   0.06956   0.07732   0.10446   0.11723
 Alpha virt. eigenvalues --    0.12553   0.13187   0.13289   0.13749   0.14354

 Mulliken charges:
               1
     1  C    5.327358
     2  C   -2.948533
     3  C   -2.599555
     4  C   -2.866292
     5  C   -1.403457
     6  O   -3.249075
     7  O   -3.186968
     8  H    1.362240
     9  H    1.331721
    10  H    1.241832
    11  H    1.414756
    12  H    1.407349
    13  H    1.275146
    14  H    1.403211
    15  H    1.490268
 Sum of Mulliken charges =  -0.00000

 Dipole moment (field-independent basis, Debye):
    X=              3.2478    Y=              0.4854    Z=              0.0468  Tot=              3.2842

 Test job not archived.
 1\1\GINC-SE136\SP\RHF\Aug-CC-pVDZ\C5H8O2\OHZDE\06-Apr-2025\0\\#t hf au
 g-cc-pvdz iop(5/13=1,5/36=2,99/5=2) pseudo=read geom=check guess=(read
 ,tcheck) scf=(maxcycle=1)\\title\\0,1\C,0,-1.136499,-0.015675,-0.01335
 8\C,0,-0.351177,1.282015,-0.109345\C,0,1.121374,1.196395,0.288033\C,0,
 1.730375,-0.061094,-0.320692\C,0,0.967631,-1.274376,0.171548\O,0,-2.33
 7675,-0.038845,0.011767\O,0,-0.460963,-1.190435,-0.035842\H,0,-0.43579
 8,1.58681,-1.156969\H,0,-0.898296,2.025035,0.467869\H,0,1.649445,2.092
 882,-0.038416\H,0,1.214168,1.1549,1.376777\H,0,1.688686,-0.010986,-1.4

 Normal termination of Gaussian 16 at Sun Apr  6 08:35:16 2025.
