 Gaussian 16, Revision C.01,

 ----------------------------------------------------------------------
 #t hf aug-cc-pvdz symm=none int=(grid=ultrafine) guess=(read,tcheck) s
 table=(opt,rrhf)
 ----------------------------------------------------------------------
 -----
 title
 -----
 Symbolic Z-matrix:
 Charge =  0 Multiplicity = 1

 SCF Done:  E(RHF) =  -425.877134363     A.U. after   12 cycles
 Normal termination of Gaussian 16 at Sun Apr  6 08:37:04 2025.
 Gaussian 16:  ES64L-G16RevC.01  3-Jul-2019

 ----------------------------------------------------------------------
 #t hf aug-cc-pvdz iop(5/13=1,5/36=2,99/5=2) pseudo=read geom=check gue
 ss=(read,tcheck) scf=(maxcycle=1)
 ----------------------------------------------------------------------
 -----
 title
 -----
 Structure from the checkpoint file:  "tetracyclo-undecane.chk"
 Charge =  0 Multiplicity = 1

                         Standard orientation:
 ---------------------------------------------------------------------
 Center     Atomic      Atomic             Coordinates (Angstroms)
 Number     Number       Type             X           Y           Z
 ---------------------------------------------------------------------
      1          6           0       -2.401528    0.502518   -0.667526
      2          6           0       -2.260633   -1.021826   -0.364232
      3          6           0       -1.222072    1.126694    0.106636
      4          6           0       -0.997200   -1.082851    0.518924
      5          6           0       -1.144453    0.209527    1.343374
      6          6           0        0.221275   -0.773296   -0.380965
      7          6           0        0.094854    0.782700   -0.624847
      8          6           0        1.349485    1.451766    0.000179
      9          6           0        1.581769   -0.992045    0.255521
     10          6           0        2.270694    0.335229    0.459780
     11          6           0        2.775082   -0.620972   -0.585328
     12          1           0       -3.352715    0.889677   -0.300403
     13          1           0       -2.352143    0.725742   -1.733924
     14          1           0       -2.158654   -1.624292   -1.267296
     15          1           0       -3.129856   -1.394619    0.178895
     16          1           0       -1.339901    2.191878    0.303109
     17          1           0       -0.899022   -2.008675    1.084603
     18          1           0       -0.291880    0.414655    1.989396
     19          1           0       -2.051980    0.229391    1.948912
     20          1           0        0.145237   -1.338197   -1.312928
     21          1           0        0.018474    1.024497   -1.684640
     22          1           0        1.840307    2.119123   -0.711691
     23          1           0        1.063396    2.066804    0.856481
     24          1           0        1.694152   -1.794885    0.972678
     25          1           0        2.893858    0.506385    1.327317
     26          1           0        2.609293   -0.379963   -1.628590
     27          1           0        3.707801   -1.132180   -0.391015
 ---------------------------------------------------------------------

 SCF Done:  E(RHF) =  -428.033248387     A.U. after    2 cycles

 The electronic state is 1-A.
 Alpha  occ. eigenvalues --  -11.53045 -11.47720 -11.46669 -11.43390 -11.42291
 Alpha  occ. eigenvalues --  -11.40171 -11.39407 -11.37349 -11.36758 -11.35172
 Alpha  occ. eigenvalues --  -11.32743  -1.44435  -1.29745  -1.10963  -1.07311
 Alpha  occ. eigenvalues --   -1.02196  -0.99534  -0.87798  -0.81546  -0.81114
 Alpha  occ. eigenvalues --   -0.78204  -0.75368  -0.68852  -0.68226  -0.66216
 Alpha  occ. eigenvalues --   -0.62146  -0.56914  -0.56103  -0.53550  -0.50844
 Alpha  occ. eigenvalues --   -0.47851  -0.47213  -0.46136  -0.45657  -0.44085
 Alpha  occ. eigenvalues --   -0.41627  -0.39228  -0.38929  -0.37556  -0.35174
 Alpha  occ. eigenvalues --   -0.34062
 Alpha virt. eigenvalues --    0.04192   0.04360   0.04527   0.04636   0.04924
 Alpha virt. eigenvalues --    0.05294   0.06205   0.06927   0.07055   0.07250
 Alpha virt. eigenvalues --    0.07716   0.07781   0.07878   0.08219   0.09890

 Mulliken charges:
               1
     1  C   -3.379353
     2  C   -3.514150
     3  C   -2.743741
     4  C   -2.692686
     5  C   -3.081864
     6  C   -1.414972
     7  C    0.694752
     8  C   -5.039479
     9  C   -0.863188
    10  C   -0.411048
    11  C   -3.542312
    12  H    1.297129
    13  H    1.578291
    14  H    1.600316
    15  H    1.318621
    16  H    2.199045
    17  H    2.184968
    18  H    1.699584
    19  H    1.393531
    20  H    2.017879
    21  H    1.945407
    22  H    1.153318
    23  H    1.606237
    24  H    1.646042
    25  H    1.542360
    26  H    1.484062
    27  H    1.321252
 Sum of Mulliken charges =  -0.00000

 Dipole moment (field-independent basis, Debye):
    X=             -0.0417    Y=              0.0018    Z=              0.2590  Tot=              0.2623

 Test job not archived.
 1\1\GINC-SE101\SP\RHF\Aug-CC-pVDZ\C11H16\OHZDE\06-Apr-2025\0\\#t hf au
 g-cc-pvdz iop(5/13=1,5/36=2,99/5=2) pseudo=read geom=check guess=(read
 ,tcheck) scf=(maxcycle=1)\\title\\0,1\C,0,-2.401528,0.502518,-0.667526
 \C,0,-2.260633,-1.021826,-0.364232\C,0,-1.222072,1.126694,0.106636\C,0
 ,-0.9972,-1.082851,0.518924\C,0,-1.144453,0.209527,1.343374\C,0,0.2212
 75,-0.773296,-0.380965\C,0,0.094854,0.7827,-0.624847\C,0,1.349485,1.45
 1766,0.000179\C,0,1.581769,-0.992045,0.255521\C,0,2.270694,0.335229,0.
 45978\C,0,2.775082,-0.620972,-0.585328\H,0,-3.352715,0.889677,-0.30040

 Normal termination of Gaussian 16 at Sun Apr  6 08:37:43 2025.
