 Gaussian 16, Revision C.01,

 ----------------------------------------------------------------------
 #t hf aug-cc-pvdz symm=none int=(grid=ultrafine) guess=(read,tcheck) s
 table=(opt,rrhf)
 ----------------------------------------------------------------------
 -----
 title
 -----
 Symbolic Z-matrix:
 Charge =  0 Multiplicity = 1

 SCF Done:  E(RHF) =  -270.051075092     A.U. after   11 cycles

 1\1\GINC-SE028\Stability\RHF\Aug-CC-pVDZ\C5H10O1\OHZDE\06-Apr-2025\0\\
 #t hf aug-cc-pvdz symm=none int=(grid=ultrafine) guess=(read,tcheck) s
 table=(opt,rrhf)\\title\\0,1\C,0,-0.621065,1.325981,0.\C,0,0.020904,0.
 729584,1.256731\C,0,0.020904,0.729584,-1.256731\C,0,0.020904,-0.794091
 ,1.182195\C,0,0.020904,-0.794091,-1.182195\O,0,0.655923,-1.267487,0.\H
 ,0,-1.692321,1.099091,0.\H,0,-0.531769,2.413763,0.\H,0,1.053246,1.0778
 01,1.346976\H,0,-0.509437,1.050894,2.156429\H,0,-0.509437,1.050894,-2.
 156429\H,0,1.053246,1.077801,-1.346976\H,0,0.568763,-1.234712,2.014395

 Normal termination of Gaussian 16 at Sun Apr  6 08:34:33 2025.
 Gaussian 16:  ES64L-G16RevC.01  3-Jul-2019

 ----------------------------------------------------------------------
 #t hf aug-cc-pvdz iop(5/13=1,5/36=2,99/5=2) pseudo=read geom=check gue
 ss=(read,tcheck) scf=(maxcycle=1)
 ----------------------------------------------------------------------
 -----
 title
 -----
 Structure from the checkpoint file:  "tetrahydro-2H-pyran.chk"
 Charge =  0 Multiplicity = 1

                         Standard orientation:
 ---------------------------------------------------------------------
 Center     Atomic      Atomic             Coordinates (Angstroms)
 Number     Number       Type             X           Y           Z
 ---------------------------------------------------------------------
      1          6           0       -0.621065    1.325981   -0.000000
      2          6           0        0.020904    0.729584    1.256731
      3          6           0        0.020904    0.729584   -1.256731
      4          6           0        0.020904   -0.794091    1.182195
      5          6           0        0.020904   -0.794091   -1.182195
      6          8           0        0.655923   -1.267487    0.000000
      7          1           0       -1.692321    1.099091   -0.000000
      8          1           0       -0.531769    2.413763   -0.000000
      9          1           0        1.053246    1.077801    1.346976
     10          1           0       -0.509437    1.050894    2.156429
     11          1           0       -0.509437    1.050894   -2.156429
     12          1           0        1.053246    1.077801   -1.346976
     13          1           0        0.568763   -1.234712    2.014395
     14          1           0       -1.011867   -1.171361    1.218225
     15          1           0       -1.011867   -1.171361   -1.218225
     16          1           0        0.568763   -1.234712   -2.014395
 ---------------------------------------------------------------------

 SCF Done:  E(RHF) =  -271.356064887     A.U. after    2 cycles

 The electronic state is 1-A'.
 Alpha  occ. eigenvalues --  -21.03056 -11.45618 -11.42483 -11.40631 -11.37564
 Alpha  occ. eigenvalues --  -11.34643  -1.74351  -1.22629  -1.11847  -0.92465
 Alpha  occ. eigenvalues --   -0.89882  -0.79006  -0.67928  -0.62245  -0.62240
 Alpha  occ. eigenvalues --   -0.60057  -0.53936  -0.50709  -0.49185  -0.48166
 Alpha  occ. eigenvalues --   -0.45666  -0.41014  -0.35588  -0.27992
 Alpha virt. eigenvalues --    0.04183   0.05210   0.05261   0.05463   0.05623
 Alpha virt. eigenvalues --    0.06092   0.06224   0.06957   0.07200   0.09220
 Alpha virt. eigenvalues --    0.12446   0.13786   0.13796   0.14321   0.14435

 Mulliken charges:
               1
     1  C   -2.551475
     2  C   -2.660524
     3  C   -2.660524
     4  C   -1.374186
     5  C   -1.374186
     6  O   -2.936551
     7  H    1.378622
     8  H    1.266431
     9  H    1.399384
    10  H    1.282922
    11  H    1.282922
    12  H    1.399384
    13  H    1.226374
    14  H    1.547517
    15  H    1.547517
    16  H    1.226374
 Sum of Mulliken charges =   0.00000

 Dipole moment (field-independent basis, Debye):
    X=             -0.3276    Y=              0.4700    Z=             -0.0000  Tot=              0.5729

 Test job not archived.
 1\1\GINC-SE028\SP\RHF\Aug-CC-pVDZ\C5H10O1\OHZDE\06-Apr-2025\0\\#t hf a
 ug-cc-pvdz iop(5/13=1,5/36=2,99/5=2) pseudo=read geom=check guess=(rea
 d,tcheck) scf=(maxcycle=1)\\title\\0,1\C,0,-0.621065,1.325981,0.\C,0,0
 .020904,0.729584,1.256731\C,0,0.020904,0.729584,-1.256731\C,0,0.020904
 ,-0.794091,1.182195\C,0,0.020904,-0.794091,-1.182195\O,0,0.655923,-1.2
 67487,0.\H,0,-1.692321,1.099091,0.\H,0,-0.531769,2.413763,0.\H,0,1.053
 246,1.077801,1.346976\H,0,-0.509437,1.050894,2.156429\H,0,-0.509437,1.
 050894,-2.156429\H,0,1.053246,1.077801,-1.346976\H,0,0.568763,-1.23471

 Normal termination of Gaussian 16 at Sun Apr  6 08:35:13 2025.
