 Gaussian 16, Revision C.01,

 ----------------------------------------------------------------------
 #t hf aug-cc-pvdz symm=none int=(grid=ultrafine) guess=(read,tcheck) s
 table=(opt,rrhf)
 ----------------------------------------------------------------------
 -----
 title
 -----
 Symbolic Z-matrix:
 Charge =  0 Multiplicity = 1

 SCF Done:  E(RHF) =  -424.532463169     A.U. after   12 cycles
 Normal termination of Gaussian 16 at Sun Apr  6 08:38:43 2025.
 Gaussian 16:  ES64L-G16RevC.01  3-Jul-2019

 ----------------------------------------------------------------------
 #t hf aug-cc-pvdz iop(5/13=1,5/36=2,99/5=2) pseudo=read geom=check gue
 ss=(read,tcheck) scf=(maxcycle=1)
 ----------------------------------------------------------------------
 -----
 title
 -----
 Structure from the checkpoint file:  "tetraspiro2-0-0-0-2-1-1-1undecane.chk"
 Charge =  0 Multiplicity = 1

                         Standard orientation:
 ---------------------------------------------------------------------
 Center     Atomic      Atomic             Coordinates (Angstroms)
 Number     Number       Type             X           Y           Z
 ---------------------------------------------------------------------
      1          6           0        0.413406    2.700298   -1.134720
      2          6           0        0.000000    3.315092    0.199170
      3          6           0       -0.395103    1.934856   -0.158726
      4          6           0       -1.657201    1.128232   -0.172530
      5          6           0       -0.395289    0.613063    0.456739
      6          6           0        0.000000   -0.000000    1.767022
      7          6           0        0.395289   -0.613063    0.456739
      8          6           0        1.657201   -1.128232   -0.172530
      9          6           0        0.395103   -1.934856   -0.158726
     10          6           0       -0.000000   -3.315092    0.199170
     11          6           0       -0.413406   -2.700298   -1.134720
     12          1           0       -0.070461    3.069979   -2.029417
     13          1           0        1.454651    2.435395   -1.262890
     14          1           0        0.769193    3.453264    0.948163
     15          1           0       -0.755429    4.089910    0.182539
     16          1           0       -2.465963    1.433064    0.481413
     17          1           0       -1.971867    0.689861   -1.112222
     18          1           0        0.765446    0.497373    2.351754
     19          1           0       -0.765446   -0.497373    2.351754
     20          1           0        1.971867   -0.689861   -1.112222
     21          1           0        2.465963   -1.433064    0.481413
     22          1           0       -0.769193   -3.453264    0.948163
     23          1           0        0.755429   -4.089910    0.182539
     24          1           0       -1.454651   -2.435395   -1.262890
     25          1           0        0.070461   -3.069979   -2.029417
 ---------------------------------------------------------------------

 SCF Done:  E(RHF) =  -426.630307584     A.U. after    2 cycles

 The electronic state is 1-A.
 Alpha  occ. eigenvalues --  -11.48967 -11.48208 -11.47204 -11.43946 -11.43064
 Alpha  occ. eigenvalues --  -11.42997 -11.40515 -11.39253 -11.38404 -11.37013
 Alpha  occ. eigenvalues --  -11.36213  -1.41618  -1.32624  -1.22345  -1.13010
 Alpha  occ. eigenvalues --   -1.06556  -0.86246  -0.86159  -0.82839  -0.82215
 Alpha  occ. eigenvalues --   -0.77398  -0.70912  -0.65298  -0.64406  -0.63929
 Alpha  occ. eigenvalues --   -0.61380  -0.61377  -0.60051  -0.52184  -0.50478
 Alpha  occ. eigenvalues --   -0.50242  -0.47201  -0.44855  -0.43197  -0.40321
 Alpha  occ. eigenvalues --   -0.39327  -0.37716  -0.33501  -0.32877  -0.32535
 Alpha virt. eigenvalues --    0.03949   0.04627   0.04955   0.05397   0.05537
 Alpha virt. eigenvalues --    0.05678   0.05866   0.06742   0.06982   0.07261
 Alpha virt. eigenvalues --    0.07986   0.08222   0.08773   0.08827   0.10187

 Mulliken charges:
               1
     1  C   -3.099006
     2  C   -3.082441
     3  C    1.768530
     4  C   -4.278305
     5  C    2.734053
     6  C   -4.375562
     7  C    2.734053
     8  C   -4.278305
     9  C    1.768530
    10  C   -3.082441
    11  C   -3.099006
    12  H    1.101813
    13  H    1.200180
    14  H    1.214260
    15  H    1.105438
    16  H    1.152592
    17  H    1.209419
    18  H    1.161248
    19  H    1.161248
    20  H    1.209419
    21  H    1.152592
    22  H    1.214260
    23  H    1.105438
    24  H    1.200180
    25  H    1.101813
 Sum of Mulliken charges =   0.00000

 Dipole moment (field-independent basis, Debye):
    X=             -0.0000    Y=              0.0000    Z=             -0.0285  Tot=              0.0285

 Test job not archived.
 1\1\GINC-SE177\SP\RHF\Aug-CC-pVDZ\C11H14\OHZDE\06-Apr-2025\0\\#t hf au
 g-cc-pvdz iop(5/13=1,5/36=2,99/5=2) pseudo=read geom=check guess=(read
 ,tcheck) scf=(maxcycle=1)\\title\\0,1\C,0,0.413406,2.700298,-1.13472\C
 ,0,0.,3.315092,0.19917\C,0,-0.395103,1.934856,-0.158726\C,0,-1.657201,
 1.128232,-0.17253\C,0,-0.395289,0.613063,0.456739\C,0,0.,0.,1.767022\C
 ,0,0.395289,-0.613063,0.456739\C,0,1.657201,-1.128232,-0.17253\C,0,0.3
 95103,-1.934856,-0.158726\C,0,0.,-3.315092,0.19917\C,0,-0.413406,-2.70
 0298,-1.13472\H,0,-0.070461,3.069979,-2.029417\H,0,1.454651,2.435395,-

 Normal termination of Gaussian 16 at Sun Apr  6 08:38:56 2025.
