 Gaussian 16, Revision C.01,

 ----------------------------------------------------------------------
 #t hf aug-cc-pvdz symm=none int=(grid=ultrafine) guess=(read,tcheck) s
 table=(opt,rrhf)
 ----------------------------------------------------------------------
 -----
 title
 -----
 Symbolic Z-matrix:
 Charge =  0 Multiplicity = 1

 SCF Done:  E(RHF) =  -549.079217987     A.U. after   12 cycles
 Normal termination of Gaussian 16 at Sun Apr  6 08:32:58 2025.
 Gaussian 16:  ES64L-G16RevC.01  3-Jul-2019

 ----------------------------------------------------------------------
 #t hf aug-cc-pvdz iop(5/13=1,5/36=2,99/5=2) pseudo=read geom=check gue
 ss=(read,tcheck) scf=(maxcycle=1)
 ----------------------------------------------------------------------
 -----
 title
 -----
 Structure from the checkpoint file:  "tetrafluorocyclobutadiene.chk"
 Charge =  0 Multiplicity = 1

                         Standard orientation:
 ---------------------------------------------------------------------
 Center     Atomic      Atomic             Coordinates (Angstroms)
 Number     Number       Type             X           Y           Z
 ---------------------------------------------------------------------
      1          6           0        0.135333    0.760964    0.664678
      2          6           0       -0.135333   -0.760964    0.664678
      3          6           0       -0.135333   -0.760964   -0.664678
      4          6           0        0.135333    0.760964   -0.664678
      5          9           0       -0.135333    1.670444    1.579297
      6          9           0        0.135333   -1.670444    1.579297
      7          9           0        0.135333   -1.670444   -1.579297
      8          9           0       -0.135333    1.670444   -1.579297
 ---------------------------------------------------------------------

 SCF Done:  E(RHF) =  -551.092091019     A.U. after    2 cycles

 The electronic state is 1-AG.
 Alpha  occ. eigenvalues --  -29.34282 -29.34228 -29.34164 -29.34156 -11.57562
 Alpha  occ. eigenvalues --  -11.52458 -11.52173 -11.48047  -1.48127  -1.16971
 Alpha  occ. eigenvalues --   -1.11069  -0.99125  -0.92620  -0.72866  -0.71965
 Alpha  occ. eigenvalues --   -0.64736  -0.62072  -0.51858  -0.45787  -0.44171
 Alpha  occ. eigenvalues --   -0.44146  -0.43509  -0.42862  -0.39792  -0.36475
 Alpha  occ. eigenvalues --   -0.36030  -0.30129  -0.25376  -0.24800  -0.17537
 Alpha virt. eigenvalues --    0.08813   0.09828   0.10236   0.10317   0.10691
 Alpha virt. eigenvalues --    0.11345   0.12125   0.12885   0.13000   0.13476
 Alpha virt. eigenvalues --    0.14497   0.15295   0.15379   0.18534   0.20693

 Mulliken charges:
               1
     1  C   -0.957924
     2  C   -0.957924
     3  C   -0.957924
     4  C   -0.957924
     5  F    0.957924
     6  F    0.957924
     7  F    0.957924
     8  F    0.957924
 Sum of Mulliken charges =   0.00000

 Dipole moment (field-independent basis, Debye):
    X=              0.0000    Y=             -0.0000    Z=             -0.0000  Tot=              0.0000

 Test job not archived.
 1\1\GINC-SE028\SP\RHF\Aug-CC-pVDZ\C4F4\OHZDE\06-Apr-2025\0\\#t hf aug-
 cc-pvdz iop(5/13=1,5/36=2,99/5=2) pseudo=read geom=check guess=(read,t
 check) scf=(maxcycle=1)\\title\\0,1\C,0,0.135333,0.760964,0.664678\C,0
 ,-0.135333,-0.760964,0.664678\C,0,-0.135333,-0.760964,-0.664678\C,0,0.
 135333,0.760964,-0.664678\F,0,-0.135333,1.670444,1.579297\F,0,0.135333
 ,-1.670444,1.579297\F,0,0.135333,-1.670444,-1.579297\F,0,-0.135333,1.6
 70444,-1.579297\\Version=ES64L-G16RevC.01\State=1-AG\HF=-551.092091\RM
 SD=6.249e-01\Dipole=0.,0.,0.\Quadrupole=-7.5831345,4.3006045,3.2825299

 Normal termination of Gaussian 16 at Sun Apr  6 08:33:01 2025.
