 Gaussian 16, Revision C.01,

 ----------------------------------------------------------------------
 #t hf aug-cc-pvdz symm=none int=(grid=ultrafine) guess=(read,tcheck) s
 table=(opt,rrhf)
 ----------------------------------------------------------------------
 -----
 title
 -----
 Symbolic Z-matrix:
 Charge =  0 Multiplicity = 1

 SCF Done:  E(RHF) =  -407.083510602     A.U. after   11 cycles
 Normal termination of Gaussian 16 at Sun Apr  6 08:32:51 2025.
 Gaussian 16:  ES64L-G16RevC.01  3-Jul-2019

 ----------------------------------------------------------------------
 #t hf aug-cc-pvdz iop(5/13=1,5/36=2,99/5=2) pseudo=read geom=check gue
 ss=(read,tcheck) scf=(maxcycle=1)
 ----------------------------------------------------------------------
 -----
 title
 -----
 Structure from the checkpoint file:  "tetracyanomethane.chk"
 Charge =  0 Multiplicity = 1

                         Standard orientation:
 ---------------------------------------------------------------------
 Center     Atomic      Atomic             Coordinates (Angstroms)
 Number     Number       Type             X           Y           Z
 ---------------------------------------------------------------------
      1          6           0        0.000000    0.000000    0.000000
      2          6           0        0.856146    0.856146    0.856146
      3          6           0       -0.856146   -0.856146    0.856146
      4          6           0       -0.856146    0.856146   -0.856146
      5          6           0        0.856146   -0.856146   -0.856146
      6          7           0        1.518318    1.518318    1.518318
      7          7           0       -1.518318   -1.518318    1.518318
      8          7           0       -1.518318    1.518318   -1.518318
      9          7           0        1.518318   -1.518318   -1.518318
 ---------------------------------------------------------------------

 SCF Done:  E(RHF) =  -408.837502281     A.U. after    2 cycles

 The electronic state is 1-A1.
 Alpha  occ. eigenvalues --  -15.84763 -15.84763 -15.84763 -15.84721 -11.68297
 Alpha  occ. eigenvalues --  -11.52613 -11.52613 -11.52613 -11.50922  -1.49464
 Alpha  occ. eigenvalues --   -1.36969  -1.36969  -1.36969  -1.26883  -0.88580
 Alpha  occ. eigenvalues --   -0.88580  -0.88580  -0.61229  -0.60698  -0.60698
 Alpha  occ. eigenvalues --   -0.60698  -0.55860  -0.55860  -0.51147  -0.51147
 Alpha  occ. eigenvalues --   -0.51147  -0.50375  -0.50375  -0.50375
 Alpha virt. eigenvalues --    0.01290   0.08653   0.08653   0.08653   0.09152
 Alpha virt. eigenvalues --    0.09437   0.09437   0.09437   0.09886   0.09886
 Alpha virt. eigenvalues --    0.09886   0.10708   0.10708   0.13078   0.13078

 Mulliken charges:
               1
     1  C   -0.311736
     2  C    2.703067
     3  C    2.703067
     4  C    2.703067
     5  C    2.703067
     6  N   -2.625133
     7  N   -2.625133
     8  N   -2.625133
     9  N   -2.625133
 Sum of Mulliken charges =  -0.00000

 Dipole moment (field-independent basis, Debye):
    X=             -0.0000    Y=             -0.0000    Z=              0.0000  Tot=              0.0000

 Test job not archived.
 1\1\GINC-SE050\SP\RHF\Aug-CC-pVDZ\C5N4\OHZDE\06-Apr-2025\0\\#t hf aug-
 cc-pvdz iop(5/13=1,5/36=2,99/5=2) pseudo=read geom=check guess=(read,t
 check) scf=(maxcycle=1)\\title\\0,1\C,0,0.,0.,0.\C,0,0.856146,0.856146
 ,0.856146\C,0,-0.856146,-0.856146,0.856146\C,0,-0.856146,0.856146,-0.8
 56146\C,0,0.856146,-0.856146,-0.856146\N,0,1.518318,1.518318,1.518318\
 N,0,-1.518318,-1.518318,1.518318\N,0,-1.518318,1.518318,-1.518318\N,0,
 1.518318,-1.518318,-1.518318\\Version=ES64L-G16RevC.01\State=1-A1\HF=-
 408.8375023\RMSD=5.111e-01\Dipole=0.,0.,0.\Quadrupole=0.,0.,0.,0.,0.,0

 Normal termination of Gaussian 16 at Sun Apr  6 08:32:55 2025.
