 Gaussian 16, Revision C.01,

 ----------------------------------------------------------------------
 #t hf aug-cc-pvdz symm=none int=(grid=ultrafine) guess=(read,tcheck) s
 table=(opt,rrhf)
 ----------------------------------------------------------------------
 -----
 title
 -----
 Symbolic Z-matrix:
 Charge =  0 Multiplicity = 1

 SCF Done:  E(RHF) =  -592.723363130     A.U. after   12 cycles

 1\1\GINC-SE044\Stability\RHF\Aug-CC-pVDZ\C5H10S1\OHZDE\06-Apr-2025\0\\
 #t hf aug-cc-pvdz symm=none int=(grid=ultrafine) guess=(read,tcheck) s
 table=(opt,rrhf)\\title\\0,1\S,0,-0.747974,-1.318207,0.\C,0,0.805831,1
 .524574,0.\C,0,0.139507,1.01143,1.280779\C,0,0.139507,1.01143,-1.28077
 9\C,0,0.139507,-0.511309,1.383433\C,0,0.139507,-0.511309,-1.383433\H,0
 ,0.797332,2.616416,0.\H,0,1.85981,1.225806,0.\H,0,1.161031,-0.896509,1
 .416773\H,0,1.161031,-0.896509,-1.416773\H,0,0.661931,1.421155,2.15029
 9\H,0,0.661931,1.421155,-2.150299\H,0,-0.89091,1.371982,1.328857\H,0,-

 Normal termination of Gaussian 16 at Sun Apr  6 08:34:45 2025.
 Gaussian 16:  ES64L-G16RevC.01  3-Jul-2019

 ----------------------------------------------------------------------
 #t hf aug-cc-pvdz iop(5/13=1,5/36=2,99/5=2) pseudo=read geom=check gue
 ss=(read,tcheck) scf=(maxcycle=1)
 ----------------------------------------------------------------------
 -----
 title
 -----
 Structure from the checkpoint file:  "tetrahydro-2H-thiopyran.chk"
 Charge =  0 Multiplicity = 1

                         Standard orientation:
 ---------------------------------------------------------------------
 Center     Atomic      Atomic             Coordinates (Angstroms)
 Number     Number       Type             X           Y           Z
 ---------------------------------------------------------------------
      1         16           0       -0.747974   -1.318207   -0.000000
      2          6           0        0.805831    1.524574    0.000000
      3          6           0        0.139507    1.011430    1.280779
      4          6           0        0.139507    1.011430   -1.280779
      5          6           0        0.139507   -0.511309    1.383433
      6          6           0        0.139507   -0.511309   -1.383433
      7          1           0        0.797332    2.616416    0.000000
      8          1           0        1.859810    1.225806    0.000000
      9          1           0        1.161031   -0.896509    1.416773
     10          1           0        1.161031   -0.896509   -1.416773
     11          1           0        0.661931    1.421155    2.150299
     12          1           0        0.661931    1.421155   -2.150299
     13          1           0       -0.890910    1.371982    1.328857
     14          1           0       -0.890910    1.371982   -1.328857
     15          1           0       -0.368406   -0.846533   -2.286830
     16          1           0       -0.368406   -0.846533    2.286830
 ---------------------------------------------------------------------

 SCF Done:  E(RHF) =  -593.960357780     A.U. after    2 cycles

 The electronic state is 1-A'.
 Alpha  occ. eigenvalues --  -75.66204 -13.10582 -13.08445 -13.01422 -11.43119
 Alpha  occ. eigenvalues --  -11.42947 -11.40262 -11.37795 -11.35189  -8.00266
 Alpha  occ. eigenvalues --   -1.31316  -1.12383  -1.12072  -0.90424  -0.89068
 Alpha  occ. eigenvalues --   -0.78690  -0.65631  -0.62480  -0.62023  -0.57842
 Alpha  occ. eigenvalues --   -0.55022  -0.49247  -0.47230  -0.47081  -0.45629
 Alpha  occ. eigenvalues --   -0.37998  -0.33928  -0.21368
 Alpha virt. eigenvalues --    0.03816   0.04620   0.05549   0.05638   0.05798
 Alpha virt. eigenvalues --    0.06292   0.06403   0.06463   0.06736   0.08787
 Alpha virt. eigenvalues --    0.09817   0.12918   0.12948   0.14177   0.14495

 Mulliken charges:
               1
     1  S    1.119448
     2  C   -2.664856
     3  C   -2.508075
     4  C   -2.508075
     5  C   -3.642124
     6  C   -3.642124
     7  H    1.310831
     8  H    1.424286
     9  H    1.443309
    10  H    1.443309
    11  H    1.279711
    12  H    1.279711
    13  H    1.400133
    14  H    1.400133
    15  H    1.432192
    16  H    1.432192
 Sum of Mulliken charges =   0.00000

 Dipole moment (field-independent basis, Debye):
    X=             -0.0227    Y=             -0.0263    Z=              0.0000  Tot=              0.0347

 Test job not archived.
 1\1\GINC-SE044\SP\RHF\Aug-CC-pVDZ\C5H10S1\OHZDE\06-Apr-2025\0\\#t hf a
 ug-cc-pvdz iop(5/13=1,5/36=2,99/5=2) pseudo=read geom=check guess=(rea
 d,tcheck) scf=(maxcycle=1)\\title\\0,1\S,0,-0.747974,-1.318207,0.\C,0,
 0.805831,1.524574,0.\C,0,0.139507,1.01143,1.280779\C,0,0.139507,1.0114
 3,-1.280779\C,0,0.139507,-0.511309,1.383433\C,0,0.139507,-0.511309,-1.
 383433\H,0,0.797332,2.616416,0.\H,0,1.85981,1.225806,0.\H,0,1.161031,-
 0.896509,1.416773\H,0,1.161031,-0.896509,-1.416773\H,0,0.661931,1.4211
 55,2.150299\H,0,0.661931,1.421155,-2.150299\H,0,-0.89091,1.371982,1.32

 Normal termination of Gaussian 16 at Sun Apr  6 08:35:15 2025.
