 Gaussian 16, Revision C.01,

 ----------------------------------------------------------------------
 #t hf aug-cc-pvdz symm=none int=(grid=ultrafine) guess=(read,tcheck) s
 table=(opt,rrhf)
 ----------------------------------------------------------------------
 -----
 title
 -----
 Symbolic Z-matrix:
 Charge =  0 Multiplicity = 1

 SCF Done:  E(RHF) =  -1875.85026988     A.U. after   10 cycles
 Normal termination of Gaussian 16 at Sun Apr  6 08:31:34 2025.
 Gaussian 16:  ES64L-G16RevC.01  3-Jul-2019

 ----------------------------------------------------------------------
 #t hf aug-cc-pvdz iop(5/13=1,5/36=2,99/5=2) pseudo=read geom=check gue
 ss=(read,tcheck) scf=(maxcycle=1)
 ----------------------------------------------------------------------
 -----
 title
 -----
 Structure from the checkpoint file:  "tetrachloromethane.chk"
 Charge =  0 Multiplicity = 1

                         Standard orientation:
 ---------------------------------------------------------------------
 Center     Atomic      Atomic             Coordinates (Angstroms)
 Number     Number       Type             X           Y           Z
 ---------------------------------------------------------------------
      1          6           0        0.000000    0.000000    0.000000
      2         17           0        1.030607    1.030607    1.030607
      3         17           0       -1.030607   -1.030607    1.030607
      4         17           0        1.030607   -1.030607   -1.030607
      5         17           0       -1.030607    1.030607   -1.030607
 ---------------------------------------------------------------------

 SCF Done:  E(RHF) =  -1877.00263944     A.U. after    2 cycles

 The electronic state is 1-A1.
 Alpha  occ. eigenvalues --  -99.93170 -99.93170 -99.93170 -99.93132 -11.59950
 Alpha  occ. eigenvalues --  -10.50840 -10.50438 -10.50438 -10.50438  -9.70437
 Alpha  occ. eigenvalues --   -9.70437  -9.70437  -9.70036  -9.69599  -9.69599
 Alpha  occ. eigenvalues --   -9.69599  -9.69474  -9.69474  -9.69474  -9.69421
 Alpha  occ. eigenvalues --   -9.69421  -1.50171  -1.32308  -1.32308  -1.32308
 Alpha  occ. eigenvalues --   -0.98088  -0.74284  -0.74284  -0.74284  -0.59865
 Alpha  occ. eigenvalues --   -0.59865  -0.53214  -0.53214  -0.53214  -0.51375
 Alpha  occ. eigenvalues --   -0.51375  -0.51375
 Alpha virt. eigenvalues --   -0.03597   0.04357   0.04357   0.04357   0.04782
 Alpha virt. eigenvalues --    0.09434   0.09434   0.09434   0.14337   0.14337
 Alpha virt. eigenvalues --    0.15716   0.15716   0.15716   0.18104   0.18104

 Mulliken charges:
               1
     1  C   -3.036386
     2  Cl   0.759097
     3  Cl   0.759097
     4  Cl   0.759097
     5  Cl   0.759097
 Sum of Mulliken charges =  -0.00000

 Dipole moment (field-independent basis, Debye):
    X=              0.0000    Y=             -0.0000    Z=             -0.0000  Tot=              0.0000

 Test job not archived.
 1\1\GINC-SE085\SP\RHF\Aug-CC-pVDZ\C1Cl4\OHZDE\06-Apr-2025\0\\#t hf aug
 -cc-pvdz iop(5/13=1,5/36=2,99/5=2) pseudo=read geom=check guess=(read,
 tcheck) scf=(maxcycle=1)\\title\\0,1\C,0,0.,0.,0.\Cl,0,1.030607,1.0306
 07,1.030607\Cl,0,-1.030607,-1.030607,1.030607\Cl,0,1.030607,-1.030607,
 -1.030607\Cl,0,-1.030607,1.030607,-1.030607\\Version=ES64L-G16RevC.01\
 State=1-A1\HF=-1877.0026394\RMSD=5.380e-02\Dipole=0.,0.,0.\Quadrupole=
 0.,0.,0.,0.,0.,0.\PG=TD [O(C1),4C3(Cl1)]\\@

 Normal termination of Gaussian 16 at Sun Apr  6 08:32:36 2025.
