 Gaussian 16, Revision C.01,

 ----------------------------------------------------------------------
 #t hf aug-cc-pvdz symm=none int=(grid=ultrafine) guess=(read,tcheck) s
 table=(opt,rrhf)
 ----------------------------------------------------------------------
 -----
 title
 -----
 Symbolic Z-matrix:
 Charge =  0 Multiplicity = 1

 SCF Done:  E(RHF) =  -1913.70573389     A.U. after   11 cycles
 Normal termination of Gaussian 16 at Sun Apr  6 08:31:38 2025.
 Gaussian 16:  ES64L-G16RevC.01  3-Jul-2019

 ----------------------------------------------------------------------
 #t hf aug-cc-pvdz iop(5/13=1,5/36=2,99/5=2) pseudo=read geom=check gue
 ss=(read,tcheck) scf=(maxcycle=1)
 ----------------------------------------------------------------------
 -----
 title
 -----
 Structure from the checkpoint file:  "tetrachloroethylene.chk"
 Charge =  0 Multiplicity = 1

                         Standard orientation:
 ---------------------------------------------------------------------
 Center     Atomic      Atomic             Coordinates (Angstroms)
 Number     Number       Type             X           Y           Z
 ---------------------------------------------------------------------
      1          6           0        0.000000    0.000000    0.669101
      2          6           0        0.000000    0.000000   -0.669101
      3         17           0        0.000000    1.454916    1.595675
      4         17           0       -0.000000   -1.454916    1.595675
      5         17           0       -0.000000   -1.454916   -1.595675
      6         17           0        0.000000    1.454916   -1.595675
 ---------------------------------------------------------------------

 SCF Done:  E(RHF) =  -1915.03388953     A.U. after    2 cycles

 The electronic state is 1-AG.
 Alpha  occ. eigenvalues --  -99.93229 -99.93216 -99.93194 -99.93194 -11.53833
 Alpha  occ. eigenvalues --  -11.49778 -10.50799 -10.50787 -10.50543 -10.50489
 Alpha  occ. eigenvalues --   -9.70678  -9.70645  -9.70547  -9.70172  -9.69800
 Alpha  occ. eigenvalues --   -9.69746  -9.69548  -9.69546  -9.69521  -9.69505
 Alpha  occ. eigenvalues --   -9.69446  -9.69420  -1.49133  -1.38679  -1.32842
 Alpha  occ. eigenvalues --   -1.31821  -1.09823  -0.87064  -0.74078  -0.73697
 Alpha  occ. eigenvalues --   -0.66951  -0.62446  -0.59593  -0.56632  -0.55599
 Alpha  occ. eigenvalues --   -0.54948  -0.54774  -0.54280  -0.50185  -0.39118
 Alpha virt. eigenvalues --    0.03059   0.03757   0.04064   0.04690   0.05275
 Alpha virt. eigenvalues --    0.08557   0.08651   0.09848   0.12135   0.12402
 Alpha virt. eigenvalues --    0.14158   0.14205   0.15123   0.16285   0.17113

 Mulliken charges:
               1
     1  C   -0.004174
     2  C   -0.004174
     3  Cl   0.002087
     4  Cl   0.002087
     5  Cl   0.002087
     6  Cl   0.002087
 Sum of Mulliken charges =   0.00000

 Dipole moment (field-independent basis, Debye):
    X=              0.0000    Y=             -0.0000    Z=             -0.0000  Tot=              0.0000

 Test job not archived.
 1\1\GINC-SE168\SP\RHF\Aug-CC-pVDZ\C2Cl4\OHZDE\06-Apr-2025\0\\#t hf aug
 -cc-pvdz iop(5/13=1,5/36=2,99/5=2) pseudo=read geom=check guess=(read,
 tcheck) scf=(maxcycle=1)\\title\\0,1\C,0,0.,0.,0.669101\C,0,0.,0.,-0.6
 69101\Cl,0,0.,1.454916,1.595675\Cl,0,0.,-1.454916,1.595675\Cl,0,0.,-1.
 454916,-1.595675\Cl,0,0.,1.454916,-1.595675\\Version=ES64L-G16RevC.01\
 State=1-AG\HF=-1915.0338895\RMSD=5.208e-01\Dipole=0.,0.,0.\Quadrupole=
 -2.9277271,2.7373778,0.1903493,0.,0.,0.\PG=D02H [C2"(C1.C1),SG(Cl4)]\\
 @

 Normal termination of Gaussian 16 at Sun Apr  6 08:32:37 2025.
