 Gaussian 16, Revision C.01,

 ----------------------------------------------------------------------
 #t hf aug-cc-pvdz symm=none int=(grid=ultrafine) guess=(read,tcheck) s
 table=(opt,rrhf)
 ----------------------------------------------------------------------
 -----
 title
 -----
 Symbolic Z-matrix:
 Charge =  0 Multiplicity = 1

 SCF Done:  E(RHF) =  -854.093789118     A.U. after   13 cycles
 Normal termination of Gaussian 16 at Sun Apr  6 08:35:51 2025.
 Gaussian 16:  ES64L-G16RevC.01  3-Jul-2019

 ----------------------------------------------------------------------
 #t hf aug-cc-pvdz iop(5/13=1,5/36=2,99/5=2) pseudo=read geom=check gue
 ss=(read,tcheck) scf=(maxcycle=1)
 ----------------------------------------------------------------------
 -----
 title
 -----
 Structure from the checkpoint file:  "tetranitromethane.chk"
 Charge =  0 Multiplicity = 1

                         Standard orientation:
 ---------------------------------------------------------------------
 Center     Atomic      Atomic             Coordinates (Angstroms)
 Number     Number       Type             X           Y           Z
 ---------------------------------------------------------------------
      1          6           0        0.000000    0.000000    0.000000
      2          7           0        0.447266   -1.152752    0.927023
      3          8           0        1.211160   -0.804270    1.793232
      4          7           0       -0.447266    1.152752    0.927023
      5          8           0        0.000000    2.247297    0.698711
      6          8           0       -1.211160    0.804270    1.793232
      7          7           0       -1.152752   -0.447266   -0.927023
      8          8           0       -2.247297    0.000000   -0.698711
      9          8           0       -0.804270   -1.211160   -1.793232
     10          7           0        1.152752    0.447266   -0.927023
     11          8           0        0.804270    1.211160   -1.793232
     12          8           0        2.247297   -0.000000   -0.698711
     13          8           0       -0.000000   -2.247297    0.698711
 ---------------------------------------------------------------------

 SCF Done:  E(RHF) =  -857.647734248     A.U. after    2 cycles

 The electronic state is 1-A.
 Alpha  occ. eigenvalues --  -21.18797 -21.18754 -21.18727 -21.18727 -21.18241
 Alpha  occ. eigenvalues --  -21.18241 -21.18141 -21.18095 -16.10128 -16.10128
 Alpha  occ. eigenvalues --  -16.10086 -16.09922 -11.67770  -2.12405  -2.08014
 Alpha  occ. eigenvalues --   -2.07881  -2.07881  -1.80053  -1.78803  -1.78716
 Alpha  occ. eigenvalues --   -1.78716  -1.41346  -1.09780  -1.08822  -1.08822
 Alpha  occ. eigenvalues --   -0.84763  -0.84052  -0.82621  -0.82621  -0.76447
 Alpha  occ. eigenvalues --   -0.72684  -0.71097  -0.71097  -0.69111  -0.68481
 Alpha  occ. eigenvalues --   -0.68179  -0.68179  -0.52987  -0.45837  -0.43752
 Alpha  occ. eigenvalues --   -0.43752  -0.41181  -0.40794  -0.39622  -0.39622
 Alpha  occ. eigenvalues --   -0.38498  -0.35986  -0.35986  -0.35589
 Alpha virt. eigenvalues --    0.05340   0.07052   0.07052   0.07456   0.09437
 Alpha virt. eigenvalues --    0.12187   0.12187   0.12189   0.13583   0.13686
 Alpha virt. eigenvalues --    0.13686   0.14130   0.14705   0.17653   0.17653

 Mulliken charges:
               1
     1  C    3.950609
     2  N    5.256007
     3  O   -3.307484
     4  N    5.256007
     5  O   -2.936176
     6  O   -3.307484
     7  N    5.256007
     8  O   -2.936176
     9  O   -3.307484
    10  N    5.256007
    11  O   -3.307484
    12  O   -2.936176
    13  O   -2.936176
 Sum of Mulliken charges =  -0.00000

 Dipole moment (field-independent basis, Debye):
    X=             -0.0000    Y=              0.0000    Z=             -0.0000  Tot=              0.0000

 Test job not archived.
 1\1\GINC-SE165\SP\RHF\Aug-CC-pVDZ\C1N4O8\OHZDE\06-Apr-2025\0\\#t hf au
 g-cc-pvdz iop(5/13=1,5/36=2,99/5=2) pseudo=read geom=check guess=(read
 ,tcheck) scf=(maxcycle=1)\\title\\0,1\C,0,0.,0.,0.\N,0,0.447266,-1.152
 752,0.927023\O,0,1.21116,-0.80427,1.793232\N,0,-0.447266,1.152752,0.92
 7023\O,0,0.,2.247297,0.698711\O,0,-1.21116,0.80427,1.793232\N,0,-1.152
 752,-0.447266,-0.927023\O,0,-2.247297,0.,-0.698711\O,0,-0.80427,-1.211
 16,-1.793232\N,0,1.152752,0.447266,-0.927023\O,0,0.80427,1.21116,-1.79
 3232\O,0,2.247297,0.,-0.698711\O,0,0.,-2.247297,0.698711\\Version=ES64

 Normal termination of Gaussian 16 at Sun Apr  6 08:36:01 2025.
