 Gaussian 16, Revision C.01,

 ----------------------------------------------------------------------
 #t hf aug-cc-pvdz symm=none int=(grid=ultrafine) guess=(read,tcheck) s
 table=(opt,rrhf)
 ----------------------------------------------------------------------
 -----
 title
 -----
 Symbolic Z-matrix:
 Charge =  0 Multiplicity = 1

 SCF Done:  E(RHF) =  -435.693213818     A.U. after    9 cycles
 Normal termination of Gaussian 16 at Sun Apr  6 08:34:07 2025.
 Gaussian 16:  ES64L-G16RevC.01  3-Jul-2019

 ----------------------------------------------------------------------
 #t hf aug-cc-pvdz iop(5/13=1,5/36=2,99/5=2) pseudo=read geom=check gue
 ss=(read,tcheck) scf=(maxcycle=1)
 ----------------------------------------------------------------------
 -----
 title
 -----
 Structure from the checkpoint file:  "tetrafluoromethane.chk"
 Charge =  0 Multiplicity = 1

                         Standard orientation:
 ---------------------------------------------------------------------
 Center     Atomic      Atomic             Coordinates (Angstroms)
 Number     Number       Type             X           Y           Z
 ---------------------------------------------------------------------
      1          6           0        0.000000    0.000000    0.000000
      2          9           0        0.765982    0.765982    0.765982
      3          9           0       -0.765982   -0.765982    0.765982
      4          9           0        0.765982   -0.765982   -0.765982
      5          9           0       -0.765982    0.765982   -0.765982
 ---------------------------------------------------------------------

 SCF Done:  E(RHF) =  -437.197176206     A.U. after    2 cycles

 The electronic state is 1-A1.
 Alpha  occ. eigenvalues --  -29.34626 -29.34626 -29.34626 -29.34537 -11.64863
 Alpha  occ. eigenvalues --   -1.52062  -0.96597  -0.96597  -0.96597  -0.51752
 Alpha  occ. eigenvalues --   -0.47482  -0.47482  -0.47482  -0.44767  -0.44767
 Alpha  occ. eigenvalues --   -0.32917  -0.32917  -0.32917  -0.24648  -0.24648
 Alpha  occ. eigenvalues --   -0.24648
 Alpha virt. eigenvalues --    0.11360   0.11360   0.11360   0.15375   0.21113
 Alpha virt. eigenvalues --    0.21113   0.21113   0.21220   0.22773   0.22773
 Alpha virt. eigenvalues --    0.33463   0.33463   0.33463   0.36316   0.36316

 Mulliken charges:
               1
     1  C   -2.414441
     2  F    0.603610
     3  F    0.603610
     4  F    0.603610
     5  F    0.603610
 Sum of Mulliken charges =   0.00000

 Dipole moment (field-independent basis, Debye):
    X=             -0.0000    Y=              0.0000    Z=             -0.0000  Tot=              0.0000

 Test job not archived.
 1\1\GINC-SE009\SP\RHF\Aug-CC-pVDZ\C1F4\OHZDE\06-Apr-2025\0\\#t hf aug-
 cc-pvdz iop(5/13=1,5/36=2,99/5=2) pseudo=read geom=check guess=(read,t
 check) scf=(maxcycle=1)\\title\\0,1\C,0,0.,0.,0.\F,0,0.765982,0.765982
 ,0.765982\F,0,-0.765982,-0.765982,0.765982\F,0,0.765982,-0.765982,-0.7
 65982\F,0,-0.765982,0.765982,-0.765982\\Version=ES64L-G16RevC.01\State
 =1-A1\HF=-437.1971762\RMSD=2.370e-02\Dipole=0.,0.,0.\Quadrupole=0.,0.,
 0.,0.,0.,0.\PG=TD [O(C1),4C3(F1)]\\@

 Normal termination of Gaussian 16 at Sun Apr  6 08:34:09 2025.
