 Gaussian 16, Revision C.01,

 ----------------------------------------------------------------------
 #t hf aug-cc-pvdz symm=none int=(grid=ultrafine) guess=(read,tcheck) s
 table=(opt,rrhf)
 ----------------------------------------------------------------------
 -----
 title
 -----
 Symbolic Z-matrix:
 Charge =  0 Multiplicity = 1

 SCF Done:  E(RHF) =  -473.477535846     A.U. after   10 cycles
 Normal termination of Gaussian 16 at Sun Apr  6 08:32:52 2025.
 Gaussian 16:  ES64L-G16RevC.01  3-Jul-2019

 ----------------------------------------------------------------------
 #t hf aug-cc-pvdz iop(5/13=1,5/36=2,99/5=2) pseudo=read geom=check gue
 ss=(read,tcheck) scf=(maxcycle=1)
 ----------------------------------------------------------------------
 -----
 title
 -----
 Structure from the checkpoint file:  "tetrafluoroethylene.chk"
 Charge =  0 Multiplicity = 1

                         Standard orientation:
 ---------------------------------------------------------------------
 Center     Atomic      Atomic             Coordinates (Angstroms)
 Number     Number       Type             X           Y           Z
 ---------------------------------------------------------------------
      1          6           0        0.000000    0.000000    0.660447
      2          6           0        0.000000    0.000000   -0.660447
      3          9           0        0.000000    1.100779    1.387647
      4          9           0       -0.000000   -1.100779    1.387647
      5          9           0       -0.000000   -1.100779   -1.387647
      6          9           0        0.000000    1.100779   -1.387647
 ---------------------------------------------------------------------

 SCF Done:  E(RHF) =  -475.153569693     A.U. after    2 cycles

 The electronic state is 1-AG.
 Alpha  occ. eigenvalues --  -29.34541 -29.34485 -29.34472 -29.34426 -11.59686
 Alpha  occ. eigenvalues --  -11.52683  -1.42103  -1.18828  -0.93396  -0.85492
 Alpha  occ. eigenvalues --   -0.78119  -0.68711  -0.49775  -0.49092  -0.47735
 Alpha  occ. eigenvalues --   -0.44315  -0.41289  -0.39870  -0.34881  -0.34172
 Alpha  occ. eigenvalues --   -0.32643  -0.30300  -0.24846  -0.17602
 Alpha virt. eigenvalues --    0.09673   0.09970   0.10938   0.11043   0.13466
 Alpha virt. eigenvalues --    0.13841   0.13882   0.18157   0.21381   0.22496
 Alpha virt. eigenvalues --    0.24162   0.24307   0.25216   0.29250   0.31787

 Mulliken charges:
               1
     1  C   -1.624539
     2  C   -1.624539
     3  F    0.812270
     4  F    0.812270
     5  F    0.812270
     6  F    0.812270
 Sum of Mulliken charges =   0.00000

 Dipole moment (field-independent basis, Debye):
    X=             -0.0000    Y=             -0.0000    Z=             -0.0000  Tot=              0.0000

 Test job not archived.
 1\1\GINC-SE055\SP\RHF\Aug-CC-pVDZ\C2F4\OHZDE\06-Apr-2025\0\\#t hf aug-
 cc-pvdz iop(5/13=1,5/36=2,99/5=2) pseudo=read geom=check guess=(read,t
 check) scf=(maxcycle=1)\\title\\0,1\C,0,0.,0.,0.660447\C,0,0.,0.,-0.66
 0447\F,0,0.,1.100779,1.387647\F,0,0.,-1.100779,1.387647\F,0,0.,-1.1007
 79,-1.387647\F,0,0.,1.100779,-1.387647\\Version=ES64L-G16RevC.01\State
 =1-AG\HF=-475.1535697\RMSD=5.495e-01\Dipole=0.,0.,0.\Quadrupole=-3.027
 3,1.3447022,1.6825978,0.,0.,0.\PG=D02H [C2"(C1.C1),SG(F4)]\\@

 Normal termination of Gaussian 16 at Sun Apr  6 08:32:53 2025.
