 Gaussian 16, Revision C.01,

 ----------------------------------------------------------------------
 #t hf aug-cc-pvdz symm=none int=(grid=ultrafine) guess=(read,tcheck) s
 table=(opt,rrhf)
 ----------------------------------------------------------------------
 -----
 title
 -----
 Symbolic Z-matrix:
 Charge =  0 Multiplicity = 1

 SCF Done:  E(RHF) =  -592.720199721     A.U. after   13 cycles

 1\1\GINC-SE055\Stability\RHF\Aug-CC-pVDZ\C5H10S1\OHZDE\06-Apr-2025\0\\
 #t hf aug-cc-pvdz symm=none int=(grid=ultrafine) guess=(read,tcheck) s
 table=(opt,rrhf)\\title\\0,1\S,0,-1.476701,-0.452025,-0.259302\C,0,1.9
 13232,-0.302099,-0.804682\H,0,1.265426,-0.226374,-1.678866\H,0,2.68384
 4,0.46612,-0.886402\H,0,2.406718,-1.274145,-0.844759\C,0,-0.015272,-1.
 169321,0.615996\H,0,0.23235,-2.1242,0.156285\H,0,-0.282085,-1.344028,1
 .657022\C,0,1.122948,-0.146438,0.49693\H,0,1.809247,-0.288791,1.336203
 \C,0,-0.761847,1.249024,-0.31183\H,0,-1.51911,1.960559,0.008816\H,0,-0

 Normal termination of Gaussian 16 at Sun Apr  6 08:34:36 2025.
 Gaussian 16:  ES64L-G16RevC.01  3-Jul-2019

 ----------------------------------------------------------------------
 #t hf aug-cc-pvdz iop(5/13=1,5/36=2,99/5=2) pseudo=read geom=check gue
 ss=(read,tcheck) scf=(maxcycle=1)
 ----------------------------------------------------------------------
 -----
 title
 -----
 Structure from the checkpoint file:  "tetrahydro-3-methylthiophene.chk"
 Charge =  0 Multiplicity = 1

                         Standard orientation:
 ---------------------------------------------------------------------
 Center     Atomic      Atomic             Coordinates (Angstroms)
 Number     Number       Type             X           Y           Z
 ---------------------------------------------------------------------
      1         16           0       -1.476701   -0.452024   -0.259302
      2          6           0        1.913232   -0.302099   -0.804682
      3          1           0        1.265426   -0.226374   -1.678866
      4          1           0        2.683844    0.466119   -0.886402
      5          1           0        2.406718   -1.274146   -0.844759
      6          6           0       -0.015272   -1.169321    0.615996
      7          1           0        0.232349   -2.124200    0.156285
      8          1           0       -0.282085   -1.344028    1.657022
      9          6           0        1.122948   -0.146438    0.496930
     10          1           0        1.809247   -0.288791    1.336203
     11          6           0       -0.761847    1.249024   -0.311830
     12          1           0       -1.519109    1.960560    0.008816
     13          1           0       -0.481066    1.483947   -1.337013
     14          6           0        0.449983    1.229470    0.621149
     15          1           0        0.115459    1.375949    1.649963
     16          1           0        1.142170    2.039539    0.382198
 ---------------------------------------------------------------------

 SCF Done:  E(RHF) =  -593.961214636     A.U. after    2 cycles

 The electronic state is 1-A.
 Alpha  occ. eigenvalues --  -75.65943 -13.10025 -13.09132 -13.00706 -11.43509
 Alpha  occ. eigenvalues --  -11.42732 -11.39658 -11.38392 -11.35498  -7.99961
 Alpha  occ. eigenvalues --   -1.33674  -1.11739  -1.06861  -0.97688  -0.84329
 Alpha  occ. eigenvalues --   -0.79712  -0.67223  -0.64531  -0.61237  -0.55886
 Alpha  occ. eigenvalues --   -0.54366  -0.52078  -0.46984  -0.44373  -0.43064
 Alpha  occ. eigenvalues --   -0.41453  -0.34168  -0.21302
 Alpha virt. eigenvalues --    0.03427   0.04920   0.05461   0.05603   0.05813
 Alpha virt. eigenvalues --    0.06046   0.06324   0.06400   0.07256   0.09289
 Alpha virt. eigenvalues --    0.09754   0.11911   0.13471   0.13858   0.14284

 Mulliken charges:
               1
     1  S    1.078219
     2  C   -4.106836
     3  H    1.404510
     4  H    1.227157
     5  H    1.199967
     6  C   -4.049521
     7  H    1.501267
     8  H    1.309957
     9  C   -0.210068
    10  H    1.617645
    11  C   -3.674363
    12  H    1.330529
    13  H    1.522847
    14  C   -2.822741
    15  H    1.305938
    16  H    1.365493
 Sum of Mulliken charges =  -0.00000

 Dipole moment (field-independent basis, Debye):
    X=              0.3188    Y=              0.0911    Z=              0.1742  Tot=              0.3746

 Test job not archived.
 1\1\GINC-SE055\SP\RHF\Aug-CC-pVDZ\C5H10S1\OHZDE\06-Apr-2025\0\\#t hf a
 ug-cc-pvdz iop(5/13=1,5/36=2,99/5=2) pseudo=read geom=check guess=(rea
 d,tcheck) scf=(maxcycle=1)\\title\\0,1\S,0,-1.476701,-0.452025,-0.2593
 02\C,0,1.913232,-0.302099,-0.804682\H,0,1.265426,-0.226374,-1.678866\H
 ,0,2.683844,0.46612,-0.886402\H,0,2.406718,-1.274145,-0.844759\C,0,-0.
 015272,-1.169321,0.615996\H,0,0.23235,-2.1242,0.156285\H,0,-0.282085,-
 1.344028,1.657022\C,0,1.122948,-0.146438,0.49693\H,0,1.809247,-0.28879
 1,1.336203\C,0,-0.761847,1.249024,-0.31183\H,0,-1.51911,1.960559,0.008

 Normal termination of Gaussian 16 at Sun Apr  6 08:35:15 2025.
