 Gaussian 16, Revision C.01,

 ----------------------------------------------------------------------
 #t hf aug-cc-pvdz symm=none int=(grid=ultrafine) guess=(read,tcheck) s
 table=(opt,rrhf)
 ----------------------------------------------------------------------
 -----
 title
 -----
 Symbolic Z-matrix:
 Charge =  0 Multiplicity = 1

 SCF Done:  E(RHF) =  -313.454421340     A.U. after   11 cycles
 Normal termination of Gaussian 16 at Sun Apr  6 08:36:16 2025.
 Gaussian 16:  ES64L-G16RevC.01  3-Jul-2019

 ----------------------------------------------------------------------
 #t hf aug-cc-pvdz iop(5/13=1,5/36=2,99/5=2) pseudo=read geom=check gue
 ss=(read,tcheck) scf=(maxcycle=1)
 ----------------------------------------------------------------------
 -----
 title
 -----
 Structure from the checkpoint file:  "tetramethylbutane.chk"
 Charge =  0 Multiplicity = 1

                         Standard orientation:
 ---------------------------------------------------------------------
 Center     Atomic      Atomic             Coordinates (Angstroms)
 Number     Number       Type             X           Y           Z
 ---------------------------------------------------------------------
      1          6           0       -0.793806    0.000317    0.000712
      2          6           0        0.794117   -0.000301   -0.000582
      3          6           0       -1.356708   -0.189678   -1.421858
      4          6           0       -1.354984   -1.136898    0.877100
      5          6           0       -1.354681    1.327742    0.547105
      6          6           0        1.357091   -0.075952    1.432622
      7          6           0        1.353535   -1.204480   -0.783350
      8          6           0        1.355771    1.279143   -0.651705
      9          1           0       -2.441884   -0.072570   -1.406443
     10          1           0       -1.144491   -1.182618   -1.817093
     11          1           0       -0.962417    0.544243   -2.124996
     12          1           0       -2.440034   -1.183015    0.768243
     13          1           0       -1.142299   -0.981799    1.934354
     14          1           0       -0.959235   -2.112320    0.593200
     15          1           0       -2.439863    1.256872    0.640493
     16          1           0       -1.140725    2.165743   -0.115533
     17          1           0       -0.960398    1.569458    1.534443
     18          1           0        2.442714    0.034700    1.406974
     19          1           0        1.140854   -1.032026    1.908287
     20          1           0        0.966524    0.715254    2.073010
     21          1           0        2.439259   -1.239843   -0.676586
     22          1           0        1.134678   -1.137379   -1.848540
     23          1           0        0.961031   -2.153507   -0.417428
     24          1           0        2.441259    1.202277   -0.736391
     25          1           0        1.139194    2.167931   -0.059919
     26          1           0        0.963822    1.439246   -1.656335
 ---------------------------------------------------------------------

 SCF Done:  E(RHF) =  -315.144021805     A.U. after    2 cycles

 The electronic state is 1-A.
 Alpha  occ. eigenvalues --  -11.43826 -11.39280 -11.38920 -11.38918 -11.37746
 Alpha  occ. eigenvalues --  -11.37745 -11.36375 -11.34172  -1.33218  -1.16170
 Alpha  occ. eigenvalues --   -1.01242  -1.01227  -0.98313  -0.98311  -0.85179
 Alpha  occ. eigenvalues --   -0.72022  -0.65185  -0.61023  -0.61020  -0.59289
 Alpha  occ. eigenvalues --   -0.59283  -0.55922  -0.52894  -0.52878  -0.52685
 Alpha  occ. eigenvalues --   -0.50535  -0.50531  -0.48299  -0.45483  -0.45474
 Alpha  occ. eigenvalues --   -0.38972  -0.38968  -0.37051
 Alpha virt. eigenvalues --    0.04391   0.05050   0.05051   0.05123   0.05123
 Alpha virt. eigenvalues --    0.05535   0.06020   0.06573   0.06573   0.08037
 Alpha virt. eigenvalues --    0.08037   0.08321   0.08763   0.08974   0.08976

 Mulliken charges:
               1
     1  C    7.687744
     2  C    7.628554
     3  C   -5.985063
     4  C   -5.985064
     5  C   -5.987257
     6  C   -5.980594
     7  C   -5.979920
     8  C   -5.980379
     9  H    1.027652
    10  H    1.296050
    11  H    1.104698
    12  H    1.026660
    13  H    1.296032
    14  H    1.103824
    15  H    1.027053
    16  H    1.295560
    17  H    1.103450
    18  H    1.029104
    19  H    1.298041
    20  H    1.105867
    21  H    1.029010
    22  H    1.298510
    23  H    1.107061
    24  H    1.029089
    25  H    1.298559
    26  H    1.105759
 Sum of Mulliken charges =   0.00000

 Dipole moment (field-independent basis, Debye):
    X=              0.0002    Y=             -0.0000    Z=             -0.0001  Tot=              0.0002

 Test job not archived.
 1\1\GINC-SE155\SP\RHF\Aug-CC-pVDZ\C8H18\OHZDE\06-Apr-2025\0\\#t hf aug
 -cc-pvdz iop(5/13=1,5/36=2,99/5=2) pseudo=read geom=check guess=(read,
 tcheck) scf=(maxcycle=1)\\title\\0,1\C,0,-0.793806,0.000318,0.000712\C
 ,0,0.794117,-0.000302,-0.000582\C,0,-1.356708,-0.190381,-1.421764\C,0,
 -1.354984,-1.136464,0.877663\C,0,-1.354681,1.328013,0.546448\C,0,1.357
 091,-0.075244,1.432659\C,0,1.353535,-1.204868,-0.782754\C,0,1.355771,1
 .27882,-0.652338\H,0,-2.441884,-0.073265,-1.406406\H,0,-1.144492,-1.18
 3517,-1.816507\H,0,-0.962417,0.543192,-2.125265\H,0,-2.440034,-1.18263

 Normal termination of Gaussian 16 at Sun Apr  6 08:36:49 2025.
