 Gaussian 16, Revision C.01,

 ----------------------------------------------------------------------
 #t hf aug-cc-pvdz symm=none int=(grid=ultrafine) guess=(read,tcheck) s
 table=(opt,rrhf)
 ----------------------------------------------------------------------
 -----
 title
 -----
 Symbolic Z-matrix:
 Charge =  0 Multiplicity = 1

 SCF Done:  E(RHF) =  -637.375750960     A.U. after   16 cycles
 Normal termination of Gaussian 16 at Sun Apr  6 08:38:49 2025.
 Gaussian 16:  ES64L-G16RevC.01  3-Jul-2019

 ----------------------------------------------------------------------
 #t hf aug-cc-pvdz iop(5/13=1,5/36=2,99/5=2) pseudo=read geom=check gue
 ss=(read,tcheck) scf=(maxcycle=1)
 ----------------------------------------------------------------------
 -----
 title
 -----
 Structure from the checkpoint file:  "theophylline.chk"
 Charge =  0 Multiplicity = 1

                         Standard orientation:
 ---------------------------------------------------------------------
 Center     Atomic      Atomic             Coordinates (Angstroms)
 Number     Number       Type             X           Y           Z
 ---------------------------------------------------------------------
      1          8           0       -0.702493   -2.681831   -0.000062
      2          6           0       -0.427456   -1.502083   -0.000033
      3          6           0        0.890406   -0.915681   -0.000045
      4          6           0        1.039767    0.449836   -0.000006
      5          6           0        0.269702    2.790611    0.000072
      6          7           0        0.022247    1.356401    0.000047
      7          6           0       -1.294568    0.876674    0.000053
      8          7           0       -1.455705   -0.502781    0.000017
      9          6           0       -2.848272   -0.963109    0.000032
     10          8           0       -2.241746    1.641359    0.000089
     11          7           0        2.127187   -1.527354   -0.000091
     12          6           0        2.991264   -0.559718   -0.000081
     13          7           0        2.381227    0.689357   -0.000031
     14          1           0        4.063530   -0.659977   -0.000108
     15          1           0        2.840421    1.583267   -0.000003
     16          1           0        0.825941    3.084691    0.892129
     17          1           0       -0.692999    3.289743    0.000154
     18          1           0        0.825822    3.084747   -0.892040
     19          1           0       -3.364115   -0.590499    0.882301
     20          1           0       -2.830297   -2.046278    0.000011
     21          1           0       -3.364145   -0.590467   -0.882207
 ---------------------------------------------------------------------

 SCF Done:  E(RHF) =  -640.216194176     A.U. after    2 cycles

 The electronic state is 1-A.
 Alpha  occ. eigenvalues --  -21.03996 -21.03228 -15.83392 -15.80307 -15.77543
 Alpha  occ. eigenvalues --  -15.74917 -11.54864 -11.53867 -11.53457 -11.45265
 Alpha  occ. eigenvalues --  -11.43799 -11.41686 -11.39646  -1.75411  -1.71547
 Alpha  occ. eigenvalues --   -1.61262  -1.47256  -1.41037  -1.30363  -1.15103
 Alpha  occ. eigenvalues --   -1.06408  -1.03242  -0.90771  -0.89482  -0.86170
 Alpha  occ. eigenvalues --   -0.79524  -0.70799  -0.70095  -0.67279  -0.64226
 Alpha  occ. eigenvalues --   -0.63438  -0.62540  -0.60096  -0.58320  -0.55876
 Alpha  occ. eigenvalues --   -0.54023  -0.53658  -0.51366  -0.50641  -0.48697
 Alpha  occ. eigenvalues --   -0.42478  -0.40851  -0.39044  -0.33634  -0.31532
 Alpha  occ. eigenvalues --   -0.28298  -0.27036
 Alpha virt. eigenvalues --    0.02076   0.03836   0.04568   0.04818   0.05961
 Alpha virt. eigenvalues --    0.07046   0.07221   0.07798   0.08163   0.09807
 Alpha virt. eigenvalues --    0.10196   0.10469   0.11328   0.12051   0.12095

 Mulliken charges:
               1
     1  O   -4.110036
     2  C    7.250910
     3  C    1.446327
     4  C    4.516389
     5  C   -4.079353
     6  N   -3.684465
     7  C    4.927566
     8  N   -2.961583
     9  C   -4.130821
    10  O   -3.264024
    11  N   -3.558096
    12  C    0.280346
    13  N   -3.785113
    14  H    1.642590
    15  H    0.903684
    16  H    1.527762
    17  H    1.338920
    18  H    1.527746
    19  H    1.399359
    20  H    1.412538
    21  H    1.399353
 Sum of Mulliken charges =  -0.00000

 Dipole moment (field-independent basis, Debye):
    X=              2.6744    Y=              5.0806    Z=              0.0001  Tot=              5.7415

 Test job not archived.
 1\1\GINC-SE013\SP\RHF\Aug-CC-pVDZ\C7H8N4O2\OHZDE\06-Apr-2025\0\\#t hf
 aug-cc-pvdz iop(5/13=1,5/36=2,99/5=2) pseudo=read geom=check guess=(re
 ad,tcheck) scf=(maxcycle=1)\\title\\0,1\O,0,-0.702493,-2.681831,-0.000
 062\C,0,-0.427456,-1.502083,-0.000033\C,0,0.890406,-0.915681,-0.000045
 \C,0,1.039767,0.449836,-0.000006\C,0,0.269702,2.790611,0.000072\N,0,0.
 022247,1.356401,0.000047\C,0,-1.294568,0.876674,0.000053\N,0,-1.455705
 ,-0.502781,0.000017\C,0,-2.848272,-0.963109,0.000032\O,0,-2.241746,1.6
 41359,0.000089\N,0,2.127187,-1.527354,-0.000091\C,0,2.991264,-0.559718

 Normal termination of Gaussian 16 at Sun Apr  6 08:39:05 2025.
