 Gaussian 16, Revision C.01,

 ----------------------------------------------------------------------
 #t hf aug-cc-pvdz symm=none int=(grid=ultrafine) guess=(read,tcheck) s
 table=(opt,rrhf)
 ----------------------------------------------------------------------
 -----
 title
 -----
 Symbolic Z-matrix:
 Charge =  0 Multiplicity = 1

 SCF Done:  E(RHF) =  -567.331525453     A.U. after   15 cycles
 Normal termination of Gaussian 16 at Sun Apr  6 08:34:09 2025.
 Gaussian 16:  ES64L-G16RevC.01  3-Jul-2019

 ----------------------------------------------------------------------
 #t hf aug-cc-pvdz iop(5/13=1,5/36=2,99/5=2) pseudo=read geom=check gue
 ss=(read,tcheck) scf=(maxcycle=1)
 ----------------------------------------------------------------------
 -----
 title
 -----
 Structure from the checkpoint file:  "thiazole.chk"
 Charge =  0 Multiplicity = 1

                         Standard orientation:
 ---------------------------------------------------------------------
 Center     Atomic      Atomic             Coordinates (Angstroms)
 Number     Number       Type             X           Y           Z
 ---------------------------------------------------------------------
      1          6           0        0.639432   -1.264100   -0.000000
      2          6           0        1.220264   -0.033712    0.000000
      3          6           0       -1.203295   -0.069611   -0.000000
      4          7           0       -0.732370   -1.277174   -0.000000
      5         16           0        0.000000    1.184691    0.000000
      6          1           0        1.176233   -2.200416   -0.000000
      7          1           0        2.266607    0.216808    0.000000
      8          1           0       -2.254655    0.173318   -0.000000
 ---------------------------------------------------------------------

 SCF Done:  E(RHF) =  -568.347844771     A.U. after    2 cycles

 The electronic state is 1-A'.
 Alpha  occ. eigenvalues --  -75.72552 -15.74825 -13.17017 -13.15108 -13.04145
 Alpha  occ. eigenvalues --  -11.45089 -11.43697 -11.39630  -8.07120  -1.48035
 Alpha  occ. eigenvalues --   -1.18398  -1.08291  -0.84330  -0.78994  -0.70608
 Alpha  occ. eigenvalues --   -0.57025  -0.55188  -0.52542  -0.42966  -0.35570
 Alpha  occ. eigenvalues --   -0.35145  -0.28932
 Alpha virt. eigenvalues --    0.03184   0.04192   0.05675   0.07395   0.10157
 Alpha virt. eigenvalues --    0.10835   0.11689   0.11778   0.12681   0.13639
 Alpha virt. eigenvalues --    0.13759   0.15176   0.15658   0.16007   0.16745

 Mulliken charges:
               1
     1  C    0.665902
     2  C   -2.289830
     3  C   -1.290296
     4  N   -3.090576
     5  S    1.835714
     6  H    1.461074
     7  H    1.158560
     8  H    1.549452
 Sum of Mulliken charges =   0.00000

 Dipole moment (field-independent basis, Debye):
    X=              0.9681    Y=              3.2875    Z=              0.0000  Tot=              3.4271

 Test job not archived.
 1\1\GINC-SE041\SP\RHF\Aug-CC-pVDZ\C3H3N1S1\OHZDE\06-Apr-2025\0\\#t hf
 aug-cc-pvdz iop(5/13=1,5/36=2,99/5=2) pseudo=read geom=check guess=(re
 ad,tcheck) scf=(maxcycle=1)\\title\\0,1\C,0,0.639432,-1.2641,0.\C,0,1.
 220264,-0.033712,0.\C,0,-1.203295,-0.069611,0.\N,0,-0.73237,-1.277174,
 0.\S,0,0.,1.184691,0.\H,0,1.176233,-2.200416,0.\H,0,2.266607,0.216808,
 0.\H,0,-2.254655,0.173318,0.\\Version=ES64L-G16RevC.01\State=1-A'\HF=-
 568.3478448\RMSD=5.480e-01\Dipole=0.3808605,1.2934136,0.\Quadrupole=2.
 5173509,0.6276761,-3.145027,-2.2890488,0.,0.\PG=CS [SG(C3H3N1S1)]\\@

 Normal termination of Gaussian 16 at Sun Apr  6 08:35:12 2025.
