 Gaussian 16, Revision C.01,

 ----------------------------------------------------------------------
 #t hf aug-cc-pvdz symm=none int=(grid=ultrafine) guess=(read,tcheck) s
 table=(opt,rrhf)
 ----------------------------------------------------------------------
 -----
 title
 -----
 Symbolic Z-matrix:
 Charge =  0 Multiplicity = 1

 SCF Done:  E(RHF) =  -719.339388249     A.U. after   13 cycles
 Normal termination of Gaussian 16 at Sun Apr  6 08:34:40 2025.
 Gaussian 16:  ES64L-G16RevC.01  3-Jul-2019

 ----------------------------------------------------------------------
 #t hf aug-cc-pvdz iop(5/13=1,5/36=2,99/5=2) pseudo=read geom=check gue
 ss=(read,tcheck) scf=(maxcycle=1)
 ----------------------------------------------------------------------
 -----
 title
 -----
 Structure from the checkpoint file:  "thiazolidine-1-1-dioxide.chk"
 Charge =  0 Multiplicity = 1

                         Standard orientation:
 ---------------------------------------------------------------------
 Center     Atomic      Atomic             Coordinates (Angstroms)
 Number     Number       Type             X           Y           Z
 ---------------------------------------------------------------------
      1          6           0        1.834252    0.658103   -0.170078
      2          6           0        1.649901   -0.833890    0.185441
      3          6           0        0.498294    1.346797    0.118872
      4          7           0        0.326076   -1.259222   -0.291458
      5          8           0       -1.335449   -0.168992    1.339154
      6          8           0       -1.629458    0.146059   -1.144584
      7         16           0       -0.765053    0.008844    0.017322
      8          1           0        2.646117    1.108508    0.400152
      9          1           0        2.080033    0.749839   -1.228760
     10          1           0        2.410975   -1.464557   -0.268110
     11          1           0        1.690040   -0.982698    1.264866
     12          1           0        0.427121    1.743751    1.127834
     13          1           0        0.219725    2.107908   -0.603766
     14          1           0        0.308880   -1.432296   -1.291141
 ---------------------------------------------------------------------

 SCF Done:  E(RHF) =  -721.072796501     A.U. after    2 cycles

 The electronic state is 1-A.
 Alpha  occ. eigenvalues --  -75.89307 -21.04760 -21.04282 -15.76901 -13.51135
 Alpha  occ. eigenvalues --  -13.44346 -13.32662 -11.49153 -11.44850 -11.40315
 Alpha  occ. eigenvalues --   -8.24386  -1.83097  -1.64745  -1.44331  -1.20484
 Alpha  occ. eigenvalues --   -1.07845  -0.90083  -0.87802  -0.71914  -0.69721
 Alpha  occ. eigenvalues --   -0.65827  -0.59802  -0.57327  -0.54618  -0.52082
 Alpha  occ. eigenvalues --   -0.51288  -0.45062  -0.41108  -0.38713  -0.37003
 Alpha  occ. eigenvalues --   -0.35521  -0.34800
 Alpha virt. eigenvalues --    0.02466   0.04385   0.04750   0.05335   0.06112
 Alpha virt. eigenvalues --    0.06137   0.06622   0.10127   0.10798   0.12241
 Alpha virt. eigenvalues --    0.12759   0.13234   0.13810   0.14118   0.14784

 Mulliken charges:
               1
     1  C   -2.334539
     2  C   -2.210620
     3  C   -3.929308
     4  N   -2.526598
     5  O   -2.703313
     6  O   -2.747704
     7  S    7.523452
     8  H    1.295764
     9  H    1.336692
    10  H    1.323685
    11  H    1.480603
    12  H    1.492203
    13  H    1.398392
    14  H    0.601291
 Sum of Mulliken charges =  -0.00000

 Dipole moment (field-independent basis, Debye):
    X=              3.5539    Y=              0.5914    Z=             -0.7179  Tot=              3.6736

 Test job not archived.
 1\1\GINC-SE042\SP\RHF\Aug-CC-pVDZ\C3H7N1O2S1\OHZDE\06-Apr-2025\0\\#t h
 f aug-cc-pvdz iop(5/13=1,5/36=2,99/5=2) pseudo=read geom=check guess=(
 read,tcheck) scf=(maxcycle=1)\\title\\0,1\C,0,1.834252,0.658103,-0.170
 078\C,0,1.649901,-0.83389,0.185441\C,0,0.498294,1.346797,0.118872\N,0,
 0.326076,-1.259222,-0.291458\O,0,-1.335449,-0.168992,1.339154\O,0,-1.6
 29458,0.146059,-1.144584\S,0,-0.765053,0.008844,0.017322\H,0,2.646117,
 1.108508,0.400152\H,0,2.080033,0.749839,-1.22876\H,0,2.410975,-1.46455
 7,-0.26811\H,0,1.69004,-0.982698,1.264866\H,0,0.427121,1.743751,1.1278

 Normal termination of Gaussian 16 at Sun Apr  6 08:35:16 2025.
