 Gaussian 16, Revision C.01,

 ----------------------------------------------------------------------
 #t hf aug-cc-pvdz symm=none int=(grid=ultrafine) guess=(read,tcheck) s
 table=(opt,rrhf)
 ----------------------------------------------------------------------
 -----
 title
 -----
 Symbolic Z-matrix:
 Charge =  0 Multiplicity = 1

 SCF Done:  E(RHF) =  -981.993859735     A.U. after   15 cycles
 Normal termination of Gaussian 16 at Sun Apr  6 08:34:15 2025.
 Gaussian 16:  ES64L-G16RevC.01  3-Jul-2019

 ----------------------------------------------------------------------
 #t hf aug-cc-pvdz iop(5/13=1,5/36=2,99/5=2) pseudo=read geom=check gue
 ss=(read,tcheck) scf=(maxcycle=1)
 ----------------------------------------------------------------------
 -----
 title
 -----
 Structure from the checkpoint file:  "thiadiazolidine-4-thione.chk"
 Charge =  0 Multiplicity = 1

                         Standard orientation:
 ---------------------------------------------------------------------
 Center     Atomic      Atomic             Coordinates (Angstroms)
 Number     Number       Type             X           Y           Z
 ---------------------------------------------------------------------
      1         16           0       -1.849048   -0.498034   -0.251110
      2         16           0        2.347895   -0.118777   -0.102268
      3          7           0        0.029899    1.184602    0.018376
      4          7           0       -1.384596    1.156257    0.116381
      5          6           0        0.716388    0.030291    0.085786
      6          6           0       -0.237505   -1.118129    0.367886
      7          1           0        0.445368    2.022351   -0.358482
      8          1           0       -1.620549    1.333484    1.090140
      9          1           0        0.061019   -2.005332   -0.179311
     10          1           0       -0.257812   -1.340511    1.436386
 ---------------------------------------------------------------------

 SCF Done:  E(RHF) =  -983.306274978     A.U. after    2 cycles

 The electronic state is 1-A.
 Alpha  occ. eigenvalues --  -75.73092 -75.64854 -15.82087 -15.80896 -13.17669
 Alpha  occ. eigenvalues --  -13.16424 -13.13130 -13.06499 -12.98945 -12.96038
 Alpha  occ. eigenvalues --  -11.51390 -11.43670  -8.07094  -7.99020  -1.59299
 Alpha  occ. eigenvalues --   -1.27545  -1.21943  -1.05941  -0.95535  -0.85186
 Alpha  occ. eigenvalues --   -0.72319  -0.66970  -0.62537  -0.58577  -0.52780
 Alpha  occ. eigenvalues --   -0.47035  -0.43419  -0.39943  -0.26147  -0.25943
 Alpha  occ. eigenvalues --   -0.21691
 Alpha virt. eigenvalues --    0.02507   0.04113   0.04999   0.05880   0.07379
 Alpha virt. eigenvalues --    0.08088   0.09155   0.10189   0.10837   0.12801
 Alpha virt. eigenvalues --    0.13755   0.14522   0.15510   0.15768   0.16651

 Mulliken charges:
               1
     1  S    1.396267
     2  S    1.159787
     3  N   -2.387959
     4  N   -1.521087
     5  C    0.713471
     6  C   -3.931522
     7  H    0.954931
     8  H    0.803449
     9  H    1.471010
    10  H    1.341653
 Sum of Mulliken charges =   0.00000

 Dipole moment (field-independent basis, Debye):
    X=             -1.5755    Y=             -0.1384    Z=              0.2090  Tot=              1.5953

 Test job not archived.
 1\1\GINC-SE014\SP\RHF\Aug-CC-pVDZ\C2H4N2S2\OHZDE\06-Apr-2025\0\\#t hf
 aug-cc-pvdz iop(5/13=1,5/36=2,99/5=2) pseudo=read geom=check guess=(re
 ad,tcheck) scf=(maxcycle=1)\\title\\0,1\S,0,-1.849048,-0.498034,-0.251
 11\S,0,2.347895,-0.118777,-0.102268\N,0,0.029899,1.184602,0.018376\N,0
 ,-1.384596,1.156257,0.116381\C,0,0.716388,0.030291,0.085786\C,0,-0.237
 505,-1.118129,0.367886\H,0,0.445368,2.022351,-0.358482\H,0,-1.620549,1
 .333484,1.09014\H,0,0.061019,-2.005332,-0.179311\H,0,-0.257812,-1.3405
 11,1.436386\\Version=ES64L-G16RevC.01\State=1-A\HF=-983.306275\RMSD=1.

 Normal termination of Gaussian 16 at Sun Apr  6 08:35:13 2025.
