 Gaussian 16, Revision C.01,

 ----------------------------------------------------------------------
 #t hf aug-cc-pvdz symm=none int=(grid=ultrafine) guess=(read,tcheck) s
 table=(opt,rrhf)
 ----------------------------------------------------------------------
 -----
 title
 -----
 Symbolic Z-matrix:
 Charge =  0 Multiplicity = 1

 SCF Done:  E(RHF) =  -514.615397578     A.U. after   12 cycles
 Normal termination of Gaussian 16 at Sun Apr  6 08:34:09 2025.
 Gaussian 16:  ES64L-G16RevC.01  3-Jul-2019

 ----------------------------------------------------------------------
 #t hf aug-cc-pvdz iop(5/13=1,5/36=2,99/5=2) pseudo=read geom=check gue
 ss=(read,tcheck) scf=(maxcycle=1)
 ----------------------------------------------------------------------
 -----
 title
 -----
 Structure from the checkpoint file:  "thietane.chk"
 Charge =  0 Multiplicity = 1

                         Standard orientation:
 ---------------------------------------------------------------------
 Center     Atomic      Atomic             Coordinates (Angstroms)
 Number     Number       Type             X           Y           Z
 ---------------------------------------------------------------------
      1         16           0        0.340727    1.046092    0.000000
      2          6           0       -0.205833   -0.304647    1.150622
      3          6           0       -0.205833   -0.304647   -1.150622
      4          6           0       -0.205833   -1.328854   -0.000000
      5          1           0       -1.195905   -0.094659    1.550789
      6          1           0        0.484953   -0.493732    1.967693
      7          1           0       -1.195905   -0.094659   -1.550789
      8          1           0        0.484953   -0.493732   -1.967693
      9          1           0       -1.043401   -2.027484   -0.000000
     10          1           0        0.718680   -1.904316   -0.000000
 ---------------------------------------------------------------------

 SCF Done:  E(RHF) =  -515.443417601     A.U. after    2 cycles

 The electronic state is 1-A'.
 Alpha  occ. eigenvalues --  -75.66603 -13.10571 -13.07196 -12.99726 -11.43983
 Alpha  occ. eigenvalues --  -11.40167 -11.37174  -8.00560  -1.32066  -0.99464
 Alpha  occ. eigenvalues --   -0.98378  -0.80609  -0.66245  -0.63214  -0.57084
 Alpha  occ. eigenvalues --   -0.49308  -0.48460  -0.41106  -0.32705  -0.21844
 Alpha virt. eigenvalues --    0.03494   0.04462   0.05472   0.05900   0.06765
 Alpha virt. eigenvalues --    0.06819   0.07575   0.11370   0.12593   0.12935
 Alpha virt. eigenvalues --    0.13790   0.15416   0.15827   0.16599   0.17244

 Mulliken charges:
               1
     1  S    1.198570
     2  C   -3.494082
     3  C   -3.494082
     4  C   -2.040649
     5  H    1.378128
     6  H    1.211308
     7  H    1.378128
     8  H    1.211308
     9  H    1.267323
    10  H    1.384047
 Sum of Mulliken charges =  -0.00000

 Dipole moment (field-independent basis, Debye):
    X=              0.0138    Y=             -0.0362    Z=             -0.0000  Tot=              0.0387

 Test job not archived.
 1\1\GINC-SE049\SP\RHF\Aug-CC-pVDZ\C3H6S1\OHZDE\06-Apr-2025\0\\#t hf au
 g-cc-pvdz iop(5/13=1,5/36=2,99/5=2) pseudo=read geom=check guess=(read
 ,tcheck) scf=(maxcycle=1)\\title\\0,1\S,0,0.340727,1.046092,0.\C,0,-0.
 205833,-0.304647,1.150622\C,0,-0.205833,-0.304647,-1.150622\C,0,-0.205
 833,-1.328854,0.\H,0,-1.195905,-0.094659,1.550789\H,0,0.484953,-0.4937
 32,1.967693\H,0,-1.195905,-0.094659,-1.550789\H,0,0.484953,-0.493732,-
 1.967693\H,0,-1.043401,-2.027484,0.\H,0,0.71868,-1.904316,0.\\Version=
 ES64L-G16RevC.01\State=1-A'\HF=-515.4434176\RMSD=5.051e-01\Dipole=0.00

 Normal termination of Gaussian 16 at Sun Apr  6 08:35:12 2025.
