 Gaussian 16, Revision C.01,

 ----------------------------------------------------------------------
 #t hf aug-cc-pvdz symm=none int=(grid=ultrafine) guess=(read,tcheck) s
 table=(opt,rrhf)
 ----------------------------------------------------------------------
 -----
 title
 -----
 Symbolic Z-matrix:
 Charge =  0 Multiplicity = 1

 SCF Done:  E(RHF) =  -436.534001007     A.U. after   12 cycles
 Normal termination of Gaussian 16 at Sun Apr  6 08:34:06 2025.
 Gaussian 16:  ES64L-G16RevC.01  3-Jul-2019

 ----------------------------------------------------------------------
 #t hf aug-cc-pvdz iop(5/13=1,5/36=2,99/5=2) pseudo=read geom=check gue
 ss=(read,tcheck) scf=(maxcycle=1)
 ----------------------------------------------------------------------
 -----
 title
 -----
 Structure from the checkpoint file:  "thioformaldehyde.chk"
 Charge =  0 Multiplicity = 1

                         Standard orientation:
 ---------------------------------------------------------------------
 Center     Atomic      Atomic             Coordinates (Angstroms)
 Number     Number       Type             X           Y           Z
 ---------------------------------------------------------------------
      1         16           0        0.000000   -0.000000    0.585088
      2          6           0        0.000000    0.000000   -1.025466
      3          1           0        0.000000    0.920769   -1.604308
      4          1           0       -0.000000   -0.920769   -1.604308
 ---------------------------------------------------------------------

 SCF Done:  E(RHF) =  -436.938541896     A.U. after    2 cycles

 The electronic state is 1-A1.
 Alpha  occ. eigenvalues --  -75.68894 -13.13048 -13.00869 -12.99457 -11.46040
 Alpha  occ. eigenvalues --   -8.03044  -1.19674  -0.86878  -0.64018  -0.46901
 Alpha  occ. eigenvalues --   -0.36152  -0.22744
 Alpha virt. eigenvalues --    0.02562   0.05279   0.06535   0.06540   0.12369
 Alpha virt. eigenvalues --    0.12899   0.15034   0.15747   0.19697   0.19723
 Alpha virt. eigenvalues --    0.22743   0.25112   0.29349   0.30041   0.32228

 Mulliken charges:
               1
     1  S    1.161814
     2  C   -3.845848
     3  H    1.342017
     4  H    1.342017
 Sum of Mulliken charges =  -0.00000

 Dipole moment (field-independent basis, Debye):
    X=             -0.0000    Y=              0.0000    Z=              0.8225  Tot=              0.8225

 Test job not archived.
 1\1\GINC-SE223\SP\RHF\Aug-CC-pVDZ\C1H2S1\OHZDE\06-Apr-2025\0\\#t hf au
 g-cc-pvdz iop(5/13=1,5/36=2,99/5=2) pseudo=read geom=check guess=(read
 ,tcheck) scf=(maxcycle=1)\\title\\0,1\S,0,0.,0.,0.585088\C,0,0.,0.,-1.
 025466\H,0,0.,0.920769,-1.604308\H,0,0.,-0.920769,-1.604308\\Version=E
 S64L-G16RevC.01\State=1-A1\HF=-436.9385419\RMSD=1.454e-01\Dipole=0.,0.
 ,0.3235994\Quadrupole=-0.2593648,-1.7770534,2.0364181,0.,0.,0.\PG=C02V
  [C2(C1S1),SGV(H2)]\\@

 Normal termination of Gaussian 16 at Sun Apr  6 08:34:08 2025.
