 Gaussian 16, Revision C.01,

 ----------------------------------------------------------------------
 #t hf aug-cc-pvdz symm=none int=(grid=ultrafine) guess=(read,tcheck) s
 table=(opt,rrhf)
 ----------------------------------------------------------------------
 -----
 title
 -----
 Symbolic Z-matrix:
 Charge =  0 Multiplicity = 1

 SCF Done:  E(RHF) =  -551.328392568     A.U. after   13 cycles
 Normal termination of Gaussian 16 at Sun Apr  6 08:34:11 2025.
 Gaussian 16:  ES64L-G16RevC.01  3-Jul-2019

 ----------------------------------------------------------------------
 #t hf aug-cc-pvdz iop(5/13=1,5/36=2,99/5=2) pseudo=read geom=check gue
 ss=(read,tcheck) scf=(maxcycle=1)
 ----------------------------------------------------------------------
 -----
 title
 -----
 Structure from the checkpoint file:  "thiophene.chk"
 Charge =  0 Multiplicity = 1

                         Standard orientation:
 ---------------------------------------------------------------------
 Center     Atomic      Atomic             Coordinates (Angstroms)
 Number     Number       Type             X           Y           Z
 ---------------------------------------------------------------------
      1          6           0        0.000000    0.711523   -1.267123
      2          6           0       -0.000000   -0.711523   -1.267123
      3          6           0        0.000000    1.238059   -0.009487
      4          6           0       -0.000000   -1.238059   -0.009487
      5         16           0        0.000000    0.000000    1.192594
      6          1           0        0.000000    1.314467   -2.162845
      7          1           0       -0.000000   -1.314467   -2.162845
      8          1           0        0.000000    2.274447    0.281757
      9          1           0       -0.000000   -2.274447    0.281757
 ---------------------------------------------------------------------

 SCF Done:  E(RHF) =  -552.299021015     A.U. after    2 cycles

 The electronic state is 1-A1.
 Alpha  occ. eigenvalues --  -75.70904 -13.14844 -13.14379 -13.02471 -11.46613
 Alpha  occ. eigenvalues --  -11.42703 -11.41132 -11.37141  -8.05463  -1.36590
 Alpha  occ. eigenvalues --   -1.07900  -1.04687  -0.80750  -0.77248  -0.71222
 Alpha  occ. eigenvalues --   -0.56187  -0.50750  -0.50189  -0.45755  -0.38433
 Alpha  occ. eigenvalues --   -0.32235  -0.26473
 Alpha virt. eigenvalues --    0.03229   0.04470   0.05677   0.05798   0.07689
 Alpha virt. eigenvalues --    0.11458   0.11744   0.12845   0.13941   0.14214
 Alpha virt. eigenvalues --    0.14616   0.14977   0.15180   0.15575   0.15774

 Mulliken charges:
               1
     1  C   -0.344868
     2  C   -0.344868
     3  C   -3.170897
     4  C   -3.170897
     5  S    1.783099
     6  H    1.421555
     7  H    1.421555
     8  H    1.202661
     9  H    1.202661
 Sum of Mulliken charges =   0.00000

 Dipole moment (field-independent basis, Debye):
    X=             -0.0000    Y=             -0.0000    Z=              1.7483  Tot=              1.7483

 Test job not archived.
 1\1\GINC-SE047\SP\RHF\Aug-CC-pVDZ\C4H4S1\OHZDE\06-Apr-2025\0\\#t hf au
 g-cc-pvdz iop(5/13=1,5/36=2,99/5=2) pseudo=read geom=check guess=(read
 ,tcheck) scf=(maxcycle=1)\\title\\0,1\C,0,0.,0.711523,-1.267123\C,0,0.
 ,-0.711523,-1.267123\C,0,0.,1.238059,-0.009487\C,0,0.,-1.238059,-0.009
 487\S,0,0.,0.,1.192594\H,0,0.,1.314467,-2.162845\H,0,0.,-1.314467,-2.1
 62845\H,0,0.,2.274447,0.281757\H,0,0.,-2.274447,0.281757\\Version=ES64
 L-G16RevC.01\State=1-A1\HF=-552.299021\RMSD=1.502e+00\Dipole=0.,0.,0.6
 878504\Quadrupole=-4.8965638,2.2401916,2.6563722,0.,0.,0.\PG=C02V [C2(

 Normal termination of Gaussian 16 at Sun Apr  6 08:35:12 2025.
