 Gaussian 16, Revision C.01,

 ----------------------------------------------------------------------
 #t hf aug-cc-pvdz symm=none int=(grid=ultrafine) guess=(read,tcheck) s
 table=(opt,rrhf)
 ----------------------------------------------------------------------
 -----
 title
 -----
 Symbolic Z-matrix:
 Charge =  0 Multiplicity = 1

 SCF Done:  E(RHF) =  -1002.65333637     A.U. after   15 cycles
 Normal termination of Gaussian 16 at Sun Apr  6 08:34:18 2025.
 Gaussian 16:  ES64L-G16RevC.01  3-Jul-2019

 ----------------------------------------------------------------------
 #t hf aug-cc-pvdz iop(5/13=1,5/36=2,99/5=2) pseudo=read geom=check gue
 ss=(read,tcheck) scf=(maxcycle=1)
 ----------------------------------------------------------------------
 -----
 title
 -----
 Structure from the checkpoint file:  "thiocyanatomethylsulfanylacetylene.chk"
 Charge =  0 Multiplicity = 1

                         Standard orientation:
 ---------------------------------------------------------------------
 Center     Atomic      Atomic             Coordinates (Angstroms)
 Number     Number       Type             X           Y           Z
 ---------------------------------------------------------------------
      1         16           0       -1.101935    0.129883    0.766287
      2         16           0        1.586860   -1.013699    0.024402
      3          7           0       -3.556241    0.444182   -0.651748
      4          6           0       -0.110750   -0.717112   -0.552454
      5          6           0       -2.556688    0.312656   -0.085241
      6          6           0        2.264315    0.527879   -0.112470
      7          6           0        2.817305    1.593553   -0.189220
      8          1           0       -0.109558   -0.111181   -1.451631
      9          1           0       -0.538550   -1.696769   -0.745449
     10          1           0        3.297908    2.537882   -0.255392
 ---------------------------------------------------------------------

 SCF Done:  E(RHF) =  -1004.05042667     A.U. after    2 cycles

 The electronic state is 1-A.
 Alpha  occ. eigenvalues --  -75.75617 -75.75271 -15.77805 -13.23831 -13.21536
 Alpha  occ. eigenvalues --  -13.17384 -13.15690 -13.08838 -13.08500 -11.47134
 Alpha  occ. eigenvalues --  -11.44999 -11.44257 -11.43135  -8.09768  -8.09374
 Alpha  occ. eigenvalues --   -1.35596  -1.29253  -1.19053  -1.08074  -0.96638
 Alpha  occ. eigenvalues --   -0.75750  -0.69663  -0.67982  -0.58355  -0.54960
 Alpha  occ. eigenvalues --   -0.51184  -0.50120  -0.48061  -0.45914  -0.42498
 Alpha  occ. eigenvalues --   -0.37954  -0.27512  -0.25650
 Alpha virt. eigenvalues --    0.01803   0.03344   0.05474   0.05636   0.06498
 Alpha virt. eigenvalues --    0.07894   0.09619   0.09950   0.11055   0.11393
 Alpha virt. eigenvalues --    0.11540   0.12412   0.13272   0.13736   0.14427

 Mulliken charges:
               1
     1  S    1.966923
     2  S    1.129264
     3  N   -1.944270
     4  C   -4.139490
     5  C    0.388987
     6  C    1.999320
     7  C   -3.343761
     8  H    1.609018
     9  H    1.536831
    10  H    0.797179
 Sum of Mulliken charges =   0.00000

 Dipole moment (field-independent basis, Debye):
    X=              4.6438    Y=             -1.3766    Z=              1.9294  Tot=              5.2137

 Test job not archived.
 1\1\GINC-SE222\SP\RHF\Aug-CC-pVDZ\C4H3N1S2\OHZDE\06-Apr-2025\0\\#t hf
 aug-cc-pvdz iop(5/13=1,5/36=2,99/5=2) pseudo=read geom=check guess=(re
 ad,tcheck) scf=(maxcycle=1)\\title\\0,1\S,0,-1.101935,0.129883,0.76628
 7\S,0,1.58686,-1.013699,0.024402\N,0,-3.556241,0.444182,-0.651748\C,0,
 -0.11075,-0.717112,-0.552454\C,0,-2.556688,0.312656,-0.085241\C,0,2.26
 4315,0.527879,-0.11247\C,0,2.817305,1.593553,-0.18922\H,0,-0.109558,-0
 .111181,-1.451631\H,0,-0.53855,-1.696769,-0.745449\H,0,3.297908,2.5378
 82,-0.255392\\Version=ES64L-G16RevC.01\State=1-A\HF=-1004.0504267\RMSD

 Normal termination of Gaussian 16 at Sun Apr  6 08:35:13 2025.
