 Gaussian 16, Revision C.01,

 ----------------------------------------------------------------------
 #t hf aug-cc-pvdz symm=none int=(grid=ultrafine) guess=(read,tcheck) s
 table=(opt,rrhf)
 ----------------------------------------------------------------------
 -----
 title
 -----
 Symbolic Z-matrix:
 Charge =  0 Multiplicity = 1

 SCF Done:  E(RHF) =  -721.183348667     A.U. after   16 cycles
 Normal termination of Gaussian 16 at Sun Apr  6 08:35:15 2025.
 Gaussian 16:  ES64L-G16RevC.01  3-Jul-2019

 ----------------------------------------------------------------------
 #t hf aug-cc-pvdz iop(5/13=1,5/36=2,99/5=2) pseudo=read geom=check gue
 ss=(read,tcheck) scf=(maxcycle=1)
 ----------------------------------------------------------------------
 -----
 title
 -----
 Structure from the checkpoint file:  "thiobenzamide.chk"
 Charge =  0 Multiplicity = 1

                         Standard orientation:
 ---------------------------------------------------------------------
 Center     Atomic      Atomic             Coordinates (Angstroms)
 Number     Number       Type             X           Y           Z
 ---------------------------------------------------------------------
      1          7           0       -1.772399    1.554665    0.469600
      2          6           0       -1.366140    0.325170    0.092859
      3         16           0       -2.456819   -0.860510   -0.315837
      4          6           0        0.106704    0.129865    0.044612
      5          6           0        0.966492    1.187191   -0.276202
      6          6           0        2.340741    0.991999   -0.324842
      7          6           0        2.877285   -0.257721   -0.040450
      8          6           0        2.030458   -1.315064    0.278402
      9          6           0        0.657396   -1.126729    0.311776
     10          1           0       -2.760372    1.733207    0.530743
     11          1           0       -1.135771    2.217677    0.877192
     12          1           0        0.563130    2.157313   -0.533805
     13          1           0        2.990082    1.814218   -0.593305
     14          1           0        3.947644   -0.409333   -0.073904
     15          1           0        2.441819   -2.290833    0.498199
     16          1           0       -0.008244   -1.945015    0.544143
 ---------------------------------------------------------------------

 SCF Done:  E(RHF) =  -722.946390310     A.U. after    2 cycles

 The electronic state is 1-A.
 Alpha  occ. eigenvalues --  -75.63256 -15.80312 -13.13160 -13.00219 -12.95199
 Alpha  occ. eigenvalues --  -11.53042 -11.50738 -11.44850 -11.44493 -11.42548
 Alpha  occ. eigenvalues --  -11.41935 -11.37800  -7.97411  -1.45016  -1.33449
 Alpha  occ. eigenvalues --   -1.14703  -1.10913  -1.07573  -0.91519  -0.87941
 Alpha  occ. eigenvalues --   -0.80843  -0.74692  -0.70695  -0.66447  -0.60908
 Alpha  occ. eigenvalues --   -0.59621  -0.57999  -0.53741  -0.49934  -0.48608
 Alpha  occ. eigenvalues --   -0.46067  -0.42495  -0.34713  -0.34445  -0.24903
 Alpha  occ. eigenvalues --   -0.21100
 Alpha virt. eigenvalues --    0.02568   0.04319   0.04816   0.05247   0.06103
 Alpha virt. eigenvalues --    0.06689   0.07119   0.08147   0.08899   0.10583
 Alpha virt. eigenvalues --    0.10856   0.11871   0.12509   0.12819   0.13696

 Mulliken charges:
               1
     1  N   -3.620671
     2  C   -1.349161
     3  S    0.625487
     4  C    5.361455
     5  C   -2.124997
     6  C   -1.727252
     7  C   -2.935071
     8  C   -1.140195
     9  C   -2.843917
    10  H    0.762241
    11  H    0.784436
    12  H    1.744593
    13  H    1.486143
    14  H    1.526198
    15  H    1.513917
    16  H    1.936796
 Sum of Mulliken charges =  -0.00000

 Dipole moment (field-independent basis, Debye):
    X=              1.1369    Y=              1.1599    Z=              0.5355  Tot=              1.7101

 Test job not archived.
 1\1\GINC-SE208\SP\RHF\Aug-CC-pVDZ\C7H7N1S1\OHZDE\06-Apr-2025\0\\#t hf
 aug-cc-pvdz iop(5/13=1,5/36=2,99/5=2) pseudo=read geom=check guess=(re
 ad,tcheck) scf=(maxcycle=1)\\title\\0,1\N,0,-1.772399,1.554665,0.4696\
 C,0,-1.36614,0.32517,0.092859\S,0,-2.456819,-0.86051,-0.315837\C,0,0.1
 06704,0.129865,0.044612\C,0,0.966492,1.187191,-0.276202\C,0,2.340741,0
 .991999,-0.324842\C,0,2.877285,-0.257721,-0.04045\C,0,2.030458,-1.3150
 64,0.278402\C,0,0.657396,-1.126729,0.311776\H,0,-2.760372,1.733207,0.5
 30743\H,0,-1.135771,2.217677,0.877192\H,0,0.56313,2.157313,-0.533805\H

 Normal termination of Gaussian 16 at Sun Apr  6 08:35:22 2025.
