 Gaussian 16, Revision C.01,

 ----------------------------------------------------------------------
 #t hf aug-cc-pvdz symm=none int=(grid=ultrafine) guess=(read,tcheck) s
 table=(opt,rrhf)
 ----------------------------------------------------------------------
 -----
 title
 -----
 Symbolic Z-matrix:
 Charge =  0 Multiplicity = 1

 SCF Done:  E(RHF) =  -626.108765979     A.U. after   14 cycles
 Normal termination of Gaussian 16 at Sun Apr  6 08:34:14 2025.
 Gaussian 16:  ES64L-G16RevC.01  3-Jul-2019

 ----------------------------------------------------------------------
 #t hf aug-cc-pvdz iop(5/13=1,5/36=2,99/5=2) pseudo=read geom=check gue
 ss=(read,tcheck) scf=(maxcycle=1)
 ----------------------------------------------------------------------
 -----
 title
 -----
 Structure from the checkpoint file:  "thiophene-1-oxide.chk"
 Charge =  0 Multiplicity = 1

                         Standard orientation:
 ---------------------------------------------------------------------
 Center     Atomic      Atomic             Coordinates (Angstroms)
 Number     Number       Type             X           Y           Z
 ---------------------------------------------------------------------
      1          6           0        0.034055    1.616595    0.729797
      2          6           0        0.034055    1.616595   -0.729797
      3          6           0        0.034055    0.388734    1.266356
      4          6           0        0.034055    0.388734   -1.266356
      5          8           0       -0.701492   -1.975378    0.000000
      6         16           0        0.285648   -0.844573    0.000000
      7          1           0        0.053237    2.529935    1.308036
      8          1           0        0.053237    2.529935   -1.308036
      9          1           0        0.058892    0.096185    2.302731
     10          1           0        0.058892    0.096185   -2.302731
 ---------------------------------------------------------------------

 SCF Done:  E(RHF) =  -627.390084526     A.U. after    2 cycles

 The electronic state is 1-A'.
 Alpha  occ. eigenvalues --  -75.79624 -21.01168 -13.35115 -13.22029 -13.17313
 Alpha  occ. eigenvalues --  -11.49322 -11.45988 -11.43458 -11.40664  -8.14080
 Alpha  occ. eigenvalues --   -1.68897  -1.35074  -1.08258  -1.05735  -0.83128
 Alpha  occ. eigenvalues --   -0.80021  -0.73505  -0.59741  -0.54164  -0.52700
 Alpha  occ. eigenvalues --   -0.51827  -0.47154  -0.38352  -0.36465  -0.32923
 Alpha  occ. eigenvalues --   -0.25425
 Alpha virt. eigenvalues --    0.02493   0.04566   0.05034   0.05101   0.06070
 Alpha virt. eigenvalues --    0.08543   0.11209   0.11971   0.12901   0.13535
 Alpha virt. eigenvalues --    0.13782   0.14021   0.14576   0.15132   0.15245

 Mulliken charges:
               1
     1  C   -0.325758
     2  C   -0.325758
     3  C   -2.759411
     4  C   -2.759411
     5  O   -2.315350
     6  S    3.255009
     7  H    1.417472
     8  H    1.417472
     9  H    1.197868
    10  H    1.197868
 Sum of Mulliken charges =  -0.00000

 Dipole moment (field-independent basis, Debye):
    X=              1.0906    Y=              1.7464    Z=              0.0000  Tot=              2.0590

 Test job not archived.
 1\1\GINC-SE047\SP\RHF\Aug-CC-pVDZ\C4H4O1S1\OHZDE\06-Apr-2025\0\\#t hf
 aug-cc-pvdz iop(5/13=1,5/36=2,99/5=2) pseudo=read geom=check guess=(re
 ad,tcheck) scf=(maxcycle=1)\\title\\0,1\C,0,1.612095,-0.729797,0.12525
 4\C,0,1.612095,0.729797,0.125254\C,0,0.390198,-1.266356,0.004379\C,0,0
 .390198,1.266356,0.004379\O,0,-2.03484,0.,0.503621\S,0,-0.81235,0.,-0.
 367403\H,0,2.522887,-1.308036,0.196077\H,0,2.522887,1.308036,0.196077\
 H,0,0.101515,-2.302731,-0.049137\H,0,0.101515,2.302731,-0.049137\\Vers
 ion=ES64L-G16RevC.01\State=1-A'\HF=-627.3900845\RMSD=1.182e+00\Dipole=

 Normal termination of Gaussian 16 at Sun Apr  6 08:35:12 2025.
