 Gaussian 16, Revision C.01,

 ----------------------------------------------------------------------
 #t hf aug-cc-pvdz symm=none int=(grid=ultrafine) guess=(read,tcheck) s
 table=(opt,rrhf)
 ----------------------------------------------------------------------
 -----
 title
 -----
 Symbolic Z-matrix:
 Charge =  0 Multiplicity = 1

 SCF Done:  E(RHF) =  -601.677377111     A.U. after   13 cycles
 Normal termination of Gaussian 16 at Sun Apr  6 08:34:10 2025.
 Gaussian 16:  ES64L-G16RevC.01  3-Jul-2019

 ----------------------------------------------------------------------
 #t hf aug-cc-pvdz iop(5/13=1,5/36=2,99/5=2) pseudo=read geom=check gue
 ss=(read,tcheck) scf=(maxcycle=1)
 ----------------------------------------------------------------------
 -----
 title
 -----
 Structure from the checkpoint file:  "thiosemicarbazide.chk"
 Charge =  0 Multiplicity = 1

                         Standard orientation:
 ---------------------------------------------------------------------
 Center     Atomic      Atomic             Coordinates (Angstroms)
 Number     Number       Type             X           Y           Z
 ---------------------------------------------------------------------
      1         16           0       -1.756434   -0.365803   -0.000188
      2          7           0        0.863151   -0.693485    0.000281
      3          7           0        0.167197    1.487661   -0.000079
      4          7           0        2.197899   -0.268846    0.000181
      5          6           0       -0.173325    0.187895    0.000004
      6          1           0        0.618610   -1.671311    0.000117
      7          1           0        1.137120    1.757055    0.000069
      8          1           0       -0.566962    2.169753   -0.000192
      9          1           0        2.678241   -0.603657    0.827164
     10          1           0        2.678150   -0.603667   -0.826856
 ---------------------------------------------------------------------

 SCF Done:  E(RHF) =  -602.851400172     A.U. after    2 cycles

 The electronic state is 1-A.
 Alpha  occ. eigenvalues --  -75.61217 -15.80225 -15.79456 -15.78868 -13.09108
 Alpha  occ. eigenvalues --  -12.95844 -12.92269 -11.49605  -7.95370  -1.55453
 Alpha  occ. eigenvalues --   -1.37644  -1.19080  -1.04760  -0.84787  -0.73810
 Alpha  occ. eigenvalues --   -0.71476  -0.69043  -0.62830  -0.54797  -0.44750
 Alpha  occ. eigenvalues --   -0.43064  -0.37571  -0.22341  -0.21031
 Alpha virt. eigenvalues --    0.02544   0.04348   0.05187   0.05590   0.07114
 Alpha virt. eigenvalues --    0.09062   0.11993   0.13410   0.14862   0.15116
 Alpha virt. eigenvalues --    0.15337   0.15719   0.16925   0.18128   0.18346

 Mulliken charges:
               1
     1  S    1.302076
     2  N   -1.854294
     3  N   -2.711352
     4  N   -1.583189
     5  C    1.094785
     6  H    0.833741
     7  H    0.843981
     8  H    0.693455
     9  H    0.690432
    10  H    0.690366
 Sum of Mulliken charges =  -0.00000

 Dipole moment (field-independent basis, Debye):
    X=              3.6779    Y=              0.0314    Z=              0.0000  Tot=              3.6781

 Test job not archived.
 1\1\GINC-SE106\SP\RHF\Aug-CC-pVDZ\C1H5N3S1\OHZDE\06-Apr-2025\0\\#t hf
 aug-cc-pvdz iop(5/13=1,5/36=2,99/5=2) pseudo=read geom=check guess=(re
 ad,tcheck) scf=(maxcycle=1)\\title\\0,1\S,0,-1.756434,-0.365803,-0.000
 188\N,0,0.863151,-0.693485,0.000281\N,0,0.167197,1.487661,-0.000079\N,
 0,2.197899,-0.268846,0.000181\C,0,-0.173325,0.187895,0.000004\H,0,0.61
 861,-1.671311,0.000117\H,0,1.13712,1.757055,0.000069\H,0,-0.566962,2.1
 69753,-0.000192\H,0,2.678241,-0.603657,0.827164\H,0,2.67815,-0.603667,
 -0.826856\\Version=ES64L-G16RevC.01\State=1-A\HF=-602.8514002\RMSD=1.0

 Normal termination of Gaussian 16 at Sun Apr  6 08:35:12 2025.
