 Gaussian 16, Revision C.01,

 ----------------------------------------------------------------------
 #t hf aug-cc-pvdz symm=none int=(grid=ultrafine) guess=(read,tcheck) s
 table=(opt,rrhf)
 ----------------------------------------------------------------------
 -----
 title
 -----
 Symbolic Z-matrix:
 Charge =  0 Multiplicity = 1

 SCF Done:  E(RHF) =  -475.583038844     A.U. after   13 cycles
 Normal termination of Gaussian 16 at Sun Apr  6 08:34:07 2025.
 Gaussian 16:  ES64L-G16RevC.01  3-Jul-2019

 ----------------------------------------------------------------------
 #t hf aug-cc-pvdz iop(5/13=1,5/36=2,99/5=2) pseudo=read geom=check gue
 ss=(read,tcheck) scf=(maxcycle=1)
 ----------------------------------------------------------------------
 -----
 title
 -----
 Structure from the checkpoint file:  "thioacetaldehyde.chk"
 Charge =  0 Multiplicity = 1

                         Standard orientation:
 ---------------------------------------------------------------------
 Center     Atomic      Atomic             Coordinates (Angstroms)
 Number     Number       Type             X           Y           Z
 ---------------------------------------------------------------------
      1          6           0        0.000000    0.619383    0.000000
      2          6           0       -1.485214    0.718099    0.000000
      3         16           0        0.874031   -0.744703    0.000000
      4          1           0        0.520354    1.577729    0.000000
      5          1           0       -1.957612   -0.260850    0.000000
      6          1           0       -1.817979    1.286739    0.874315
      7          1           0       -1.817979    1.286739   -0.874315
 ---------------------------------------------------------------------

 SCF Done:  E(RHF) =  -476.193483693     A.U. after    2 cycles

 The electronic state is 1-A'.
 Alpha  occ. eigenvalues --  -75.67282 -13.14762 -13.00360 -12.98014 -11.47205
 Alpha  occ. eigenvalues --  -11.39544  -8.01464  -1.24184  -1.04488  -0.81033
 Alpha  occ. eigenvalues --   -0.62789  -0.58926  -0.55163  -0.43841  -0.33617
 Alpha  occ. eigenvalues --   -0.22185
 Alpha virt. eigenvalues --    0.02565   0.05143   0.05872   0.06455   0.07670
 Alpha virt. eigenvalues --    0.07962   0.10797   0.13380   0.13735   0.14873
 Alpha virt. eigenvalues --    0.16341   0.16949   0.17467   0.18924   0.20590

 Mulliken charges:
               1
     1  C   -2.258129
     2  C   -3.888798
     3  S    1.083352
     4  H    1.313775
     5  H    1.388220
     6  H    1.180790
     7  H    1.180790
 Sum of Mulliken charges =  -0.00000

 Dipole moment (field-independent basis, Debye):
    X=              0.1823    Y=             -0.3686    Z=              0.0000  Tot=              0.4112

 Test job not archived.
 1\1\GINC-SE146\SP\RHF\Aug-CC-pVDZ\C2H4S1\OHZDE\06-Apr-2025\0\\#t hf au
 g-cc-pvdz iop(5/13=1,5/36=2,99/5=2) pseudo=read geom=check guess=(read
 ,tcheck) scf=(maxcycle=1)\\title\\0,1\C,0,0.,0.619383,0.\C,0,-1.485214
 ,0.718099,0.\S,0,0.874031,-0.744703,0.\H,0,0.520354,1.577729,0.\H,0,-1
 .957612,-0.26085,0.\H,0,-1.817979,1.286739,0.874315\H,0,-1.817979,1.28
 6739,-0.874315\\Version=ES64L-G16RevC.01\State=1-A'\HF=-476.1934837\RM
 SD=2.321e-01\Dipole=0.0717282,-0.1450111,0.\Quadrupole=-0.5443181,0.85
 44064,-0.3100883,-1.9639435,0.,0.\PG=CS [SG(C2H2S1),X(H2)]\\@

 Normal termination of Gaussian 16 at Sun Apr  6 08:34:09 2025.
