 Gaussian 16, Revision C.01,

 ----------------------------------------------------------------------
 #t hf aug-cc-pvdz symm=none int=(grid=ultrafine) guess=(read,tcheck) s
 table=(opt,rrhf)
 ----------------------------------------------------------------------
 -----
 title
 -----
 Symbolic Z-matrix:
 Charge =  0 Multiplicity = 1

 SCF Done:  E(RHF) =  -514.629403675     A.U. after   12 cycles
 Normal termination of Gaussian 16 at Sun Apr  6 08:34:08 2025.
 Gaussian 16:  ES64L-G16RevC.01  3-Jul-2019

 ----------------------------------------------------------------------
 #t hf aug-cc-pvdz iop(5/13=1,5/36=2,99/5=2) pseudo=read geom=check gue
 ss=(read,tcheck) scf=(maxcycle=1)
 ----------------------------------------------------------------------
 -----
 title
 -----
 Structure from the checkpoint file:  "thioacetone.chk"
 Charge =  0 Multiplicity = 1

                         Standard orientation:
 ---------------------------------------------------------------------
 Center     Atomic      Atomic             Coordinates (Angstroms)
 Number     Number       Type             X           Y           Z
 ---------------------------------------------------------------------
      1          6           0        0.000000    0.000000   -0.255900
      2         16           0        0.000000    0.000000    1.375571
      3          6           0        0.000000    1.266131   -1.062046
      4          6           0       -0.000000   -1.266131   -1.062046
      5          1           0        0.000000    2.147096   -0.427764
      6          1           0       -0.000000   -2.147096   -0.427764
      7          1           0        0.875313    1.291889   -1.718417
      8          1           0       -0.875313    1.291889   -1.718417
      9          1           0       -0.875313   -1.291889   -1.718417
     10          1           0        0.875313   -1.291889   -1.718417
 ---------------------------------------------------------------------

 SCF Done:  E(RHF) =  -515.448146997     A.U. after    2 cycles

 The electronic state is 1-A1.
 Alpha  occ. eigenvalues --  -75.66008 -13.14943 -13.00998 -12.96954 -11.47437
 Alpha  occ. eigenvalues --  -11.40262 -11.38556  -8.00213  -1.28145  -1.04184
 Alpha  occ. eigenvalues --   -1.03595  -0.75205  -0.61481  -0.60904  -0.60136
 Alpha  occ. eigenvalues --   -0.55435  -0.50386  -0.41617  -0.31959  -0.21522
 Alpha virt. eigenvalues --    0.02359   0.05345   0.05478   0.06677   0.06764
 Alpha virt. eigenvalues --    0.07265   0.08154   0.08701   0.09895   0.13609
 Alpha virt. eigenvalues --    0.13687   0.15067   0.17099   0.17179   0.17244

 Mulliken charges:
               1
     1  C   -0.230044
     2  S    1.005165
     3  C   -4.209143
     4  C   -4.209143
     5  H    1.488722
     6  H    1.488722
     7  H    1.166430
     8  H    1.166430
     9  H    1.166430
    10  H    1.166430
 Sum of Mulliken charges =  -0.00000

 Dipole moment (field-independent basis, Debye):
    X=             -0.0000    Y=              0.0000    Z=             -0.0363  Tot=              0.0363

 Test job not archived.
 1\1\GINC-SE146\SP\RHF\Aug-CC-pVDZ\C3H6S1\OHZDE\06-Apr-2025\0\\#t hf au
 g-cc-pvdz iop(5/13=1,5/36=2,99/5=2) pseudo=read geom=check guess=(read
 ,tcheck) scf=(maxcycle=1)\\title\\0,1\C,0,0.,0.,-0.2559\S,0,0.,0.,1.37
 5571\C,0,0.,1.266131,-1.062046\C,0,0.,-1.266131,-1.062046\H,0,0.,2.147
 096,-0.427764\H,0,0.,-2.147096,-0.427764\H,0,0.875313,1.291889,-1.7184
 17\H,0,-0.875313,1.291889,-1.718417\H,0,-0.875313,-1.291889,-1.718417\
 H,0,0.875313,-1.291889,-1.718417\\Version=ES64L-G16RevC.01\State=1-A1\
 HF=-515.448147\RMSD=2.579e-01\Dipole=0.,0.,-0.0142985\Quadrupole=-0.11

 Normal termination of Gaussian 16 at Sun Apr  6 08:35:11 2025.
