 Gaussian 16, Revision C.01,

 ----------------------------------------------------------------------
 #t hf aug-cc-pvdz symm=none int=(grid=ultrafine) guess=(read,tcheck) s
 table=(opt,rrhf)
 ----------------------------------------------------------------------
 -----
 title
 -----
 Symbolic Z-matrix:
 Charge =  0 Multiplicity = 1

 SCF Done:  E(RHF) =  -628.496406938     A.U. after   14 cycles
 Normal termination of Gaussian 16 at Sun Apr  6 08:34:31 2025.
 Gaussian 16:  ES64L-G16RevC.01  3-Jul-2019

 ----------------------------------------------------------------------
 #t hf aug-cc-pvdz iop(5/13=1,5/36=2,99/5=2) pseudo=read geom=check gue
 ss=(read,tcheck) scf=(maxcycle=1)
 ----------------------------------------------------------------------
 -----
 title
 -----
 Structure from the checkpoint file:  "thiolane-1-oxide.chk"
 Charge =  0 Multiplicity = 1

                         Standard orientation:
 ---------------------------------------------------------------------
 Center     Atomic      Atomic             Coordinates (Angstroms)
 Number     Number       Type             X           Y           Z
 ---------------------------------------------------------------------
      1          6           0        1.387883   -0.811681    0.479852
      2          6           0        1.678206    0.633320    0.061765
      3          6           0        0.258573   -1.279223   -0.428050
      4          6           0        0.330813    1.347067   -0.089120
      5          8           0       -1.798582   -0.049524    0.835116
      6         16           0       -1.000813    0.079000   -0.439396
      7          1           0        2.269473   -1.447421    0.387147
      8          1           0        1.059693   -0.849628    1.519688
      9          1           0        2.312291    1.147646    0.784708
     10          1           0        2.210285    0.636735   -0.891921
     11          1           0        0.589748   -1.411400   -1.460234
     12          1           0       -0.266523   -2.172907   -0.098828
     13          1           0       -0.021164    1.794675    0.838932
     14          1           0        0.315011    2.097602   -0.876757
 ---------------------------------------------------------------------

 SCF Done:  E(RHF) =  -629.850012918     A.U. after    2 cycles

 The electronic state is 1-A.
 Alpha  occ. eigenvalues --  -75.77279 -20.98939 -13.32097 -13.20937 -13.17866
 Alpha  occ. eigenvalues --  -11.45370 -11.43510 -11.40047 -11.37399  -8.11429
 Alpha  occ. eigenvalues --   -1.66994  -1.31282  -1.08686  -1.06044  -0.85405
 Alpha  occ. eigenvalues --   -0.85011  -0.67869  -0.67326  -0.62611  -0.56020
 Alpha  occ. eigenvalues --   -0.50410  -0.48764  -0.47304  -0.47191  -0.45402
 Alpha  occ. eigenvalues --   -0.36348  -0.30812  -0.24514
 Alpha virt. eigenvalues --    0.03096   0.04676   0.04987   0.05573   0.05743
 Alpha virt. eigenvalues --    0.06401   0.06796   0.06871   0.08761   0.11797
 Alpha virt. eigenvalues --    0.13003   0.13584   0.14159   0.14362   0.14732

 Mulliken charges:
               1
     1  C   -2.492706
     2  C   -2.659549
     3  C   -3.706689
     4  C   -3.554143
     5  O   -2.425802
     6  S    3.507168
     7  H    1.250845
     8  H    1.472750
     9  H    1.314125
    10  H    1.379483
    11  H    1.555162
    12  H    1.414788
    13  H    1.497384
    14  H    1.447185
 Sum of Mulliken charges =   0.00000

 Dipole moment (field-independent basis, Debye):
    X=              1.6328    Y=              0.0778    Z=             -1.2288  Tot=              2.0449

 Test job not archived.
 1\1\GINC-SE046\SP\RHF\Aug-CC-pVDZ\C4H8O1S1\OHZDE\06-Apr-2025\0\\#t hf
 aug-cc-pvdz iop(5/13=1,5/36=2,99/5=2) pseudo=read geom=check guess=(re
 ad,tcheck) scf=(maxcycle=1)\\title\\0,1\C,0,1.387883,-0.811682,0.47985
 2\C,0,1.678206,0.633319,0.061765\C,0,0.258572,-1.279223,-0.42805\C,0,0
 .330814,1.347067,-0.08912\O,0,-1.798582,-0.049523,0.835116\S,0,-1.0008
 13,0.079,-0.439396\H,0,2.269472,-1.447422,0.387147\H,0,1.059693,-0.849
 628,1.519688\H,0,2.312291,1.147645,0.784708\H,0,2.210285,0.636734,-0.8
 91921\H,0,0.589747,-1.4114,-1.460234\H,0,-0.266524,-2.172907,-0.098828

 Normal termination of Gaussian 16 at Sun Apr  6 08:35:14 2025.
