 Gaussian 16, Revision C.01,

 ----------------------------------------------------------------------
 #t hf aug-cc-pvdz symm=none int=(grid=ultrafine) guess=(read,tcheck) s
 table=(opt,rrhf)
 ----------------------------------------------------------------------
 -----
 title
 -----
 Symbolic Z-matrix:
 Charge =  0 Multiplicity = 1

 SCF Done:  E(RHF) =  -717.092722531     A.U. after   15 cycles
 Normal termination of Gaussian 16 at Sun Apr  6 08:34:17 2025.
 Gaussian 16:  ES64L-G16RevC.01  3-Jul-2019

 ----------------------------------------------------------------------
 #t hf aug-cc-pvdz iop(5/13=1,5/36=2,99/5=2) pseudo=read geom=check gue
 ss=(read,tcheck) scf=(maxcycle=1)
 ----------------------------------------------------------------------
 -----
 title
 -----
 Structure from the checkpoint file:  "thiocyanatoacetic_acid.chk"
 Charge =  0 Multiplicity = 1

                         Standard orientation:
 ---------------------------------------------------------------------
 Center     Atomic      Atomic             Coordinates (Angstroms)
 Number     Number       Type             X           Y           Z
 ---------------------------------------------------------------------
      1         16           0       -0.904941   -0.785080   -0.000054
      2          8           0        2.696807    0.929615    0.000054
      3          8           0        1.923496   -1.150439   -0.000102
      4          7           0       -3.304099    0.760189    0.000086
      5          6           0        0.294332    0.611111    0.000040
      6          6           0        1.693547    0.022896   -0.000011
      7          6           0       -2.320544    0.152967    0.000030
      8          1           0        0.138262    1.224382    0.886861
      9          1           0        0.138251    1.224511   -0.886690
     10          1           0        2.364788    1.835806    0.000127
 ---------------------------------------------------------------------

 SCF Done:  E(RHF) =  -718.672077556     A.U. after    2 cycles

 The electronic state is 1-A.
 Alpha  occ. eigenvalues --  -75.76413 -21.15962 -21.08784 -15.78226 -13.23905
 Alpha  occ. eigenvalues --  -13.17386 -13.08970 -11.57064 -11.47244 -11.45347
 Alpha  occ. eigenvalues --   -8.10512  -1.86030  -1.69315  -1.35070  -1.24866
 Alpha  occ. eigenvalues --   -1.07789  -0.83155  -0.74347  -0.69478  -0.68275
 Alpha  occ. eigenvalues --   -0.58276  -0.54988  -0.53989  -0.51388  -0.50494
 Alpha  occ. eigenvalues --   -0.48473  -0.41529  -0.37364  -0.33929  -0.27946
 Alpha virt. eigenvalues --    0.01543   0.04617   0.05006   0.05491   0.07873
 Alpha virt. eigenvalues --    0.10362   0.10866   0.11135   0.11175   0.13032
 Alpha virt. eigenvalues --    0.13558   0.13995   0.14509   0.14963   0.15212

 Mulliken charges:
               1
     1  S    1.818654
     2  O   -3.032031
     3  O   -2.775762
     4  N   -2.086495
     5  C   -3.732447
     6  C    4.920812
     7  C    0.723654
     8  H    1.558722
     9  H    1.558722
    10  H    1.046172
 Sum of Mulliken charges =  -0.00000

 Dipole moment (field-independent basis, Debye):
    X=              3.4870    Y=             -0.4569    Z=             -0.0001  Tot=              3.5168

 Test job not archived.
 1\1\GINC-SE209\SP\RHF\Aug-CC-pVDZ\C3H3N1O2S1\OHZDE\06-Apr-2025\0\\#t h
 f aug-cc-pvdz iop(5/13=1,5/36=2,99/5=2) pseudo=read geom=check guess=(
 read,tcheck) scf=(maxcycle=1)\\title\\0,1\S,0,-0.904941,-0.78508,-0.00
 0054\O,0,2.696807,0.929615,0.000054\O,0,1.923496,-1.150439,-0.000102\N
 ,0,-3.304099,0.760189,0.000086\C,0,0.294332,0.611111,0.00004\C,0,1.693
 547,0.022896,-0.000011\C,0,-2.320544,0.152967,0.00003\H,0,0.138262,1.2
 24382,0.886861\H,0,0.138251,1.224511,-0.88669\H,0,2.364788,1.835806,0.
 000127\\Version=ES64L-G16RevC.01\State=1-A\HF=-718.6720776\RMSD=1.797e

 Normal termination of Gaussian 16 at Sun Apr  6 08:35:13 2025.
