 Gaussian 16, Revision C.01,

 ----------------------------------------------------------------------
 #t hf aug-cc-pvdz symm=none int=(grid=ultrafine) guess=(read,tcheck) s
 table=(opt,rrhf)
 ----------------------------------------------------------------------
 -----
 title
 -----
 Symbolic Z-matrix:
 Charge =  0 Multiplicity = 1

 SCF Done:  E(RHF) =  -703.348216690     A.U. after   12 cycles
 Normal termination of Gaussian 16 at Sun Apr  6 08:34:42 2025.
 Gaussian 16:  ES64L-G16RevC.01  3-Jul-2019

 ----------------------------------------------------------------------
 #t hf aug-cc-pvdz iop(5/13=1,5/36=2,99/5=2) pseudo=read geom=check gue
 ss=(read,tcheck) scf=(maxcycle=1)
 ----------------------------------------------------------------------
 -----
 title
 -----
 Structure from the checkpoint file:  "thiolane-1-1-dioxide.chk"
 Charge =  0 Multiplicity = 1

                         Standard orientation:
 ---------------------------------------------------------------------
 Center     Atomic      Atomic             Coordinates (Angstroms)
 Number     Number       Type             X           Y           Z
 ---------------------------------------------------------------------
      1          6           0        0.000000    0.770224   -1.780388
      2          6           0       -0.000000   -0.770224   -1.780388
      3          6           0       -0.597986    1.220604   -0.448931
      4          6           0        0.597986   -1.220604   -0.448931
      5          8           0       -1.137264   -0.551302    1.517439
      6          8           0        1.137264    0.551302    1.517439
      7         16           0       -0.000000   -0.000000    0.784354
      8          1           0        1.022518    1.140282   -1.873334
      9          1           0       -0.569407    1.169658   -2.618789
     10          1           0       -1.022518   -1.140282   -1.873334
     11          1           0        0.569407   -1.169658   -2.618789
     12          1           0       -0.277102    2.202041   -0.111847
     13          1           0       -1.683808    1.153218   -0.434458
     14          1           0        0.277102   -2.202041   -0.111847
     15          1           0        1.683808   -1.153218   -0.434458
 ---------------------------------------------------------------------

 SCF Done:  E(RHF) =  -705.030030555     A.U. after    2 cycles

 The electronic state is 1-A.
 Alpha  occ. eigenvalues --  -75.87096 -21.03483 -21.03439 -13.48374 -13.41726
 Alpha  occ. eigenvalues --  -13.32355 -11.47059 -11.46443 -11.42060 -11.39159
 Alpha  occ. eigenvalues --   -8.22037  -1.81060  -1.63339  -1.32717  -1.11541
 Alpha  occ. eigenvalues --   -1.05183  -0.87270  -0.85485  -0.70029  -0.68573
 Alpha  occ. eigenvalues --   -0.64602  -0.58458  -0.55515  -0.53054  -0.52667
 Alpha  occ. eigenvalues --   -0.50273  -0.49072  -0.42227  -0.37444  -0.36084
 Alpha  occ. eigenvalues --   -0.33912  -0.33511
 Alpha virt. eigenvalues --    0.02735   0.04544   0.05146   0.05150   0.05800
 Alpha virt. eigenvalues --    0.05932   0.06086   0.07124   0.10120   0.12387
 Alpha virt. eigenvalues --    0.12389   0.13227   0.13405   0.14048   0.14525

 Mulliken charges:
               1
     1  C   -2.452457
     2  C   -2.452457
     3  C   -3.887193
     4  C   -3.887193
     5  O   -2.719668
     6  O   -2.719668
     7  S    6.819573
     8  H    1.445717
     9  H    1.280878
    10  H    1.445717
    11  H    1.280878
    12  H    1.448118
    13  H    1.474820
    14  H    1.448118
    15  H    1.474820
 Sum of Mulliken charges =  -0.00000

 Dipole moment (field-independent basis, Debye):
    X=             -0.0000    Y=             -0.0000    Z=             -3.1128  Tot=              3.1128

 Test job not archived.
 1\1\GINC-SE046\SP\RHF\Aug-CC-pVDZ\C4H8O2S1\OHZDE\06-Apr-2025\0\\#t hf
 aug-cc-pvdz iop(5/13=1,5/36=2,99/5=2) pseudo=read geom=check guess=(re
 ad,tcheck) scf=(maxcycle=1)\\title\\0,1\C,0,0.,0.770224,-1.780388\C,0,
 0.,-0.770224,-1.780388\C,0,-0.597986,1.220604,-0.448931\C,0,0.597986,-
 1.220604,-0.448931\O,0,-1.137264,-0.551302,1.517439\O,0,1.137264,0.551
 302,1.517439\S,0,0.,0.,0.784354\H,0,1.022518,1.140282,-1.873334\H,0,-0
 .569407,1.169658,-2.618789\H,0,-1.022518,-1.140282,-1.873334\H,0,0.569
 407,-1.169658,-2.618789\H,0,-0.277102,2.202041,-0.111847\H,0,-1.683808

 Normal termination of Gaussian 16 at Sun Apr  6 08:35:13 2025.
