 Gaussian 16, Revision C.01,

 ----------------------------------------------------------------------
 #t hf aug-cc-pvdz symm=none int=(grid=ultrafine) guess=(read,tcheck) s
 table=(opt,rrhf)
 ----------------------------------------------------------------------
 -----
 title
 -----
 Symbolic Z-matrix:
 Charge =  0 Multiplicity = 1

 SCF Done:  E(RHF) =  -546.672110546     A.U. after   12 cycles
 Normal termination of Gaussian 16 at Sun Apr  6 08:34:07 2025.
 Gaussian 16:  ES64L-G16RevC.01  3-Jul-2019

 ----------------------------------------------------------------------
 #t hf aug-cc-pvdz iop(5/13=1,5/36=2,99/5=2) pseudo=read geom=check gue
 ss=(read,tcheck) scf=(maxcycle=1)
 ----------------------------------------------------------------------
 -----
 title
 -----
 Structure from the checkpoint file:  "thiourea.chk"
 Charge =  0 Multiplicity = 1

                         Standard orientation:
 ---------------------------------------------------------------------
 Center     Atomic      Atomic             Coordinates (Angstroms)
 Number     Number       Type             X           Y           Z
 ---------------------------------------------------------------------
      1          6           0       -0.000000    0.000000   -0.316883
      2         16           0        0.000000   -0.000000    1.353097
      3          7           0       -0.000000    1.146987   -1.046835
      4          7           0       -0.000000   -1.146987   -1.046835
      5          1           0        0.128543    2.000926   -0.533905
      6          1           0        0.285536    1.143343   -2.012373
      7          1           0       -0.128543   -2.000926   -0.533905
      8          1           0       -0.285536   -1.143343   -2.012373
 ---------------------------------------------------------------------

 SCF Done:  E(RHF) =  -547.588998813     A.U. after    2 cycles

 The electronic state is 1-A.
 Alpha  occ. eigenvalues --  -75.62085 -15.79804 -15.79789 -13.09665 -12.96024
 Alpha  occ. eigenvalues --  -12.93120 -11.50179  -7.96269  -1.48581  -1.29919
 Alpha  occ. eigenvalues --   -1.08462  -0.85031  -0.73179  -0.72339  -0.61610
 Alpha  occ. eigenvalues --   -0.56584  -0.45689  -0.39179  -0.23707  -0.21431
 Alpha virt. eigenvalues --    0.02268   0.04252   0.05822   0.06773   0.09110
 Alpha virt. eigenvalues --    0.11955   0.12182   0.13827   0.15563   0.16147
 Alpha virt. eigenvalues --    0.16629   0.18040   0.18505   0.18840   0.19143

 Mulliken charges:
               1
     1  C    1.054265
     2  S    1.392369
     3  N   -2.623078
     4  N   -2.623078
     5  H    0.670419
     6  H    0.729342
     7  H    0.670419
     8  H    0.729342
 Sum of Mulliken charges =  -0.00000

 Dipole moment (field-independent basis, Debye):
    X=              0.0000    Y=             -0.0000    Z=             -2.6938  Tot=              2.6938

 Test job not archived.
 1\1\GINC-SE106\SP\RHF\Aug-CC-pVDZ\C1H4N2S1\OHZDE\06-Apr-2025\0\\#t hf
 aug-cc-pvdz iop(5/13=1,5/36=2,99/5=2) pseudo=read geom=check guess=(re
 ad,tcheck) scf=(maxcycle=1)\\title\\0,1\C,0,0.,0.,-0.316883\S,0,0.,0.,
 1.353097\N,0,0.,1.146987,-1.046835\N,0,0.,-1.146987,-1.046835\H,0,0.12
 8543,2.000926,-0.533905\H,0,0.285536,1.143343,-2.012373\H,0,-0.128543,
 -2.000926,-0.533905\H,0,-0.285536,-1.143343,-2.012373\\Version=ES64L-G
 16RevC.01\State=1-A\HF=-547.5889988\RMSD=1.068e-01\Dipole=0.,0.,-1.059
 8329\Quadrupole=-4.3594077,1.3110477,3.04836,1.3318731,0.,0.\PG=C02 [C

 Normal termination of Gaussian 16 at Sun Apr  6 08:34:10 2025.
