 Gaussian 16, Revision C.01,

 ----------------------------------------------------------------------
 #t hf aug-cc-pvdz symm=none int=(grid=ultrafine) guess=(read,tcheck) s
 table=(opt,rrhf)
 ----------------------------------------------------------------------
 -----
 title
 -----
 Symbolic Z-matrix:
 Charge =  0 Multiplicity = 1

 SCF Done:  E(RHF) =  -1354.37379971     A.U. after   13 cycles

 1\1\GINC-SE108\Stability\RHF\Aug-CC-pVDZ\C1Cl2S1\OHZDE\06-Apr-2025\0\\
 #t hf aug-cc-pvdz symm=none int=(grid=ultrafine) guess=(read,tcheck) s
 table=(opt,rrhf)\\title\\0,1\Cl,0,0.,1.435076,-0.846417\C,0,0.,0.,0.14
 2885\Cl,0,0.,-1.435076,-0.846417\S,0,0.,0.,1.745054\\Version=ES64L-G16
 RevC.01\HF=-1354.3737997\RMSD=4.840e-09\Dipole=0.,0.,-0.246575\Quadrup
 ole=-0.0715766,0.0661268,0.0054497,0.,0.,0.\PG=Unknown\\@
 The archive entry for this job was punched.

 Normal termination of Gaussian 16 at Sun Apr  6 08:34:09 2025.
 Gaussian 16:  ES64L-G16RevC.01  3-Jul-2019

 ----------------------------------------------------------------------
 #t hf aug-cc-pvdz iop(5/13=1,5/36=2,99/5=2) pseudo=read geom=check gue
 ss=(read,tcheck) scf=(maxcycle=1)
 ----------------------------------------------------------------------
 -----
 title
 -----
 Structure from the checkpoint file:  "thiophosgene.chk"
 Charge =  0 Multiplicity = 1

                         Standard orientation:
 ---------------------------------------------------------------------
 Center     Atomic      Atomic             Coordinates (Angstroms)
 Number     Number       Type             X           Y           Z
 ---------------------------------------------------------------------
      1         17           0        0.000000    1.435076   -0.846417
      2          6           0        0.000000   -0.000000    0.142885
      3         17           0       -0.000000   -1.435076   -0.846417
      4         16           0        0.000000   -0.000000    1.745054
 ---------------------------------------------------------------------

 SCF Done:  E(RHF) =  -1355.24941430     A.U. after    2 cycles

 The electronic state is 1-A1.
 Alpha  occ. eigenvalues --  -99.93987 -99.93973 -75.71191 -13.18084 -13.03428
 Alpha  occ. eigenvalues --  -13.02073 -11.56133 -10.51533 -10.51219  -9.71299
 Alpha  occ. eigenvalues --   -9.71024  -9.70417  -9.70303  -9.70300  -9.70249
 Alpha  occ. eigenvalues --   -8.05522  -1.45433  -1.32506  -1.17605  -0.88179
 Alpha  occ. eigenvalues --   -0.70438  -0.63550  -0.63547  -0.55051  -0.52658
 Alpha  occ. eigenvalues --   -0.49083  -0.37034  -0.27248
 Alpha virt. eigenvalues --    0.01887   0.02250   0.04276   0.06977   0.07141
 Alpha virt. eigenvalues --    0.10220   0.11732   0.12810   0.15242   0.15420
 Alpha virt. eigenvalues --    0.16065   0.16243   0.17600   0.18785   0.20356

 Mulliken charges:
               1
     1  Cl   0.095921
     2  C   -2.344832
     3  Cl   0.095921
     4  S    2.152990
 Sum of Mulliken charges =   0.00000

 Dipole moment (field-independent basis, Debye):
    X=             -0.0000    Y=             -0.0000    Z=              4.6489  Tot=              4.6489

 Test job not archived.
 1\1\GINC-SE108\SP\RHF\Aug-CC-pVDZ\C1Cl2S1\OHZDE\06-Apr-2025\0\\#t hf a
 ug-cc-pvdz iop(5/13=1,5/36=2,99/5=2) pseudo=read geom=check guess=(rea
 d,tcheck) scf=(maxcycle=1)\\title\\0,1\Cl,0,0.,1.435076,-0.846417\C,0,
 0.,0.,0.142885\Cl,0,0.,-1.435076,-0.846417\S,0,0.,0.,1.745054\\Version
 =ES64L-G16RevC.01\State=1-A1\HF=-1355.2494143\RMSD=1.330e-01\Dipole=0.
 ,0.,1.8289998\Quadrupole=-2.35884,-2.9374447,5.2962847,0.,0.,0.\PG=C02
 V [C2(C1S1),SGV(Cl2)]\\@

 Normal termination of Gaussian 16 at Sun Apr  6 08:35:11 2025.
