 Gaussian 16, Revision C.01,

 ----------------------------------------------------------------------
 #t hf aug-cc-pvdz symm=none int=(grid=ultrafine) guess=(read,tcheck) s
 table=(opt,rrhf)
 ----------------------------------------------------------------------
 -----
 title
 -----
 Symbolic Z-matrix:
 Charge =  0 Multiplicity = 1

 SCF Done:  E(RHF) =  -435.835308164     A.U. after   14 cycles
 Normal termination of Gaussian 16 at Sun Apr  6 08:35:10 2025.
 Gaussian 16:  ES64L-G16RevC.01  3-Jul-2019

 ----------------------------------------------------------------------
 #t hf aug-cc-pvdz iop(5/13=1,5/36=2,99/5=2) pseudo=read geom=check gue
 ss=(read,tcheck) scf=(maxcycle=1)
 ----------------------------------------------------------------------
 -----
 title
 -----
 Structure from the checkpoint file:  "threonine.chk"
 Charge =  0 Multiplicity = 1

                         Standard orientation:
 ---------------------------------------------------------------------
 Center     Atomic      Atomic             Coordinates (Angstroms)
 Number     Number       Type             X           Y           Z
 ---------------------------------------------------------------------
      1          7           0       -0.051147    1.703848    0.244380
      2          6           0       -0.043314    0.431492   -0.483504
      3          6           0       -1.376086   -0.303235   -0.228367
      4          8           0       -1.530938   -1.479219   -0.435919
      5          8           0       -2.351637    0.487074    0.227525
      6          1           0       -1.928124    1.363089    0.369080
      7          6           0        1.141533   -0.499575   -0.166921
      8          8           0        1.167043   -0.778126    1.238261
      9          6           0        2.485110    0.099679   -0.539476
     10          1           0       -0.035888    0.649255   -1.555103
     11          1           0        0.984216   -1.425674   -0.722324
     12          1           0        0.509733   -1.457032    1.425652
     13          1           0        3.279834   -0.613026   -0.325853
     14          1           0        2.518013    0.345316   -1.601845
     15          1           0        2.686599    1.005623    0.033605
     16          1           0        0.347974    1.576034    1.168534
     17          1           0        0.476463    2.421484   -0.231731
 ---------------------------------------------------------------------

 SCF Done:  E(RHF) =  -437.768254704     A.U. after    2 cycles

 The electronic state is 1-A.
 Alpha  occ. eigenvalues --  -21.10849 -21.07810 -21.04641 -15.76660 -11.52937
 Alpha  occ. eigenvalues --  -11.48747 -11.44154 -11.38402  -1.82259  -1.72489
 Alpha  occ. eigenvalues --   -1.65375  -1.37249  -1.14820  -1.03872  -0.87305
 Alpha  occ. eigenvalues --   -0.77436  -0.73112  -0.71220  -0.66361  -0.61801
 Alpha  occ. eigenvalues --   -0.60094  -0.56403  -0.53766  -0.51752  -0.50348
 Alpha  occ. eigenvalues --   -0.48668  -0.44658  -0.41673  -0.40025  -0.33621
 Alpha  occ. eigenvalues --   -0.32764  -0.28784
 Alpha virt. eigenvalues --    0.03299   0.04385   0.04955   0.05300   0.06101
 Alpha virt. eigenvalues --    0.06174   0.07126   0.07304   0.08000   0.11330
 Alpha virt. eigenvalues --    0.12258   0.12752   0.12946   0.14398   0.14611

 Mulliken charges:
               1
     1  N   -2.474784
     2  C   -2.195636
     3  C    6.537666
     4  O   -3.280635
     5  O   -3.203075
     6  H    1.089878
     7  C    1.669601
     8  O   -3.008446
     9  C   -4.099633
    10  H    1.785690
    11  H    1.841180
    12  H    0.701550
    13  H    1.096748
    14  H    1.178346
    15  H    1.294172
    16  H    0.541533
    17  H    0.525844
 Sum of Mulliken charges =  -0.00000

 Dipole moment (field-independent basis, Debye):
    X=              2.1508    Y=              2.0157    Z=             -0.1095  Tot=              2.9497

 Test job not archived.
 1\1\GINC-SE200\SP\RHF\Aug-CC-pVDZ\C4H9N1O3\OHZDE\06-Apr-2025\0\\#t hf
 aug-cc-pvdz iop(5/13=1,5/36=2,99/5=2) pseudo=read geom=check guess=(re
 ad,tcheck) scf=(maxcycle=1)\\title\\0,1\N,0,-0.051147,1.703848,0.24438
 \C,0,-0.043314,0.431492,-0.483504\C,0,-1.376086,-0.303235,-0.228367\O,
 0,-1.530938,-1.479219,-0.435919\O,0,-2.351637,0.487074,0.227525\H,0,-1
 .928124,1.363089,0.36908\C,0,1.141533,-0.499575,-0.166921\O,0,1.167043
 ,-0.778126,1.238261\C,0,2.48511,0.099679,-0.539476\H,0,-0.035888,0.649
 255,-1.555103\H,0,0.984216,-1.425674,-0.722324\H,0,0.509733,-1.457032,

 Normal termination of Gaussian 16 at Sun Apr  6 08:35:18 2025.
