 Gaussian 16, Revision C.01,

 ----------------------------------------------------------------------
 #t hf aug-cc-pvdz symm=none int=(grid=ultrafine) guess=(read,tcheck) s
 table=(opt,rrhf)
 ----------------------------------------------------------------------
 -----
 title
 -----
 Symbolic Z-matrix:
 Charge =  0 Multiplicity = 1

 SCF Done:  E(RHF) =  -451.573625131     A.U. after   15 cycles
 Normal termination of Gaussian 16 at Sun Apr  6 08:36:03 2025.
 Gaussian 16:  ES64L-G16RevC.01  3-Jul-2019

 ----------------------------------------------------------------------
 #t hf aug-cc-pvdz iop(5/13=1,5/36=2,99/5=2) pseudo=read geom=check gue
 ss=(read,tcheck) scf=(maxcycle=1)
 ----------------------------------------------------------------------
 -----
 title
 -----
 Structure from the checkpoint file:  "thymine.chk"
 Charge =  0 Multiplicity = 1

                         Standard orientation:
 ---------------------------------------------------------------------
 Center     Atomic      Atomic             Coordinates (Angstroms)
 Number     Number       Type             X           Y           Z
 ---------------------------------------------------------------------
      1          7           0       -0.726579    1.028726   -0.000001
      2          6           0        0.669751    0.895487    0.000064
      3          8           0        1.378069    1.884236    0.000131
      4          6           0        1.153712   -0.486497    0.000042
      5          6           0        2.632341   -0.716781    0.000106
      6          6           0        0.240400   -1.474972   -0.000038
      7          7           0       -1.115294   -1.239106   -0.000094
      8          6           0       -1.675291    0.026086   -0.000082
      9          8           0       -2.872270    0.222918   -0.000137
     10          1           0       -1.085233    1.972913    0.000012
     11          1           0        3.096734   -0.258658    0.874392
     12          1           0        2.863608   -1.781203    0.000091
     13          1           0        3.096819   -0.258616   -0.874114
     14          1           0        0.522304   -2.518618   -0.000059
     15          1           0       -1.773003   -2.000335   -0.000157
 ---------------------------------------------------------------------

 SCF Done:  E(RHF) =  -453.562381829     A.U. after    2 cycles

 The electronic state is 1-A.
 Alpha  occ. eigenvalues --  -21.04482 -21.04467 -15.81341 -15.79914 -11.53750
 Alpha  occ. eigenvalues --  -11.53445 -11.50292 -11.42711 -11.39269  -1.74946
 Alpha  occ. eigenvalues --   -1.72164  -1.49487  -1.36732  -1.21796  -1.03122
 Alpha  occ. eigenvalues --   -0.95264  -0.90946  -0.76446  -0.72602  -0.69242
 Alpha  occ. eigenvalues --   -0.65856  -0.62075  -0.58282  -0.55683  -0.54377
 Alpha  occ. eigenvalues --   -0.52034  -0.51068  -0.48917  -0.46673  -0.33795
 Alpha  occ. eigenvalues --   -0.33056  -0.29651  -0.29548
 Alpha virt. eigenvalues --    0.02637   0.04363   0.05223   0.06587   0.06800
 Alpha virt. eigenvalues --    0.06918   0.08653   0.08939   0.10536   0.10706
 Alpha virt. eigenvalues --    0.11890   0.12369   0.13224   0.13307   0.13589

 Mulliken charges:
               1
     1  N   -2.993900
     2  C    5.159949
     3  O   -3.910366
     4  C    2.171097
     5  C   -5.091719
     6  C   -0.165388
     7  N   -3.123576
     8  C    4.715636
     9  O   -3.235842
    10  H    0.662532
    11  H    1.095424
    12  H    1.323317
    13  H    1.095424
    14  H    1.669619
    15  H    0.627792
 Sum of Mulliken charges =   0.00000

 Dipole moment (field-independent basis, Debye):
    X=              0.5499    Y=             -3.0955    Z=             -0.0001  Tot=              3.1440

 Test job not archived.
 1\1\GINC-SE010\SP\RHF\Aug-CC-pVDZ\C5H6N2O2\OHZDE\06-Apr-2025\0\\#t hf
 aug-cc-pvdz iop(5/13=1,5/36=2,99/5=2) pseudo=read geom=check guess=(re
 ad,tcheck) scf=(maxcycle=1)\\title\\0,1\N,0,-0.726579,1.028726,-0.0000
 01\C,0,0.669751,0.895487,0.000064\O,0,1.378069,1.884236,0.000131\C,0,1
 .153712,-0.486497,0.000042\C,0,2.632341,-0.716781,0.000106\C,0,0.2404,
 -1.474972,-0.000038\N,0,-1.115294,-1.239106,-0.000094\C,0,-1.675291,0.
 026086,-0.000082\O,0,-2.87227,0.222918,-0.000137\H,0,-1.085233,1.97291
 3,0.000012\H,0,3.096734,-0.258658,0.874392\H,0,2.863608,-1.781203,0.00

 Normal termination of Gaussian 16 at Sun Apr  6 08:36:12 2025.
