 Gaussian 16, Revision C.01,

 ----------------------------------------------------------------------
 #t hf aug-cc-pvdz symm=none int=(grid=ultrafine) guess=(read,tcheck) s
 table=(opt,rrhf)
 ----------------------------------------------------------------------
 -----
 title
 -----
 Symbolic Z-matrix:
 Charge =  0 Multiplicity = 1

 SCF Done:  E(RHF) =  -269.768836385     A.U. after   14 cycles
 Normal termination of Gaussian 16 at Sun Apr  6 08:35:47 2025.
 Gaussian 16:  ES64L-G16RevC.01  3-Jul-2019

 ----------------------------------------------------------------------
 #t hf aug-cc-pvdz iop(5/13=1,5/36=2,99/5=2) pseudo=read geom=check gue
 ss=(read,tcheck) scf=(maxcycle=1)
 ----------------------------------------------------------------------
 -----
 title
 -----
 Structure from the checkpoint file:  "toluene.chk"
 Charge =  0 Multiplicity = 1

                         Standard orientation:
 ---------------------------------------------------------------------
 Center     Atomic      Atomic             Coordinates (Angstroms)
 Number     Number       Type             X           Y           Z
 ---------------------------------------------------------------------
      1          6           0       -1.897971   -0.000097    0.008691
      2          6           0       -1.196697    1.200136    0.001975
      3          6           0       -1.196435   -1.200271    0.001973
      4          6           0        0.193419    1.197285   -0.008982
      5          6           0        0.193595   -1.197195   -0.008976
      6          6           0        0.910843    0.000147   -0.011486
      7          6           0        2.417290    0.000075    0.009328
      8          1           0       -2.979553   -0.000212    0.014466
      9          1           0       -1.731919    2.140543    0.001706
     10          1           0       -1.731521   -2.140756    0.001687
     11          1           0        0.729597    2.138337   -0.018405
     12          1           0        0.729920   -2.138174   -0.018405
     13          1           0        2.822376   -0.877771   -0.494005
     14          1           0        2.822189    0.887290   -0.477332
     15          1           0        2.794646   -0.009730    1.035147
 ---------------------------------------------------------------------

 SCF Done:  E(RHF) =  -271.095476257     A.U. after    2 cycles

 The electronic state is 1-A.
 Alpha  occ. eigenvalues --  -11.50570 -11.42581 -11.42133 -11.39930 -11.39664
 Alpha  occ. eigenvalues --  -11.38248 -11.35254  -1.34645  -1.13984  -1.08514
 Alpha  occ. eigenvalues --   -0.99070  -0.85746  -0.82698  -0.70159  -0.63962
 Alpha  occ. eigenvalues --   -0.59866  -0.57395  -0.57243  -0.54792  -0.51132
 Alpha  occ. eigenvalues --   -0.48314  -0.43410  -0.43118  -0.32469  -0.31350
 Alpha virt. eigenvalues --    0.03449   0.04727   0.05178   0.05916   0.06431
 Alpha virt. eigenvalues --    0.06475   0.07323   0.08153   0.09987   0.11399
 Alpha virt. eigenvalues --    0.12511   0.13077   0.13386   0.14123   0.14283

 Mulliken charges:
               1
     1  C   -2.832474
     2  C   -1.508565
     3  C   -1.509588
     4  C   -1.823746
     5  C   -1.827927
     6  C    3.588695
     7  C   -5.400680
     8  H    1.502959
     9  H    1.479485
    10  H    1.479748
    11  H    1.736456
    12  H    1.737566
    13  H    1.114135
    14  H    1.120289
    15  H    1.143647
 Sum of Mulliken charges =  -0.00000

 Dipole moment (field-independent basis, Debye):
    X=              0.2644    Y=             -0.0012    Z=              0.0327  Tot=              0.2664

 Test job not archived.
 1\1\GINC-SE212\SP\RHF\Aug-CC-pVDZ\C7H8\OHZDE\06-Apr-2025\0\\#t hf aug-
 cc-pvdz iop(5/13=1,5/36=2,99/5=2) pseudo=read geom=check guess=(read,t
 check) scf=(maxcycle=1)\\title\\0,1\C,0,-1.897971,-0.000097,0.008691\C
 ,0,-1.196697,1.200136,0.001975\C,0,-1.196435,-1.200271,0.001973\C,0,0.
 193419,1.197285,-0.008982\C,0,0.193595,-1.197195,-0.008976\C,0,0.91084
 3,0.000147,-0.011486\C,0,2.41729,0.000075,0.009328\H,0,-2.979553,-0.00
 0212,0.014466\H,0,-1.731919,2.140543,0.001706\H,0,-1.731521,-2.140756,
 0.001687\H,0,0.729597,2.138337,-0.018405\H,0,0.72992,-2.138174,-0.0184

 Normal termination of Gaussian 16 at Sun Apr  6 08:36:02 2025.
