 Gaussian 16, Revision C.01,

 ----------------------------------------------------------------------
 #t hf aug-cc-pvdz symm=none int=(grid=ultrafine) guess=(read,tcheck) s
 table=(opt,rrhf)
 ----------------------------------------------------------------------
 -----
 title
 -----
 Symbolic Z-matrix:
 Charge =  0 Multiplicity = 1

 SCF Done:  E(RHF) =  -1056.55810322     A.U. after   14 cycles
 Normal termination of Gaussian 16 at Sun Apr  6 08:35:29 2025.
 Gaussian 16:  ES64L-G16RevC.01  3-Jul-2019

 ----------------------------------------------------------------------
 #t hf aug-cc-pvdz iop(5/13=1,5/36=2,99/5=2) pseudo=read geom=check gue
 ss=(read,tcheck) scf=(maxcycle=1)
 ----------------------------------------------------------------------
 -----
 title
 -----
 Structure from the checkpoint file:  "trans-dithiocyanatoethene.chk"
 Charge =  0 Multiplicity = 1

                         Standard orientation:
 ---------------------------------------------------------------------
 Center     Atomic      Atomic             Coordinates (Angstroms)
 Number     Number       Type             X           Y           Z
 ---------------------------------------------------------------------
      1         16           0        2.050341    0.742508   -0.499891
      2         16           0       -2.050342   -0.742503   -0.499907
      3          7           0        3.923970   -0.715598    1.081612
      4          7           0       -3.923966    0.715581    1.081626
      5          6           0        0.603325   -0.276815   -0.332055
      6          6           0       -0.603328    0.276827   -0.332072
      7          6           0        3.140682   -0.141456    0.456341
      8          6           0       -3.140681    0.141447    0.456343
      9          1           0        0.769347   -1.345261   -0.318590
     10          1           0       -0.769353    1.345273   -0.318638
 ---------------------------------------------------------------------

 SCF Done:  E(RHF) =  -1058.15186222     A.U. after    2 cycles

 The electronic state is 1-A.
 Alpha  occ. eigenvalues --  -75.78025 -75.77994 -15.79263 -15.79253 -13.26922
 Alpha  occ. eigenvalues --  -13.24817 -13.20699 -13.18843 -13.10772 -13.10372
 Alpha  occ. eigenvalues --  -11.51280 -11.46452 -11.46342 -11.46239  -8.12256
 Alpha  occ. eigenvalues --   -8.12253  -1.38586  -1.34949  -1.29086  -1.21913
 Alpha  occ. eigenvalues --   -1.08916  -0.86802  -0.75037  -0.68610  -0.65555
 Alpha  occ. eigenvalues --   -0.58421  -0.54402  -0.53078  -0.52395  -0.51751
 Alpha  occ. eigenvalues --   -0.51143  -0.46488  -0.45574  -0.40808  -0.31545
 Alpha  occ. eigenvalues --   -0.26217
 Alpha virt. eigenvalues --    0.01606   0.03891   0.04362   0.05808   0.06480
 Alpha virt. eigenvalues --    0.07614   0.09437   0.09463   0.10036   0.10436
 Alpha virt. eigenvalues --    0.10669   0.11745   0.12627   0.12827   0.13680

 Mulliken charges:
               1
     1  S    1.735658
     2  S    1.735636
     3  N   -1.964412
     4  N   -1.964411
     5  C   -1.693898
     6  C   -1.693941
     7  C    0.501796
     8  C    0.501816
     9  H    1.420876
    10  H    1.420879
 Sum of Mulliken charges =  -0.00000

 Dipole moment (field-independent basis, Debye):
    X=              0.0000    Y=              0.0000    Z=             -4.6114  Tot=              4.6114

 Test job not archived.
 1\1\GINC-SE085\SP\RHF\Aug-CC-pVDZ\C4H2N2S2\OHZDE\06-Apr-2025\0\\#t hf
 aug-cc-pvdz iop(5/13=1,5/36=2,99/5=2) pseudo=read geom=check guess=(re
 ad,tcheck) scf=(maxcycle=1)\\title\\0,1\S,0,2.050341,0.742508,-0.49989
 1\S,0,-2.050342,-0.742503,-0.499907\N,0,3.92397,-0.715598,1.081612\N,0
 ,-3.923966,0.715581,1.081626\C,0,0.603325,-0.276815,-0.332055\C,0,-0.6
 03328,0.276827,-0.332072\C,0,3.140682,-0.141456,0.456341\C,0,-3.140681
 ,0.141447,0.456343\H,0,0.769347,-1.345261,-0.31859\H,0,-0.769353,1.345
 273,-0.318638\\Version=ES64L-G16RevC.01\State=1-A\HF=-1058.1518622\RMS

 Normal termination of Gaussian 16 at Sun Apr  6 08:36:01 2025.
