 Gaussian 16, Revision C.01,

 ----------------------------------------------------------------------
 #t hf aug-cc-pvdz symm=none int=(grid=ultrafine) guess=(read,tcheck) s
 table=(opt,rrhf)
 ----------------------------------------------------------------------
 -----
 title
 -----
 Symbolic Z-matrix:
 Charge =  0 Multiplicity = 1

 SCF Done:  E(RHF) =  -231.794339857     A.U. after   12 cycles
 Normal termination of Gaussian 16 at Sun Apr  6 08:35:29 2025.
 Gaussian 16:  ES64L-G16RevC.01  3-Jul-2019

 ----------------------------------------------------------------------
 #t hf aug-cc-pvdz iop(5/13=1,5/36=2,99/5=2) pseudo=read geom=check gue
 ss=(read,tcheck) scf=(maxcycle=1)
 ----------------------------------------------------------------------
 -----
 title
 -----
 Structure from the checkpoint file:  "trans-2-3-4-hexatriene.chk"
 Charge =  0 Multiplicity = 1

                         Standard orientation:
 ---------------------------------------------------------------------
 Center     Atomic      Atomic             Coordinates (Angstroms)
 Number     Number       Type             X           Y           Z
 ---------------------------------------------------------------------
      1          6           0        1.233554   -2.804366    0.000000
      2          1           0        1.251117   -3.456614    0.877469
      3          1           0        1.251117   -3.456614   -0.877469
      4          1           0        2.138991   -2.200941    0.000000
      5          6           0       -1.233554    2.804366    0.000000
      6          1           0       -1.251117    3.456614   -0.877469
      7          1           0       -1.251117    3.456614    0.877469
      8          1           0       -2.138991    2.200941    0.000000
      9          6           0        0.001866   -1.946573    0.000000
     10          1           0       -0.953142   -2.465454    0.000000
     11          6           0       -0.001866    1.946573    0.000000
     12          1           0        0.953142    2.465454    0.000000
     13          6           0        0.001866    0.631609    0.000000
     14          6           0       -0.001866   -0.631609    0.000000
 ---------------------------------------------------------------------

 SCF Done:  E(RHF) =  -232.944479817     A.U. after    2 cycles

 The electronic state is 1-AG.
 Alpha  occ. eigenvalues --  -11.44150 -11.43358 -11.41950 -11.40662 -11.38960
 Alpha  occ. eigenvalues --  -11.37595  -1.24378  -1.16709  -1.03856  -0.94214
 Alpha  occ. eigenvalues --   -0.84690  -0.68434  -0.63446  -0.57271  -0.57159
 Alpha  occ. eigenvalues --   -0.56602  -0.53117  -0.52323  -0.50820  -0.44123
 Alpha  occ. eigenvalues --   -0.33829  -0.28494
 Alpha virt. eigenvalues --    0.02979   0.05086   0.05354   0.06094   0.06267
 Alpha virt. eigenvalues --    0.06547   0.07148   0.08061   0.10205   0.10286
 Alpha virt. eigenvalues --    0.11045   0.11591   0.12241   0.12758   0.14479

 Mulliken charges:
               1
     1  C   -4.710452
     2  H    1.131995
     3  H    1.131995
     4  H    1.217676
     5  C   -4.710452
     6  H    1.131995
     7  H    1.131995
     8  H    1.217676
     9  C   -2.783781
    10  H    1.071707
    11  C   -2.783781
    12  H    1.071707
    13  C    2.940859
    14  C    2.940859
 Sum of Mulliken charges =  -0.00000

 Dipole moment (field-independent basis, Debye):
    X=              0.0000    Y=             -0.0000    Z=             -0.0000  Tot=              0.0000

 Test job not archived.
 1\1\GINC-SE107\SP\RHF\Aug-CC-pVDZ\C6H8\OHZDE\06-Apr-2025\0\\#t hf aug-
 cc-pvdz iop(5/13=1,5/36=2,99/5=2) pseudo=read geom=check guess=(read,t
 check) scf=(maxcycle=1)\\title\\0,1\C,0,1.233554,-2.804366,0.\H,0,1.25
 1117,-3.456614,0.877469\H,0,1.251117,-3.456614,-0.877469\H,0,2.138991,
 -2.200941,0.\C,0,-1.233554,2.804366,0.\H,0,-1.251117,3.456614,-0.87746
 9\H,0,-1.251117,3.456614,0.877469\H,0,-2.138991,2.200941,0.\C,0,0.0018
 66,-1.946573,0.\H,0,-0.953142,-2.465454,0.\C,0,-0.001866,1.946573,0.\H
 ,0,0.953142,2.465454,0.\C,0,0.001866,0.631609,0.\C,0,-0.001866,-0.6316

 Normal termination of Gaussian 16 at Sun Apr  6 08:36:00 2025.
