 Gaussian 16, Revision C.01,

 ----------------------------------------------------------------------
 #t hf aug-cc-pvdz symm=none int=(grid=ultrafine) guess=(read,tcheck) s
 table=(opt,rrhf)
 ----------------------------------------------------------------------
 -----
 title
 -----
 Symbolic Z-matrix:
 Charge =  0 Multiplicity = 1

 SCF Done:  E(RHF) =  -389.229299258     A.U. after   11 cycles
 Normal termination of Gaussian 16 at Sun Apr  6 08:39:44 2025.
 Gaussian 16:  ES64L-G16RevC.01  3-Jul-2019

 ----------------------------------------------------------------------
 #t hf aug-cc-pvdz iop(5/13=1,5/36=2,99/5=2) pseudo=read geom=check gue
 ss=(read,tcheck) scf=(maxcycle=1)
 ----------------------------------------------------------------------
 -----
 title
 -----
 Structure from the checkpoint file:  "trans-decalin.chk"
 Charge =  0 Multiplicity = 1

                         Standard orientation:
 ---------------------------------------------------------------------
 Center     Atomic      Atomic             Coordinates (Angstroms)
 Number     Number       Type             X           Y           Z
 ---------------------------------------------------------------------
      1          6           0       -0.225728    0.731655    2.543314
      2          6           0        0.225728   -0.731655    2.543314
      3          6           0        0.225728    1.456661    1.272775
      4          6           0       -0.225728   -1.456661    1.272775
      5          6           0       -0.231499    0.735086    0.000000
      6          6           0        0.231499   -0.735086    0.000000
      7          6           0        0.225728    1.456661   -1.272775
      8          6           0       -0.225728    0.731655   -2.543314
      9          6           0        0.225728   -0.731655   -2.543314
     10          6           0       -0.225728   -1.456661   -1.272775
     11          1           0        0.156998    1.245982   -3.427820
     12          1           0       -0.156998   -1.245982    3.427820
     13          1           0        0.150668   -2.483241   -1.270085
     14          1           0       -0.156998   -1.245982   -3.427820
     15          1           0        1.318123   -0.770907   -2.610688
     16          1           0       -0.150668    2.483241    1.270085
     17          1           0        0.156998    1.245982    3.427820
     18          1           0       -0.150668    2.483241   -1.270085
     19          1           0        0.150668   -2.483241    1.270085
     20          1           0       -1.318123    0.770907    2.610688
     21          1           0        1.319276    1.529769   -1.266570
     22          1           0        1.319276    1.529769    1.266570
     23          1           0        1.318123   -0.770907    2.610688
     24          1           0       -1.318123    0.770907   -2.610688
     25          1           0       -1.319276   -1.529769    1.266570
     26          1           0       -1.319276   -1.529769   -1.266570
     27          1           0       -1.330699    0.726592    0.000000
     28          1           0        1.330699   -0.726592    0.000000
 ---------------------------------------------------------------------

 SCF Done:  E(RHF) =  -391.240170122     A.U. after    2 cycles

 The electronic state is 1-AG.
 Alpha  occ. eigenvalues --  -11.43579 -11.43559 -11.43515 -11.43029 -11.40601
 Alpha  occ. eigenvalues --  -11.39138 -11.37150 -11.36822 -11.35102 -11.32673
 Alpha  occ. eigenvalues --   -1.36615  -1.21283  -1.13919  -1.08279  -1.04077
 Alpha  occ. eigenvalues --   -0.90806  -0.87032  -0.85145  -0.79071  -0.77476
 Alpha  occ. eigenvalues --   -0.64324  -0.63960  -0.61956  -0.60325  -0.59695
 Alpha  occ. eigenvalues --   -0.58643  -0.56687  -0.50655  -0.49077  -0.48293
 Alpha  occ. eigenvalues --   -0.47759  -0.45767  -0.45699  -0.44580  -0.43616
 Alpha  occ. eigenvalues --   -0.42672  -0.41137  -0.35534  -0.33995
 Alpha virt. eigenvalues --    0.04561   0.04683   0.04782   0.04839   0.05355
 Alpha virt. eigenvalues --    0.05592   0.05679   0.06304   0.06978   0.07128
 Alpha virt. eigenvalues --    0.07310   0.07747   0.07849   0.08244   0.08331

 Mulliken charges:
               1
     1  C   -3.317405
     2  C   -3.317405
     3  C   -3.857156
     4  C   -3.857156
     5  C    1.527696
     6  C    1.527696
     7  C   -3.857156
     8  C   -3.317405
     9  C   -3.317405
    10  C   -3.857156
    11  H    1.312011
    12  H    1.312011
    13  H    1.409730
    14  H    1.312011
    15  H    1.385991
    16  H    1.409730
    17  H    1.312011
    18  H    1.409730
    19  H    1.409730
    20  H    1.385991
    21  H    1.349615
    22  H    1.349615
    23  H    1.385991
    24  H    1.385991
    25  H    1.349615
    26  H    1.349615
    27  H    1.906731
    28  H    1.906731
 Sum of Mulliken charges =   0.00000

 Dipole moment (field-independent basis, Debye):
    X=              0.0000    Y=              0.0000    Z=             -0.0000  Tot=              0.0000

 Test job not archived.
 1\1\GINC-SE084\SP\RHF\Aug-CC-pVDZ\C10H18\OHZDE\06-Apr-2025\0\\#t hf au
 g-cc-pvdz iop(5/13=1,5/36=2,99/5=2) pseudo=read geom=check guess=(read
 ,tcheck) scf=(maxcycle=1)\\title\\0,1\C,0,-0.225728,0.731655,2.543314\
 C,0,0.225728,-0.731655,2.543314\C,0,0.225728,1.456661,1.272775\C,0,-0.
 225728,-1.456661,1.272775\C,0,-0.231499,0.735086,0.\C,0,0.231499,-0.73
 5086,0.\C,0,0.225728,1.456661,-1.272775\C,0,-0.225728,0.731655,-2.5433
 14\C,0,0.225728,-0.731655,-2.543314\C,0,-0.225728,-1.456661,-1.272775\
 H,0,0.156998,1.245982,-3.42782\H,0,-0.156998,-1.245982,3.42782\H,0,0.1

 Normal termination of Gaussian 16 at Sun Apr  6 08:40:03 2025.
