 Gaussian 16, Revision C.01,

 ----------------------------------------------------------------------
 #t hf aug-cc-pvdz symm=none int=(grid=ultrafine) guess=(read,tcheck) s
 table=(opt,rrhf)
 ----------------------------------------------------------------------
 -----
 title
 -----
 Symbolic Z-matrix:
 Charge =  0 Multiplicity = 1

 SCF Done:  E(RHF) =  -234.196325459     A.U. after   11 cycles
 Normal termination of Gaussian 16 at Sun Apr  6 08:35:47 2025.
 Gaussian 16:  ES64L-G16RevC.01  3-Jul-2019

 ----------------------------------------------------------------------
 #t hf aug-cc-pvdz iop(5/13=1,5/36=2,99/5=2) pseudo=read geom=check gue
 ss=(read,tcheck) scf=(maxcycle=1)
 ----------------------------------------------------------------------
 -----
 title
 -----
 Structure from the checkpoint file:  "trans-1-2-dimethylcyclobutane.chk"
 Charge =  0 Multiplicity = 1

                         Standard orientation:
 ---------------------------------------------------------------------
 Center     Atomic      Atomic             Coordinates (Angstroms)
 Number     Number       Type             X           Y           Z
 ---------------------------------------------------------------------
      1          6           0       -0.126624    0.767713   -0.173969
      2          6           0        0.126624   -0.767713   -0.173969
      3          6           0        0.126624    0.763654    1.356240
      4          6           0       -0.126624   -0.763654    1.356240
      5          6           0        0.714435    1.661716   -1.066390
      6          6           0       -0.714435   -1.661716   -1.066390
      7          1           0       -1.188759    0.949185   -0.364152
      8          1           0        1.188759   -0.949185   -0.364152
      9          1           0        1.167412    0.999661    1.584849
     10          1           0       -0.514312    1.387012    1.978811
     11          1           0       -1.167412   -0.999661    1.584849
     12          1           0        0.514312   -1.387012    1.978811
     13          1           0        1.780030    1.498868   -0.888391
     14          1           0        0.519941    1.467661   -2.123812
     15          1           0        0.505264    2.718063   -0.882589
     16          1           0       -1.780030   -1.498868   -0.888391
     17          1           0       -0.519941   -1.467661   -2.123812
     18          1           0       -0.505264   -2.718063   -0.882589
 ---------------------------------------------------------------------

 SCF Done:  E(RHF) =  -235.419787523     A.U. after    2 cycles

 The electronic state is 1-A.
 Alpha  occ. eigenvalues --  -11.49125 -11.39665 -11.39072 -11.36991 -11.36973
 Alpha  occ. eigenvalues --  -11.32832  -1.34212  -1.08076  -1.05229  -0.89468
 Alpha  occ. eigenvalues --   -0.87981  -0.76692  -0.63082  -0.62522  -0.58125
 Alpha  occ. eigenvalues --   -0.56203  -0.55519  -0.54198  -0.49826  -0.48126
 Alpha  occ. eigenvalues --   -0.42723  -0.42261  -0.37657  -0.37123
 Alpha virt. eigenvalues --    0.04434   0.05372   0.05463   0.05595   0.05726
 Alpha virt. eigenvalues --    0.05875   0.06072   0.06402   0.06715   0.08627
 Alpha virt. eigenvalues --    0.09095   0.09307   0.12593   0.12736   0.13285

 Mulliken charges:
               1
     1  C   -0.334209
     2  C   -0.334209
     3  C   -3.049697
     4  C   -3.049697
     5  C   -4.316301
     6  C   -4.316301
     7  H    1.438661
     8  H    1.438661
     9  H    1.457772
    10  H    1.208837
    11  H    1.457772
    12  H    1.208837
    13  H    1.204703
    14  H    1.201272
    15  H    1.188963
    16  H    1.204703
    17  H    1.201272
    18  H    1.188963
 Sum of Mulliken charges =  -0.00000

 Dipole moment (field-independent basis, Debye):
    X=              0.0000    Y=              0.0000    Z=             -0.0335  Tot=              0.0335

 Test job not archived.
 1\1\GINC-SE223\SP\RHF\Aug-CC-pVDZ\C6H12\OHZDE\06-Apr-2025\0\\#t hf aug
 -cc-pvdz iop(5/13=1,5/36=2,99/5=2) pseudo=read geom=check guess=(read,
 tcheck) scf=(maxcycle=1)\\title\\0,1\C,0,-0.126624,0.767713,-0.173969\
 C,0,0.126624,-0.767713,-0.173969\C,0,0.126624,0.763654,1.35624\C,0,-0.
 126624,-0.763654,1.35624\C,0,0.714435,1.661716,-1.06639\C,0,-0.714435,
 -1.661716,-1.06639\H,0,-1.188759,0.949185,-0.364152\H,0,1.188759,-0.94
 9185,-0.364152\H,0,1.167412,0.999661,1.584849\H,0,-0.514312,1.387012,1
 .978811\H,0,-1.167412,-0.999661,1.584849\H,0,0.514312,-1.387012,1.9788

 Normal termination of Gaussian 16 at Sun Apr  6 08:36:00 2025.
