 Gaussian 16, Revision C.01,

 ----------------------------------------------------------------------
 #t hf aug-cc-pvdz symm=none int=(grid=ultrafine) guess=(read,tcheck) s
 table=(opt,rrhf)
 ----------------------------------------------------------------------
 -----
 title
 -----
 Symbolic Z-matrix:
 Charge =  0 Multiplicity = 1

 SCF Done:  E(RHF) =  -234.194674659     A.U. after   11 cycles
 Normal termination of Gaussian 16 at Sun Apr  6 08:35:48 2025.
 Gaussian 16:  ES64L-G16RevC.01  3-Jul-2019

 ----------------------------------------------------------------------
 #t hf aug-cc-pvdz iop(5/13=1,5/36=2,99/5=2) pseudo=read geom=check gue
 ss=(read,tcheck) scf=(maxcycle=1)
 ----------------------------------------------------------------------
 -----
 title
 -----
 Structure from the checkpoint file:  "trans-1-3-dimethylcyclobutane.chk"
 Charge =  0 Multiplicity = 1

                         Standard orientation:
 ---------------------------------------------------------------------
 Center     Atomic      Atomic             Coordinates (Angstroms)
 Number     Number       Type             X           Y           Z
 ---------------------------------------------------------------------
      1          6           0        0.244705    0.078242    1.082742
      2          6           0        0.244705    0.078242   -1.082742
      3          6           0        0.834997   -0.869296    0.000000
      4          6           0       -0.656207    0.731128   -0.000000
      5          6           0        0.244705   -2.272702    0.000000
      6          6           0       -0.820584    2.239722   -0.000000
      7          1           0       -0.252168   -0.391852    1.932537
      8          1           0        0.988396    0.780747    1.462896
      9          1           0       -0.252168   -0.391852   -1.932537
     10          1           0        0.988396    0.780747   -1.462896
     11          1           0        1.923688   -0.935418    0.000000
     12          1           0       -1.640735    0.259122   -0.000000
     13          1           0       -0.847355   -2.246577   -0.000000
     14          1           0        0.151583    2.738338   -0.000000
     15          1           0        0.561618   -2.832501   -0.882519
     16          1           0        0.561618   -2.832501    0.882519
     17          1           0       -1.368402    2.579864   -0.881781
     18          1           0       -1.368402    2.579864    0.881781
 ---------------------------------------------------------------------

 SCF Done:  E(RHF) =  -235.417131140     A.U. after    2 cycles

 The electronic state is 1-A'.
 Alpha  occ. eigenvalues --  -11.49549 -11.39352 -11.38930 -11.37631 -11.35921
 Alpha  occ. eigenvalues --  -11.32815  -1.34076  -1.09872  -1.00750  -0.94986
 Alpha  occ. eigenvalues --   -0.84655  -0.75557  -0.65021  -0.64190  -0.58238
 Alpha  occ. eigenvalues --   -0.55244  -0.54434  -0.52368  -0.52212  -0.47835
 Alpha  occ. eigenvalues --   -0.41911  -0.41703  -0.38361  -0.37016
 Alpha virt. eigenvalues --    0.04194   0.05142   0.05595   0.05664   0.05694
 Alpha virt. eigenvalues --    0.05813   0.06001   0.06542   0.06624   0.08460
 Alpha virt. eigenvalues --    0.08944   0.09290   0.11980   0.12997   0.13534

 Mulliken charges:
               1
     1  C   -3.288591
     2  C   -3.288591
     3  C   -1.197748
     4  C    0.217986
     5  C   -4.070379
     6  C   -4.393181
     7  H    1.394665
     8  H    1.443488
     9  H    1.394665
    10  H    1.443488
    11  H    1.535244
    12  H    1.416000
    13  H    1.343452
    14  H    1.227054
    15  H    1.234102
    16  H    1.234102
    17  H    1.177121
    18  H    1.177121
 Sum of Mulliken charges =  -0.00000

 Dipole moment (field-independent basis, Debye):
    X=              0.0192    Y=             -0.0562    Z=             -0.0000  Tot=              0.0594

 Test job not archived.
 1\1\GINC-SE108\SP\RHF\Aug-CC-pVDZ\C6H12\OHZDE\06-Apr-2025\0\\#t hf aug
 -cc-pvdz iop(5/13=1,5/36=2,99/5=2) pseudo=read geom=check guess=(read,
 tcheck) scf=(maxcycle=1)\\title\\0,1\C,0,0.244705,0.078242,1.082742\C,
 0,0.244705,0.078242,-1.082742\C,0,0.834997,-0.869296,0.\C,0,-0.656207,
 0.731128,0.\C,0,0.244705,-2.272702,0.\C,0,-0.820584,2.239722,0.\H,0,-0
 .252168,-0.391852,1.932537\H,0,0.988396,0.780747,1.462896\H,0,-0.25216
 8,-0.391852,-1.932537\H,0,0.988396,0.780747,-1.462896\H,0,1.923688,-0.
 935418,0.\H,0,-1.640735,0.259122,0.\H,0,-0.847355,-2.246577,0.\H,0,0.1

 Normal termination of Gaussian 16 at Sun Apr  6 08:36:01 2025.
