 Gaussian 16, Revision C.01,

 ----------------------------------------------------------------------
 #t hf aug-cc-pvdz symm=none int=(grid=ultrafine) guess=(read,tcheck) s
 table=(opt,rrhf)
 ----------------------------------------------------------------------
 -----
 title
 -----
 Symbolic Z-matrix:
 Charge =  0 Multiplicity = 1

 SCF Done:  E(RHF) =  -350.164330512     A.U. after   12 cycles
 Normal termination of Gaussian 16 at Sun Apr  6 08:37:34 2025.
 Gaussian 16:  ES64L-G16RevC.01  3-Jul-2019

 ----------------------------------------------------------------------
 #t hf aug-cc-pvdz iop(5/13=1,5/36=2,99/5=2) pseudo=read geom=check gue
 ss=(read,tcheck) scf=(maxcycle=1)
 ----------------------------------------------------------------------
 -----
 title
 -----
 Structure from the checkpoint file:  "trans-2-3-dimethylnorborane.chk"
 Charge =  0 Multiplicity = 1

                         Standard orientation:
 ---------------------------------------------------------------------
 Center     Atomic      Atomic             Coordinates (Angstroms)
 Number     Number       Type             X           Y           Z
 ---------------------------------------------------------------------
      1          6           0        0.707742   -0.940168    1.191925
      2          6           0        0.805573    0.571081    0.911672
      3          6           0        0.286298   -1.294617   -0.248550
      4          6           0        1.813009    0.594515   -0.256246
      5          6           0       -0.630377    0.862567    0.409362
      6          6           0       -0.961973   -0.400731   -0.457716
      7          6           0        1.455724   -0.696655   -1.057146
      8          1           0       -0.041153   -1.191218    1.943754
      9          1           0        1.658013   -1.391146    1.482484
     10          1           0        1.098896    1.197400    1.754117
     11          1           0        0.105962   -2.349691   -0.452928
     12          1           0        2.832978    0.547501    0.127018
     13          6           0       -2.278499   -1.071176   -0.071401
     14          1           0        2.300532   -1.386094   -1.086752
     15          1           0       -1.280255    0.846643    1.290316
     16          1           0        1.172461   -0.486382   -2.089154
     17          6           0       -0.854203    2.196159   -0.296344
     18          1           0        1.744295    1.498504   -0.859168
     19          1           0       -1.027284   -0.113838   -1.511063
     20          1           0       -3.112889   -0.370708   -0.150666
     21          1           0       -2.254833   -1.436327    0.957417
     22          1           0       -2.497120   -1.920640   -0.721600
     23          1           0       -0.581866    3.037107    0.345146
     24          1           0       -1.905142    2.317448   -0.566598
     25          1           0       -0.272369    2.275590   -1.215659
 ---------------------------------------------------------------------

 SCF Done:  E(RHF) =  -351.977494124     A.U. after    2 cycles

 The electronic state is 1-A.
 Alpha  occ. eigenvalues --  -11.50970 -11.46142 -11.42517 -11.40046 -11.38595
 Alpha  occ. eigenvalues --  -11.38071 -11.36915 -11.36215 -11.32541  -1.41300
 Alpha  occ. eigenvalues --   -1.15388  -1.10669  -1.03321  -1.00292  -0.92094
 Alpha  occ. eigenvalues --   -0.84208  -0.79015  -0.74932  -0.69129  -0.65380
 Alpha  occ. eigenvalues --   -0.62544  -0.57817  -0.56437  -0.54515  -0.54367
 Alpha  occ. eigenvalues --   -0.51147  -0.49357  -0.47205  -0.46727  -0.45050
 Alpha  occ. eigenvalues --   -0.42091  -0.41134  -0.38311  -0.37484  -0.36237
 Alpha virt. eigenvalues --    0.04459   0.04514   0.04652   0.04899   0.05074
 Alpha virt. eigenvalues --    0.05259   0.06317   0.06381   0.06936   0.07942
 Alpha virt. eigenvalues --    0.08059   0.08115   0.08638   0.08855   0.08974

 Mulliken charges:
               1
     1  C   -3.370441
     2  C   -2.608687
     3  C   -2.456685
     4  C   -2.813965
     5  C    0.309427
     6  C   -0.839227
     7  C   -3.155405
     8  H    1.434443
     9  H    1.414977
    10  H    1.940266
    11  H    2.168594
    12  H    1.279817
    13  C   -4.523034
    14  H    1.276938
    15  H    1.851331
    16  H    1.472500
    17  C   -4.739926
    18  H    1.721435
    19  H    2.208062
    20  H    1.176293
    21  H    1.279010
    22  H    1.201504
    23  H    1.228727
    24  H    1.156083
    25  H    1.387965
 Sum of Mulliken charges =  -0.00000

 Dipole moment (field-independent basis, Debye):
    X=              0.0873    Y=             -0.0472    Z=              0.0922  Tot=              0.1355

 Test job not archived.
 1\1\GINC-SE107\SP\RHF\Aug-CC-pVDZ\C9H16\OHZDE\06-Apr-2025\0\\#t hf aug
 -cc-pvdz iop(5/13=1,5/36=2,99/5=2) pseudo=read geom=check guess=(read,
 tcheck) scf=(maxcycle=1)\\title\\0,1\C,0,0.707742,-0.940168,1.191925\C
 ,0,0.805573,0.571081,0.911672\C,0,0.286298,-1.294617,-0.24855\C,0,1.81
 3009,0.594515,-0.256246\C,0,-0.630377,0.862567,0.409362\C,0,-0.961973,
 -0.400731,-0.457716\C,0,1.455724,-0.696655,-1.057146\H,0,-0.041153,-1.
 191218,1.943754\H,0,1.658013,-1.391146,1.482484\H,0,1.098896,1.1974,1.
 754117\H,0,0.105962,-2.349691,-0.452928\H,0,2.832978,0.547501,0.127018

 Normal termination of Gaussian 16 at Sun Apr  6 08:38:50 2025.
