 Gaussian 16, Revision C.01,

 ----------------------------------------------------------------------
 #t hf aug-cc-pvdz symm=none int=(grid=ultrafine) guess=(read,tcheck) s
 table=(opt,rrhf)
 ----------------------------------------------------------------------
 -----
 title
 -----
 Symbolic Z-matrix:
 Charge =  0 Multiplicity = 1

 SCF Done:  E(RHF) =  -229.835251525     A.U. after   14 cycles
 Normal termination of Gaussian 16 at Sun Apr  6 08:35:20 2025.
 Gaussian 16:  ES64L-G16RevC.01  3-Jul-2019

 ----------------------------------------------------------------------
 #t hf aug-cc-pvdz iop(5/13=1,5/36=2,99/5=2) pseudo=read geom=check gue
 ss=(read,tcheck) scf=(maxcycle=1)
 ----------------------------------------------------------------------
 -----
 title
 -----
 Structure from the checkpoint file:  "trans-2-butenal.chk"
 Charge =  0 Multiplicity = 1

                         Standard orientation:
 ---------------------------------------------------------------------
 Center     Atomic      Atomic             Coordinates (Angstroms)
 Number     Number       Type             X           Y           Z
 ---------------------------------------------------------------------
      1          6           0        0.000000    0.336443    0.000000
      2          6           0       -0.894961   -0.655241    0.000000
      3          6           0        1.437530    0.059783    0.000000
      4          6           0       -2.376114   -0.496353    0.000000
      5          8           0        2.302239    0.907893    0.000000
      6          1           0       -0.296890    1.379137    0.000000
      7          1           0       -0.520454   -1.676347    0.000000
      8          1           0        1.704005   -1.017594    0.000000
      9          1           0       -2.814656   -0.983507    0.874815
     10          1           0       -2.814656   -0.983507   -0.874815
     11          1           0       -2.673991    0.550880    0.000000
 ---------------------------------------------------------------------

 SCF Done:  E(RHF) =  -230.891006956     A.U. after    2 cycles

 The electronic state is 1-A'.
 Alpha  occ. eigenvalues --  -21.05298 -11.48101 -11.45960 -11.41225 -11.38948
 Alpha  occ. eigenvalues --   -1.69862  -1.24250  -1.05623  -0.86367  -0.80520
 Alpha  occ. eigenvalues --   -0.65889  -0.59110  -0.58892  -0.56054  -0.51460
 Alpha  occ. eigenvalues --   -0.48324  -0.47983  -0.34051  -0.28986
 Alpha virt. eigenvalues --    0.03011   0.05048   0.05587   0.05714   0.06598
 Alpha virt. eigenvalues --    0.06971   0.09157   0.10826   0.11886   0.12660
 Alpha virt. eigenvalues --    0.13106   0.13543   0.14565   0.15848   0.16593

 Mulliken charges:
               1
     1  C   -0.937285
     2  C    0.148352
     3  C    0.723962
     4  C   -4.561666
     5  O   -2.969433
     6  H    1.387686
     7  H    1.427912
     8  H    1.301713
     9  H    1.104291
    10  H    1.104291
    11  H    1.270176
 Sum of Mulliken charges =  -0.00000

 Dipole moment (field-independent basis, Debye):
    X=             -2.3348    Y=             -1.1528    Z=              0.0000  Tot=              2.6039

 Test job not archived.
 1\1\GINC-SE084\SP\RHF\Aug-CC-pVDZ\C4H6O1\OHZDE\06-Apr-2025\0\\#t hf au
 g-cc-pvdz iop(5/13=1,5/36=2,99/5=2) pseudo=read geom=check guess=(read
 ,tcheck) scf=(maxcycle=1)\\title\\0,1\C,0,0.,0.336443,0.\C,0,-0.894961
 ,-0.655241,0.\C,0,1.43753,0.059783,0.\C,0,-2.376114,-0.496353,0.\O,0,2
 .302239,0.907893,0.\H,0,-0.29689,1.379137,0.\H,0,-0.520454,-1.676347,0
 .\H,0,1.704005,-1.017594,0.\H,0,-2.814656,-0.983507,0.874815\H,0,-2.81
 4656,-0.983507,-0.874815\H,0,-2.673991,0.55088,0.\\Version=ES64L-G16Re
 vC.01\State=1-A'\HF=-230.891007\RMSD=1.241e+00\Dipole=-0.9185995,-0.45

 Normal termination of Gaussian 16 at Sun Apr  6 08:35:24 2025.
