 Gaussian 16, Revision C.01,

 ----------------------------------------------------------------------
 #t hf aug-cc-pvdz symm=none int=(grid=ultrafine) guess=(read,tcheck) s
 table=(opt,rrhf)
 ----------------------------------------------------------------------
 -----
 title
 -----
 Symbolic Z-matrix:
 Charge =  0 Multiplicity = 1

 SCF Done:  E(RHF) =  -1515.80537792     A.U. after   11 cycles

 1\1\GINC-SE009\Stability\RHF\Aug-CC-pVDZ\C1Cl3F1\OHZDE\06-Apr-2025\0\\
 #t hf aug-cc-pvdz symm=none int=(grid=ultrafine) guess=(read,tcheck) s
 table=(opt,rrhf)\\title\\0,1\C,0,0.,0.,0.251893\F,0,0.,0.,1.591574\Cl,
 0,0.,1.691025,-0.3105\Cl,0,1.46447,-0.845512,-0.3105\Cl,0,-1.46447,-0.
 845512,-0.3105\\Version=ES64L-G16RevC.01\HF=-1515.8053779\RMSD=8.710e-
 09\Dipole=0.,-0.0000011,-0.1920318\Quadrupole=0.6630389,0.6630353,-1.3
 260741,0.,0.,0.0000006\PG=Unknown\\@
 The archive entry for this job was punched.

 Normal termination of Gaussian 16 at Sun Apr  6 08:35:14 2025.
 Gaussian 16:  ES64L-G16RevC.01  3-Jul-2019

 ----------------------------------------------------------------------
 #t hf aug-cc-pvdz iop(5/13=1,5/36=2,99/5=2) pseudo=read geom=check gue
 ss=(read,tcheck) scf=(maxcycle=1)
 ----------------------------------------------------------------------
 -----
 title
 -----
 Structure from the checkpoint file:  "trichlorofluoromethane.chk"
 Charge =  0 Multiplicity = 1

                         Standard orientation:
 ---------------------------------------------------------------------
 Center     Atomic      Atomic             Coordinates (Angstroms)
 Number     Number       Type             X           Y           Z
 ---------------------------------------------------------------------
      1          6           0       -0.251893   -0.000000    0.000000
      2          9           0       -1.591574   -0.000000    0.000000
      3         17           0        0.310500    1.691025   -0.000000
      4         17           0        0.310500   -0.845512    1.464470
      5         17           0        0.310500   -0.845512   -1.464470
 ---------------------------------------------------------------------

 SCF Done:  E(RHF) =  -1517.04397458     A.U. after    2 cycles

 The electronic state is 1-A'.
 Alpha  occ. eigenvalues --  -99.93283 -99.93283 -99.93255 -29.33956 -11.61484
 Alpha  occ. eigenvalues --  -10.50822 -10.50661 -10.50661  -9.70580  -9.70580
 Alpha  occ. eigenvalues --   -9.70289  -9.69731  -9.69680  -9.69680  -9.69612
 Alpha  occ. eigenvalues --   -9.69578  -9.69578  -1.49941  -1.33133  -1.33133
 Alpha  occ. eigenvalues --   -1.10704  -0.82367  -0.75576  -0.75576  -0.58855
 Alpha  occ. eigenvalues --   -0.58855  -0.54820  -0.53101  -0.53101  -0.51774
 Alpha  occ. eigenvalues --   -0.44552  -0.33919  -0.33919
 Alpha virt. eigenvalues --   -0.00842   0.06173   0.06353   0.06353   0.09031
 Alpha virt. eigenvalues --    0.09031   0.13185   0.13892   0.13892   0.14519
 Alpha virt. eigenvalues --    0.17134   0.17134   0.18032   0.18247   0.18247

 Mulliken charges:
               1
     1  C   -2.643362
     2  F    1.278774
     3  Cl   0.454862
     4  Cl   0.454863
     5  Cl   0.454863
 Sum of Mulliken charges =  -0.00000

 Dipole moment (field-independent basis, Debye):
    X=             -4.3125    Y=             -0.0000    Z=             -0.0000  Tot=              4.3125

 Test job not archived.
 1\1\GINC-SE009\SP\RHF\Aug-CC-pVDZ\C1Cl3F1\OHZDE\06-Apr-2025\0\\#t hf a
 ug-cc-pvdz iop(5/13=1,5/36=2,99/5=2) pseudo=read geom=check guess=(rea
 d,tcheck) scf=(maxcycle=1)\\title\\0,1\C,0,0.,0.,0.251893\F,0,0.,0.,1.
 591574\Cl,0,0.,1.691025,-0.3105\Cl,0,1.46447,-0.845512,-0.3105\Cl,0,-1
 .46447,-0.845512,-0.3105\\Version=ES64L-G16RevC.01\State=1-A'\HF=-1517
 .0439746\RMSD=4.706e-02\Dipole=0.,-0.0000015,1.6966613\Quadrupole=-1.4
 855536,-1.4855598,2.9711134,0.,0.,0.0000005\PG=CS [SG(C1Cl1F1),X(Cl2)]
 \\@

 Normal termination of Gaussian 16 at Sun Apr  6 08:35:17 2025.
