 Gaussian 16, Revision C.01,

 ----------------------------------------------------------------------
 #t hf aug-cc-pvdz symm=none int=(grid=ultrafine) guess=(read,tcheck) s
 table=(opt,rrhf)
 ----------------------------------------------------------------------
 -----
 title
 -----
 Symbolic Z-matrix:
 Charge =  0 Multiplicity = 1

 SCF Done:  E(RHF) =  -1529.67842838     A.U. after   14 cycles
 Normal termination of Gaussian 16 at Sun Apr  6 08:35:18 2025.
 Gaussian 16:  ES64L-G16RevC.01  3-Jul-2019

 ----------------------------------------------------------------------
 #t hf aug-cc-pvdz iop(5/13=1,5/36=2,99/5=2) pseudo=read geom=check gue
 ss=(read,tcheck) scf=(maxcycle=1)
 ----------------------------------------------------------------------
 -----
 title
 -----
 Structure from the checkpoint file:  "trichloroacetaldehyde.chk"
 Charge =  0 Multiplicity = 1

                         Standard orientation:
 ---------------------------------------------------------------------
 Center     Atomic      Atomic             Coordinates (Angstroms)
 Number     Number       Type             X           Y           Z
 ---------------------------------------------------------------------
      1          6           0        0.038452    0.035580    0.000000
      2          6           0        0.922994   -1.233024   -0.000000
      3          8           0        0.496614   -2.344783   -0.000000
      4         17           0       -1.683707   -0.338809    0.000000
      5         17           0        0.496614    0.961332    1.470611
      6         17           0        0.496614    0.961332   -1.470611
      7          1           0        1.996540   -0.982605   -0.000000
 ---------------------------------------------------------------------

 SCF Done:  E(RHF) =  -1531.06262981     A.U. after    2 cycles

 The electronic state is 1-A'.
 Alpha  occ. eigenvalues --  -99.93544 -99.93538 -99.92817 -21.11262 -11.58033
 Alpha  occ. eigenvalues --  -11.51899 -10.50998 -10.50739 -10.50190  -9.70805
 Alpha  occ. eigenvalues --   -9.70729  -9.70099  -9.69952  -9.69887  -9.69886
 Alpha  occ. eigenvalues --   -9.69801  -9.69206  -9.69157  -1.76099  -1.47134
 Alpha  occ. eigenvalues --   -1.32319  -1.32204  -1.06859  -0.88084  -0.75021
 Alpha  occ. eigenvalues --   -0.72667  -0.69588  -0.59589  -0.58515  -0.56577
 Alpha  occ. eigenvalues --   -0.52885  -0.52851  -0.51555  -0.51082  -0.47990
 Alpha  occ. eigenvalues --   -0.34920
 Alpha virt. eigenvalues --   -0.00575   0.03694   0.04415   0.05872   0.07502
 Alpha virt. eigenvalues --    0.09511   0.09745   0.11262   0.11754   0.12908
 Alpha virt. eigenvalues --    0.13761   0.14440   0.15208   0.15693   0.16907

 Mulliken charges:
               1
     1  C   -2.485168
     2  C    2.581443
     3  O   -2.552185
     4  Cl   0.280801
     5  Cl   0.332897
     6  Cl   0.332897
     7  H    1.509316
 Sum of Mulliken charges =  -0.00000

 Dipole moment (field-independent basis, Debye):
    X=              0.7774    Y=             -0.8450    Z=             -0.0000  Tot=              1.1481

 Test job not archived.
 1\1\GINC-SE085\SP\RHF\Aug-CC-pVDZ\C2H1Cl3O1\OHZDE\06-Apr-2025\0\\#t hf
  aug-cc-pvdz iop(5/13=1,5/36=2,99/5=2) pseudo=read geom=check guess=(r
 ead,tcheck) scf=(maxcycle=1)\\title\\0,1\C,0,0.038452,0.03558,0.\C,0,0
 .922994,-1.233024,0.\O,0,0.496614,-2.344783,0.\Cl,0,-1.683707,-0.33880
 9,0.\Cl,0,0.496614,0.961332,1.470611\Cl,0,0.496614,0.961332,-1.470611\
 H,0,1.99654,-0.982605,0.\\Version=ES64L-G16RevC.01\State=1-A'\HF=-1531
 .0626298\RMSD=1.299e-01\Dipole=0.3058351,-0.3324332,0.\Quadrupole=1.06
 84232,-1.3056045,0.2371813,-0.1595995,0.,0.\PG=CS [SG(C2H1Cl1O1),X(Cl2

 Normal termination of Gaussian 16 at Sun Apr  6 08:35:23 2025.
