 Gaussian 16, Revision C.01,

 ----------------------------------------------------------------------
 #t hf aug-cc-pvdz symm=none int=(grid=ultrafine) guess=(read,tcheck) s
 table=(opt,rrhf)
 ----------------------------------------------------------------------
 -----
 title
 -----
 Symbolic Z-matrix:
 Charge =  0 Multiplicity = 1

 SCF Done:  E(RHF) =  -1454.79832046     A.U. after   13 cycles

 1\1\GINC-SE086\Stability\RHF\Aug-CC-pVDZ\C2H1Cl3\OHZDE\06-Apr-2025\0\\
 #t hf aug-cc-pvdz symm=none int=(grid=ultrafine) guess=(read,tcheck) s
 table=(opt,rrhf)\\title\\0,1\C,0,-1.03458,-0.395303,0.\C,0,0.,0.438157
 ,0.\H,0,-2.045695,-0.022811,0.\Cl,0,-0.896263,-2.11395,0.\Cl,0,-0.2683
 66,2.154033,0.\Cl,0,1.650109,-0.053866,0.\\Version=ES64L-G16RevC.01\HF
 =-1454.7983205\RMSD=4.204e-09\Dipole=-0.3972821,0.1146717,0.\Quadrupol
 e=1.9815417,-0.8350094,-1.1465324,-0.8415904,0.,0.\PG=Unknown\\@
 The archive entry for this job was punched.

 Normal termination of Gaussian 16 at Sun Apr  6 08:35:15 2025.
 Gaussian 16:  ES64L-G16RevC.01  3-Jul-2019

 ----------------------------------------------------------------------
 #t hf aug-cc-pvdz iop(5/13=1,5/36=2,99/5=2) pseudo=read geom=check gue
 ss=(read,tcheck) scf=(maxcycle=1)
 ----------------------------------------------------------------------
 -----
 title
 -----
 Structure from the checkpoint file:  "trichloroethylene.chk"
 Charge =  0 Multiplicity = 1

                         Standard orientation:
 ---------------------------------------------------------------------
 Center     Atomic      Atomic             Coordinates (Angstroms)
 Number     Number       Type             X           Y           Z
 ---------------------------------------------------------------------
      1          6           0       -1.034580   -0.395304    0.000000
      2          6           0        0.000000    0.438157    0.000000
      3          1           0       -2.045695   -0.022812    0.000000
      4         17           0       -0.896262   -2.113951    0.000000
      5         17           0       -0.268367    2.154033    0.000000
      6         17           0        1.650109   -0.053865    0.000000
 ---------------------------------------------------------------------

 SCF Done:  E(RHF) =  -1455.88865495     A.U. after    2 cycles

 The electronic state is 1-A'.
 Alpha  occ. eigenvalues --  -99.92680 -99.92579 -99.91894 -11.51626 -11.46244
 Alpha  occ. eigenvalues --  -10.50196 -10.49909 -10.49303  -9.70003  -9.69857
 Alpha  occ. eigenvalues --   -9.69114  -9.69095  -9.68985  -9.68963  -9.68877
 Alpha  occ. eigenvalues --   -9.68275  -9.68184  -1.45590  -1.35095  -1.31603
 Alpha  occ. eigenvalues --   -1.10090  -0.86891  -0.73426  -0.69650  -0.63885
 Alpha  occ. eigenvalues --   -0.60444  -0.56651  -0.54681  -0.54346  -0.52866
 Alpha  occ. eigenvalues --   -0.51061  -0.38677
 Alpha virt. eigenvalues --    0.03074   0.03853   0.05934   0.06425   0.07713
 Alpha virt. eigenvalues --    0.07936   0.10186   0.12474   0.12873   0.13424
 Alpha virt. eigenvalues --    0.13845   0.14723   0.15115   0.17145   0.17815

 Mulliken charges:
               1
     1  C   -1.035208
     2  C   -0.190054
     3  H    1.675445
     4  Cl  -0.100835
     5  Cl  -0.293211
     6  Cl  -0.056138
 Sum of Mulliken charges =  -0.00000

 Dipole moment (field-independent basis, Debye):
    X=             -1.1064    Y=              0.1525    Z=              0.0000  Tot=              1.1169

 Test job not archived.
 1\1\GINC-SE086\SP\RHF\Aug-CC-pVDZ\C2H1Cl3\OHZDE\06-Apr-2025\0\\#t hf a
 ug-cc-pvdz iop(5/13=1,5/36=2,99/5=2) pseudo=read geom=check guess=(rea
 d,tcheck) scf=(maxcycle=1)\\title\\0,1\C,0,-1.03458,-0.395303,0.\C,0,0
 .,0.438157,0.\H,0,-2.045695,-0.022811,0.\Cl,0,-0.896263,-2.11395,0.\Cl
 ,0,-0.268366,2.154033,0.\Cl,0,1.650109,-0.053866,0.\\Version=ES64L-G16
 RevC.01\State=1-A'\HF=-1455.888655\RMSD=3.893e-01\Dipole=-0.4353012,0.
 0599799,0.\Quadrupole=2.1016693,0.2517625,-2.3534318,-1.005327,0.,0.\P
 G=CS [SG(C2H1Cl3)]\\@

 Normal termination of Gaussian 16 at Sun Apr  6 08:35:17 2025.
