 Gaussian 16, Revision C.01,

 ----------------------------------------------------------------------
 #t hf aug-cc-pvdz symm=none int=(grid=ultrafine) guess=(read,tcheck) s
 table=(opt,rrhf)
 ----------------------------------------------------------------------
 -----
 title
 -----
 Symbolic Z-matrix:
 Charge =  0 Multiplicity = 1

 SCF Done:  E(RHF) =  -1416.94942587     A.U. after   11 cycles

 1\1\GINC-SE009\Stability\RHF\Aug-CC-pVDZ\C1H1Cl3\OHZDE\06-Apr-2025\0\\
 #t hf aug-cc-pvdz symm=none int=(grid=ultrafine) guess=(read,tcheck) s
 table=(opt,rrhf)\\title\\0,1\C,0,0.,0.,0.456698\Cl,0,0.,1.6973,-0.0838
 52\Cl,0,-1.469905,-0.84865,-0.083852\Cl,0,1.469905,-0.84865,-0.083852\
 H,0,0.,0.,1.536281\\Version=ES64L-G16RevC.01\HF=-1416.9494259\RMSD=6.5
 46e-09\Dipole=0.,0.,0.4806629\Quadrupole=-0.5900804,-0.5900803,1.18016
 07,0.,0.,0.\PG=Unknown\\@
 The archive entry for this job was punched.

 Normal termination of Gaussian 16 at Sun Apr  6 08:35:24 2025.
 Gaussian 16:  ES64L-G16RevC.01  3-Jul-2019

 ----------------------------------------------------------------------
 #t hf aug-cc-pvdz iop(5/13=1,5/36=2,99/5=2) pseudo=read geom=check gue
 ss=(read,tcheck) scf=(maxcycle=1)
 ----------------------------------------------------------------------
 -----
 title
 -----
 Structure from the checkpoint file:  "trichloromethane.chk"
 Charge =  0 Multiplicity = 1

                         Standard orientation:
 ---------------------------------------------------------------------
 Center     Atomic      Atomic             Coordinates (Angstroms)
 Number     Number       Type             X           Y           Z
 ---------------------------------------------------------------------
      1          6           0        0.385195    0.245351    0.000000
      2         17           0       -0.982563    1.386517    0.000000
      3         17           0        0.385195   -0.760830    1.469905
      4         17           0        0.385195   -0.760830   -1.469905
      5          1           0        1.295755    0.825335    0.000000
 ---------------------------------------------------------------------

 SCF Done:  E(RHF) =  -1417.86386116     A.U. after    2 cycles

 The electronic state is 1-A'.
 Alpha  occ. eigenvalues --  -99.92061 -99.92061 -99.92043 -11.54860 -10.49676
 Alpha  occ. eigenvalues --  -10.49276 -10.49276  -9.69268  -9.69268  -9.69070
 Alpha  occ. eigenvalues --   -9.68501  -9.68406  -9.68406  -9.68377  -9.68343
 Alpha  occ. eigenvalues --   -9.68343  -1.45651  -1.30778  -1.30778  -0.99570
 Alpha  occ. eigenvalues --   -0.74269  -0.69944  -0.69944  -0.56006  -0.56006
 Alpha  occ. eigenvalues --   -0.51862  -0.51862  -0.50566  -0.50445
 Alpha virt. eigenvalues --   -0.00645   0.03684   0.06330   0.06330   0.08220
 Alpha virt. eigenvalues --    0.10282   0.10282   0.14160   0.14462   0.14462
 Alpha virt. eigenvalues --    0.15575   0.16254   0.16254   0.18542   0.18542

 Mulliken charges:
               1
     1  C   -3.926591
     2  Cl   0.584033
     3  Cl   0.584033
     4  Cl   0.584033
     5  H    2.174492
 Sum of Mulliken charges =  -0.00000

 Dipole moment (field-independent basis, Debye):
    X=              0.8720    Y=              0.5554    Z=              0.0000  Tot=              1.0339

 Test job not archived.
 1\1\GINC-SE009\SP\RHF\Aug-CC-pVDZ\C1H1Cl3\OHZDE\06-Apr-2025\0\\#t hf a
 ug-cc-pvdz iop(5/13=1,5/36=2,99/5=2) pseudo=read geom=check guess=(rea
 d,tcheck) scf=(maxcycle=1)\\title\\0,1\C,0,0.,0.,0.456698\Cl,0,0.,1.69
 73,-0.083852\Cl,0,-1.469905,-0.84865,-0.083852\Cl,0,1.469905,-0.84865,
 -0.083852\H,0,0.,0.,1.536281\\Version=ES64L-G16RevC.01\State=1-A'\HF=-
 1417.8638612\RMSD=6.157e-02\Dipole=0.,0.,0.4067547\Quadrupole=-0.04089
 55,-0.0408953,0.0817908,0.,0.,0.\PG=CS [SG(C1H1Cl1),X(Cl2)]\\@

 Normal termination of Gaussian 16 at Sun Apr  6 08:35:58 2025.
