 Gaussian 16, Revision C.01,

 ----------------------------------------------------------------------
 #t hf aug-cc-pvdz symm=none int=(grid=ultrafine) guess=(read,tcheck) s
 table=(opt,rrhf)
 ----------------------------------------------------------------------
 -----
 title
 -----
 Symbolic Z-matrix:
 Charge =  0 Multiplicity = 1

 SCF Done:  E(RHF) =  -270.862970729     A.U. after   12 cycles
 Normal termination of Gaussian 16 at Sun Apr  6 08:36:12 2025.
 Gaussian 16:  ES64L-G16RevC.01  3-Jul-2019

 ----------------------------------------------------------------------
 #t hf aug-cc-pvdz iop(5/13=1,5/36=2,99/5=2) pseudo=read geom=check gue
 ss=(read,tcheck) scf=(maxcycle=1)
 ----------------------------------------------------------------------
 -----
 title
 -----
 Structure from the checkpoint file:  "tricyclo4-1-0-0heptane.chk"
 Charge =  0 Multiplicity = 1

                         Standard orientation:
 ---------------------------------------------------------------------
 Center     Atomic      Atomic             Coordinates (Angstroms)
 Number     Number       Type             X           Y           Z
 ---------------------------------------------------------------------
      1          6           0       -0.000000    1.212629    0.508884
      2          6           0        1.216393    1.420165   -0.356202
      3          6           0       -0.000000    0.000000    1.437632
      4          6           0       -0.001233    0.749275   -0.932390
      5          6           0        0.001233   -0.749275   -0.932390
      6          6           0       -1.216393   -1.420165   -0.356202
      7          1           0       -0.565029    2.087185    0.799175
      8          1           0        2.090716    0.811351   -0.162580
      9          1           0        1.434669    2.428532   -0.679316
     10          1           0       -0.877843    0.008372    2.088558
     11          1           0        0.877843   -0.008372    2.088558
     12          1           0       -0.578811    1.277641   -1.680483
     13          1           0        0.578811   -1.277641   -1.680483
     14          1           0       -1.434669   -2.428532   -0.679316
     15          1           0       -2.090716   -0.811351   -0.162580
     16          6           0        0.000000   -1.212629    0.508884
     17          1           0        0.565029   -2.087185    0.799175
 ---------------------------------------------------------------------

 SCF Done:  E(RHF) =  -272.222048468     A.U. after    2 cycles

 The electronic state is 1-A.
 Alpha  occ. eigenvalues --  -11.45501 -11.45286 -11.43217 -11.39546 -11.37528
 Alpha  occ. eigenvalues --  -11.35744 -11.34513  -1.41614  -1.20681  -1.05132
 Alpha  occ. eigenvalues --   -0.90024  -0.85182  -0.78852  -0.77806  -0.70781
 Alpha  occ. eigenvalues --   -0.65830  -0.57396  -0.56460  -0.54654  -0.51183
 Alpha  occ. eigenvalues --   -0.47057  -0.44190  -0.42028  -0.38775  -0.34408
 Alpha  occ. eigenvalues --   -0.33917
 Alpha virt. eigenvalues --    0.04272   0.05027   0.05284   0.05477   0.05657
 Alpha virt. eigenvalues --    0.06025   0.06318   0.06730   0.06849   0.08675
 Alpha virt. eigenvalues --    0.11707   0.12521   0.13205   0.14088   0.14285

 Mulliken charges:
               1
     1  C   -0.515413
     2  C   -2.653138
     3  C   -4.298263
     4  C   -1.451723
     5  C   -1.451723
     6  C   -2.653138
     7  H    1.415904
     8  H    1.412610
     9  H    1.264690
    10  H    1.303097
    11  H    1.303097
    12  H    1.373105
    13  H    1.373105
    14  H    1.264690
    15  H    1.412610
    16  C   -0.515413
    17  H    1.415904
 Sum of Mulliken charges =   0.00000

 Dipole moment (field-independent basis, Debye):
    X=              0.0000    Y=              0.0000    Z=             -0.0109  Tot=              0.0109

 Test job not archived.
 1\1\GINC-SE028\SP\RHF\Aug-CC-pVDZ\C7H10\OHZDE\06-Apr-2025\0\\#t hf aug
 -cc-pvdz iop(5/13=1,5/36=2,99/5=2) pseudo=read geom=check guess=(read,
 tcheck) scf=(maxcycle=1)\\title\\0,1\C,0,0.,1.212629,0.508884\C,0,1.21
 6393,1.420165,-0.356202\C,0,0.,0.,1.437632\C,0,-0.001233,0.749275,-0.9
 3239\C,0,0.001233,-0.749275,-0.93239\C,0,-1.216393,-1.420165,-0.356202
 \H,0,-0.565029,2.087185,0.799175\H,0,2.090716,0.811351,-0.16258\H,0,1.
 434669,2.428532,-0.679316\H,0,-0.877843,0.008372,2.088558\H,0,0.877843
 ,-0.008372,2.088558\H,0,-0.578811,1.277641,-1.680483\H,0,0.578811,-1.2

 Normal termination of Gaussian 16 at Sun Apr  6 08:36:36 2025.
