 Gaussian 16, Revision C.01,

 ----------------------------------------------------------------------
 #t hf aug-cc-pvdz symm=none int=(grid=ultrafine) guess=(read,tcheck) s
 table=(opt,rrhf)
 ----------------------------------------------------------------------
 -----
 title
 -----
 Symbolic Z-matrix:
 Charge =  0 Multiplicity = 1

 SCF Done:  E(RHF) =  -309.886114306     A.U. after   12 cycles
 Normal termination of Gaussian 16 at Sun Apr  6 08:36:28 2025.
 Gaussian 16:  ES64L-G16RevC.01  3-Jul-2019

 ----------------------------------------------------------------------
 #t hf aug-cc-pvdz iop(5/13=1,5/36=2,99/5=2) pseudo=read geom=check gue
 ss=(read,tcheck) scf=(maxcycle=1)
 ----------------------------------------------------------------------
 -----
 title
 -----
 Structure from the checkpoint file:  "tricyclo3-2-1-01-5octane.chk"
 Charge =  0 Multiplicity = 1

                         Standard orientation:
 ---------------------------------------------------------------------
 Center     Atomic      Atomic             Coordinates (Angstroms)
 Number     Number       Type             X           Y           Z
 ---------------------------------------------------------------------
      1          6           0       -0.091009    0.344069    0.762763
      2          6           0       -0.091009    0.344069   -0.762763
      3          6           0       -1.274798    0.863593    0.000000
      4          6           0        1.043254    1.383282    0.782434
      5          6           0       -0.091009   -1.088216    1.246819
      6          6           0        1.043254    1.383282   -0.782434
      7          6           0       -0.091009   -1.088216   -1.246819
      8          6           0       -0.542343   -1.905205   -0.000000
      9          1           0       -2.164538    0.249662   -0.000000
     10          1           0       -1.477867    1.927933    0.000000
     11          1           0        1.969402    0.987255    1.196949
     12          1           0        0.820737    2.329837    1.278331
     13          1           0       -0.731511   -1.283950    2.109647
     14          1           0        0.926511   -1.368063    1.532126
     15          1           0        0.820737    2.329837   -1.278331
     16          1           0        1.969402    0.987255   -1.196949
     17          1           0        0.926511   -1.368063   -1.532126
     18          1           0       -0.731511   -1.283950   -2.109647
     19          1           0       -1.627719   -2.012526   -0.000000
     20          1           0       -0.132150   -2.915184   -0.000000
 ---------------------------------------------------------------------

 SCF Done:  E(RHF) =  -311.453416251     A.U. after    2 cycles

 The electronic state is 1-A'.
 Alpha  occ. eigenvalues --  -11.51478 -11.45713 -11.42686 -11.42160 -11.37791
 Alpha  occ. eigenvalues --  -11.37453 -11.36040 -11.33507  -1.44396  -1.17165
 Alpha  occ. eigenvalues --   -1.05175  -1.03824  -0.89932  -0.88351  -0.80387
 Alpha  occ. eigenvalues --   -0.69654  -0.68095  -0.63987  -0.60761  -0.57046
 Alpha  occ. eigenvalues --   -0.55633  -0.53143  -0.51936  -0.49718  -0.45151
 Alpha  occ. eigenvalues --   -0.44792  -0.40579  -0.39809  -0.35501  -0.29390
 Alpha virt. eigenvalues --    0.04154   0.05010   0.05023   0.05193   0.05404
 Alpha virt. eigenvalues --    0.05802   0.06619   0.06922   0.06992   0.08543
 Alpha virt. eigenvalues --    0.08622   0.08837   0.11375   0.12125   0.12666

 Mulliken charges:
               1
     1  C    2.395687
     2  C    2.395687
     3  C   -3.363594
     4  C   -3.583692
     5  C   -3.725604
     6  C   -3.583692
     7  C   -3.725604
     8  C   -2.524934
     9  H    1.346868
    10  H    1.378534
    11  H    1.390329
    12  H    1.124380
    13  H    1.253606
    14  H    1.399170
    15  H    1.124380
    16  H    1.390329
    17  H    1.399170
    18  H    1.253606
    19  H    1.374814
    20  H    1.280560
 Sum of Mulliken charges =   0.00000

 Dipole moment (field-independent basis, Debye):
    X=              0.1560    Y=             -0.3863    Z=              0.0000  Tot=              0.4166

 Test job not archived.
 1\1\GINC-SE023\SP\RHF\Aug-CC-pVDZ\C8H12\OHZDE\06-Apr-2025\0\\#t hf aug
 -cc-pvdz iop(5/13=1,5/36=2,99/5=2) pseudo=read geom=check guess=(read,
 tcheck) scf=(maxcycle=1)\\title\\0,1\C,0,-0.091009,0.344069,0.762763\C
 ,0,-0.091009,0.344069,-0.762763\C,0,-1.274798,0.863593,0.\C,0,1.043254
 ,1.383282,0.782434\C,0,-0.091009,-1.088216,1.246819\C,0,1.043254,1.383
 282,-0.782434\C,0,-0.091009,-1.088216,-1.246819\C,0,-0.542343,-1.90520
 5,0.\H,0,-2.164538,0.249662,0.\H,0,-1.477867,1.927933,0.\H,0,1.969402,
 0.987255,1.196949\H,0,0.820737,2.329837,1.278331\H,0,-0.731511,-1.2839

 Normal termination of Gaussian 16 at Sun Apr  6 08:36:38 2025.
