 Gaussian 16, Revision C.01,

 ----------------------------------------------------------------------
 #t hf aug-cc-pvdz symm=none int=(grid=ultrafine) guess=(read,tcheck) s
 table=(opt,rrhf)
 ----------------------------------------------------------------------
 -----
 title
 -----
 Symbolic Z-matrix:
 Charge =  0 Multiplicity = 1

 SCF Done:  E(RHF) =  -290.406148355     A.U. after   12 cycles

 1\1\GINC-SE036\Stability\RHF\Aug-CC-pVDZ\C6H15N1\OHZDE\06-Apr-2025\0\\
 #t hf aug-cc-pvdz symm=none int=(grid=ultrafine) guess=(read,tcheck) s
 table=(opt,rrhf)\\title\\0,1\C,0,0.303046,2.442712,-0.429029\C,0,-2.26
 6973,-0.95891,-0.429029\C,0,1.963927,-1.483802,-0.429029\C,0,-0.336477
 ,1.361557,0.436145\C,0,-1.010905,-0.972176,0.436145\C,0,1.347381,-0.38
 9381,0.436145\N,0,0.,0.,0.013396\H,0,1.392234,2.405845,-0.399061\H,0,-
 0.007763,2.331357,-1.46788\H,0,0.,3.431615,-0.080419\H,0,-2.77964,0.00
 2788,-0.399061\H,0,-2.015133,-1.172401,-1.46788\H,0,-2.971866,-1.71580

 Normal termination of Gaussian 16 at Sun Apr  6 08:37:10 2025.
 Gaussian 16:  ES64L-G16RevC.01  3-Jul-2019

 ----------------------------------------------------------------------
 #t hf aug-cc-pvdz iop(5/13=1,5/36=2,99/5=2) pseudo=read geom=check gue
 ss=(read,tcheck) scf=(maxcycle=1)
 ----------------------------------------------------------------------
 -----
 title
 -----
 Structure from the checkpoint file:  "triethylamine.chk"
 Charge =  0 Multiplicity = 1

                         Standard orientation:
 ---------------------------------------------------------------------
 Center     Atomic      Atomic             Coordinates (Angstroms)
 Number     Number       Type             X           Y           Z
 ---------------------------------------------------------------------
      1          6           0        2.270519   -0.950484   -0.429029
      2          6           0       -0.312116    2.441569   -0.429029
      3          6           0       -1.958403   -1.491085   -0.429029
      4          6           0        1.401854   -0.043122    0.436145
      5          6           0       -0.663582    1.235603    0.436145
      6          6           0       -0.738272   -1.192480    0.436145
      7          7           0       -0.000000   -0.000000    0.013396
      8          1           0        1.941325   -1.989388   -0.399061
      9          1           0        2.247097   -0.621161   -1.467880
     10          1           0        3.304508   -0.925315   -0.080419
     11          1           0        0.752198    2.675930   -0.399061
     12          1           0       -0.585607    2.256624   -1.467880
     13          1           0       -0.850907    3.324445   -0.080419
     14          1           0       -2.693523   -0.686543   -0.399061
     15          1           0       -1.661489   -1.635463   -1.467880
     16          1           0       -2.453600   -2.399131   -0.080419
     17          1           0        1.801335    0.968782    0.378135
     18          1           0        1.482601   -0.343497    1.495273
     19          1           0       -1.739658    1.075611    0.378135
     20          1           0       -0.443823    1.455718    1.495273
     21          1           0       -0.061677   -2.044393    0.378135
     22          1           0       -1.038777   -1.112222    1.495273
 ---------------------------------------------------------------------

 SCF Done:  E(RHF) =  -291.919744070     A.U. after    2 cycles

 The electronic state is 1-A.
 Alpha  occ. eigenvalues --  -15.68941 -11.41852 -11.41386 -11.41386 -11.35353
 Alpha  occ. eigenvalues --  -11.35353 -11.34654  -1.42752  -1.13741  -1.13741
 Alpha  occ. eigenvalues --   -1.03552  -0.89200  -0.89200  -0.79260  -0.64623
 Alpha  occ. eigenvalues --   -0.64623  -0.62649  -0.59094  -0.59094  -0.54069
 Alpha  occ. eigenvalues --   -0.51878  -0.50047  -0.50047  -0.47855  -0.47729
 Alpha  occ. eigenvalues --   -0.47729  -0.42428  -0.42428  -0.30295
 Alpha virt. eigenvalues --    0.04663   0.05189   0.05189   0.05470   0.05862
 Alpha virt. eigenvalues --    0.05862   0.06172   0.06509   0.06509   0.07711
 Alpha virt. eigenvalues --    0.08570   0.08604   0.08604   0.10218   0.10218

 Mulliken charges:
               1
     1  C   -3.483807
     2  C   -3.483804
     3  C   -3.483806
     4  C   -3.060704
     5  C   -3.060706
     6  C   -3.060701
     7  N   -1.933252
     8  H    1.380474
     9  H    1.342999
    10  H    1.046725
    11  H    1.380473
    12  H    1.342999
    13  H    1.046725
    14  H    1.380474
    15  H    1.342998
    16  H    1.046725
    17  H    1.763073
    18  H    1.655658
    19  H    1.763072
    20  H    1.655658
    21  H    1.763071
    22  H    1.655658
 Sum of Mulliken charges =   0.00000

 Dipole moment (field-independent basis, Debye):
    X=              0.0000    Y=              0.0000    Z=              0.3705  Tot=              0.3705

 Test job not archived.
 1\1\GINC-SE036\SP\RHF\Aug-CC-pVDZ\C6H15N1\OHZDE\06-Apr-2025\0\\#t hf a
 ug-cc-pvdz iop(5/13=1,5/36=2,99/5=2) pseudo=read geom=check guess=(rea
 d,tcheck) scf=(maxcycle=1)\\title\\0,1\C,0,0.303046,2.442712,-0.429029
 \C,0,-2.266973,-0.95891,-0.429029\C,0,1.963927,-1.483802,-0.429029\C,0
 ,-0.336477,1.361557,0.436145\C,0,-1.010905,-0.972176,0.436145\C,0,1.34
 7381,-0.389381,0.436145\N,0,0.,0.,0.013396\H,0,1.392234,2.405845,-0.39
 9061\H,0,-0.007763,2.331357,-1.46788\H,0,0.,3.431615,-0.080419\H,0,-2.
 77964,0.002788,-0.399061\H,0,-2.015133,-1.172401,-1.46788\H,0,-2.97186

 Normal termination of Gaussian 16 at Sun Apr  6 08:37:29 2025.
