 Gaussian 16, Revision C.01,

 ----------------------------------------------------------------------
 #t hf aug-cc-pvdz symm=none int=(grid=ultrafine) guess=(read,tcheck) s
 table=(opt,rrhf)
 ----------------------------------------------------------------------
 -----
 title
 -----
 Symbolic Z-matrix:
 Charge =  0 Multiplicity = 1

 SCF Done:  E(RHF) =  -411.704647489     A.U. after   11 cycles
 Normal termination of Gaussian 16 at Sun Apr  6 08:36:15 2025.
 Gaussian 16:  ES64L-G16RevC.01  3-Jul-2019

 ----------------------------------------------------------------------
 #t hf aug-cc-pvdz iop(5/13=1,5/36=2,99/5=2) pseudo=read geom=check gue
 ss=(read,tcheck) scf=(maxcycle=1)
 ----------------------------------------------------------------------
 -----
 title
 -----
 Structure from the checkpoint file:  "trifluoromethanol.chk"
 Charge =  0 Multiplicity = 1

                         Standard orientation:
 ---------------------------------------------------------------------
 Center     Atomic      Atomic             Coordinates (Angstroms)
 Number     Number       Type             X           Y           Z
 ---------------------------------------------------------------------
      1          6           0        0.001401    0.023882    0.000000
      2          8           0       -1.039480    0.879467    0.000000
      3          9           0        1.127698    0.728595    0.000000
      4          9           0        0.001401   -0.784388    1.081319
      5          9           0        0.001401   -0.784388   -1.081319
      6          1           0       -1.867070    0.382602    0.000000
 ---------------------------------------------------------------------

 SCF Done:  E(RHF) =  -413.180063861     A.U. after    2 cycles

 The electronic state is 1-A'.
 Alpha  occ. eigenvalues --  -29.32419 -29.31974 -29.31927 -21.14601 -11.61607
 Alpha  occ. eigenvalues --   -1.86088  -1.33054  -0.93947  -0.92023  -0.76920
 Alpha  occ. eigenvalues --   -0.55587  -0.48976  -0.46695  -0.44429  -0.44107
 Alpha  occ. eigenvalues --   -0.37616  -0.33914  -0.32857  -0.26638  -0.25193
 Alpha  occ. eigenvalues --   -0.22485
 Alpha virt. eigenvalues --    0.04196   0.11094   0.11807   0.12143   0.16757
 Alpha virt. eigenvalues --    0.18470   0.19557   0.21402   0.21790   0.22662
 Alpha virt. eigenvalues --    0.22751   0.29215   0.29378   0.31474   0.33703

 Mulliken charges:
               1
     1  C    0.066537
     2  O   -2.734729
     3  F    0.655758
     4  F    0.656126
     5  F    0.656126
     6  H    0.700182
 Sum of Mulliken charges =  -0.00000

 Dipole moment (field-independent basis, Debye):
    X=              0.9582    Y=             -1.4566    Z=              0.0000  Tot=              1.7435

 Test job not archived.
 1\1\GINC-SE103\SP\RHF\Aug-CC-pVDZ\C1H1F3O1\OHZDE\06-Apr-2025\0\\#t hf
 aug-cc-pvdz iop(5/13=1,5/36=2,99/5=2) pseudo=read geom=check guess=(re
 ad,tcheck) scf=(maxcycle=1)\\title\\0,1\C,0,0.001401,0.023882,0.\O,0,-
 1.03948,0.879467,0.\F,0,1.127698,0.728595,0.\F,0,0.001401,-0.784388,1.
 081319\F,0,0.001401,-0.784388,-1.081319\H,0,-1.86707,0.382602,0.\\Vers
 ion=ES64L-G16RevC.01\State=1-A'\HF=-413.1800639\RMSD=3.228e-02\Dipole=
 0.3769892,-0.5730656,0.\Quadrupole=1.6774794,-1.2355838,-0.4418956,1.3
 481606,0.,0.\PG=CS [SG(C1H1F1O1),X(F2)]\\@

 Normal termination of Gaussian 16 at Sun Apr  6 08:36:33 2025.
