 Gaussian 16, Revision C.01,

 ----------------------------------------------------------------------
 #t hf aug-cc-pvdz symm=none int=(grid=ultrafine) guess=(read,tcheck) s
 table=(opt,rrhf)
 ----------------------------------------------------------------------
 -----
 title
 -----
 Symbolic Z-matrix:
 Charge =  0 Multiplicity = 1

 SCF Done:  E(RHF) =  -428.530096294     A.U. after   12 cycles
 Normal termination of Gaussian 16 at Sun Apr  6 08:35:25 2025.
 Gaussian 16:  ES64L-G16RevC.01  3-Jul-2019

 ----------------------------------------------------------------------
 #t hf aug-cc-pvdz iop(5/13=1,5/36=2,99/5=2) pseudo=read geom=check gue
 ss=(read,tcheck) scf=(maxcycle=1)
 ----------------------------------------------------------------------
 -----
 title
 -----
 Structure from the checkpoint file:  "trifluoroacetonitrile.chk"
 Charge =  0 Multiplicity = 1

                         Standard orientation:
 ---------------------------------------------------------------------
 Center     Atomic      Atomic             Coordinates (Angstroms)
 Number     Number       Type             X           Y           Z
 ---------------------------------------------------------------------
      1          6           0        0.000000   -0.320697    0.000000
      2          6           0        0.000000    1.160968    0.000000
      3          7           0        0.000000    2.307595    0.000000
      4          9           0        1.253146   -0.784992    0.000000
      5          9           0       -0.626573   -0.784992    1.085256
      6          9           0       -0.626573   -0.784992   -1.085256
 ---------------------------------------------------------------------

 SCF Done:  E(RHF) =  -430.096407376     A.U. after    2 cycles

 The electronic state is 1-A'.
 Alpha  occ. eigenvalues --  -29.35705 -29.35705 -29.35640 -15.82737 -11.67489
 Alpha  occ. eigenvalues --  -11.47810  -1.49772  -1.33674  -0.94244  -0.94244
 Alpha  occ. eigenvalues --   -0.93444  -0.59425  -0.51806  -0.51729  -0.51729
 Alpha  occ. eigenvalues --   -0.47474  -0.47474  -0.39688  -0.39688  -0.36664
 Alpha  occ. eigenvalues --   -0.30002  -0.30002  -0.25514
 Alpha virt. eigenvalues --    0.07127   0.09990   0.11802   0.11802   0.12285
 Alpha virt. eigenvalues --    0.12285   0.13618   0.17118   0.17638   0.17638
 Alpha virt. eigenvalues --    0.20758   0.20758   0.22995   0.24082   0.26264

 Mulliken charges:
               1
     1  C    0.477663
     2  C    0.156767
     3  N   -1.996636
     4  F    0.454068
     5  F    0.454069
     6  F    0.454069
 Sum of Mulliken charges =  -0.00000

 Dipole moment (field-independent basis, Debye):
    X=             -0.0000    Y=             -4.5102    Z=             -0.0000  Tot=              4.5102

 Test job not archived.
 1\1\GINC-SE086\SP\RHF\Aug-CC-pVDZ\C2F3N1\OHZDE\06-Apr-2025\0\\#t hf au
 g-cc-pvdz iop(5/13=1,5/36=2,99/5=2) pseudo=read geom=check guess=(read
 ,tcheck) scf=(maxcycle=1)\\title\\0,1\C,0,0.,0.,-0.320697\C,0,0.,0.,1.
 160968\N,0,0.,0.,2.307595\F,0,0.,1.253146,-0.784992\F,0,1.085256,-0.62
 6573,-0.784992\F,0,-1.085256,-0.626573,-0.784992\\Version=ES64L-G16Rev
 C.01\State=1-A'\HF=-430.0964074\RMSD=1.744e-01\Dipole=0.,-0.0000002,-1
 .7744547\Quadrupole=1.8962655,1.896267,-3.7925325,0.,0.,0.0000005\PG=C
 S [SG(C2F1N1),X(F2)]\\@

 Normal termination of Gaussian 16 at Sun Apr  6 08:35:58 2025.
