 Gaussian 16, Revision C.01,

 ----------------------------------------------------------------------
 #t hf aug-cc-pvdz symm=none int=(grid=ultrafine) guess=(read,tcheck) s
 table=(opt,rrhf)
 ----------------------------------------------------------------------
 -----
 title
 -----
 Symbolic Z-matrix:
 Charge =  0 Multiplicity = 1

 SCF Done:  E(RHF) =  -566.388597755     A.U. after   14 cycles
 Normal termination of Gaussian 16 at Sun Apr  6 08:37:31 2025.
 Gaussian 16:  ES64L-G16RevC.01  3-Jul-2019

 ----------------------------------------------------------------------
 #t hf aug-cc-pvdz iop(5/13=1,5/36=2,99/5=2) pseudo=read geom=check gue
 ss=(read,tcheck) scf=(maxcycle=1)
 ----------------------------------------------------------------------
 -----
 title
 -----
 Structure from the checkpoint file:  "trifluoromethylbenzene.chk"
 Charge =  0 Multiplicity = 1

                         Standard orientation:
 ---------------------------------------------------------------------
 Center     Atomic      Atomic             Coordinates (Angstroms)
 Number     Number       Type             X           Y           Z
 ---------------------------------------------------------------------
      1          6           0       -2.830605   -0.004894    0.011148
      2          6           0       -2.141181    1.201669    0.001644
      3          6           0       -2.130097   -1.206446    0.001574
      4          6           0       -0.751864    1.211198   -0.016805
      5          6           0       -0.742127   -1.203364   -0.017162
      6          6           0       -0.054399    0.007588   -0.027137
      7          6           0        1.449778    0.003678   -0.003578
      8          9           0        1.974663    1.157149   -0.464769
      9          9           0        1.932309   -0.167372    1.251571
     10          9           0        1.967606   -0.995256   -0.750684
     11          1           0       -3.912035   -0.009776    0.023540
     12          1           0       -2.683315    2.137140    0.005948
     13          1           0       -2.664442   -2.146382    0.005924
     14          1           0       -0.213065    2.147199   -0.028956
     15          1           0       -0.195372   -2.135445   -0.029626
 ---------------------------------------------------------------------

 SCF Done:  E(RHF) =  -568.666850220     A.U. after    2 cycles

 The electronic state is 1-A.
 Alpha  occ. eigenvalues --  -29.30503 -29.30319 -29.29899 -11.61328 -11.53676
 Alpha  occ. eigenvalues --  -11.45304 -11.45277 -11.43119 -11.42440 -11.38330
 Alpha  occ. eigenvalues --   -1.45407  -1.32261  -1.11751  -1.10974  -0.91933
 Alpha  occ. eigenvalues --   -0.90292  -0.87210  -0.83974  -0.76914  -0.70428
 Alpha  occ. eigenvalues --   -0.63382  -0.60377  -0.58350  -0.52638  -0.50604
 Alpha  occ. eigenvalues --   -0.47200  -0.46453  -0.43092  -0.42856  -0.38806
 Alpha  occ. eigenvalues --   -0.36034  -0.34392  -0.32362  -0.29819  -0.24892
 Alpha  occ. eigenvalues --   -0.23880  -0.20745
 Alpha virt. eigenvalues --    0.03231   0.04903   0.04982   0.06731   0.06919
 Alpha virt. eigenvalues --    0.09648   0.10415   0.10583   0.10923   0.12095
 Alpha virt. eigenvalues --    0.12993   0.13289   0.13616   0.13816   0.14323

 Mulliken charges:
               1
     1  C   -3.074965
     2  C   -0.656101
     3  C   -0.682054
     4  C   -3.188865
     5  C   -3.267306
     6  C    2.657604
     7  C   -0.573757
     8  F    0.365836
     9  F    0.161563
    10  F    0.223289
    11  H    1.541184
    12  H    1.476490
    13  H    1.472226
    14  H    1.794838
    15  H    1.750017
 Sum of Mulliken charges =   0.00000

 Dipole moment (field-independent basis, Debye):
    X=              0.6171    Y=             -0.0353    Z=              0.0784  Tot=              0.6231

 Test job not archived.
 1\1\GINC-SE136\SP\RHF\Aug-CC-pVDZ\C7H5F3\OHZDE\06-Apr-2025\0\\#t hf au
 g-cc-pvdz iop(5/13=1,5/36=2,99/5=2) pseudo=read geom=check guess=(read
 ,tcheck) scf=(maxcycle=1)\\title\\0,1\C,0,-2.830605,-0.004894,0.011148
 \C,0,-2.141181,1.201669,0.001644\C,0,-2.130097,-1.206446,0.001574\C,0,
 -0.751864,1.211198,-0.016805\C,0,-0.742127,-1.203364,-0.017162\C,0,-0.
 054399,0.007588,-0.027137\C,0,1.449778,0.003678,-0.003578\F,0,1.974663
 ,1.157149,-0.464769\F,0,1.932309,-0.167372,1.251571\F,0,1.967606,-0.99
 5256,-0.750684\H,0,-3.912035,-0.009776,0.02354\H,0,-2.683315,2.13714,0

 Normal termination of Gaussian 16 at Sun Apr  6 08:38:41 2025.
