 Gaussian 16, Revision C.01,

 ----------------------------------------------------------------------
 #t hf aug-cc-pvdz symm=none int=(grid=ultrafine) guess=(read,tcheck) s
 table=(opt,rrhf)
 ----------------------------------------------------------------------
 -----
 title
 -----
 Symbolic Z-matrix:
 Charge =  0 Multiplicity = 1

 SCF Done:  E(RHF) =  -336.814121303     A.U. after   10 cycles
 Normal termination of Gaussian 16 at Sun Apr  6 08:35:24 2025.
 Gaussian 16:  ES64L-G16RevC.01  3-Jul-2019

 ----------------------------------------------------------------------
 #t hf aug-cc-pvdz iop(5/13=1,5/36=2,99/5=2) pseudo=read geom=check gue
 ss=(read,tcheck) scf=(maxcycle=1)
 ----------------------------------------------------------------------
 -----
 title
 -----
 Structure from the checkpoint file:  "trifluoromethane.chk"
 Charge =  0 Multiplicity = 1

                         Standard orientation:
 ---------------------------------------------------------------------
 Center     Atomic      Atomic             Coordinates (Angstroms)
 Number     Number       Type             X           Y           Z
 ---------------------------------------------------------------------
      1          6           0        0.272800    0.203667    0.000000
      2          9           0       -0.854717    0.929897    0.000000
      3          9           0        0.272800   -0.580339    1.088134
      4          9           0        0.272800   -0.580339   -1.088134
      5          1           0        1.145257    0.855030    0.000000
 ---------------------------------------------------------------------

 SCF Done:  E(RHF) =  -337.997533891     A.U. after    2 cycles

 The electronic state is 1-A'.
 Alpha  occ. eigenvalues --  -29.31661 -29.31661 -29.31596 -11.57901  -1.39908
 Alpha  occ. eigenvalues --   -0.87296  -0.87296  -0.81378  -0.48710  -0.43942
 Alpha  occ. eigenvalues --   -0.43942  -0.36640  -0.36640  -0.31329  -0.26839
 Alpha  occ. eigenvalues --   -0.26839  -0.22049
 Alpha virt. eigenvalues --    0.04118   0.10012   0.11518   0.11518   0.20148
 Alpha virt. eigenvalues --    0.22259   0.22616   0.22616   0.24632   0.24632
 Alpha virt. eigenvalues --    0.30718   0.32642   0.33951   0.33951   0.34674

 Mulliken charges:
               1
     1  C   -2.566843
     2  F    0.481337
     3  F    0.481337
     4  F    0.481337
     5  H    1.122831
 Sum of Mulliken charges =  -0.00000

 Dipole moment (field-independent basis, Debye):
    X=             -0.8919    Y=             -0.6659    Z=              0.0000  Tot=              1.1130

 Test job not archived.
 1\1\GINC-SE108\SP\RHF\Aug-CC-pVDZ\C1H1F3\OHZDE\06-Apr-2025\0\\#t hf au
 g-cc-pvdz iop(5/13=1,5/36=2,99/5=2) pseudo=read geom=check guess=(read
 ,tcheck) scf=(maxcycle=1)\\title\\0,1\C,0,0.,0.,0.340441\F,0,0.,1.2564
 69,-0.128588\F,0,-1.088134,-0.628234,-0.128588\F,0,1.088134,-0.628234,
 -0.128588\H,0,0.,0.,1.429227\\Version=ES64L-G16RevC.01\State=1-A'\HF=-
 337.9975339\RMSD=4.985e-02\Dipole=0.,0.,-0.4378974\Quadrupole=0.332820
 6,0.3328162,-0.6656368,0.,0.,0.\PG=CS [SG(C1H1F1),X(F2)]\\@

 Normal termination of Gaussian 16 at Sun Apr  6 08:35:58 2025.
