 Gaussian 16, Revision C.01,

 ----------------------------------------------------------------------
 #t hf aug-cc-pvdz symm=none int=(grid=ultrafine) guess=(read,tcheck) s
 table=(opt,rrhf)
 ----------------------------------------------------------------------
 -----
 title
 -----
 Symbolic Z-matrix:
 Charge =  0 Multiplicity = 1

 SCF Done:  E(RHF) =  -449.542685537     A.U. after   13 cycles
 Normal termination of Gaussian 16 at Sun Apr  6 08:35:30 2025.
 Gaussian 16:  ES64L-G16RevC.01  3-Jul-2019

 ----------------------------------------------------------------------
 #t hf aug-cc-pvdz iop(5/13=1,5/36=2,99/5=2) pseudo=read geom=check gue
 ss=(read,tcheck) scf=(maxcycle=1)
 ----------------------------------------------------------------------
 -----
 title
 -----
 Structure from the checkpoint file:  "trifluoroacetaldehyde.chk"
 Charge =  0 Multiplicity = 1

                         Standard orientation:
 ---------------------------------------------------------------------
 Center     Atomic      Atomic             Coordinates (Angstroms)
 Number     Number       Type             X           Y           Z
 ---------------------------------------------------------------------
      1          6           0        0.015025    0.360286    0.000000
      2          6           0        0.501815   -1.106329    0.000000
      3          8           0       -0.245494   -2.035813    0.000000
      4          9           0       -1.307957    0.464386    0.000000
      5          9           0        0.501815    0.987853    1.088479
      6          9           0        0.501815    0.987853   -1.088479
      7          1           0        1.601854   -1.198064    0.000000
 ---------------------------------------------------------------------

 SCF Done:  E(RHF) =  -451.179324705     A.U. after    2 cycles

 The electronic state is 1-A'.
 Alpha  occ. eigenvalues --  -29.33489 -29.33460 -29.33326 -21.12510 -11.62254
 Alpha  occ. eigenvalues --  -11.52276  -1.76951  -1.43466  -0.98171  -0.90706
 Alpha  occ. eigenvalues --   -0.90195  -0.75578  -0.58957  -0.50957  -0.50280
 Alpha  occ. eigenvalues --   -0.45823  -0.45672  -0.40763  -0.38101  -0.37906
 Alpha  occ. eigenvalues --   -0.29098  -0.28032  -0.27793  -0.23672
 Alpha virt. eigenvalues --    0.04212   0.09620   0.10599   0.10847   0.11398
 Alpha virt. eigenvalues --    0.12681   0.12747   0.14436   0.15976   0.20683
 Alpha virt. eigenvalues --    0.21197   0.21516   0.24132   0.24740   0.26811

 Mulliken charges:
               1
     1  C   -0.667631
     2  C    0.207835
     3  O   -2.447150
     4  F    0.590265
     5  F    0.448927
     6  F    0.448927
     7  H    1.418827
 Sum of Mulliken charges =  -0.00000

 Dipole moment (field-independent basis, Debye):
    X=             -0.0283    Y=              2.0617    Z=             -0.0000  Tot=              2.0619

 Test job not archived.
 1\1\GINC-SE044\SP\RHF\Aug-CC-pVDZ\C2H1F3O1\OHZDE\06-Apr-2025\0\\#t hf
 aug-cc-pvdz iop(5/13=1,5/36=2,99/5=2) pseudo=read geom=check guess=(re
 ad,tcheck) scf=(maxcycle=1)\\title\\0,1\C,0,0.015025,0.360286,0.\C,0,0
 .501815,-1.106329,0.\O,0,-0.245494,-2.035813,0.\F,0,-1.307957,0.464386
 ,0.\F,0,0.501815,0.987853,1.088479\F,0,0.501815,0.987853,-1.088479\H,0
 ,1.601854,-1.198064,0.\\Version=ES64L-G16RevC.01\State=1-A'\HF=-451.17
 93247\RMSD=1.506e-01\Dipole=-0.0111484,0.8111279,0.\Quadrupole=0.66602
 7,-1.3216291,0.655602,-0.4506369,0.,0.\PG=CS [SG(C2H1F1O1),X(F2)]\\@

 Normal termination of Gaussian 16 at Sun Apr  6 08:36:00 2025.
