 Gaussian 16, Revision C.01,

 ----------------------------------------------------------------------
 #t hf aug-cc-pvdz symm=none int=(grid=ultrafine) guess=(read,tcheck) s
 table=(opt,rrhf)
 ----------------------------------------------------------------------
 -----
 title
 -----
 Symbolic Z-matrix:
 Charge =  0 Multiplicity = 1

 SCF Done:  E(RHF) =  -524.447135685     A.U. after   13 cycles
 Normal termination of Gaussian 16 at Sun Apr  6 08:35:29 2025.
 Gaussian 16:  ES64L-G16RevC.01  3-Jul-2019

 ----------------------------------------------------------------------
 #t hf aug-cc-pvdz iop(5/13=1,5/36=2,99/5=2) pseudo=read geom=check gue
 ss=(read,tcheck) scf=(maxcycle=1)
 ----------------------------------------------------------------------
 -----
 title
 -----
 Structure from the checkpoint file:  "trifluoroacetic_acid.chk"
 Charge =  0 Multiplicity = 1

                         Standard orientation:
 ---------------------------------------------------------------------
 Center     Atomic      Atomic             Coordinates (Angstroms)
 Number     Number       Type             X           Y           Z
 ---------------------------------------------------------------------
      1          6           0        0.085896    0.594059    0.000000
      2          6           0       -0.294386   -0.910548    0.000000
      3          8           0        0.812941   -1.659252    0.000000
      4          8           0       -1.420191   -1.307503    0.000000
      5          9           0       -1.007987    1.348927    0.000000
      6          9           0        0.812941    0.893583    1.087792
      7          9           0        0.812941    0.893583   -1.087792
      8          1           0        0.547878   -2.591865    0.000000
 ---------------------------------------------------------------------

 SCF Done:  E(RHF) =  -526.375417709     A.U. after    2 cycles

 The electronic state is 1-A'.
 Alpha  occ. eigenvalues --  -29.33365 -29.33335 -29.33158 -21.16731 -21.10697
 Alpha  occ. eigenvalues --  -11.63469 -11.55634  -1.87548  -1.71035  -1.43608
 Alpha  occ. eigenvalues --   -0.96446  -0.91433  -0.90861  -0.73314  -0.64668
 Alpha  occ. eigenvalues --   -0.59522  -0.53744  -0.49480  -0.45998  -0.45278
 Alpha  occ. eigenvalues --   -0.40445  -0.38751  -0.37579  -0.36977  -0.29420
 Alpha  occ. eigenvalues --   -0.27935  -0.26664  -0.23375
 Alpha virt. eigenvalues --    0.03706   0.09419   0.10701   0.11108   0.12479
 Alpha virt. eigenvalues --    0.12683   0.12773   0.14039   0.16854   0.18423
 Alpha virt. eigenvalues --    0.19892   0.20120   0.20885   0.23844   0.24181

 Mulliken charges:
               1
     1  C   -0.627262
     2  C    3.441825
     3  O   -2.548993
     4  O   -2.594376
     5  F    0.589675
     6  F    0.467357
     7  F    0.467357
     8  H    0.804416
 Sum of Mulliken charges =  -0.00000

 Dipole moment (field-independent basis, Debye):
    X=              1.4079    Y=              1.0128    Z=              0.0000  Tot=              1.7344

 Test job not archived.
 1\1\GINC-SE055\SP\RHF\Aug-CC-pVDZ\C2H1F3O2\OHZDE\06-Apr-2025\0\\#t hf
 aug-cc-pvdz iop(5/13=1,5/36=2,99/5=2) pseudo=read geom=check guess=(re
 ad,tcheck) scf=(maxcycle=1)\\title\\0,1\C,0,0.085896,0.594059,0.\C,0,-
 0.294386,-0.910548,0.\O,0,0.812941,-1.659252,0.\O,0,-1.420191,-1.30750
 3,0.\F,0,-1.007987,1.348927,0.\F,0,0.812941,0.893583,1.087792\F,0,0.81
 2941,0.893583,-1.087792\H,0,0.547878,-2.591865,0.\\Version=ES64L-G16Re
 vC.01\State=1-A'\HF=-526.3754177\RMSD=1.566e-01\Dipole=0.5539299,0.398
 4708,0.\Quadrupole=-2.4733143,2.7843489,-0.3110345,-1.5205688,0.,0.\PG

 Normal termination of Gaussian 16 at Sun Apr  6 08:35:59 2025.
