 Gaussian 16, Revision C.01,

 ----------------------------------------------------------------------
 #t hf aug-cc-pvdz symm=none int=(grid=ultrafine) guess=(read,tcheck) s
 table=(opt,rrhf)
 ----------------------------------------------------------------------
 -----
 title
 -----
 Symbolic Z-matrix:
 Charge =  0 Multiplicity = 1

 SCF Done:  E(RHF) =  -510.414028677     A.U. after   14 cycles
 Normal termination of Gaussian 16 at Sun Apr  6 08:36:18 2025.
 Gaussian 16:  ES64L-G16RevC.01  3-Jul-2019

 ----------------------------------------------------------------------
 #t hf aug-cc-pvdz iop(5/13=1,5/36=2,99/5=2) pseudo=read geom=check gue
 ss=(read,tcheck) scf=(maxcycle=1)
 ----------------------------------------------------------------------
 -----
 title
 -----
 Structure from the checkpoint file:  "trifluoromethylhypofluorite.chk"
 Charge =  0 Multiplicity = 1

                         Standard orientation:
 ---------------------------------------------------------------------
 Center     Atomic      Atomic             Coordinates (Angstroms)
 Number     Number       Type             X           Y           Z
 ---------------------------------------------------------------------
      1          6           0        0.328492    0.194175    0.000000
      2          8           0       -1.058695    0.337244    0.000000
      3          9           0        0.765646    1.447109    0.000000
      4          9           0        0.765646   -0.443615    1.077970
      5          9           0        0.765646   -0.443615   -1.077970
      6          9           0       -1.574869   -0.989103    0.000000
 ---------------------------------------------------------------------

 SCF Done:  E(RHF) =  -512.205968490     A.U. after    2 cycles

 The electronic state is 1-A'.
 Alpha  occ. eigenvalues --  -29.35704 -29.35116 -29.35057 -29.35013 -21.21172
 Alpha  occ. eigenvalues --  -11.64390  -1.93220  -1.38077  -0.98837  -0.96368
 Alpha  occ. eigenvalues --   -0.82461  -0.66444  -0.55712  -0.51477  -0.47666
 Alpha  occ. eigenvalues --   -0.47455  -0.45071  -0.38693  -0.38022  -0.36226
 Alpha  occ. eigenvalues --   -0.31057  -0.29075  -0.27870  -0.26510  -0.24672
 Alpha virt. eigenvalues --    0.10288   0.11514   0.11592   0.15119   0.16443
 Alpha virt. eigenvalues --    0.20269   0.20893   0.21060   0.21628   0.22429
 Alpha virt. eigenvalues --    0.24903   0.29105   0.30172   0.31080   0.32543

 Mulliken charges:
               1
     1  C   -0.624500
     2  O   -1.502615
     3  F    0.687481
     4  F    0.717932
     5  F    0.717932
     6  F    0.003770
 Sum of Mulliken charges =   0.00000

 Dipole moment (field-independent basis, Debye):
    X=              1.5830    Y=             -1.1939    Z=              0.0000  Tot=              1.9827

 Test job not archived.
 1\1\GINC-SE009\SP\RHF\Aug-CC-pVDZ\C1F4O1\OHZDE\06-Apr-2025\0\\#t hf au
 g-cc-pvdz iop(5/13=1,5/36=2,99/5=2) pseudo=read geom=check guess=(read
 ,tcheck) scf=(maxcycle=1)\\title\\0,1\C,0,0.328492,0.194175,0.\O,0,-1.
 058695,0.337244,0.\F,0,0.765646,1.447109,0.\F,0,0.765646,-0.443615,1.0
 7797\F,0,0.765646,-0.443615,-1.07797\F,0,-1.574869,-0.989103,0.\\Versi
 on=ES64L-G16RevC.01\State=1-A'\HF=-512.2059685\RMSD=3.153e-02\Dipole=0
 .6227892,-0.4696997,0.\Quadrupole=-0.5708291,0.620319,-0.0494899,1.382
 3061,0.,0.\PG=CS [SG(C1F2O1),X(F2)]\\@

 Normal termination of Gaussian 16 at Sun Apr  6 08:36:34 2025.
