 Gaussian 16, Revision C.01,

 ----------------------------------------------------------------------
 #t hf aug-cc-pvdz symm=none int=(grid=ultrafine) guess=(read,tcheck) s
 table=(opt,rrhf)
 ----------------------------------------------------------------------
 -----
 title
 -----
 Symbolic Z-matrix:
 Charge =  0 Multiplicity = 1

 SCF Done:  E(RHF) =  -908.470910580     A.U. after   13 cycles
 Normal termination of Gaussian 16 at Sun Apr  6 08:35:30 2025.
 Gaussian 16:  ES64L-G16RevC.01  3-Jul-2019

 ----------------------------------------------------------------------
 #t hf aug-cc-pvdz iop(5/13=1,5/36=2,99/5=2) pseudo=read geom=check gue
 ss=(read,tcheck) scf=(maxcycle=1)
 ----------------------------------------------------------------------
 -----
 title
 -----
 Structure from the checkpoint file:  "trifluoroacetylchloride.chk"
 Charge =  0 Multiplicity = 1

                         Standard orientation:
 ---------------------------------------------------------------------
 Center     Atomic      Atomic             Coordinates (Angstroms)
 Number     Number       Type             X           Y           Z
 ---------------------------------------------------------------------
      1          6           0        0.542207   -0.688625    0.000000
      2          6           0        0.081178    0.798349    0.000000
      3          8           0        0.821365    1.714338    0.000000
      4          9           0        1.870099   -0.749751    0.000000
      5          9           0        0.081178   -1.316809    1.087399
      6          9           0        0.081178   -1.316809   -1.087399
      7         17           0       -1.682548    0.945722    0.000000
 ---------------------------------------------------------------------

 SCF Done:  E(RHF) =  -910.342352648     A.U. after    2 cycles

 The electronic state is 1-A'.
 Alpha  occ. eigenvalues --  -99.94226 -29.34720 -29.34688 -29.34460 -21.14818
 Alpha  occ. eigenvalues --  -11.64329 -11.57810 -10.51621  -9.71464  -9.70677
 Alpha  occ. eigenvalues --   -9.70569  -1.80719  -1.46422  -1.35885  -0.97563
 Alpha  occ. eigenvalues --   -0.92988  -0.92544  -0.77027  -0.62551  -0.62526
 Alpha  occ. eigenvalues --   -0.56399  -0.50761  -0.50122  -0.46844  -0.45923
 Alpha  occ. eigenvalues --   -0.43666  -0.39486  -0.39077  -0.32187  -0.29346
 Alpha  occ. eigenvalues --   -0.28466  -0.24656
 Alpha virt. eigenvalues --    0.05541   0.08225   0.09875   0.09915   0.11112
 Alpha virt. eigenvalues --    0.12281   0.12489   0.12704   0.13513   0.15192
 Alpha virt. eigenvalues --    0.15919   0.18164   0.19068   0.21819   0.22857

 Mulliken charges:
               1
     1  C   -0.387645
     2  C    0.842587
     3  O   -2.321156
     4  F    0.681336
     5  F    0.546103
     6  F    0.546103
     7  Cl   0.092671
 Sum of Mulliken charges =   0.00000

 Dipole moment (field-independent basis, Debye):
    X=              2.3820    Y=             -2.5568    Z=             -0.0000  Tot=              3.4944

 Test job not archived.
 1\1\GINC-SE104\SP\RHF\Aug-CC-pVDZ\C2Cl1F3O1\OHZDE\06-Apr-2025\0\\#t hf
  aug-cc-pvdz iop(5/13=1,5/36=2,99/5=2) pseudo=read geom=check guess=(r
 ead,tcheck) scf=(maxcycle=1)\\title\\0,1\C,0,0.542207,-0.688625,0.\C,0
 ,0.081178,0.798349,0.\O,0,0.821365,1.714338,0.\F,0,1.870099,-0.749751,
 0.\F,0,0.081178,-1.316809,1.087399\F,0,0.081178,-1.316809,-1.087399\Cl
 ,0,-1.682548,0.945722,0.\\Version=ES64L-G16RevC.01\State=1-A'\HF=-910.
 3423526\RMSD=1.256e-01\Dipole=0.9371698,-1.0059041,0.\Quadrupole=-0.10
 98358,0.0291399,0.0806959,0.2072452,0.,0.\PG=CS [SG(C2Cl1F1O1),X(F2)]\

 Normal termination of Gaussian 16 at Sun Apr  6 08:35:59 2025.
