 Gaussian 16, Revision C.01,

 ----------------------------------------------------------------------
 #t hf aug-cc-pvdz symm=none int=(grid=ultrafine) guess=(read,tcheck) s
 table=(opt,rrhf)
 ----------------------------------------------------------------------
 -----
 title
 -----
 Symbolic Z-matrix:
 Charge =  0 Multiplicity = 1

 SCF Done:  E(RHF) =  -230.580552645     A.U. after   11 cycles
 Normal termination of Gaussian 16 at Sun Apr  6 08:38:46 2025.
 Gaussian 16:  ES64L-G16RevC.01  3-Jul-2019

 ----------------------------------------------------------------------
 #t hf aug-cc-pvdz iop(5/13=1,5/36=2,99/5=2) pseudo=read geom=check gue
 ss=(read,tcheck) scf=(maxcycle=1)
 ----------------------------------------------------------------------
 -----
 title
 -----
 Structure from the checkpoint file:  "trimethylenecyclopropane.chk"
 Charge =  0 Multiplicity = 1

                         Standard orientation:
 ---------------------------------------------------------------------
 Center     Atomic      Atomic             Coordinates (Angstroms)
 Number     Number       Type             X           Y           Z
 ---------------------------------------------------------------------
      1          6           0        0.000000    0.000000    0.830500
      2          6           0        0.000000    0.719234   -0.415250
      3          6           0       -0.000000   -0.719234   -0.415250
      4          6           0        0.000000    0.000000    2.159401
      5          6           0        0.000000    1.870096   -1.079700
      6          6           0       -0.000000   -1.870096   -1.079700
      7          1           0        0.000000   -0.925056    2.719957
      8          1           0        0.000000    0.925056    2.719957
      9          1           0        0.000000    2.818080   -0.558856
     10          1           0        0.000000    1.893024   -2.161100
     11          1           0       -0.000000   -1.893024   -2.161100
     12          1           0       -0.000000   -2.818080   -0.558856
 ---------------------------------------------------------------------

 SCF Done:  E(RHF) =  -231.685253006     A.U. after    2 cycles

 The electronic state is 1-A1.
 Alpha  occ. eigenvalues --  -11.45689 -11.45689 -11.42042 -11.41891 -11.41891
 Alpha  occ. eigenvalues --  -11.39197  -1.34459  -1.07452  -1.07452  -0.98722
 Alpha  occ. eigenvalues --   -0.72176  -0.72176  -0.61055  -0.61055  -0.60941
 Alpha  occ. eigenvalues --   -0.58839  -0.51729  -0.41144  -0.41144  -0.31847
 Alpha  occ. eigenvalues --   -0.31847
 Alpha virt. eigenvalues --    0.02747   0.05435   0.05435   0.05829   0.05869
 Alpha virt. eigenvalues --    0.05869   0.07551   0.09701   0.12710   0.12710
 Alpha virt. eigenvalues --    0.12836   0.12836   0.13765   0.14217   0.14413

 Mulliken charges:
               1
     1  C    1.926941
     2  C    1.926936
     3  C    1.926936
     4  C   -4.400389
     5  C   -4.400389
     6  C   -4.400389
     7  H    1.236726
     8  H    1.236726
     9  H    1.236726
    10  H    1.236725
    11  H    1.236725
    12  H    1.236726
 Sum of Mulliken charges =  -0.00000

 Dipole moment (field-independent basis, Debye):
    X=              0.0000    Y=             -0.0000    Z=             -0.0000  Tot=              0.0000

 Test job not archived.
 1\1\GINC-SE009\SP\RHF\Aug-CC-pVDZ\C6H6\OHZDE\06-Apr-2025\0\\#t hf aug-
 cc-pvdz iop(5/13=1,5/36=2,99/5=2) pseudo=read geom=check guess=(read,t
 check) scf=(maxcycle=1)\\title\\0,1\C,0,0.,0.8305,0.\C,0,0.719234,-0.4
 1525,0.\C,0,-0.719234,-0.41525,0.\C,0,0.,2.159401,0.\C,0,1.870096,-1.0
 797,0.\C,0,-1.870096,-1.0797,0.\H,0,-0.925056,2.719957,0.\H,0,0.925056
 ,2.719957,0.\H,0,2.81808,-0.558856,0.\H,0,1.893024,-2.1611,0.\H,0,-1.8
 93024,-2.1611,0.\H,0,-2.81808,-0.558856,0.\\Version=ES64L-G16RevC.01\S
 tate=1-A1\HF=-231.685253\RMSD=1.398e+00\Dipole=0.,-0.0000003,0.\Quadru

 Normal termination of Gaussian 16 at Sun Apr  6 08:38:50 2025.
