 Gaussian 16, Revision C.01,

 ----------------------------------------------------------------------
 #t hf aug-cc-pvdz symm=none int=(grid=ultrafine) guess=(read,tcheck) s
 table=(opt,rrhf)
 ----------------------------------------------------------------------
 -----
 title
 -----
 Symbolic Z-matrix:
 Charge =  0 Multiplicity = 1

 SCF Done:  E(RHF) =  -381.899539883     A.U. after   12 cycles

 1\1\GINC-SE023\Stability\RHF\Aug-CC-pVDZ\C4H10O3\OHZDE\06-Apr-2025\0\\
 #t hf aug-cc-pvdz symm=none int=(grid=ultrafine) guess=(read,tcheck) s
 table=(opt,rrhf)\\title\\0,1\C,0,0.000002,-0.367307,0.256085\O,0,-0.00
 0002,0.965131,0.702169\C,0,-0.000007,1.95647,-0.327711\O,0,-1.098087,-
 0.677695,-0.536994\C,0,-2.334659,-0.671033,0.163443\O,0,1.098092,-0.67
 7688,-0.536995\C,0,2.334663,-0.671026,0.163443\H,0,0.000003,-0.955286,
 1.185152\H,0,-0.000019,2.916553,0.181998\H,0,0.887101,1.876333,-0.9574
 16\H,0,-0.887109,1.876316,-0.957423\H,0,-2.319311,-1.383477,0.994703\H

 Normal termination of Gaussian 16 at Sun Apr  6 08:39:14 2025.
 Gaussian 16:  ES64L-G16RevC.01  3-Jul-2019

 ----------------------------------------------------------------------
 #t hf aug-cc-pvdz iop(5/13=1,5/36=2,99/5=2) pseudo=read geom=check gue
 ss=(read,tcheck) scf=(maxcycle=1)
 ----------------------------------------------------------------------
 -----
 title
 -----
 Structure from the checkpoint file:  "trimethylorthoformate.chk"
 Charge =  0 Multiplicity = 1

                         Standard orientation:
 ---------------------------------------------------------------------
 Center     Atomic      Atomic             Coordinates (Angstroms)
 Number     Number       Type             X           Y           Z
 ---------------------------------------------------------------------
      1          6           0        0.000002   -0.367307    0.256085
      2          8           0       -0.000002    0.965131    0.702169
      3          6           0       -0.000007    1.956470   -0.327711
      4          8           0       -1.098087   -0.677695   -0.536994
      5          6           0       -2.334659   -0.671033    0.163443
      6          8           0        1.098092   -0.677688   -0.536995
      7          6           0        2.334663   -0.671026    0.163443
      8          1           0        0.000003   -0.955286    1.185152
      9          1           0       -0.000019    2.916553    0.181998
     10          1           0        0.887101    1.876333   -0.957416
     11          1           0       -0.887109    1.876316   -0.957423
     12          1           0       -2.319311   -1.383477    0.994703
     13          1           0       -2.574558    0.320771    0.552376
     14          1           0       -3.094725   -0.974563   -0.551733
     15          1           0        2.574558    0.320777    0.552383
     16          1           0        2.319318   -1.383476    0.994698
     17          1           0        3.094731   -0.974549   -0.551734
 ---------------------------------------------------------------------

 SCF Done:  E(RHF) =  -383.603298183     A.U. after    2 cycles

 The electronic state is 1-A.
 Alpha  occ. eigenvalues --  -21.04995 -21.04962 -21.04709 -11.48226 -11.41013
 Alpha  occ. eigenvalues --  -11.40689 -11.39825  -1.87244  -1.69816  -1.69700
 Alpha  occ. eigenvalues --   -1.05479  -0.99482  -0.96117  -0.84115  -0.69548
 Alpha  occ. eigenvalues --   -0.66353  -0.63211  -0.61687  -0.59200  -0.59045
 Alpha  occ. eigenvalues --   -0.58266  -0.52681  -0.49000  -0.45266  -0.43392
 Alpha  occ. eigenvalues --   -0.36051  -0.31947  -0.30000  -0.29251
 Alpha virt. eigenvalues --    0.03704   0.04997   0.05184   0.05370   0.05394
 Alpha virt. eigenvalues --    0.06170   0.06806   0.07770   0.08200   0.09395
 Alpha virt. eigenvalues --    0.10861   0.13178   0.13294   0.14888   0.14928

 Mulliken charges:
               1
     1  C    4.821911
     2  O   -3.143837
     3  C   -3.210488
     4  O   -3.131307
     5  C   -3.229469
     6  O   -3.131303
     7  C   -3.229464
     8  H    2.305517
     9  H    1.185593
    10  H    1.406613
    11  H    1.406614
    12  H    1.252875
    13  H    1.421968
    14  H    1.299970
    15  H    1.421963
    16  H    1.252875
    17  H    1.299970
 Sum of Mulliken charges =  -0.00000

 Dipole moment (field-independent basis, Debye):
    X=             -0.0000    Y=              0.0424    Z=              0.1727  Tot=              0.1779

 Test job not archived.
 1\1\GINC-SE023\SP\RHF\Aug-CC-pVDZ\C4H10O3\OHZDE\06-Apr-2025\0\\#t hf a
 ug-cc-pvdz iop(5/13=1,5/36=2,99/5=2) pseudo=read geom=check guess=(rea
 d,tcheck) scf=(maxcycle=1)\\title\\0,1\C,0,0.000002,-0.367307,0.256085
 \O,0,-0.000002,0.965131,0.702169\C,0,-0.000007,1.95647,-0.327711\O,0,-
 1.098087,-0.677695,-0.536994\C,0,-2.334659,-0.671033,0.163443\O,0,1.09
 8092,-0.677688,-0.536995\C,0,2.334663,-0.671026,0.163443\H,0,0.000003,
 -0.955286,1.185152\H,0,-0.000019,2.916553,0.181998\H,0,0.887101,1.8763
 33,-0.957416\H,0,-0.887109,1.876316,-0.957423\H,0,-2.319311,-1.383477,

 Normal termination of Gaussian 16 at Sun Apr  6 08:39:54 2025.
