 Gaussian 16, Revision C.01,

 ----------------------------------------------------------------------
 #t hf aug-cc-pvdz symm=none int=(grid=ultrafine) guess=(read,tcheck) s
 table=(opt,rrhf)
 ----------------------------------------------------------------------
 -----
 title
 -----
 Symbolic Z-matrix:
 Charge =  0 Multiplicity = 1

 SCF Done:  E(RHF) =  -173.290866079     A.U. after   11 cycles
 Normal termination of Gaussian 16 at Sun Apr  6 08:37:37 2025.
 Gaussian 16:  ES64L-G16RevC.01  3-Jul-2019

 ----------------------------------------------------------------------
 #t hf aug-cc-pvdz iop(5/13=1,5/36=2,99/5=2) pseudo=read geom=check gue
 ss=(read,tcheck) scf=(maxcycle=1)
 ----------------------------------------------------------------------
 -----
 title
 -----
 Structure from the checkpoint file:  "trimethylamine.chk"
 Charge =  0 Multiplicity = 1

                         Standard orientation:
 ---------------------------------------------------------------------
 Center     Atomic      Atomic             Coordinates (Angstroms)
 Number     Number       Type             X           Y           Z
 ---------------------------------------------------------------------
      1          6           0        0.776660    1.152667    0.000000
      2          6           0       -0.312191   -0.623022    1.202590
      3          6           0       -0.312191   -0.623022   -1.202590
      4          7           0       -0.312191    0.191436    0.000000
      5          1           0        0.709076    1.788801   -0.882915
      6          1           0        1.771654    0.673094    0.000000
      7          1           0        0.709076    1.788801    0.882915
      8          1           0       -0.377593    0.016672    2.083094
      9          1           0        0.595532   -1.244915    1.298977
     10          1           0       -1.177003   -1.287000    1.200179
     11          1           0       -1.177003   -1.287000   -1.200179
     12          1           0        0.595532   -1.244915   -1.298977
     13          1           0       -0.377593    0.016672   -2.083094
 ---------------------------------------------------------------------

 SCF Done:  E(RHF) =  -174.183601238     A.U. after    2 cycles

 The electronic state is 1-A'.
 Alpha  occ. eigenvalues --  -15.69860 -11.37632 -11.37632 -11.36664  -1.41587
 Alpha  occ. eigenvalues --   -1.02576  -1.02576  -0.83087  -0.64259  -0.62267
 Alpha  occ. eigenvalues --   -0.62267  -0.53893  -0.53893  -0.50857  -0.47376
 Alpha  occ. eigenvalues --   -0.47376  -0.30437
 Alpha virt. eigenvalues --    0.03882   0.05743   0.05743   0.06280   0.06524
 Alpha virt. eigenvalues --    0.06524   0.07273   0.07273   0.09125   0.11402
 Alpha virt. eigenvalues --    0.14537   0.14537   0.14928   0.17186   0.17437

 Mulliken charges:
               1
     1  C   -3.331452
     2  C   -3.331454
     3  C   -3.331454
     4  N   -2.080348
     5  H    1.343731
     6  H    1.337440
     7  H    1.343731
     8  H    1.343731
     9  H    1.337440
    10  H    1.343732
    11  H    1.343732
    12  H    1.337440
    13  H    1.343731
 Sum of Mulliken charges =  -0.00000

 Dipole moment (field-independent basis, Debye):
    X=              0.2090    Y=             -0.1281    Z=             -0.0000  Tot=              0.2451

 Test job not archived.
 1\1\GINC-SE010\SP\RHF\Aug-CC-pVDZ\C3H9N1\OHZDE\06-Apr-2025\0\\#t hf au
 g-cc-pvdz iop(5/13=1,5/36=2,99/5=2) pseudo=read geom=check guess=(read
 ,tcheck) scf=(maxcycle=1)\\title\\0,1\C,0,0.,1.388631,-0.059542\C,0,1.
 20259,-0.694316,-0.059542\C,0,-1.20259,-0.694316,-0.059542\N,0,0.,0.,0
 .366212\H,0,-0.882915,1.895599,0.330609\H,0,0.,1.499929,-1.158458\H,0,
 0.882915,1.895599,0.330609\H,0,2.083094,-0.183172,0.330609\H,0,1.29897
 7,-0.749964,-1.158458\H,0,1.200179,-1.712426,0.330609\H,0,-1.200179,-1
 .712426,0.330609\H,0,-1.298977,-0.749964,-1.158458\H,0,-2.083094,-0.18

 Normal termination of Gaussian 16 at Sun Apr  6 08:38:36 2025.
