 Gaussian 16, Revision C.01,

 ----------------------------------------------------------------------
 #t hf aug-cc-pvdz symm=none int=(grid=ultrafine) guess=(read,tcheck) s
 table=(opt,rrhf)
 ----------------------------------------------------------------------
 -----
 title
 -----
 Symbolic Z-matrix:
 Charge =  0 Multiplicity = 1

 SCF Done:  E(RHF) =  -264.609222603     A.U. after   14 cycles
 Normal termination of Gaussian 16 at Sun Apr  6 08:38:48 2025.
 Gaussian 16:  ES64L-G16RevC.01  3-Jul-2019

 ----------------------------------------------------------------------
 #t hf aug-cc-pvdz iop(5/13=1,5/36=2,99/5=2) pseudo=read geom=check gue
 ss=(read,tcheck) scf=(maxcycle=1)
 ----------------------------------------------------------------------
 -----
 title
 -----
 Structure from the checkpoint file:  "trioxidanylmethane.chk"
 Charge =  0 Multiplicity = 1

                         Standard orientation:
 ---------------------------------------------------------------------
 Center     Atomic      Atomic             Coordinates (Angstroms)
 Number     Number       Type             X           Y           Z
 ---------------------------------------------------------------------
      1          8           0        0.614839   -0.531311    0.412981
      2          8           0       -0.558693   -0.562512   -0.398497
      3          8           0        1.453969    0.529309   -0.061717
      4          6           0       -1.474009    0.413749    0.097467
      5          1           0        1.911049    0.100315   -0.801444
      6          1           0       -1.737810    0.202807    1.133973
      7          1           0       -2.351255    0.313601   -0.540435
      8          1           0       -1.058850    1.416901    0.000969
 ---------------------------------------------------------------------

 SCF Done:  E(RHF) =  -265.716626791     A.U. after    2 cycles

 The electronic state is 1-A.
 Alpha  occ. eigenvalues --  -21.14548 -21.13269 -21.10745 -11.41200  -2.05540
 Alpha  occ. eigenvalues --   -1.70721  -1.30729  -0.97070  -0.66007  -0.63807
 Alpha  occ. eigenvalues --   -0.62873  -0.54121  -0.51388  -0.48587  -0.33736
 Alpha  occ. eigenvalues --   -0.32211  -0.30749
 Alpha virt. eigenvalues --    0.03943   0.05681   0.06290   0.06587   0.11049
 Alpha virt. eigenvalues --    0.13604   0.15315   0.15788   0.16531   0.17116
 Alpha virt. eigenvalues --    0.21011   0.22010   0.24316   0.25336   0.25641

 Mulliken charges:
               1
     1  O    0.163277
     2  O   -1.423341
     3  O   -0.960608
     4  C   -2.614200
     5  H    0.910736
     6  H    1.318867
     7  H    1.233307
     8  H    1.371961
 Sum of Mulliken charges =  -0.00000

 Dipole moment (field-independent basis, Debye):
    X=             -0.3375    Y=              0.3943    Z=             -0.5602  Tot=              0.7637

 Test job not archived.
 1\1\GINC-SE028\SP\RHF\Aug-CC-pVDZ\C1H4O3\OHZDE\06-Apr-2025\0\\#t hf au
 g-cc-pvdz iop(5/13=1,5/36=2,99/5=2) pseudo=read geom=check guess=(read
 ,tcheck) scf=(maxcycle=1)\\title\\0,1\O,0,0.614839,-0.531311,0.412981\
 O,0,-0.558693,-0.562512,-0.398497\O,0,1.453969,0.529309,-0.061717\C,0,
 -1.474009,0.413749,0.097467\H,0,1.911049,0.100315,-0.801444\H,0,-1.737
 81,0.202807,1.133973\H,0,-2.351255,0.313601,-0.540435\H,0,-1.05885,1.4
 16901,0.000969\\Version=ES64L-G16RevC.01\State=1-A\HF=-265.7166268\RMS
 D=5.067e-02\Dipole=-0.1327848,0.1551234,-0.2203901\Quadrupole=1.564511

 Normal termination of Gaussian 16 at Sun Apr  6 08:38:50 2025.
