 Gaussian 16, Revision C.01,

 ----------------------------------------------------------------------
 #t hf aug-cc-pvdz symm=none int=(grid=ultrafine) guess=(read,tcheck) s
 table=(opt,rrhf)
 ----------------------------------------------------------------------
 -----
 title
 -----
 Symbolic Z-matrix:
 Charge =  0 Multiplicity = 1

 SCF Done:  E(RHF) =  -347.667436243     A.U. after   11 cycles
 Normal termination of Gaussian 16 at Sun Apr  6 08:41:24 2025.
 Gaussian 16:  ES64L-G16RevC.01  3-Jul-2019

 ----------------------------------------------------------------------
 #t hf aug-cc-pvdz iop(5/13=1,5/36=2,99/5=2) pseudo=read geom=check gue
 ss=(read,tcheck) scf=(maxcycle=1)
 ----------------------------------------------------------------------
 -----
 title
 -----
 Structure from the checkpoint file:  "trispiro2-0-2-0-2-0nonane.chk"
 Charge =  0 Multiplicity = 1

                         Standard orientation:
 ---------------------------------------------------------------------
 Center     Atomic      Atomic             Coordinates (Angstroms)
 Number     Number       Type             X           Y           Z
 ---------------------------------------------------------------------
      1          6           0        0.000000   -0.000000    0.851770
      2          6           0        0.000000    0.737655   -0.425885
      3          6           0       -0.000000   -0.737655   -0.425885
      4          6           0        0.763078    1.836386   -1.060238
      5          6           0       -0.763078    1.836386   -1.060238
      6          6           0       -0.763078    0.000000    2.120476
      7          6           0        0.763078   -0.000000    2.120476
      8          6           0       -0.763078   -1.836386   -1.060238
      9          6           0        0.763078   -1.836386   -1.060238
     10          1           0        1.266347    2.551440   -0.422252
     11          1           0        1.266347    1.641401   -1.998486
     12          1           0       -1.266347    1.641401   -1.998486
     13          1           0       -1.266347    2.551440   -0.422252
     14          1           0       -1.266347   -0.910039    2.420738
     15          1           0       -1.266347    0.910039    2.420738
     16          1           0        1.266347    0.910039    2.420738
     17          1           0        1.266347   -0.910039    2.420738
     18          1           0       -1.266347   -2.551440   -0.422252
     19          1           0       -1.266347   -1.641401   -1.998486
     20          1           0        1.266347   -1.641401   -1.998486
     21          1           0        1.266347   -2.551440   -0.422252
 ---------------------------------------------------------------------

 SCF Done:  E(RHF) =  -349.389380250     A.U. after    2 cycles

 The electronic state is 1-A1.
 Alpha  occ. eigenvalues --  -11.47453 -11.47453 -11.45000 -11.45000 -11.41307
 Alpha  occ. eigenvalues --  -11.39352 -11.37826 -11.37826 -11.36080  -1.40993
 Alpha  occ. eigenvalues --   -1.24046  -1.24046  -1.04407  -0.87046  -0.85715
 Alpha  occ. eigenvalues --   -0.85715  -0.74840  -0.74840  -0.65598  -0.65598
 Alpha  occ. eigenvalues --   -0.64507  -0.62830  -0.52785  -0.50799  -0.50799
 Alpha  occ. eigenvalues --   -0.49975  -0.48165  -0.48165  -0.40808  -0.34927
 Alpha  occ. eigenvalues --   -0.34927  -0.34194  -0.34194
 Alpha virt. eigenvalues --    0.03863   0.04771   0.04771   0.05630   0.05630
 Alpha virt. eigenvalues --    0.06475   0.06475   0.06965   0.07726   0.08007
 Alpha virt. eigenvalues --    0.08007   0.10086   0.10481   0.11779   0.11875

 Mulliken charges:
               1
     1  C    1.305490
     2  C    1.305493
     3  C    1.305493
     4  C   -2.956211
     5  C   -2.956211
     6  C   -2.956211
     7  C   -2.956211
     8  C   -2.956211
     9  C   -2.956211
    10  H    1.151732
    11  H    1.151732
    12  H    1.151732
    13  H    1.151732
    14  H    1.151733
    15  H    1.151733
    16  H    1.151733
    17  H    1.151733
    18  H    1.151732
    19  H    1.151732
    20  H    1.151732
    21  H    1.151732
 Sum of Mulliken charges =   0.00000

 Dipole moment (field-independent basis, Debye):
    X=             -0.0000    Y=              0.0000    Z=              0.0000  Tot=              0.0000

 Test job not archived.
 1\1\GINC-SE038\SP\RHF\Aug-CC-pVDZ\C9H12\OHZDE\06-Apr-2025\0\\#t hf aug
 -cc-pvdz iop(5/13=1,5/36=2,99/5=2) pseudo=read geom=check guess=(read,
 tcheck) scf=(maxcycle=1)\\title\\0,1\C,0,0.,0.85177,0.\C,0,0.737655,-0
 .425885,0.\C,0,-0.737655,-0.425885,0.\C,0,1.836386,-1.060238,0.763078\
 C,0,1.836386,-1.060238,-0.763078\C,0,0.,2.120476,-0.763078\C,0,0.,2.12
 0476,0.763078\C,0,-1.836386,-1.060238,-0.763078\C,0,-1.836386,-1.06023
 8,0.763078\H,0,2.55144,-0.422252,1.266347\H,0,1.641401,-1.998486,1.266
 347\H,0,1.641401,-1.998486,-1.266347\H,0,2.55144,-0.422252,-1.266347\H

 Normal termination of Gaussian 16 at Sun Apr  6 08:41:33 2025.
