 Gaussian 16, Revision C.01,

 ----------------------------------------------------------------------
 #t hf aug-cc-pvdz symm=none int=(grid=ultrafine) guess=(read,tcheck) s
 table=(opt,rrhf)
 ----------------------------------------------------------------------
 -----
 title
 -----
 Symbolic Z-matrix:
 Charge =  0 Multiplicity = 1

 SCF Done:  E(RHF) =  -1349.89181644     A.U. after   13 cycles

 1\1\GINC-SE028\Stability\RHF\Aug-CC-pVDZ\C4H10S3\OHZDE\06-Apr-2025\0\\
 #t hf aug-cc-pvdz symm=none int=(grid=ultrafine) guess=(read,tcheck) s
 table=(opt,rrhf)\\title\\0,1\C,0,-0.299347,2.755142,0.647638\C,0,2.535
 697,-1.118329,0.647638\C,0,-2.23635,-1.636813,0.647638\C,0,0.,0.,0.150
 368\S,0,0.610957,1.615429,-0.447444\S,0,1.093524,-1.336819,-0.447444\S
 ,0,-1.704481,-0.27861,-0.447444\H,0,0.,3.759716,0.355248\H,0,-0.029337
 ,2.594355,1.690157\H,0,-1.372452,2.645233,0.513627\H,0,2.261446,-1.271
 771,1.690157\H,0,2.977065,-0.134038,0.513627\H,0,3.25601,-1.879858,0.3

 Normal termination of Gaussian 16 at Sun Apr  6 08:40:57 2025.
 Gaussian 16:  ES64L-G16RevC.01  3-Jul-2019

 ----------------------------------------------------------------------
 #t hf aug-cc-pvdz iop(5/13=1,5/36=2,99/5=2) pseudo=read geom=check gue
 ss=(read,tcheck) scf=(maxcycle=1)
 ----------------------------------------------------------------------
 -----
 title
 -----
 Structure from the checkpoint file:  "tris-methylsulfanylmethane.chk"
 Charge =  0 Multiplicity = 1

                         Standard orientation:
 ---------------------------------------------------------------------
 Center     Atomic      Atomic             Coordinates (Angstroms)
 Number     Number       Type             X           Y           Z
 ---------------------------------------------------------------------
      1          6           0       -1.061280    2.560098    0.647638
      2          6           0        2.747750   -0.360953    0.647638
      3          6           0       -1.686470   -2.199144    0.647638
      4          6           0        0.000000    0.000000    0.150368
      5         16           0        0.132539    1.722008   -0.447444
      6         16           0        1.425033   -0.975787   -0.447444
      7         16           0       -1.557573   -0.746221   -0.447444
      8          1           0       -1.056198    3.608311    0.355248
      9          1           0       -0.756974    2.481638    1.690157
     10          1           0       -2.060295    2.153153    0.513627
     11          1           0        2.527649   -0.585260    1.690157
     12          1           0        2.894833    0.707691    0.513627
     13          1           0        3.652989   -0.889462    0.355248
     14          1           0       -2.596791   -2.718850    0.355248
     15          1           0       -1.770674   -1.896379    1.690157
     16          1           0       -0.834538   -2.860844    0.513627
     17          1           0        0.000000    0.000000    1.240520
 ---------------------------------------------------------------------

 SCF Done:  E(RHF) =  -1351.40967509     A.U. after    2 cycles

 The electronic state is 1-A.
 Alpha  occ. eigenvalues --  -75.68422 -75.68422 -75.68193 -13.14428 -13.14428
 Alpha  occ. eigenvalues --  -13.11211 -13.08519 -13.08519 -13.07853 -13.03876
 Alpha  occ. eigenvalues --  -13.03876 -13.03715 -11.44299 -11.39737 -11.39489
 Alpha  occ. eigenvalues --  -11.39489  -8.02615  -8.02203  -8.02203  -1.31363
 Alpha  occ. eigenvalues --   -1.16481  -1.16481  -1.03250  -0.93534  -0.93534
 Alpha  occ. eigenvalues --   -0.81790  -0.61370  -0.60139  -0.60139  -0.58980
 Alpha  occ. eigenvalues --   -0.58980  -0.58298  -0.57298  -0.47746  -0.47746
 Alpha  occ. eigenvalues --   -0.37301  -0.36935  -0.36935  -0.22641  -0.22641
 Alpha  occ. eigenvalues --   -0.22106
 Alpha virt. eigenvalues --    0.02658   0.02971   0.02971   0.05250   0.06665
 Alpha virt. eigenvalues --    0.06665   0.07164   0.07164   0.07613   0.08853
 Alpha virt. eigenvalues --    0.09394   0.10636   0.10636   0.12236   0.13519

 Mulliken charges:
               1
     1  C   -4.984280
     2  C   -4.984279
     3  C   -4.984279
     4  C   -2.931378
     5  S    0.962496
     6  S    0.962495
     7  S    0.962496
     8  H    1.352635
     9  H    1.416625
    10  H    1.554280
    11  H    1.416625
    12  H    1.554280
    13  H    1.352635
    14  H    1.352635
    15  H    1.416625
    16  H    1.554280
    17  H    2.026110
 Sum of Mulliken charges =  -0.00000

 Dipole moment (field-independent basis, Debye):
    X=             -0.0000    Y=              0.0000    Z=             -0.7746  Tot=              0.7746

 Test job not archived.
 1\1\GINC-SE028\SP\RHF\Aug-CC-pVDZ\C4H10S3\OHZDE\06-Apr-2025\0\\#t hf a
 ug-cc-pvdz iop(5/13=1,5/36=2,99/5=2) pseudo=read geom=check guess=(rea
 d,tcheck) scf=(maxcycle=1)\\title\\0,1\C,0,-0.299347,2.755142,0.647638
 \C,0,2.535697,-1.118329,0.647638\C,0,-2.23635,-1.636813,0.647638\C,0,0
 .,0.,0.150368\S,0,0.610957,1.615429,-0.447444\S,0,1.093524,-1.336819,-
 0.447444\S,0,-1.704481,-0.27861,-0.447444\H,0,0.,3.759716,0.355248\H,0
 ,-0.029337,2.594355,1.690157\H,0,-1.372452,2.645233,0.513627\H,0,2.261
 446,-1.271771,1.690157\H,0,2.977065,-0.134038,0.513627\H,0,3.25601,-1.

 Normal termination of Gaussian 16 at Sun Apr  6 08:41:05 2025.
