 Gaussian 16, Revision C.01,

 ----------------------------------------------------------------------
 #t hf aug-cc-pvdz symm=none int=(grid=ultrafine) guess=(read,tcheck) s
 table=(opt,rrhf)
 ----------------------------------------------------------------------
 -----
 title
 -----
 Symbolic Z-matrix:
 Charge =  0 Multiplicity = 1

 SCF Done:  E(RHF) =  -347.667266664     A.U. after   12 cycles
 Normal termination of Gaussian 16 at Sun Apr  6 08:41:35 2025.
 Gaussian 16:  ES64L-G16RevC.01  3-Jul-2019

 ----------------------------------------------------------------------
 #t hf aug-cc-pvdz iop(5/13=1,5/36=2,99/5=2) pseudo=read geom=check gue
 ss=(read,tcheck) scf=(maxcycle=1)
 ----------------------------------------------------------------------
 -----
 title
 -----
 Structure from the checkpoint file:  "trispiro2-0-0-2-1-1nonane.chk"
 Charge =  0 Multiplicity = 1

                         Standard orientation:
 ---------------------------------------------------------------------
 Center     Atomic      Atomic             Coordinates (Angstroms)
 Number     Number       Type             X           Y           Z
 ---------------------------------------------------------------------
      1          6           0        0.000000    2.646312   -0.153625
      2          6           0       -0.783823    1.911812   -1.237462
      3          6           0       -0.502659    1.272733    0.068369
      4          6           0        0.000000    0.000000    0.571930
      5          6           0       -1.280621    0.550204    1.125888
      6          6           0        0.502659   -1.272733    0.068369
      7          6           0        1.280621   -0.550204    1.125888
      8          6           0        0.783823   -1.911812   -1.237462
      9          6           0       -0.000000   -2.646312   -0.153625
     10          1           0        1.061695    2.787753   -0.310710
     11          1           0       -0.492162    3.465471    0.354450
     12          1           0       -1.792102    2.247544   -1.442544
     13          1           0       -0.237243    1.571736   -2.107218
     14          1           0       -1.270911    0.951885    2.132470
     15          1           0       -2.207587    0.066955    0.838743
     16          1           0        1.270911   -0.951885    2.132470
     17          1           0        2.207587   -0.066955    0.838743
     18          1           0        0.237243   -1.571736   -2.107218
     19          1           0        1.792102   -2.247544   -1.442544
     20          1           0        0.492162   -3.465471    0.354450
     21          1           0       -1.061695   -2.787753   -0.310710
 ---------------------------------------------------------------------

 SCF Done:  E(RHF) =  -349.391450633     A.U. after    2 cycles

 The electronic state is 1-A.
 Alpha  occ. eigenvalues --  -11.47243 -11.47100 -11.45491 -11.42515 -11.42456
 Alpha  occ. eigenvalues --  -11.39770 -11.38582 -11.37282 -11.36151  -1.40479
 Alpha  occ. eigenvalues --   -1.29141  -1.17021  -1.07714  -0.86276  -0.86148
 Alpha  occ. eigenvalues --   -0.82815  -0.79614  -0.72214  -0.65185  -0.64378
 Alpha  occ. eigenvalues --   -0.63832  -0.60999  -0.60519  -0.51281  -0.50320
 Alpha  occ. eigenvalues --   -0.50193  -0.45947  -0.43355  -0.40298  -0.39920
 Alpha  occ. eigenvalues --   -0.34534  -0.33617  -0.33361
 Alpha virt. eigenvalues --    0.03995   0.04745   0.05242   0.05291   0.05877
 Alpha virt. eigenvalues --    0.05953   0.06192   0.06830   0.07019   0.08190
 Alpha virt. eigenvalues --    0.08351   0.08573   0.10481   0.11418   0.11656

 Mulliken charges:
               1
     1  C   -3.112910
     2  C   -2.956885
     3  C    2.051679
     4  C    2.532975
     5  C   -4.145291
     6  C    2.051679
     7  C   -4.145291
     8  C   -2.956885
     9  C   -3.112910
    10  H    1.197154
    11  H    1.101782
    12  H    1.085073
    13  H    1.179182
    14  H    1.147897
    15  H    1.185831
    16  H    1.147897
    17  H    1.185831
    18  H    1.179182
    19  H    1.085073
    20  H    1.101782
    21  H    1.197154
 Sum of Mulliken charges =   0.00000

 Dipole moment (field-independent basis, Debye):
    X=             -0.0000    Y=              0.0000    Z=             -0.0169  Tot=              0.0169

 Test job not archived.
 1\1\GINC-SE036\SP\RHF\Aug-CC-pVDZ\C9H12\OHZDE\06-Apr-2025\0\\#t hf aug
 -cc-pvdz iop(5/13=1,5/36=2,99/5=2) pseudo=read geom=check guess=(read,
 tcheck) scf=(maxcycle=1)\\title\\0,1\C,0,0.,2.646312,-0.153625\C,0,-0.
 783823,1.911812,-1.237462\C,0,-0.502659,1.272733,0.068369\C,0,0.,0.,0.
 57193\C,0,-1.280621,0.550204,1.125888\C,0,0.502659,-1.272733,0.068369\
 C,0,1.280621,-0.550204,1.125888\C,0,0.783823,-1.911812,-1.237462\C,0,0
 .,-2.646312,-0.153625\H,0,1.061695,2.787753,-0.31071\H,0,-0.492162,3.4
 65471,0.35445\H,0,-1.792102,2.247544,-1.442544\H,0,-0.237243,1.571736,

 Normal termination of Gaussian 16 at Sun Apr  6 08:41:42 2025.
