 Gaussian 16, Revision C.01,

 ----------------------------------------------------------------------
 #t hf aug-cc-pvdz symm=none int=(grid=ultrafine) guess=(read,tcheck) s
 table=(opt,rrhf)
 ----------------------------------------------------------------------
 -----
 title
 -----
 Symbolic Z-matrix:
 Charge =  0 Multiplicity = 1

 SCF Done:  E(RHF) =  -682.275027963     A.U. after   17 cycles
 Normal termination of Gaussian 16 at Sun Apr  6 08:48:07 2025.
 Gaussian 16:  ES64L-G16RevC.01  3-Jul-2019

 ----------------------------------------------------------------------
 #t hf aug-cc-pvdz iop(5/13=1,5/36=2,99/5=2) pseudo=read geom=check gue
 ss=(read,tcheck) scf=(maxcycle=1)
 ----------------------------------------------------------------------
 -----
 title
 -----
 Structure from the checkpoint file:  "tryptophan.chk"
 Charge =  0 Multiplicity = 1

                         Standard orientation:
 ---------------------------------------------------------------------
 Center     Atomic      Atomic             Coordinates (Angstroms)
 Number     Number       Type             X           Y           Z
 ---------------------------------------------------------------------
      1          7           0        2.144383    0.943689    1.387392
      2          6           0        1.971739   -0.048913    0.317057
      3          6           0        3.347538   -0.585408   -0.126533
      4          8           0        3.499669   -1.288634   -1.089817
      5          8           0        4.357944   -0.224123    0.675223
      6          1           0        3.948061    0.342244    1.365987
      7          6           0        1.161509    0.438981   -0.901876
      8          6           0       -0.257433    0.783250   -0.580119
      9          6           0       -0.805706    2.035533   -0.532908
     10          7           0       -2.138822    1.958860   -0.185729
     11          6           0       -2.481917    0.638427   -0.006198
     12          6           0       -1.318044   -0.133672   -0.246754
     13          6           0       -1.401983   -1.529651   -0.146912
     14          6           0       -2.612554   -2.107991    0.190616
     15          6           0       -3.751206   -1.320897    0.431315
     16          6           0       -3.702578    0.059180    0.334532
     17          1           0        1.461495   -0.911416    0.750748
     18          1           0        1.667652    1.311632   -1.324861
     19          1           0        1.212237   -0.340971   -1.662152
     20          1           0       -0.349483    2.989906   -0.737807
     21          1           0       -2.764965    2.739256   -0.115895
     22          1           0       -0.538307   -2.151734   -0.341881
     23          1           0       -2.688793   -3.183992    0.266850
     24          1           0       -4.683614   -1.802505    0.692328
     25          1           0       -4.582950    0.662376    0.513597
     26          1           0        2.105789    1.887369    1.020285
     27          1           0        1.416855    0.869019    2.084595
 ---------------------------------------------------------------------

 SCF Done:  E(RHF) =  -685.413041587     A.U. after    2 cycles

 The electronic state is 1-A.
 Alpha  occ. eigenvalues --  -21.09968 -21.03587 -15.79056 -15.76349 -11.52347
 Alpha  occ. eigenvalues --  -11.52154 -11.48138 -11.47429 -11.45710 -11.44433
 Alpha  occ. eigenvalues --  -11.43195 -11.42448 -11.41564 -11.40222 -11.37039
 Alpha  occ. eigenvalues --   -1.81080  -1.64332  -1.52793  -1.37485  -1.29289
 Alpha  occ. eigenvalues --   -1.19943  -1.10640  -1.07534  -1.04450  -0.95549
 Alpha  occ. eigenvalues --   -0.88908  -0.84780  -0.79391  -0.77067  -0.73169
 Alpha  occ. eigenvalues --   -0.71474  -0.67803  -0.66822  -0.65975  -0.62605
 Alpha  occ. eigenvalues --   -0.60023  -0.59035  -0.58171  -0.56404  -0.54278
 Alpha  occ. eigenvalues --   -0.52541  -0.51314  -0.49436  -0.48291  -0.46600
 Alpha  occ. eigenvalues --   -0.45811  -0.44130  -0.42252  -0.39317  -0.37867
 Alpha  occ. eigenvalues --   -0.32039  -0.29887  -0.28520  -0.26512
 Alpha virt. eigenvalues --    0.02855   0.03931   0.04129   0.04679   0.05399
 Alpha virt. eigenvalues --    0.05630   0.05881   0.06886   0.07304   0.07751
 Alpha virt. eigenvalues --    0.08200   0.09308   0.09818   0.10094   0.10998

 Mulliken charges:
               1
     1  N   -2.784498
     2  C   -1.638684
     3  C    6.543613
     4  O   -3.383947
     5  O   -3.305596
     6  H    1.137128
     7  C   -3.488433
     8  C    3.503748
     9  C   -2.442417
    10  N   -4.767391
    11  C    1.628504
    12  C    2.114949
    13  C    1.460461
    14  C   -2.679495
    15  C   -2.090788
    16  C   -4.318174
    17  H    1.991108
    18  H    1.362845
    19  H    1.274488
    20  H    1.405201
    21  H    0.745779
    22  H    1.823830
    23  H    1.569534
    24  H    1.487170
    25  H    1.605275
    26  H    0.636893
    27  H    0.608898
 Sum of Mulliken charges =   0.00000

 Dipole moment (field-independent basis, Debye):
    X=             -3.4957    Y=              3.8854    Z=              1.5430  Tot=              5.4495

 Test job not archived.
 1\1\GINC-SE055\SP\RHF\Aug-CC-pVDZ\C11H12N2O2\OHZDE\06-Apr-2025\0\\#t h
 f aug-cc-pvdz iop(5/13=1,5/36=2,99/5=2) pseudo=read geom=check guess=(
 read,tcheck) scf=(maxcycle=1)\\title\\0,1\N,0,2.144383,0.943689,1.3873
 92\C,0,1.971739,-0.048913,0.317057\C,0,3.347538,-0.585408,-0.126533\O,
 0,3.499669,-1.288634,-1.089817\O,0,4.357944,-0.224123,0.675223\H,0,3.9
 48061,0.342244,1.365987\C,0,1.161509,0.438981,-0.901876\C,0,-0.257433,
 0.78325,-0.580119\C,0,-0.805706,2.035533,-0.532908\N,0,-2.138822,1.958
 86,-0.185729\C,0,-2.481917,0.638427,-0.006198\C,0,-1.318044,-0.133672,

 Normal termination of Gaussian 16 at Sun Apr  6 08:48:37 2025.
