 Gaussian 16, Revision C.01,

 ----------------------------------------------------------------------
 #t hf aug-cc-pvdz symm=none int=(grid=ultrafine) guess=(read,tcheck) s
 table=(opt,rrhf)
 ----------------------------------------------------------------------
 -----
 title
 -----
 Symbolic Z-matrix:
 Charge =  0 Multiplicity = 1

 SCF Done:  E(RHF) =  -626.364421262     A.U. after   16 cycles
 Normal termination of Gaussian 16 at Sun Apr  6 08:44:50 2025.
 Gaussian 16:  ES64L-G16RevC.01  3-Jul-2019

 ----------------------------------------------------------------------
 #t hf aug-cc-pvdz iop(5/13=1,5/36=2,99/5=2) pseudo=read geom=check gue
 ss=(read,tcheck) scf=(maxcycle=1)
 ----------------------------------------------------------------------
 -----
 title
 -----
 Structure from the checkpoint file:  "tyrosine.chk"
 Charge =  0 Multiplicity = 1

                         Standard orientation:
 ---------------------------------------------------------------------
 Center     Atomic      Atomic             Coordinates (Angstroms)
 Number     Number       Type             X           Y           Z
 ---------------------------------------------------------------------
      1          6           0        0.892185    0.423300   -1.115386
      2          6           0        1.127635   -1.387733    0.424444
      3          6           0        2.194801    0.827052   -0.845555
      4          6           0        2.427792   -0.998183    0.705423
      5          6           0        0.332695   -0.688148   -0.487319
      6          6           0        2.965844    0.116591    0.068362
      7          6           0       -2.186401    0.883216    0.310248
      8          6           0       -1.089329   -1.109749   -0.762062
      9          6           0       -2.127374   -0.636628    0.291467
     10          7           0       -3.490056   -1.105655    0.051276
     11          8           0       -2.617114    1.551395   -0.596087
     12          8           0        4.254274    0.460267    0.375386
     13          8           0       -1.697499    1.415760    1.446528
     14          1           0        0.304511    0.985498   -1.829904
     15          1           0        0.725773   -2.261652    0.922750
     16          1           0        2.610134    1.691457   -1.350405
     17          1           0        3.037227   -1.547870    1.408931
     18          1           0       -1.411636   -0.739805   -1.736775
     19          1           0       -1.153616   -2.200087   -0.793954
     20          1           0       -1.814661   -0.977674    1.277619
     21          1           0       -3.514304   -2.114400   -0.027753
     22          1           0       -3.850384   -0.712728   -0.810813
     23          1           0        4.512609    1.239394   -0.126667
     24          1           0       -1.759650    2.379779    1.363694
 ---------------------------------------------------------------------

 SCF Done:  E(RHF) =  -629.189721128     A.U. after    2 cycles

 The electronic state is 1-A.
 Alpha  occ. eigenvalues --  -21.12468 -21.10508 -21.05352 -15.74072 -11.53994
 Alpha  occ. eigenvalues --  -11.52620 -11.47378 -11.45711 -11.44232 -11.43401
 Alpha  occ. eigenvalues --  -11.41153 -11.40732 -11.36951  -1.82968  -1.75841
 Alpha  occ. eigenvalues --   -1.65688  -1.37885  -1.31950  -1.14513  -1.10166
 Alpha  occ. eigenvalues --   -1.04331  -0.95374  -0.88596  -0.83628  -0.77831
 Alpha  occ. eigenvalues --   -0.71354  -0.69940  -0.66483  -0.63629  -0.62249
 Alpha  occ. eigenvalues --   -0.61606  -0.59201  -0.58434  -0.56588  -0.54281
 Alpha  occ. eigenvalues --   -0.53737  -0.52094  -0.50659  -0.47215  -0.45759
 Alpha  occ. eigenvalues --   -0.44503  -0.42733  -0.41779  -0.35270  -0.33975
 Alpha  occ. eigenvalues --   -0.33810  -0.29927  -0.26620
 Alpha virt. eigenvalues --    0.03374   0.04341   0.04937   0.05311   0.05827
 Alpha virt. eigenvalues --    0.06117   0.06223   0.06785   0.07668   0.08229
 Alpha virt. eigenvalues --    0.09155   0.10044   0.11078   0.11362   0.12204

 Mulliken charges:
               1
     1  C   -1.318002
     2  C   -1.565719
     3  C   -4.501399
     4  C   -3.544153
     5  C    4.619947
     6  C    4.407775
     7  C    7.119754
     8  C   -4.678400
     9  C   -0.467072
    10  N   -2.985619
    11  O   -3.433544
    12  O   -4.482627
    13  O   -3.436555
    14  H    1.843000
    15  H    1.829811
    16  H    1.651307
    17  H    1.771860
    18  H    1.083906
    19  H    1.130567
    20  H    1.966866
    21  H    0.533625
    22  H    0.550503
    23  H    1.040329
    24  H    0.863840
 Sum of Mulliken charges =  -0.00000

 Dipole moment (field-independent basis, Debye):
    X=              1.4226    Y=             -0.2740    Z=             -0.0985  Tot=              1.4521

 Test job not archived.
 1\1\GINC-SE101\SP\RHF\Aug-CC-pVDZ\C9H11N1O3\OHZDE\06-Apr-2025\0\\#t hf
  aug-cc-pvdz iop(5/13=1,5/36=2,99/5=2) pseudo=read geom=check guess=(r
 ead,tcheck) scf=(maxcycle=1)\\title\\0,1\C,0,0.892185,0.4233,-1.115386
 \C,0,1.127635,-1.387733,0.424444\C,0,2.194801,0.827052,-0.845555\C,0,2
 .427792,-0.998183,0.705423\C,0,0.332695,-0.688148,-0.487319\C,0,2.9658
 44,0.116591,0.068362\C,0,-2.186401,0.883216,0.310248\C,0,-1.089329,-1.
 109749,-0.762062\C,0,-2.127374,-0.636628,0.291467\N,0,-3.490056,-1.105
 655,0.051276\O,0,-2.617114,1.551395,-0.596087\O,0,4.254274,0.460267,0.

 Normal termination of Gaussian 16 at Sun Apr  6 08:45:10 2025.
