 Gaussian 16, Revision C.01,

 ----------------------------------------------------------------------
 #t hf aug-cc-pvdz symm=none int=(grid=ultrafine) guess=(read,tcheck) s
 table=(opt,rrhf)
 ----------------------------------------------------------------------
 -----
 title
 -----
 Symbolic Z-matrix:
 Charge =  0 Multiplicity = 1

 SCF Done:  E(RHF) =  -504.299603313     A.U. after   13 cycles
 Normal termination of Gaussian 16 at Sun Apr  6 08:46:46 2025.
 Gaussian 16:  ES64L-G16RevC.01  3-Jul-2019

 ----------------------------------------------------------------------
 #t hf aug-cc-pvdz iop(5/13=1,5/36=2,99/5=2) pseudo=read geom=check gue
 ss=(read,tcheck) scf=(maxcycle=1)
 ----------------------------------------------------------------------
 -----
 title
 -----
 Structure from the checkpoint file:  "undecan-2-one.chk"
 Charge =  0 Multiplicity = 1

                         Standard orientation:
 ---------------------------------------------------------------------
 Center     Atomic      Atomic             Coordinates (Angstroms)
 Number     Number       Type             X           Y           Z
 ---------------------------------------------------------------------
      1          6           0       -4.806157    0.164946   -0.005623
      2          6           0       -6.062810   -0.680870    0.015204
      3          6           0        6.725592   -0.280291   -0.006395
      4          6           0       -3.487345   -0.589442   -0.010665
      5          6           0        5.426775    0.524067    0.007880
      6          6           0       -2.245230    0.293358    0.007034
      7          6           0        4.172804   -0.350971   -0.004536
      8          6           0       -0.944153   -0.509724   -0.005659
      9          6           0        2.867501    0.444990    0.008804
     10          6           0        0.309146    0.366142    0.008951
     11          6           0        1.614054   -0.430731   -0.003842
     12          8           0       -4.857865    1.374419   -0.015761
     13          1           0       -6.066233   -1.383636   -0.820306
     14          1           0       -6.941478   -0.043492   -0.036220
     15          1           0       -6.097895   -1.276478    0.930151
     16          1           0        6.792162   -0.936999    0.863557
     17          1           0        6.790716   -0.908018   -0.897593
     18          1           0        7.599872    0.372101    0.003614
     19          1           0       -3.487195   -1.243242   -0.890607
     20          1           0       -3.492921   -1.273880    0.845326
     21          1           0        5.404779    1.195795   -0.855539
     22          1           0        5.406736    1.168164    0.892173
     23          1           0       -2.273858    0.968070   -0.851145
     24          1           0       -2.275701    0.936898    0.889030
     25          1           0        4.193680   -0.996496   -0.889181
     26          1           0        4.195186   -1.023399    0.859786
     27          1           0       -0.922432   -1.183317    0.857933
     28          1           0       -0.922105   -1.154301   -0.891131
     29          1           0        2.847599    1.090299    0.893334
     30          1           0        2.846263    1.117212   -0.855399
     31          1           0        0.287614    1.010598    0.893780
     32          1           0        0.287855    1.038888   -0.854540
     33          1           0        1.635068   -1.102846    0.860594
     34          1           0        1.634146   -1.076122   -0.888446
 ---------------------------------------------------------------------

 SCF Done:  E(RHF) =  -506.831855291     A.U. after    2 cycles

 The electronic state is 1-A.
 Alpha  occ. eigenvalues --  -21.04470 -11.49686 -11.43312 -11.42782 -11.41874
 Alpha  occ. eigenvalues --  -11.41189 -11.39823 -11.38686 -11.37744 -11.36233
 Alpha  occ. eigenvalues --  -11.35180 -11.33603  -1.70252  -1.29447  -1.23281
 Alpha  occ. eigenvalues --   -1.16394  -1.10729  -1.05375  -0.98804  -0.91758
 Alpha  occ. eigenvalues --   -0.85367  -0.82134  -0.81728  -0.73755  -0.67346
 Alpha  occ. eigenvalues --   -0.65246  -0.62668  -0.62075  -0.59148  -0.58987
 Alpha  occ. eigenvalues --   -0.57964  -0.56406  -0.56257  -0.53308  -0.52829
 Alpha  occ. eigenvalues --   -0.51744  -0.49014  -0.48079  -0.46233  -0.45574
 Alpha  occ. eigenvalues --   -0.45086  -0.44989  -0.44678  -0.44299  -0.43956
 Alpha  occ. eigenvalues --   -0.40603  -0.36469  -0.27784
 Alpha virt. eigenvalues --    0.03565   0.04260   0.04355   0.05316   0.05547
 Alpha virt. eigenvalues --    0.05580   0.05867   0.06077   0.06142   0.06511
 Alpha virt. eigenvalues --    0.06655   0.07319   0.07518   0.07792   0.07982

 Mulliken charges:
               1
     1  C    4.786155
     2  C   -5.620369
     3  C   -4.823194
     4  C   -4.441889
     5  C   -3.711170
     6  C   -2.593232
     7  C   -2.983189
     8  C   -3.008583
     9  C   -2.771460
    10  C   -2.275142
    11  C   -2.786436
    12  O   -3.452454
    13  H    1.327542
    14  H    1.312581
    15  H    1.312015
    16  H    1.359272
    17  H    1.358998
    18  H    1.074107
    19  H    1.616720
    20  H    1.649790
    21  H    1.500839
    22  H    1.499938
    23  H    1.643454
    24  H    1.637965
    25  H    1.609650
    26  H    1.610452
    27  H    1.644366
    28  H    1.636258
    29  H    1.666524
    30  H    1.661744
    31  H    1.623312
    32  H    1.631427
    33  H    1.649064
    34  H    1.654946
 Sum of Mulliken charges =  -0.00000

 Dipole moment (field-independent basis, Debye):
    X=              0.2910    Y=             -1.1567    Z=              0.0146  Tot=              1.1928

 Test job not archived.
 1\1\GINC-SE136\SP\RHF\Aug-CC-pVDZ\C11H22O1\OHZDE\06-Apr-2025\0\\#t hf
 aug-cc-pvdz iop(5/13=1,5/36=2,99/5=2) pseudo=read geom=check guess=(re
 ad,tcheck) scf=(maxcycle=1)\\title\\0,1\C,0,-4.806157,0.164946,-0.0056
 23\C,0,-6.06281,-0.68087,0.015204\C,0,6.725592,-0.280291,-0.006395\C,0
 ,-3.487345,-0.589442,-0.010665\C,0,5.426775,0.524067,0.00788\C,0,-2.24
 523,0.293358,0.007034\C,0,4.172804,-0.350971,-0.004536\C,0,-0.944153,-
 0.509724,-0.005659\C,0,2.867501,0.44499,0.008804\C,0,0.309146,0.366142
 ,0.008951\C,0,1.614054,-0.430731,-0.003842\O,0,-4.857865,1.374419,-0.0

 Normal termination of Gaussian 16 at Sun Apr  6 08:47:14 2025.
