 Gaussian 16, Revision C.01,

 ----------------------------------------------------------------------
 #t hf aug-cc-pvdz symm=none int=(grid=ultrafine) guess=(read,tcheck) s
 table=(opt,rrhf)
 ----------------------------------------------------------------------
 -----
 title
 -----
 Symbolic Z-matrix:
 Charge =  0 Multiplicity = 1

 SCF Done:  E(RHF) =  -412.513384412     A.U. after   14 cycles
 Normal termination of Gaussian 16 at Sun Apr  6 08:40:18 2025.
 Gaussian 16:  ES64L-G16RevC.01  3-Jul-2019

 ----------------------------------------------------------------------
 #t hf aug-cc-pvdz iop(5/13=1,5/36=2,99/5=2) pseudo=read geom=check gue
 ss=(read,tcheck) scf=(maxcycle=1)
 ----------------------------------------------------------------------
 -----
 title
 -----
 Structure from the checkpoint file:  "uracil.chk"
 Charge =  0 Multiplicity = 1

                         Standard orientation:
 ---------------------------------------------------------------------
 Center     Atomic      Atomic             Coordinates (Angstroms)
 Number     Number       Type             X           Y           Z
 ---------------------------------------------------------------------
      1          6           0       -1.137324    0.318072    0.000000
      2          8           0       -2.279401    1.022074    0.000000
      3          6           0       -1.190713   -1.078014    0.000000
      4          6           0        0.031924   -1.715471    0.000000
      5          7           0        1.199468   -1.061094    0.000000
      6          6           0        1.110451    0.264069    0.000000
      7          8           0        2.256714    0.960746    0.000000
      8          7           0        0.000000    0.995036    0.000000
      9          1           0       -2.038605    1.959714    0.000000
     10          1           0       -2.128722   -1.608922    0.000000
     11          1           0        0.091249   -2.797105    0.000000
     12          1           0        2.975267    0.314212    0.000000
 ---------------------------------------------------------------------

 SCF Done:  E(RHF) =  -414.306611111     A.U. after    2 cycles

 The electronic state is 1-A'.
 Alpha  occ. eigenvalues --  -21.12874 -21.11963 -15.74188 -15.73783 -11.52918
 Alpha  occ. eigenvalues --  -11.50335 -11.47384 -11.39796  -1.80480  -1.79443
 Alpha  occ. eigenvalues --   -1.47817  -1.31480  -1.14746  -0.93365  -0.90873
 Alpha  occ. eigenvalues --   -0.73978  -0.70928  -0.64951  -0.63544  -0.61916
 Alpha  occ. eigenvalues --   -0.57119  -0.51533  -0.49629  -0.47590  -0.44169
 Alpha  occ. eigenvalues --   -0.43056  -0.36289  -0.35327  -0.30214
 Alpha virt. eigenvalues --    0.03440   0.05268   0.05642   0.06021   0.10119
 Alpha virt. eigenvalues --    0.10132   0.11237   0.11430   0.11956   0.12780
 Alpha virt. eigenvalues --    0.12928   0.13668   0.13710   0.14723   0.15638

 Mulliken charges:
               1
     1  C    4.770315
     2  O   -3.820132
     3  C   -1.447621
     4  C    0.124448
     5  N   -3.076506
     6  C    4.752674
     7  O   -3.023238
     8  N   -3.074174
     9  H    0.995280
    10  H    1.508707
    11  H    1.604680
    12  H    0.685566
 Sum of Mulliken charges =   0.00000

 Dipole moment (field-independent basis, Debye):
    X=             -0.8919    Y=             -0.3161    Z=              0.0000  Tot=              0.9463

 Test job not archived.
 1\1\GINC-SE155\SP\RHF\Aug-CC-pVDZ\C4H4N2O2\OHZDE\06-Apr-2025\0\\#t hf
 aug-cc-pvdz iop(5/13=1,5/36=2,99/5=2) pseudo=read geom=check guess=(re
 ad,tcheck) scf=(maxcycle=1)\\title\\0,1\C,0,-1.137324,0.318072,0.\O,0,
 -2.279401,1.022074,0.\C,0,-1.190713,-1.078014,0.\C,0,0.031924,-1.71547
 1,0.\N,0,1.199468,-1.061094,0.\C,0,1.110451,0.264069,0.\O,0,2.256714,0
 .960746,0.\N,0,0.,0.995036,0.\H,0,-2.038605,1.959714,0.\H,0,-2.128722,
 -1.608922,0.\H,0,0.091249,-2.797105,0.\H,0,2.975267,0.314212,0.\\Versi
 on=ES64L-G16RevC.01\State=1-A'\HF=-414.3066111\RMSD=8.191e-01\Dipole=-

 Normal termination of Gaussian 16 at Sun Apr  6 08:40:24 2025.
