 Gaussian 16, Revision C.01,

 ----------------------------------------------------------------------
 #t hf aug-cc-pvdz symm=none int=(grid=ultrafine) guess=(read,tcheck) s
 table=(opt,rrhf)
 ----------------------------------------------------------------------
 -----
 title
 -----
 Symbolic Z-matrix:
 Charge =  0 Multiplicity = 1

 SCF Done:  E(RHF) =  -224.031156099     A.U. after   12 cycles
 Normal termination of Gaussian 16 at Sun Apr  6 08:40:03 2025.
 Gaussian 16:  ES64L-G16RevC.01  3-Jul-2019

 ----------------------------------------------------------------------
 #t hf aug-cc-pvdz iop(5/13=1,5/36=2,99/5=2) pseudo=read geom=check gue
 ss=(read,tcheck) scf=(maxcycle=1)
 ----------------------------------------------------------------------
 -----
 title
 -----
 Structure from the checkpoint file:  "urea.chk"
 Charge =  0 Multiplicity = 1

                         Standard orientation:
 ---------------------------------------------------------------------
 Center     Atomic      Atomic             Coordinates (Angstroms)
 Number     Number       Type             X           Y           Z
 ---------------------------------------------------------------------
      1          6           0       -0.000000   -0.000000    0.141895
      2          8           0       -0.000000   -0.000000    1.357923
      3          7           0        0.000000    1.161700   -0.607409
      4          7           0       -0.000000   -1.161700   -0.607409
      5          1           0        0.198783    1.990644   -0.072919
      6          1           0        0.395193    1.143037   -1.532593
      7          1           0       -0.198783   -1.990644   -0.072919
      8          1           0       -0.395193   -1.143037   -1.532593
 ---------------------------------------------------------------------

 SCF Done:  E(RHF) =  -225.017908526     A.U. after    2 cycles

 The electronic state is 1-A.
 Alpha  occ. eigenvalues --  -21.01608 -15.77516 -15.77444 -11.49712  -1.71067
 Alpha  occ. eigenvalues --   -1.38624  -1.28407  -0.83912  -0.71600  -0.71160
 Alpha  occ. eigenvalues --   -0.60073  -0.57512  -0.49367  -0.38959  -0.32464
 Alpha  occ. eigenvalues --   -0.29254
 Alpha virt. eigenvalues --    0.03171   0.04831   0.05589   0.07270   0.11859
 Alpha virt. eigenvalues --    0.12375   0.13213   0.15578   0.16448   0.17619
 Alpha virt. eigenvalues --    0.17637   0.19206   0.20142   0.21650   0.22748

 Mulliken charges:
               1
     1  C    5.269462
     2  O   -2.728534
     3  N   -2.455865
     4  N   -2.455865
     5  H    0.527694
     6  H    0.657707
     7  H    0.527694
     8  H    0.657707
 Sum of Mulliken charges =  -0.00000

 Dipole moment (field-independent basis, Debye):
    X=              0.0000    Y=              0.0000    Z=             -2.7294  Tot=              2.7294

 Test job not archived.
 1\1\GINC-SE165\SP\RHF\Aug-CC-pVDZ\C1H4N2O1\OHZDE\06-Apr-2025\0\\#t hf
 aug-cc-pvdz iop(5/13=1,5/36=2,99/5=2) pseudo=read geom=check guess=(re
 ad,tcheck) scf=(maxcycle=1)\\title\\0,1\C,0,0.,0.,0.141895\O,0,0.,0.,1
 .357923\N,0,0.,1.1617,-0.607409\N,0,0.,-1.1617,-0.607409\H,0,0.198783,
 1.990644,-0.072919\H,0,0.395193,1.143037,-1.532593\H,0,-0.198783,-1.99
 0644,-0.072919\H,0,-0.395193,-1.143037,-1.532593\\Version=ES64L-G16Rev
 C.01\State=1-A\HF=-225.0179085\RMSD=4.768e-02\Dipole=0.,0.,-1.0738178\
 Quadrupole=-1.8742656,2.9433193,-1.0690536,2.0366314,0.,0.\PG=C02 [C2(

 Normal termination of Gaussian 16 at Sun Apr  6 08:40:05 2025.
