 Gaussian 16, Revision C.01,

 ----------------------------------------------------------------------
 #t hf aug-cc-pvdz symm=none int=(grid=ultrafine) guess=(read,tcheck) s
 table=(opt,rrhf)
 ----------------------------------------------------------------------
 -----
 title
 -----
 Symbolic Z-matrix:
 Charge =  0 Multiplicity = 1

 SCF Done:  E(RHF) =  -321.922520356     A.U. after   13 cycles
 Normal termination of Gaussian 16 at Sun Apr  6 08:40:19 2025.
 Gaussian 16:  ES64L-G16RevC.01  3-Jul-2019

 ----------------------------------------------------------------------
 #t hf aug-cc-pvdz iop(5/13=1,5/36=2,99/5=2) pseudo=read geom=check gue
 ss=(read,tcheck) scf=(maxcycle=1)
 ----------------------------------------------------------------------
 -----
 title
 -----
 Structure from the checkpoint file:  "urethane.chk"
 Charge =  0 Multiplicity = 1

                         Standard orientation:
 ---------------------------------------------------------------------
 Center     Atomic      Atomic             Coordinates (Angstroms)
 Number     Number       Type             X           Y           Z
 ---------------------------------------------------------------------
      1          6           0        2.562959   -0.246263    0.024431
      2          1           0        2.684739   -0.856591   -0.869433
      3          1           0        3.378057    0.477039    0.064926
      4          1           0        2.630633   -0.894805    0.896772
      5          6           0        1.233789    0.476855    0.001020
      6          1           0        1.104781    1.083961    0.900241
      7          1           0        1.171235    1.127632   -0.877417
      8          8           0        0.198136   -0.516463   -0.060443
      9          7           0       -1.408351    1.154815    0.055718
     10          1           0       -0.750537    1.856650   -0.229457
     11          1           0       -2.382975    1.377652   -0.044925
     12          6           0       -1.116122   -0.185256   -0.006501
     13          8           0       -1.955791   -1.049445    0.017389
 ---------------------------------------------------------------------

 SCF Done:  E(RHF) =  -323.354638399     A.U. after    2 cycles

 The electronic state is 1-A.
 Alpha  occ. eigenvalues --  -21.08554 -21.02159 -15.78621 -11.51783 -11.46077
 Alpha  occ. eigenvalues --  -11.38390  -1.84086  -1.65709  -1.34537  -1.14719
 Alpha  occ. eigenvalues --   -0.91980  -0.81945  -0.73611  -0.67793  -0.65668
 Alpha  occ. eigenvalues --   -0.57819  -0.56800  -0.54193  -0.51922  -0.48212
 Alpha  occ. eigenvalues --   -0.41690  -0.37770  -0.30522  -0.29624
 Alpha virt. eigenvalues --    0.03038   0.04283   0.05121   0.05453   0.06130
 Alpha virt. eigenvalues --    0.06638   0.07326   0.10675   0.11904   0.12421
 Alpha virt. eigenvalues --    0.13391   0.13576   0.14932   0.16201   0.16429

 Mulliken charges:
               1
     1  C   -3.299531
     2  H    1.234844
     3  H    1.078161
     4  H    1.229206
     5  C   -2.099139
     6  H    1.567032
     7  H    1.549200
     8  O   -2.991428
     9  N   -2.678030
    10  H    0.672279
    11  H    0.648411
    12  C    6.075747
    13  O   -2.986752
 Sum of Mulliken charges =  -0.00000

 Dipole moment (field-independent basis, Debye):
    X=              2.0112    Y=              2.8582    Z=             -0.4305  Tot=              3.5213

 Test job not archived.
 1\1\GINC-SE177\SP\RHF\Aug-CC-pVDZ\C3H7N1O2\OHZDE\06-Apr-2025\0\\#t hf
 aug-cc-pvdz iop(5/13=1,5/36=2,99/5=2) pseudo=read geom=check guess=(re
 ad,tcheck) scf=(maxcycle=1)\\title\\0,1\C,0,2.562959,-0.246263,0.02443
 1\H,0,2.684739,-0.856591,-0.869433\H,0,3.378057,0.477039,0.064926\H,0,
 2.630633,-0.894805,0.896772\C,0,1.233789,0.476855,0.00102\H,0,1.104781
 ,1.083961,0.900241\H,0,1.171235,1.127632,-0.877417\O,0,0.198136,-0.516
 463,-0.060443\N,0,-1.408351,1.154815,0.055718\H,0,-0.750537,1.85665,-0
 .229457\H,0,-2.382975,1.377652,-0.044925\C,0,-1.116122,-0.185256,-0.00

 Normal termination of Gaussian 16 at Sun Apr  6 08:40:24 2025.
