 Gaussian 16, Revision C.01,

 ----------------------------------------------------------------------
 #t hf aug-cc-pvdz symm=none int=(grid=ultrafine) guess=(read,tcheck) s
 table=(opt,rrhf)
 ----------------------------------------------------------------------
 -----
 title
 -----
 Symbolic Z-matrix:
 Charge =  0 Multiplicity = 1

 SCF Done:  E(RHF) =  -399.994186036     A.U. after   14 cycles
 Normal termination of Gaussian 16 at Sun Apr  6 08:41:13 2025.
 Gaussian 16:  ES64L-G16RevC.01  3-Jul-2019

 ----------------------------------------------------------------------
 #t hf aug-cc-pvdz iop(5/13=1,5/36=2,99/5=2) pseudo=read geom=check gue
 ss=(read,tcheck) scf=(maxcycle=1)
 ----------------------------------------------------------------------
 -----
 title
 -----
 Structure from the checkpoint file:  "valine.chk"
 Charge =  0 Multiplicity = 1

                         Standard orientation:
 ---------------------------------------------------------------------
 Center     Atomic      Atomic             Coordinates (Angstroms)
 Number     Number       Type             X           Y           Z
 ---------------------------------------------------------------------
      1          7           0       -0.204180    1.865921   -0.165122
      2          6           0       -0.044385    0.433011   -0.462275
      3          6           0       -1.370928   -0.271392   -0.129443
      4          8           0       -1.723843   -1.301180   -0.637826
      5          8           0       -2.103030    0.357938    0.804964
      6          1           0       -1.646282    1.209604    0.969437
      7          6           0        1.128185   -0.162775    0.360267
      8          6           0        2.465222    0.464609   -0.056758
      9          6           0        1.217327   -1.687377    0.244479
     10          1           0        0.147500    0.235377   -1.520887
     11          1           0        0.941461    0.092091    1.408810
     12          1           0        3.277525    0.032580    0.528053
     13          1           0        2.673618    0.266976   -1.110595
     14          1           0        2.508562    1.543790    0.096919
     15          1           0        0.318428   -2.184121    0.600700
     16          1           0        1.371984   -1.994000   -0.791577
     17          1           0        2.062337   -2.049689    0.830873
     18          1           0        0.683380    2.321499   -0.008696
     19          1           0       -0.666802    2.353922   -0.921910
 ---------------------------------------------------------------------

 SCF Done:  E(RHF) =  -401.844785793     A.U. after    2 cycles

 The electronic state is 1-A.
 Alpha  occ. eigenvalues --  -21.10231 -21.03800 -15.76445 -11.52181 -11.46906
 Alpha  occ. eigenvalues --  -11.42710 -11.39580 -11.36637  -1.81244  -1.64575
 Alpha  occ. eigenvalues --   -1.38749  -1.21909  -1.03207  -1.00578  -0.85357
 Alpha  occ. eigenvalues --   -0.77236  -0.71456  -0.69125  -0.64129  -0.61341
 Alpha  occ. eigenvalues --   -0.60278  -0.56554  -0.54441  -0.52497  -0.50156
 Alpha  occ. eigenvalues --   -0.47866  -0.46554  -0.44048  -0.43678  -0.39269
 Alpha  occ. eigenvalues --   -0.32199  -0.27989
 Alpha virt. eigenvalues --    0.03425   0.04306   0.04736   0.05305   0.05481
 Alpha virt. eigenvalues --    0.05648   0.06633   0.07392   0.07776   0.08883
 Alpha virt. eigenvalues --    0.09329   0.11411   0.12173   0.12695   0.13499

 Mulliken charges:
               1
     1  N   -2.842964
     2  C   -1.245251
     3  C    7.166686
     4  O   -3.420862
     5  O   -3.361457
     6  H    1.089078
     7  C   -1.271022
     8  C   -4.261650
     9  C   -3.904430
    10  H    1.599163
    11  H    1.751219
    12  H    1.183369
    13  H    1.298178
    14  H    1.290164
    15  H    1.284190
    16  H    1.275400
    17  H    1.153846
    18  H    0.667330
    19  H    0.549014
 Sum of Mulliken charges =   0.00000

 Dipole moment (field-independent basis, Debye):
    X=              2.4181    Y=              2.3254    Z=             -0.1029  Tot=              3.3564

 Test job not archived.
 1\1\GINC-SE200\SP\RHF\Aug-CC-pVDZ\C5H11N1O2\OHZDE\06-Apr-2025\0\\#t hf
  aug-cc-pvdz iop(5/13=1,5/36=2,99/5=2) pseudo=read geom=check guess=(r
 ead,tcheck) scf=(maxcycle=1)\\title\\0,1\N,0,-0.20418,1.865921,-0.1651
 22\C,0,-0.044385,0.433011,-0.462275\C,0,-1.370928,-0.271392,-0.129443\
 O,0,-1.723843,-1.30118,-0.637826\O,0,-2.10303,0.357938,0.804964\H,0,-1
 .646282,1.209604,0.969437\C,0,1.128185,-0.162775,0.360267\C,0,2.465222
 ,0.464609,-0.056758\C,0,1.217327,-1.687377,0.244479\H,0,0.1475,0.23537
 7,-1.520887\H,0,0.941461,0.092091,1.40881\H,0,3.277525,0.03258,0.52805

 Normal termination of Gaussian 16 at Sun Apr  6 08:41:22 2025.
