 Gaussian 16, Revision C.01,

 ----------------------------------------------------------------------
 #t hf aug-cc-pvdz symm=none int=(grid=ultrafine) guess=(read,tcheck) s
 table=(opt,rrhf)
 ----------------------------------------------------------------------
 -----
 title
 -----
 Symbolic Z-matrix:
 Charge =  0 Multiplicity = 1

 SCF Done:  E(RHF) =  -304.710222036     A.U. after   14 cycles
 Normal termination of Gaussian 16 at Sun Apr  6 08:40:11 2025.
 Gaussian 16:  ES64L-G16RevC.01  3-Jul-2019

 ----------------------------------------------------------------------
 #t hf aug-cc-pvdz iop(5/13=1,5/36=2,99/5=2) pseudo=read geom=check gue
 ss=(read,tcheck) scf=(maxcycle=1)
 ----------------------------------------------------------------------
 -----
 title
 -----
 Structure from the checkpoint file:  "vinyl_acetate.chk"
 Charge =  0 Multiplicity = 1

                         Standard orientation:
 ---------------------------------------------------------------------
 Center     Atomic      Atomic             Coordinates (Angstroms)
 Number     Number       Type             X           Y           Z
 ---------------------------------------------------------------------
      1          6           0       -1.357401    1.261636   -0.000015
      2          6           0       -1.021256   -0.208745    0.000007
      3          8           0        0.300018   -0.575884   -0.000304
      4          6           0        1.343345    0.319637    0.000014
      5          6           0        2.594789   -0.109974    0.000104
      6          8           0       -1.841186   -1.081285    0.000173
      7          1           0       -0.954127    1.760057    0.881924
      8          1           0       -0.953586    1.760128   -0.881661
      9          1           0       -2.438358    1.353144   -0.000324
     10          1           0        1.083879    1.367562    0.000051
     11          1           0        2.832057   -1.163725    0.000004
     12          1           0        3.402610    0.604869    0.000394
 ---------------------------------------------------------------------

 SCF Done:  E(RHF) =  -306.061752491     A.U. after    2 cycles

 The electronic state is 1-A.
 Alpha  occ. eigenvalues --  -21.10963 -21.05594 -11.53419 -11.46601 -11.41432
 Alpha  occ. eigenvalues --  -11.39132  -1.85953  -1.67553  -1.13752  -1.12096
 Alpha  occ. eigenvalues --   -0.86820  -0.78384  -0.68528  -0.63596  -0.62719
 Alpha  occ. eigenvalues --   -0.59838  -0.54875  -0.53391  -0.50367  -0.43721
 Alpha  occ. eigenvalues --   -0.42462  -0.30766  -0.29126
 Alpha virt. eigenvalues --    0.02966   0.04624   0.05433   0.05708   0.06472
 Alpha virt. eigenvalues --    0.08169   0.09106   0.10537   0.11825   0.12410
 Alpha virt. eigenvalues --    0.12457   0.12953   0.13557   0.14538   0.16806

 Mulliken charges:
               1
     1  C   -4.359566
     2  C    5.071309
     3  O   -3.811214
     4  C    1.469378
     5  C   -3.656421
     6  O   -3.027653
     7  H    1.291554
     8  H    1.291539
     9  H    1.070324
    10  H    1.898730
    11  H    1.504258
    12  H    1.257761
 Sum of Mulliken charges =   0.00000

 Dipole moment (field-independent basis, Debye):
    X=              0.7443    Y=              2.0054    Z=              0.0000  Tot=              2.1391

 Test job not archived.
 1\1\GINC-SE212\SP\RHF\Aug-CC-pVDZ\C4H6O2\OHZDE\06-Apr-2025\0\\#t hf au
 g-cc-pvdz iop(5/13=1,5/36=2,99/5=2) pseudo=read geom=check guess=(read
 ,tcheck) scf=(maxcycle=1)\\title\\0,1\C,0,-1.357401,1.261636,-0.000015
 \C,0,-1.021256,-0.208745,0.000007\O,0,0.300018,-0.575884,-0.000304\C,0
 ,1.343345,0.319637,0.000014\C,0,2.594789,-0.109974,0.000104\O,0,-1.841
 186,-1.081285,0.000173\H,0,-0.954127,1.760057,0.881924\H,0,-0.953586,1
 .760128,-0.881661\H,0,-2.438358,1.353144,-0.000324\H,0,1.083879,1.3675
 62,0.000051\H,0,2.832057,-1.163725,0.000004\H,0,3.40261,0.604869,0.000

 Normal termination of Gaussian 16 at Sun Apr  6 08:40:16 2025.
