 Gaussian 16, Revision C.01,

 ----------------------------------------------------------------------
 #t hf aug-cc-pvdz symm=none int=(grid=ultrafine) guess=(read,tcheck) s
 table=(opt,rrhf)
 ----------------------------------------------------------------------
 -----
 title
 -----
 Symbolic Z-matrix:
 Charge =  0 Multiplicity = 1

 SCF Done:  E(RHF) =  -229.794607548     A.U. after   13 cycles
 Normal termination of Gaussian 16 at Sun Apr  6 08:40:07 2025.
 Gaussian 16:  ES64L-G16RevC.01  3-Jul-2019

 ----------------------------------------------------------------------
 #t hf aug-cc-pvdz iop(5/13=1,5/36=2,99/5=2) pseudo=read geom=check gue
 ss=(read,tcheck) scf=(maxcycle=1)
 ----------------------------------------------------------------------
 -----
 title
 -----
 Structure from the checkpoint file:  "vinyl_ether.chk"
 Charge =  0 Multiplicity = 1

                         Standard orientation:
 ---------------------------------------------------------------------
 Center     Atomic      Atomic             Coordinates (Angstroms)
 Number     Number       Type             X           Y           Z
 ---------------------------------------------------------------------
      1          8           0        0.000000   -0.000000    0.327847
      2          6           0        0.000000    1.173022   -0.371331
      3          6           0       -0.000000   -1.173022   -0.371331
      4          6           0        0.000000    2.350479    0.235228
      5          6           0       -0.000000   -2.350479    0.235228
      6          1           0        0.000000    1.065115   -1.450457
      7          1           0       -0.000000   -1.065115   -1.450457
      8          1           0        0.000000    3.252035   -0.356369
      9          1           0        0.000000    2.435055    1.312056
     10          1           0       -0.000000   -3.252035   -0.356369
     11          1           0       -0.000000   -2.435055    1.312056
 ---------------------------------------------------------------------

 SCF Done:  E(RHF) =  -230.852110566     A.U. after    2 cycles

 The electronic state is 1-A1.
 Alpha  occ. eigenvalues --  -21.09582 -11.46109 -11.45008 -11.38130 -11.37364
 Alpha  occ. eigenvalues --   -1.81444  -1.15397  -1.07399  -0.84148  -0.82710
 Alpha  occ. eigenvalues --   -0.67648  -0.64006  -0.57290  -0.53590  -0.53583
 Alpha  occ. eigenvalues --   -0.51315  -0.41785  -0.39391  -0.25889
 Alpha virt. eigenvalues --    0.03814   0.05171   0.05539   0.05817   0.06436
 Alpha virt. eigenvalues --    0.08182   0.10471   0.10963   0.11414   0.13470
 Alpha virt. eigenvalues --    0.13603   0.13866   0.15858   0.16114   0.18017

 Mulliken charges:
               1
     1  O   -3.932623
     2  C    1.469168
     3  C    1.469168
     4  C   -3.721014
     5  C   -3.721014
     6  H    1.454066
     7  H    1.454066
     8  H    1.301149
     9  H    1.462942
    10  H    1.301149
    11  H    1.462942
 Sum of Mulliken charges =   0.00000

 Dipole moment (field-independent basis, Debye):
    X=             -0.0000    Y=              0.0000    Z=             -0.7099  Tot=              0.7099

 Test job not archived.
 1\1\GINC-SE009\SP\RHF\Aug-CC-pVDZ\C4H6O1\OHZDE\06-Apr-2025\0\\#t hf au
 g-cc-pvdz iop(5/13=1,5/36=2,99/5=2) pseudo=read geom=check guess=(read
 ,tcheck) scf=(maxcycle=1)\\title\\0,1\O,0,0.,0.,0.327847\C,0,0.,1.1730
 22,-0.371331\C,0,0.,-1.173022,-0.371331\C,0,0.,2.350479,0.235228\C,0,0
 .,-2.350479,0.235228\H,0,0.,1.065115,-1.450457\H,0,0.,-1.065115,-1.450
 457\H,0,0.,3.252035,-0.356369\H,0,0.,2.435055,1.312056\H,0,0.,-3.25203
 5,-0.356369\H,0,0.,-2.435055,1.312056\\Version=ES64L-G16RevC.01\State=
 1-A1\HF=-230.8521106\RMSD=5.717e-01\Dipole=0.,0.,-0.2793044\Quadrupole

 Normal termination of Gaussian 16 at Sun Apr  6 08:40:10 2025.
