 Gaussian 16, Revision C.01,

 ----------------------------------------------------------------------
 #t hf aug-cc-pvdz symm=none int=(grid=ultrafine) guess=(read,tcheck) s
 table=(opt,rrhf)
 ----------------------------------------------------------------------
 -----
 title
 -----
 Symbolic Z-matrix:
 Charge =  0 Multiplicity = 1

 SCF Done:  E(RHF) =  -854.805087485     A.U. after   16 cycles
 Normal termination of Gaussian 16 at Sun Apr  6 08:41:58 2025.
 Gaussian 16:  ES64L-G16RevC.01  3-Jul-2019

 ----------------------------------------------------------------------
 #t hf aug-cc-pvdz iop(5/13=1,5/36=2,99/5=2) pseudo=read geom=check gue
 ss=(read,tcheck) scf=(maxcycle=1)
 ----------------------------------------------------------------------
 -----
 title
 -----
 Structure from the checkpoint file:  "vinylsulfonylbenzene.chk"
 Charge =  0 Multiplicity = 1

                         Standard orientation:
 ---------------------------------------------------------------------
 Center     Atomic      Atomic             Coordinates (Angstroms)
 Number     Number       Type             X           Y           Z
 ---------------------------------------------------------------------
      1          6           0       -2.760426   -1.207325    1.207306
      2          6           0       -1.942526   -0.170313    1.165936
      3         16           0       -1.209568    0.357864   -0.377660
      4          8           0       -1.661482   -0.546197   -1.429486
      5          8           0       -1.432644    1.796435   -0.478409
      6          6           0        0.549958    0.093229   -0.128571
      7          6           0        1.327317    1.134136    0.365938
      8          6           0        2.688495    0.926492    0.555460
      9          6           0        3.254893   -0.306208    0.249360
     10          6           0        2.466154   -1.336958   -0.253252
     11          6           0        1.104750   -1.142081   -0.445145
     12          1           0       -2.971203   -1.781796    0.315349
     13          1           0       -3.245923   -1.496562    2.129835
     14          1           0       -1.694653    0.461090    2.008205
     15          1           0        0.872163    2.091493    0.574475
     16          1           0        3.306169    1.729235    0.933931
     17          1           0        4.315074   -0.462595    0.395508
     18          1           0        2.912325   -2.289975   -0.502003
     19          1           0        0.480456   -1.924459   -0.851784
 ---------------------------------------------------------------------

 SCF Done:  E(RHF) =  -857.172802104     A.U. after    2 cycles

 The electronic state is 1-A.
 Alpha  occ. eigenvalues --  -75.88573 -21.03940 -21.03747 -13.50531 -13.40456
 Alpha  occ. eigenvalues --  -13.36747 -11.54161 -11.46064 -11.45804 -11.45673
 Alpha  occ. eigenvalues --  -11.43639 -11.42880 -11.41822 -11.38882  -8.23481
 Alpha  occ. eigenvalues --   -1.81920  -1.64249  -1.37006  -1.20958  -1.13525
 Alpha  occ. eigenvalues --   -1.11731  -0.99983  -0.89132  -0.88011  -0.81196
 Alpha  occ. eigenvalues --   -0.73993  -0.69206  -0.65404  -0.61998  -0.60801
 Alpha  occ. eigenvalues --   -0.60270  -0.59954  -0.54822  -0.51404  -0.49001
 Alpha  occ. eigenvalues --   -0.47732  -0.44093  -0.41388  -0.38823  -0.37504
 Alpha  occ. eigenvalues --   -0.36096  -0.35046  -0.34748  -0.34288
 Alpha virt. eigenvalues --    0.02715   0.03918   0.04926   0.04963   0.05548
 Alpha virt. eigenvalues --    0.06559   0.07103   0.07272   0.07816   0.09608
 Alpha virt. eigenvalues --    0.10193   0.11162   0.11449   0.12183   0.12882

 Mulliken charges:
               1
     1  C   -2.948336
     2  C   -2.403148
     3  S    7.224649
     4  O   -2.923164
     5  O   -2.893396
     6  C    2.903614
     7  C   -3.988927
     8  C   -0.556827
     9  C   -2.829319
    10  C   -0.661226
    11  C   -3.390160
    12  H    1.445010
    13  H    1.393773
    14  H    1.354011
    15  H    1.830458
    16  H    1.502282
    17  H    1.557823
    18  H    1.513123
    19  H    1.869759
 Sum of Mulliken charges =   0.00000

 Dipole moment (field-independent basis, Debye):
    X=              1.8145    Y=             -1.5845    Z=              2.0256  Tot=              3.1474

 Test job not archived.
 1\1\GINC-SE010\SP\RHF\Aug-CC-pVDZ\C8H8O2S1\OHZDE\06-Apr-2025\0\\#t hf
 aug-cc-pvdz iop(5/13=1,5/36=2,99/5=2) pseudo=read geom=check guess=(re
 ad,tcheck) scf=(maxcycle=1)\\title\\0,1\C,0,-2.760426,-1.207325,1.2073
 06\C,0,-1.942526,-0.170313,1.165936\S,0,-1.209568,0.357864,-0.37766\O,
 0,-1.661482,-0.546197,-1.429486\O,0,-1.432644,1.796435,-0.478409\C,0,0
 .549958,0.093229,-0.128571\C,0,1.327317,1.134136,0.365938\C,0,2.688495
 ,0.926492,0.55546\C,0,3.254893,-0.306208,0.24936\C,0,2.466154,-1.33695
 8,-0.253252\C,0,1.10475,-1.142081,-0.445145\H,0,-2.971203,-1.781796,0.

 Normal termination of Gaussian 16 at Sun Apr  6 08:42:10 2025.
