 Gaussian 16, Revision C.01,

 ----------------------------------------------------------------------
 #t hf aug-cc-pvdz symm=none int=(grid=ultrafine) guess=(read,tcheck) s
 table=(opt,rrhf)
 ----------------------------------------------------------------------
 -----
 title
 -----
 Symbolic Z-matrix:
 Charge =  0 Multiplicity = 1

 SCF Done:  E(RHF) =  -275.762537542     A.U. after   11 cycles
 Normal termination of Gaussian 16 at Sun Apr  6 08:08:23 2025.
 Gaussian 16:  ES64L-G16RevC.01  3-Jul-2019

 ----------------------------------------------------------------------
 #t hf aug-cc-pvdz iop(5/13=1,5/36=2,99/5=2) pseudo=read geom=check gue
 ss=(read,tcheck) scf=(maxcycle=1)
 ----------------------------------------------------------------------
 -----
 title
 -----
 Structure from the checkpoint file:  "Z-1-2-difluoroethene.chk"
 Charge =  0 Multiplicity = 1

                         Standard orientation:
 ---------------------------------------------------------------------
 Center     Atomic      Atomic             Coordinates (Angstroms)
 Number     Number       Type             X           Y           Z
 ---------------------------------------------------------------------
      1          6           0        0.000000    0.660572    0.578468
      2          6           0       -0.000000   -0.660572    0.578468
      3          9           0        0.000000    1.383039   -0.550638
      4          9           0       -0.000000   -1.383039   -0.550638
      5          1           0        0.000000    1.245818    1.484934
      6          1           0       -0.000000   -1.245818    1.484934
 ---------------------------------------------------------------------

 SCF Done:  E(RHF) =  -276.796706455     A.U. after    2 cycles

 The electronic state is 1-A1.
 Alpha  occ. eigenvalues --  -29.29786 -29.29736 -11.50338 -11.44849  -1.28226
 Alpha  occ. eigenvalues --   -1.01802  -0.77958  -0.71075  -0.62064  -0.54649
 Alpha  occ. eigenvalues --   -0.41106  -0.40240  -0.36734  -0.29375  -0.27805
 Alpha  occ. eigenvalues --   -0.19602
 Alpha virt. eigenvalues --    0.03833   0.05360   0.11501   0.11817   0.11903
 Alpha virt. eigenvalues --    0.12402   0.13068   0.15445   0.15566   0.20564
 Alpha virt. eigenvalues --    0.23831   0.24098   0.27506   0.28234   0.30413

 Mulliken charges:
               1
     1  C   -2.081118
     2  C   -2.081118
     3  F    0.779052
     4  F    0.779052
     5  H    1.302066
     6  H    1.302066
 Sum of Mulliken charges =   0.00000

 Dipole moment (field-independent basis, Debye):
    X=             -0.0000    Y=              0.0000    Z=             -2.3163  Tot=              2.3163

 Test job not archived.
 1\1\GINC-SE222\SP\RHF\Aug-CC-pVDZ\C2H2F2\OHZDE\06-Apr-2025\0\\#t hf au
 g-cc-pvdz iop(5/13=1,5/36=2,99/5=2) pseudo=read geom=check guess=(read
 ,tcheck) scf=(maxcycle=1)\\title\\0,1\C,0,0.,0.660572,0.578468\C,0,0.,
 -0.660572,0.578468\F,0,0.,1.383039,-0.550638\F,0,0.,-1.383039,-0.55063
 8\H,0,0.,1.245818,1.484934\H,0,0.,-1.245818,1.484934\\Version=ES64L-G1
 6RevC.01\State=1-A1\HF=-276.7967065\RMSD=5.767e-01\Dipole=0.,0.,-0.911
 3042\Quadrupole=-1.9925812,2.1608707,-0.1682895,0.,0.,0.\PG=C02V [SGV(
 C2H2F2)]\\@

 Normal termination of Gaussian 16 at Sun Apr  6 08:08:25 2025.
