 Gaussian 16, Revision C.01,

 ----------------------------------------------------------------------
 #t hf aug-cc-pvdz symm=none int=(grid=ultrafine) guess=(read,tcheck) s
 table=(opt,rrhf)
 ----------------------------------------------------------------------
 -----
 title
 -----
 Symbolic Z-matrix:
 Charge =  0 Multiplicity = 1

 SCF Done:  E(RHF) =  -231.834679926     A.U. after   13 cycles
 Normal termination of Gaussian 16 at Sun Apr  6 08:08:42 2025.
 Gaussian 16:  ES64L-G16RevC.01  3-Jul-2019

 ----------------------------------------------------------------------
 #t hf aug-cc-pvdz iop(5/13=1,5/36=2,99/5=2) pseudo=read geom=check gue
 ss=(read,tcheck) scf=(maxcycle=1)
 ----------------------------------------------------------------------
 -----
 title
 -----
 Structure from the checkpoint file:  "Z-1-3-5-hexatriene.chk"
 Charge =  0 Multiplicity = 1

                         Standard orientation:
 ---------------------------------------------------------------------
 Center     Atomic      Atomic             Coordinates (Angstroms)
 Number     Number       Type             X           Y           Z
 ---------------------------------------------------------------------
      1          6           0        0.000000    0.674455    0.756935
      2          6           0       -0.000000   -0.674455    0.756935
      3          6           0        0.000000    1.546499   -0.398566
      4          6           0       -0.000000   -1.546499   -0.398566
      5          6           0        0.000000    2.881171   -0.319932
      6          6           0       -0.000000   -2.881171   -0.319932
      7          1           0        0.000000    1.175747    1.719147
      8          1           0       -0.000000   -1.175747    1.719147
      9          1           0        0.000000    1.087294   -1.380064
     10          1           0       -0.000000   -1.087294   -1.380064
     11          1           0        0.000000    3.391009    0.635734
     12          1           0       -0.000000   -3.391009    0.635734
     13          1           0        0.000000    3.500756   -1.205438
     14          1           0       -0.000000   -3.500756   -1.205438
 ---------------------------------------------------------------------

 SCF Done:  E(RHF) =  -232.972425278     A.U. after    2 cycles

 The electronic state is 1-A1.
 Alpha  occ. eigenvalues --  -11.46185 -11.42618 -11.42308 -11.39734 -11.39507
 Alpha  occ. eigenvalues --  -11.37051  -1.27173  -1.15834  -1.04236  -0.88510
 Alpha  occ. eigenvalues --   -0.82192  -0.75175  -0.66803  -0.62251  -0.59132
 Alpha  occ. eigenvalues --   -0.53936  -0.52369  -0.48906  -0.46033  -0.45256
 Alpha  occ. eigenvalues --   -0.38450  -0.27476
 Alpha virt. eigenvalues --    0.03746   0.04815   0.05507   0.05684   0.06422
 Alpha virt. eigenvalues --    0.07239   0.08093   0.08617   0.09829   0.09850
 Alpha virt. eigenvalues --    0.10746   0.12364   0.12805   0.14541   0.14854

 Mulliken charges:
               1
     1  C   -0.315303
     2  C   -0.315303
     3  C   -0.161754
     4  C   -0.161754
     5  C   -5.280695
     6  C   -5.280695
     7  H    1.458772
     8  H    1.458772
     9  H    1.526312
    10  H    1.526312
    11  H    1.432756
    12  H    1.432756
    13  H    1.339911
    14  H    1.339911
 Sum of Mulliken charges =   0.00000

 Dipole moment (field-independent basis, Debye):
    X=              0.0000    Y=             -0.0000    Z=             -0.0804  Tot=              0.0804

 Test job not archived.
 1\1\GINC-SE012\SP\RHF\Aug-CC-pVDZ\C6H8\OHZDE\06-Apr-2025\0\\#t hf aug-
 cc-pvdz iop(5/13=1,5/36=2,99/5=2) pseudo=read geom=check guess=(read,t
 check) scf=(maxcycle=1)\\title\\0,1\C,0,0.,0.674455,0.756935\C,0,0.,-0
 .674455,0.756935\C,0,0.,1.546499,-0.398566\C,0,0.,-1.546499,-0.398566\
 C,0,0.,2.881171,-0.319932\C,0,0.,-2.881171,-0.319932\H,0,0.,1.175747,1
 .719147\H,0,0.,-1.175747,1.719147\H,0,0.,1.087294,-1.380064\H,0,0.,-1.
 087294,-1.380064\H,0,0.,3.391009,0.635734\H,0,0.,-3.391009,0.635734\H,
 0,0.,3.500756,-1.205438\H,0,0.,-3.500756,-1.205438\\Version=ES64L-G16R

 Normal termination of Gaussian 16 at Sun Apr  6 08:08:45 2025.
