 Gaussian 16, Revision C.01,

 ----------------------------------------------------------------------
 #t hf aug-cc-pvdz symm=none int=(grid=ultrafine) guess=(read,tcheck) s
 table=(opt,rrhf)
 ----------------------------------------------------------------------
 -----
 title
 -----
 Symbolic Z-matrix:
 Charge =  0 Multiplicity = 1

 SCF Done:  E(RHF) =  -382.805913548     A.U. after   14 cycles

 1\1\GINC-SE046\Stability\RHF\Aug-CC-pVDZ\C6H10O2\OHZDE\06-Apr-2025\0\\
 #t hf aug-cc-pvdz symm=none int=(grid=ultrafine) guess=(read,tcheck) s
 table=(opt,rrhf)\\title\\0,1\C,0,-1.951735,-0.180434,0.100405\C,0,-0.8
 83932,0.542857,-0.210248\C,0,1.381983,-0.09468,0.182826\C,0,-2.041959,
 -1.672002,0.148175\C,0,-0.803865,2.031933,-0.270242\C,0,2.547078,-0.77
 727,-0.480474\O,0,1.391725,0.406289,1.275264\O,0,0.290604,-0.118487,-0
 .630137\H,0,-2.849211,0.374513,0.346595\H,0,-2.835495,-2.034166,-0.509
 96\H,0,-1.110051,-2.145591,-0.151752\H,0,-2.289315,-2.012966,1.156589\

 Normal termination of Gaussian 16 at Sun Apr  6 08:09:15 2025.
 Gaussian 16:  ES64L-G16RevC.01  3-Jul-2019

 ----------------------------------------------------------------------
 #t hf aug-cc-pvdz iop(5/13=1,5/36=2,99/5=2) pseudo=read geom=check gue
 ss=(read,tcheck) scf=(maxcycle=1)
 ----------------------------------------------------------------------
 -----
 title
 -----
 Structure from the checkpoint file:  "Z-1-methylprop-1-enyl_acetate.chk"
 Charge =  0 Multiplicity = 1

                         Standard orientation:
 ---------------------------------------------------------------------
 Center     Atomic      Atomic             Coordinates (Angstroms)
 Number     Number       Type             X           Y           Z
 ---------------------------------------------------------------------
      1          6           0       -1.951735   -0.180434    0.100405
      2          6           0       -0.883932    0.542857   -0.210248
      3          6           0        1.381983   -0.094680    0.182826
      4          6           0       -2.041959   -1.672002    0.148175
      5          6           0       -0.803865    2.031933   -0.270242
      6          6           0        2.547078   -0.777270   -0.480474
      7          8           0        1.391725    0.406289    1.275264
      8          8           0        0.290604   -0.118487   -0.630137
      9          1           0       -2.849211    0.374513    0.346595
     10          1           0       -2.835495   -2.034166   -0.509960
     11          1           0       -1.110051   -2.145591   -0.151752
     12          1           0       -2.289315   -2.012966    1.156589
     13          1           0       -1.765809    2.473463   -0.017477
     14          1           0       -0.524541    2.360081   -1.274356
     15          1           0       -0.054472    2.408994    0.426265
     16          1           0        2.828171   -0.232808   -1.382252
     17          1           0        2.270172   -1.786382   -0.783928
     18          1           0        3.386497   -0.809977    0.206602
 ---------------------------------------------------------------------

 SCF Done:  E(RHF) =  -384.565958269     A.U. after    2 cycles

 The electronic state is 1-A.
 Alpha  occ. eigenvalues --  -21.09143 -21.05022 -11.52953 -11.47088 -11.40543
 Alpha  occ. eigenvalues --  -11.39688 -11.38890 -11.36802  -1.84740  -1.66860
 Alpha  occ. eigenvalues --   -1.21327  -1.10977  -1.07969  -0.94033  -0.82658
 Alpha  occ. eigenvalues --   -0.69474  -0.65146  -0.64006  -0.60921  -0.60638
 Alpha  occ. eigenvalues --   -0.57749  -0.56534  -0.55489  -0.52767  -0.50111
 Alpha  occ. eigenvalues --   -0.49236  -0.47235  -0.42152  -0.34288  -0.31958
 Alpha  occ. eigenvalues --   -0.28840
 Alpha virt. eigenvalues --    0.03306   0.04909   0.05120   0.05370   0.05794
 Alpha virt. eigenvalues --    0.06293   0.06804   0.07457   0.08546   0.08997
 Alpha virt. eigenvalues --    0.09873   0.11280   0.12821   0.13195   0.13327

 Mulliken charges:
               1
     1  C   -0.585866
     2  C    3.829379
     3  C    5.087267
     4  C   -4.507743
     5  C   -4.665830
     6  C   -4.668331
     7  O   -3.075642
     8  O   -4.158236
     9  H    1.415649
    10  H    1.173896
    11  H    1.468012
    12  H    1.210854
    13  H    1.253663
    14  H    1.227461
    15  H    1.193685
    16  H    1.273859
    17  H    1.276873
    18  H    1.251049
 Sum of Mulliken charges =  -0.00000

 Dipole moment (field-independent basis, Debye):
    X=             -0.4352    Y=             -0.5016    Z=             -1.0024  Tot=              1.2024

 Test job not archived.
 1\1\GINC-SE046\SP\RHF\Aug-CC-pVDZ\C6H10O2\OHZDE\06-Apr-2025\0\\#t hf a
 ug-cc-pvdz iop(5/13=1,5/36=2,99/5=2) pseudo=read geom=check guess=(rea
 d,tcheck) scf=(maxcycle=1)\\title\\0,1\C,0,-1.951735,-0.180434,0.10040
 5\C,0,-0.883932,0.542857,-0.210248\C,0,1.381983,-0.09468,0.182826\C,0,
 -2.041959,-1.672002,0.148175\C,0,-0.803865,2.031933,-0.270242\C,0,2.54
 7078,-0.77727,-0.480474\O,0,1.391725,0.406289,1.275264\O,0,0.290604,-0
 .118487,-0.630137\H,0,-2.849211,0.374513,0.346595\H,0,-2.835495,-2.034
 166,-0.50996\H,0,-1.110051,-2.145591,-0.151752\H,0,-2.289315,-2.012966

 Normal termination of Gaussian 16 at Sun Apr  6 08:10:11 2025.
