 Gaussian 16, Revision C.01,

 ----------------------------------------------------------------------
 #t hf aug-cc-pvdz symm=none int=(grid=ultrafine) guess=(read,tcheck) s
 table=(opt,rrhf)
 ----------------------------------------------------------------------
 -----
 title
 -----
 Symbolic Z-matrix:
 Charge =  0 Multiplicity = 1

 SCF Done:  E(RHF) =  -233.013004451     A.U. after   14 cycles
 Normal termination of Gaussian 16 at Sun Apr  6 08:08:52 2025.
 Gaussian 16:  ES64L-G16RevC.01  3-Jul-2019

 ----------------------------------------------------------------------
 #t hf aug-cc-pvdz iop(5/13=1,5/36=2,99/5=2) pseudo=read geom=check gue
 ss=(read,tcheck) scf=(maxcycle=1)
 ----------------------------------------------------------------------
 -----
 title
 -----
 Structure from the checkpoint file:  "Z-1-3-hexadiene.chk"
 Charge =  0 Multiplicity = 1

                         Standard orientation:
 ---------------------------------------------------------------------
 Center     Atomic      Atomic             Coordinates (Angstroms)
 Number     Number       Type             X           Y           Z
 ---------------------------------------------------------------------
      1          1           0       -2.046077    1.260629    0.000000
      2          6           0       -1.219389    0.555593    0.000000
      3          1           0        0.021554    2.201006    0.000000
      4          6           0        0.000000    1.114678    0.000000
      5          1           0        1.392911   -0.573551    0.000000
      6          6           0        1.319865    0.504047    0.000000
      7          1           0        3.420124    0.739387    0.000000
      8          1           0        2.436778    2.299849    0.000000
      9          6           0        2.450226    1.216544    0.000000
     10          1           0       -2.367696   -0.977943    0.864681
     11          1           0       -2.367696   -0.977943   -0.864681
     12          6           0       -1.702301   -0.867901    0.000000
     13          1           0       -1.238007   -2.971360    0.000000
     14          1           0       -0.064100   -2.005323   -0.883366
     15          1           0       -0.064100   -2.005323    0.883366
     16          6           0       -0.702350   -2.021198    0.000000
 ---------------------------------------------------------------------

 SCF Done:  E(RHF) =  -234.190971055     A.U. after    2 cycles

 The electronic state is 1-A'.
 Alpha  occ. eigenvalues --  -11.45628 -11.41951 -11.41455 -11.39009 -11.38389
 Alpha  occ. eigenvalues --  -11.35888  -1.26143  -1.15607  -1.04624  -0.92412
 Alpha  occ. eigenvalues --   -0.82561  -0.74671  -0.64312  -0.61652  -0.61180
 Alpha  occ. eigenvalues --   -0.55959  -0.53976  -0.49636  -0.49396  -0.45717
 Alpha  occ. eigenvalues --   -0.43159  -0.42190  -0.29041
 Alpha virt. eigenvalues --    0.03589   0.04972   0.05440   0.05704   0.06217
 Alpha virt. eigenvalues --    0.06462   0.06962   0.07061   0.08095   0.09663
 Alpha virt. eigenvalues --    0.10485   0.11348   0.13056   0.13284   0.14187

 Mulliken charges:
               1
     1  H    1.241516
     2  C   -0.911601
     3  H    1.346868
     4  C    0.897800
     5  H    1.772967
     6  C    0.032522
     7  H    1.344450
     8  H    1.459507
     9  C   -5.191802
    10  H    1.145714
    11  H    1.145714
    12  C   -3.284033
    13  H    0.961374
    14  H    1.381334
    15  H    1.381334
    16  C   -4.723665
 Sum of Mulliken charges =   0.00000

 Dipole moment (field-independent basis, Debye):
    X=             -0.5301    Y=             -0.5120    Z=             -0.0000  Tot=              0.7370

 Test job not archived.
 1\1\GINC-SE208\SP\RHF\Aug-CC-pVDZ\C6H10\OHZDE\06-Apr-2025\0\\#t hf aug
 -cc-pvdz iop(5/13=1,5/36=2,99/5=2) pseudo=read geom=check guess=(read,
 tcheck) scf=(maxcycle=1)\\title\\0,1\H,0,-2.046077,1.260629,0.\C,0,-1.
 219389,0.555593,0.\H,0,0.021554,2.201006,0.\C,0,0.,1.114678,0.\H,0,1.3
 92911,-0.573551,0.\C,0,1.319865,0.504047,0.\H,0,3.420124,0.739387,0.\H
 ,0,2.436778,2.299849,0.\C,0,2.450226,1.216544,0.\H,0,-2.367696,-0.9779
 43,0.864681\H,0,-2.367696,-0.977943,-0.864681\C,0,-1.702301,-0.867901,
 0.\H,0,-1.238007,-2.97136,0.\H,0,-0.0641,-2.005323,-0.883366\H,0,-0.06

 Normal termination of Gaussian 16 at Sun Apr  6 08:10:08 2025.
