 Gaussian 16, Revision C.01,

 ----------------------------------------------------------------------
 #t hf aug-cc-pvdz symm=none int=(grid=ultrafine) guess=(read,tcheck) s
 table=(opt,rrhf)
 ----------------------------------------------------------------------
 -----
 title
 -----
 Symbolic Z-matrix:
 Charge =  0 Multiplicity = 1

 SCF Done:  E(RHF) =  -413.667789967     A.U. after   13 cycles
 Normal termination of Gaussian 16 at Sun Apr  6 08:08:25 2025.
 Gaussian 16:  ES64L-G16RevC.01  3-Jul-2019

 ----------------------------------------------------------------------
 #t hf aug-cc-pvdz iop(5/13=1,5/36=2,99/5=2) pseudo=read geom=check gue
 ss=(read,tcheck) scf=(maxcycle=1)
 ----------------------------------------------------------------------
 -----
 title
 -----
 Structure from the checkpoint file:  "Z-1-2-3-trifluoropropene.chk"
 Charge =  0 Multiplicity = 1

                         Standard orientation:
 ---------------------------------------------------------------------
 Center     Atomic      Atomic             Coordinates (Angstroms)
 Number     Number       Type             X           Y           Z
 ---------------------------------------------------------------------
      1          6           0       -0.894816   -0.631696    0.000000
      2          1           0       -0.633553   -1.676755    0.000000
      3          9           0       -2.212388   -0.376299    0.000000
      4          6           0        0.000000    0.341550    0.000000
      5          9           0       -0.371902    1.637064    0.000000
      6          6           0        1.486201    0.188572    0.000000
      7          9           0        1.834576   -1.152835    0.000000
      8          1           0        1.916333    0.657416    0.888334
      9          1           0        1.916333    0.657416   -0.888334
 ---------------------------------------------------------------------

 SCF Done:  E(RHF) =  -415.224053911     A.U. after    2 cycles

 The electronic state is 1-A'.
 Alpha  occ. eigenvalues --  -29.30565 -29.29722 -29.28200 -11.51523 -11.48948
 Alpha  occ. eigenvalues --  -11.45120  -1.34682  -1.16090  -0.99658  -0.79628
 Alpha  occ. eigenvalues --   -0.72695  -0.69020  -0.65748  -0.62303  -0.53389
 Alpha  occ. eigenvalues --   -0.41982  -0.40771  -0.39507  -0.36951  -0.32346
 Alpha  occ. eigenvalues --   -0.27665  -0.27658  -0.25082  -0.20228
 Alpha virt. eigenvalues --    0.04361   0.05647   0.05771   0.10131   0.11604
 Alpha virt. eigenvalues --    0.11632   0.12113   0.12919   0.13464   0.14867
 Alpha virt. eigenvalues --    0.15319   0.17334   0.17400   0.19930   0.21439

 Mulliken charges:
               1
     1  C   -1.499410
     2  H    1.380694
     3  F    0.670425
     4  C   -1.514069
     5  F    0.835622
     6  C   -2.892241
     7  F    0.353666
     8  H    1.332657
     9  H    1.332657
 Sum of Mulliken charges =   0.00000

 Dipole moment (field-independent basis, Debye):
    X=             -1.3888    Y=              0.4995    Z=              0.0000  Tot=              1.4759

 Test job not archived.
 1\1\GINC-SE165\SP\RHF\Aug-CC-pVDZ\C3H3F3\OHZDE\06-Apr-2025\0\\#t hf au
 g-cc-pvdz iop(5/13=1,5/36=2,99/5=2) pseudo=read geom=check guess=(read
 ,tcheck) scf=(maxcycle=1)\\title\\0,1\C,0,-0.894816,-0.631696,0.\H,0,-
 0.633553,-1.676755,0.\F,0,-2.212388,-0.376299,0.\C,0,0.,0.34155,0.\F,0
 ,-0.371902,1.637064,0.\C,0,1.486201,0.188572,0.\F,0,1.834576,-1.152835
 ,0.\H,0,1.916333,0.657416,0.888334\H,0,1.916333,0.657416,-0.888334\\Ve
 rsion=ES64L-G16RevC.01\State=1-A'\HF=-415.2240539\RMSD=6.163e-01\Dipol
 e=-0.5463908,0.1965258,0.\Quadrupole=2.2133187,0.4299801,-2.6432988,-0

 Normal termination of Gaussian 16 at Sun Apr  6 08:08:28 2025.
