 Gaussian 16, Revision C.01,

 ----------------------------------------------------------------------
 #t hf aug-cc-pvdz symm=none int=(grid=ultrafine) guess=(read,tcheck) s
 table=(opt,rrhf)
 ----------------------------------------------------------------------
 -----
 title
 -----
 Symbolic Z-matrix:
 Charge =  0 Multiplicity = 1

 SCF Done:  E(RHF) =  -233.012290654     A.U. after   13 cycles
 Normal termination of Gaussian 16 at Sun Apr  6 08:08:47 2025.
 Gaussian 16:  ES64L-G16RevC.01  3-Jul-2019

 ----------------------------------------------------------------------
 #t hf aug-cc-pvdz iop(5/13=1,5/36=2,99/5=2) pseudo=read geom=check gue
 ss=(read,tcheck) scf=(maxcycle=1)
 ----------------------------------------------------------------------
 -----
 title
 -----
 Structure from the checkpoint file:  "Z-1-4-hexadiene.chk"
 Charge =  0 Multiplicity = 1

                         Standard orientation:
 ---------------------------------------------------------------------
 Center     Atomic      Atomic             Coordinates (Angstroms)
 Number     Number       Type             X           Y           Z
 ---------------------------------------------------------------------
      1          6           0       -2.336058    0.040054   -0.754448
      2          1           0       -3.277485    0.507889   -0.453946
      3          1           0       -1.772566    0.765717   -1.337617
      4          1           0       -2.599402   -0.788479   -1.416868
      5          6           0       -1.586968   -0.461683    0.442081
      6          1           0       -2.107557   -1.217663    1.022372
      7          6           0       -0.380120   -0.094692    0.868817
      8          1           0        0.005574   -0.582736    1.758463
      9          6           0        0.533363    0.933703    0.270646
     10          1           0        0.042346    1.473818   -0.542976
     11          1           0        0.746217    1.697623    1.028760
     12          6           0        1.855390    0.410014   -0.232532
     13          1           0        2.574553    1.177611   -0.503227
     14          6           0        2.197298   -0.864315   -0.374253
     15          1           0        3.172382   -1.142407   -0.750747
     16          1           0        1.518518   -1.669861   -0.126075
 ---------------------------------------------------------------------

 SCF Done:  E(RHF) =  -234.193131346     A.U. after    2 cycles

 The electronic state is 1-A.
 Alpha  occ. eigenvalues --  -11.44496 -11.42585 -11.39411 -11.38748 -11.37290
 Alpha  occ. eigenvalues --  -11.35426  -1.26307  -1.14894  -1.03097  -0.94758
 Alpha  occ. eigenvalues --   -0.80074  -0.73198  -0.65809  -0.63846  -0.56595
 Alpha  occ. eigenvalues --   -0.56001  -0.55112  -0.52133  -0.49352  -0.46804
 Alpha  occ. eigenvalues --   -0.43446  -0.34453  -0.32688
 Alpha virt. eigenvalues --    0.03575   0.05273   0.05409   0.05697   0.05903
 Alpha virt. eigenvalues --    0.06292   0.06663   0.07186   0.07715   0.09303
 Alpha virt. eigenvalues --    0.11286   0.12076   0.12982   0.13521   0.14036

 Mulliken charges:
               1
     1  C   -4.581849
     2  H    1.174073
     3  H    1.346295
     4  H    1.174264
     5  C   -0.837003
     6  H    1.385661
     7  C   -0.095492
     8  H    1.527834
     9  C   -4.330109
    10  H    1.526153
    11  H    1.172247
    12  C   -0.316788
    13  H    1.237160
    14  C   -3.318407
    15  H    1.357868
    16  H    1.578092
 Sum of Mulliken charges =   0.00000

 Dipole moment (field-independent basis, Debye):
    X=             -0.3479    Y=              0.3187    Z=             -0.1285  Tot=              0.4890

 Test job not archived.
 1\1\GINC-SE209\SP\RHF\Aug-CC-pVDZ\C6H10\OHZDE\06-Apr-2025\0\\#t hf aug
 -cc-pvdz iop(5/13=1,5/36=2,99/5=2) pseudo=read geom=check guess=(read,
 tcheck) scf=(maxcycle=1)\\title\\0,1\C,0,-2.336058,0.040054,-0.754448\
 H,0,-3.277485,0.507889,-0.453946\H,0,-1.772566,0.765717,-1.337617\H,0,
 -2.599402,-0.788479,-1.416868\C,0,-1.586968,-0.461683,0.442081\H,0,-2.
 107557,-1.217663,1.022372\C,0,-0.38012,-0.094692,0.868817\H,0,0.005574
 ,-0.582736,1.758463\C,0,0.533363,0.933703,0.270646\H,0,0.042346,1.4738
 18,-0.542976\H,0,0.746217,1.697623,1.02876\C,0,1.85539,0.410014,-0.232

 Normal termination of Gaussian 16 at Sun Apr  6 08:08:52 2025.
