 Gaussian 16, Revision C.01,

 ----------------------------------------------------------------------
 #t hf aug-cc-pvdz symm=none int=(grid=ultrafine) guess=(read,tcheck) s
 table=(opt,rrhf)
 ----------------------------------------------------------------------
 -----
 title
 -----
 Symbolic Z-matrix:
 Charge =  0 Multiplicity = 1

 SCF Done:  E(RHF) =  -576.010760503     A.U. after   13 cycles

 1\1\GINC-SE047\Stability\RHF\Aug-CC-pVDZ\C3H5Cl1\OHZDE\06-Apr-2025\0\\
 #t hf aug-cc-pvdz symm=none int=(grid=ultrafine) guess=(read,tcheck) s
 table=(opt,rrhf)\\title\\0,1\C,0,0.,0.915171,0.\C,0,-1.234906,0.436582
 ,0.\C,0,-1.665685,-0.992435,0.\Cl,0,1.445564,-0.071997,0.\H,0,0.228804
 ,1.968959,0.\H,0,-2.020171,1.186064,0.\H,0,-0.816904,-1.671987,0.\H,0,
 -2.281387,-1.207498,0.876786\H,0,-2.281387,-1.207498,-0.876786\\Versio
 n=ES64L-G16RevC.01\HF=-576.0107605\RMSD=5.155e-09\Dipole=-0.762029,0.1
 95387,0.\Quadrupole=0.3076342,1.4838421,-1.7914763,0.0968318,0.,0.\PG=

 Normal termination of Gaussian 16 at Sun Apr  6 08:08:25 2025.
 Gaussian 16:  ES64L-G16RevC.01  3-Jul-2019

 ----------------------------------------------------------------------
 #t hf aug-cc-pvdz iop(5/13=1,5/36=2,99/5=2) pseudo=read geom=check gue
 ss=(read,tcheck) scf=(maxcycle=1)
 ----------------------------------------------------------------------
 -----
 title
 -----
 Structure from the checkpoint file:  "Z-1-chloro-1-propene.chk"
 Charge =  0 Multiplicity = 1

                         Standard orientation:
 ---------------------------------------------------------------------
 Center     Atomic      Atomic             Coordinates (Angstroms)
 Number     Number       Type             X           Y           Z
 ---------------------------------------------------------------------
      1          6           0       -0.000000    0.915171    0.000000
      2          6           0       -1.234906    0.436582    0.000000
      3          6           0       -1.665685   -0.992435    0.000000
      4         17           0        1.445564   -0.071997    0.000000
      5          1           0        0.228804    1.968959    0.000000
      6          1           0       -2.020171    1.186064    0.000000
      7          1           0       -0.816904   -1.671987    0.000000
      8          1           0       -2.281387   -1.207498    0.876786
      9          1           0       -2.281387   -1.207498   -0.876786
 ---------------------------------------------------------------------

 SCF Done:  E(RHF) =  -576.841977302     A.U. after    2 cycles

 The electronic state is 1-A'.
 Alpha  occ. eigenvalues --  -99.88860 -11.45266 -11.41538 -11.37863 -10.46226
 Alpha  occ. eigenvalues --   -9.66045  -9.65391  -9.65181  -1.35092  -1.17665
 Alpha  occ. eigenvalues --   -1.00027  -0.80136  -0.68838  -0.59862  -0.58079
 Alpha  occ. eigenvalues --   -0.54242  -0.53577  -0.50787  -0.47716  -0.35519
 Alpha virt. eigenvalues --    0.03098   0.05275   0.05731   0.06526   0.06847
 Alpha virt. eigenvalues --    0.08445   0.10905   0.11373   0.13184   0.14012
 Alpha virt. eigenvalues --    0.14021   0.14113   0.15091   0.16957   0.17374

 Mulliken charges:
               1
     1  C   -3.440431
     2  C    1.463805
     3  C   -3.895193
     4  Cl  -0.443952
     5  H    1.284969
     6  H    1.357422
     7  H    1.402341
     8  H    1.135519
     9  H    1.135519
 Sum of Mulliken charges =   0.00000

 Dipole moment (field-independent basis, Debye):
    X=             -2.1933    Y=              0.5343    Z=             -0.0000  Tot=              2.2575

 Test job not archived.
 1\1\GINC-SE047\SP\RHF\Aug-CC-pVDZ\C3H5Cl1\OHZDE\06-Apr-2025\0\\#t hf a
 ug-cc-pvdz iop(5/13=1,5/36=2,99/5=2) pseudo=read geom=check guess=(rea
 d,tcheck) scf=(maxcycle=1)\\title\\0,1\C,0,0.,0.915171,0.\C,0,-1.23490
 6,0.436582,0.\C,0,-1.665685,-0.992435,0.\Cl,0,1.445564,-0.071997,0.\H,
 0,0.228804,1.968959,0.\H,0,-2.020171,1.186064,0.\H,0,-0.816904,-1.6719
 87,0.\H,0,-2.281387,-1.207498,0.876786\H,0,-2.281387,-1.207498,-0.8767
 86\\Version=ES64L-G16RevC.01\State=1-A'\HF=-576.8419773\RMSD=5.977e-01
 \Dipole=-0.8629186,0.2101956,0.\Quadrupole=0.7524462,1.1981962,-1.9506

 Normal termination of Gaussian 16 at Sun Apr  6 08:08:28 2025.
