 Gaussian 16, Revision C.01,

 ----------------------------------------------------------------------
 #t hf aug-cc-pvdz symm=none int=(grid=ultrafine) guess=(read,tcheck) s
 table=(opt,rrhf)
 ----------------------------------------------------------------------
 -----
 title
 -----
 Symbolic Z-matrix:
 Charge =  0 Multiplicity = 1

 SCF Done:  E(RHF) =  -995.886330505     A.U. after   12 cycles

 1\1\GINC-SE212\Stability\RHF\Aug-CC-pVDZ\C2H2Cl2\OHZDE\06-Apr-2025\0\\
 #t hf aug-cc-pvdz symm=none int=(grid=ultrafine) guess=(read,tcheck) s
 table=(opt,rrhf)\\title\\0,1\C,0,0.,0.661946,0.959662\C,0,0.,-0.661946
 ,0.959662\Cl,0,0.,1.660082,-0.449807\Cl,0,0.,-1.660082,-0.449807\H,0,0
 .,1.210752,1.888744\H,0,0.,-1.210752,1.888744\\Version=ES64L-G16RevC.0
 1\HF=-995.8863305\RMSD=2.674e-09\Dipole=0.,0.,0.8701898\Quadrupole=-1.
 9216419,-1.0964816,3.0181235,0.,0.,0.\PG=Unknown\\@
 The archive entry for this job was punched.

 Normal termination of Gaussian 16 at Sun Apr  6 08:08:25 2025.
 Gaussian 16:  ES64L-G16RevC.01  3-Jul-2019

 ----------------------------------------------------------------------
 #t hf aug-cc-pvdz iop(5/13=1,5/36=2,99/5=2) pseudo=read geom=check gue
 ss=(read,tcheck) scf=(maxcycle=1)
 ----------------------------------------------------------------------
 -----
 title
 -----
 Structure from the checkpoint file:  "Z-1-2-dichloroethene.chk"
 Charge =  0 Multiplicity = 1

                         Standard orientation:
 ---------------------------------------------------------------------
 Center     Atomic      Atomic             Coordinates (Angstroms)
 Number     Number       Type             X           Y           Z
 ---------------------------------------------------------------------
      1          6           0        0.000000    0.661946    0.959662
      2          6           0       -0.000000   -0.661946    0.959662
      3         17           0        0.000000    1.660082   -0.449807
      4         17           0       -0.000000   -1.660082   -0.449807
      5          1           0        0.000000    1.210752    1.888744
      6          1           0       -0.000000   -1.210752    1.888744
 ---------------------------------------------------------------------

 SCF Done:  E(RHF) =  -996.741166112     A.U. after    2 cycles

 The electronic state is 1-A1.
 Alpha  occ. eigenvalues --  -99.90821 -99.90796 -11.48171 -11.44240 -10.48236
 Alpha  occ. eigenvalues --  -10.48210  -9.68173  -9.67906  -9.67298  -9.67147
 Alpha  occ. eigenvalues --   -9.67108  -9.67091  -1.40047  -1.32655  -1.10314
 Alpha  occ. eigenvalues --   -0.85917  -0.72519  -0.65006  -0.59186  -0.58209
 Alpha  occ. eigenvalues --   -0.54602  -0.51176  -0.50492  -0.37959
 Alpha virt. eigenvalues --    0.02842   0.05280   0.06543   0.07739   0.08693
 Alpha virt. eigenvalues --    0.10166   0.12521   0.13031   0.13264   0.14293
 Alpha virt. eigenvalues --    0.15300   0.15746   0.16477   0.17659   0.18365

 Mulliken charges:
               1
     1  C   -1.276405
     2  C   -1.276405
     3  Cl  -0.192042
     4  Cl  -0.192042
     5  H    1.468446
     6  H    1.468446
 Sum of Mulliken charges =   0.00000

 Dipole moment (field-independent basis, Debye):
    X=             -0.0000    Y=             -0.0000    Z=              2.2374  Tot=              2.2374

 Test job not archived.
 1\1\GINC-SE212\SP\RHF\Aug-CC-pVDZ\C2H2Cl2\OHZDE\06-Apr-2025\0\\#t hf a
 ug-cc-pvdz iop(5/13=1,5/36=2,99/5=2) pseudo=read geom=check guess=(rea
 d,tcheck) scf=(maxcycle=1)\\title\\0,1\C,0,0.,0.661946,0.959662\C,0,0.
 ,-0.661946,0.959662\Cl,0,0.,1.660082,-0.449807\Cl,0,0.,-1.660082,-0.44
 9807\H,0,0.,1.210752,1.888744\H,0,0.,-1.210752,1.888744\\Version=ES64L
 -G16RevC.01\State=1-A1\HF=-996.7411661\RMSD=4.701e-01\Dipole=0.,0.,0.8
 802799\Quadrupole=-2.5578796,-0.8300349,3.3879145,0.,0.,0.\PG=C02V [SG
 V(C2H2Cl2)]\\@

 Normal termination of Gaussian 16 at Sun Apr  6 08:08:28 2025.
