 Gaussian 16, Revision C.01,

 ----------------------------------------------------------------------
 #t hf aug-cc-pvdz symm=none int=(grid=ultrafine) guess=(read,tcheck) s
 table=(opt,rrhf)
 ----------------------------------------------------------------------
 -----
 title
 -----
 Symbolic Z-matrix:
 Charge =  0 Multiplicity = 1

 SCF Done:  E(RHF) =  -413.686810378     A.U. after   13 cycles
 Normal termination of Gaussian 16 at Sun Apr  6 08:08:30 2025.
 Gaussian 16:  ES64L-G16RevC.01  3-Jul-2019

 ----------------------------------------------------------------------
 #t hf aug-cc-pvdz iop(5/13=1,5/36=2,99/5=2) pseudo=read geom=check gue
 ss=(read,tcheck) scf=(maxcycle=1)
 ----------------------------------------------------------------------
 -----
 title
 -----
 Structure from the checkpoint file:  "Z-1-3-3-trifluoropropene.chk"
 Charge =  0 Multiplicity = 1

                         Standard orientation:
 ---------------------------------------------------------------------
 Center     Atomic      Atomic             Coordinates (Angstroms)
 Number     Number       Type             X           Y           Z
 ---------------------------------------------------------------------
      1          6           0       -0.795540   -1.498083    0.000000
      2          9           0        0.356729   -2.191946    0.000000
      3          1           0       -1.660114   -2.146002    0.000000
      4          6           0       -0.829762   -0.177917   -0.000000
      5          1           0       -1.791395    0.315467   -0.000000
      6          6           0        0.375366    0.693448   -0.000000
      7          1           0        1.319452    0.152643    0.000000
      8          9           0        0.356729    1.516706    1.098964
      9          9           0        0.356729    1.516706   -1.098964
 ---------------------------------------------------------------------

 SCF Done:  E(RHF) =  -415.241236609     A.U. after    2 cycles

 The electronic state is 1-A'.
 Alpha  occ. eigenvalues --  -29.31058 -29.28131 -29.28095 -11.54348 -11.51130
 Alpha  occ. eigenvalues --  -11.41949  -1.35525  -1.19354  -0.94464  -0.79454
 Alpha  occ. eigenvalues --   -0.78251  -0.73155  -0.65709  -0.59062  -0.50897
 Alpha  occ. eigenvalues --   -0.43933  -0.41395  -0.38377  -0.32014  -0.31133
 Alpha  occ. eigenvalues --   -0.30733  -0.25718  -0.24968  -0.20967
 Alpha virt. eigenvalues --    0.03776   0.05684   0.06220   0.10852   0.10921
 Alpha virt. eigenvalues --    0.11891   0.12770   0.13417   0.14252   0.14355
 Alpha virt. eigenvalues --    0.14641   0.16466   0.17836   0.19123   0.22664

 Mulliken charges:
               1
     1  C   -1.539138
     2  F    0.776761
     3  H    1.441618
     4  C   -2.092200
     5  H    1.303667
     6  C   -2.064588
     7  H    1.617826
     8  F    0.278028
     9  F    0.278028
 Sum of Mulliken charges =  -0.00000

 Dipole moment (field-independent basis, Debye):
    X=              1.3088    Y=             -0.3581    Z=             -0.0000  Tot=              1.3569

 Test job not archived.
 1\1\GINC-SE012\SP\RHF\Aug-CC-pVDZ\C3H3F3\OHZDE\06-Apr-2025\0\\#t hf au
 g-cc-pvdz iop(5/13=1,5/36=2,99/5=2) pseudo=read geom=check guess=(read
 ,tcheck) scf=(maxcycle=1)\\title\\0,1\C,0,-0.79554,-1.498083,0.\F,0,0.
 356729,-2.191946,0.\H,0,-1.660114,-2.146002,0.\C,0,-0.829762,-0.177917
 ,0.\H,0,-1.791395,0.315467,0.\C,0,0.375366,0.693448,0.\H,0,1.319452,0.
 152643,0.\F,0,0.356729,1.516706,1.098964\F,0,0.356729,1.516706,-1.0989
 64\\Version=ES64L-G16RevC.01\State=1-A'\HF=-415.2412366\RMSD=6.609e-01
 \Dipole=0.5149318,-0.1408854,0.\Quadrupole=-1.0283215,3.5020228,-2.473

 Normal termination of Gaussian 16 at Sun Apr  6 08:08:33 2025.
