 Gaussian 16, Revision C.01,

 ----------------------------------------------------------------------
 #t hf aug-cc-pvdz symm=none int=(grid=ultrafine) guess=(read,tcheck) s
 table=(opt,rrhf)
 ----------------------------------------------------------------------
 -----
 title
 -----
 Symbolic Z-matrix:
 Charge =  0 Multiplicity = 1

 SCF Done:  E(RHF) =  -247.872397343     A.U. after   14 cycles
 Normal termination of Gaussian 16 at Sun Apr  6 08:08:41 2025.
 Gaussian 16:  ES64L-G16RevC.01  3-Jul-2019

 ----------------------------------------------------------------------
 #t hf aug-cc-pvdz iop(5/13=1,5/36=2,99/5=2) pseudo=read geom=check gue
 ss=(read,tcheck) scf=(maxcycle=1)
 ----------------------------------------------------------------------
 -----
 title
 -----
 Structure from the checkpoint file:  "Z-2-pentenenitrile.chk"
 Charge =  0 Multiplicity = 1

                         Standard orientation:
 ---------------------------------------------------------------------
 Center     Atomic      Atomic             Coordinates (Angstroms)
 Number     Number       Type             X           Y           Z
 ---------------------------------------------------------------------
      1          6           0       -1.766341   -0.115464   -0.079800
      2          7           0       -2.492129   -1.010435   -0.031960
      3          6           0       -0.894931    1.009998   -0.149808
      4          1           0       -1.357106    1.941241   -0.450071
      5          6           0        0.411013    0.955887    0.131841
      6          1           0        0.972979    1.879716    0.039002
      7          6           0        1.185347   -0.249154    0.551313
      8          1           0        0.526822   -1.114981    0.622590
      9          1           0        1.581474   -0.068108    1.556020
     10          6           0        2.357367   -0.548639   -0.394504
     11          1           0        2.000836   -0.775983   -1.399184
     12          1           0        3.038423    0.301062   -0.463225
     13          1           0        2.926753   -1.405678   -0.035660
 ---------------------------------------------------------------------

 SCF Done:  E(RHF) =  -249.060815018     A.U. after    2 cycles

 The electronic state is 1-A.
 Alpha  occ. eigenvalues --  -15.75636 -11.49244 -11.44226 -11.42909 -11.41516
 Alpha  occ. eigenvalues --  -11.38051  -1.33087  -1.24809  -1.11440  -0.94878
 Alpha  occ. eigenvalues --   -0.85419  -0.69884  -0.66903  -0.61413  -0.57960
 Alpha  occ. eigenvalues --   -0.53084  -0.51560  -0.49483  -0.48819  -0.48550
 Alpha  occ. eigenvalues --   -0.43221  -0.35121
 Alpha virt. eigenvalues --    0.02955   0.04661   0.04898   0.05649   0.06239
 Alpha virt. eigenvalues --    0.06714   0.08033   0.09332   0.10562   0.10944
 Alpha virt. eigenvalues --    0.11892   0.12117   0.13860   0.14087   0.15116

 Mulliken charges:
               1
     1  C    1.348601
     2  N   -2.265583
     3  C   -1.184701
     4  H    1.515055
     5  C   -0.067134
     6  H    1.430602
     7  C   -3.485805
     8  H    1.460848
     9  H    1.259723
    10  C   -3.720088
    11  H    1.322766
    12  H    1.239633
    13  H    1.146083
 Sum of Mulliken charges =   0.00000

 Dipole moment (field-independent basis, Debye):
    X=              3.2727    Y=              2.1815    Z=              0.1316  Tot=              3.9353

 Test job not archived.
 1\1\GINC-SE106\SP\RHF\Aug-CC-pVDZ\C5H7N1\OHZDE\06-Apr-2025\0\\#t hf au
 g-cc-pvdz iop(5/13=1,5/36=2,99/5=2) pseudo=read geom=check guess=(read
 ,tcheck) scf=(maxcycle=1)\\title\\0,1\C,0,-1.766341,-0.115464,-0.0798\
 N,0,-2.492129,-1.010435,-0.03196\C,0,-0.894931,1.009998,-0.149808\H,0,
 -1.357106,1.941241,-0.450071\C,0,0.411013,0.955887,0.131841\H,0,0.9729
 79,1.879716,0.039002\C,0,1.185347,-0.249154,0.551313\H,0,0.526822,-1.1
 14981,0.62259\H,0,1.581474,-0.068108,1.55602\C,0,2.357367,-0.548639,-0
 .394504\H,0,2.000836,-0.775983,-1.399184\H,0,3.038423,0.301062,-0.4632

 Normal termination of Gaussian 16 at Sun Apr  6 08:08:45 2025.
