 Gaussian 16, Revision C.01,

 ----------------------------------------------------------------------
 #t hf aug-cc-pvdz symm=none int=(grid=ultrafine) guess=(read,tcheck) s
 table=(opt,rrhf)
 ----------------------------------------------------------------------
 -----
 title
 -----
 Symbolic Z-matrix:
 Charge =  0 Multiplicity = 1

 SCF Done:  E(RHF) =  -195.164476386     A.U. after   12 cycles
 Normal termination of Gaussian 16 at Sun Apr  6 08:08:38 2025.
 Gaussian 16:  ES64L-G16RevC.01  3-Jul-2019

 ----------------------------------------------------------------------
 #t hf aug-cc-pvdz iop(5/13=1,5/36=2,99/5=2) pseudo=read geom=check gue
 ss=(read,tcheck) scf=(maxcycle=1)
 ----------------------------------------------------------------------
 -----
 title
 -----
 Structure from the checkpoint file:  "Z-2-pentene.chk"
 Charge =  0 Multiplicity = 1

                         Standard orientation:
 ---------------------------------------------------------------------
 Center     Atomic      Atomic             Coordinates (Angstroms)
 Number     Number       Type             X           Y           Z
 ---------------------------------------------------------------------
      1          6           0        1.302290    0.615163   -0.139445
      2          6           0        0.013355    0.809181    0.136131
      3          6           0        2.074570   -0.668347   -0.088094
      4          6           0       -2.202655   -0.271676   -0.404781
      5          6           0       -1.010350   -0.203515    0.558717
      6          1           0        1.881490    1.484329   -0.436504
      7          1           0       -0.366648    1.822918    0.039577
      8          1           0        2.535067   -0.880542   -1.056528
      9          1           0        1.460917   -1.524351    0.185335
     10          1           0        2.891800   -0.598641    0.634949
     11          1           0       -2.954741   -0.977143   -0.048720
     12          1           0       -1.884282   -0.587950   -1.398923
     13          1           0       -2.681767    0.703861   -0.505963
     14          1           0       -1.381230    0.065717    1.553563
     15          1           0       -0.563862   -1.193034    0.658048
 ---------------------------------------------------------------------

 SCF Done:  E(RHF) =  -196.177105069     A.U. after    2 cycles

 The electronic state is 1-A.
 Alpha  occ. eigenvalues --  -11.43536 -11.40188 -11.38453 -11.36917 -11.34639
 Alpha  occ. eigenvalues --   -1.24628  -1.11709  -0.98568  -0.88284  -0.74359
 Alpha  occ. eigenvalues --   -0.65497  -0.59087  -0.58130  -0.55903  -0.52103
 Alpha  occ. eigenvalues --   -0.49656  -0.49132  -0.46053  -0.42924  -0.32277
 Alpha virt. eigenvalues --    0.03673   0.05224   0.05687   0.05827   0.06034
 Alpha virt. eigenvalues --    0.06438   0.06715   0.07222   0.08173   0.09266
 Alpha virt. eigenvalues --    0.11591   0.12662   0.13423   0.14045   0.14717

 Mulliken charges:
               1
     1  C   -0.704201
     2  C   -0.119049
     3  C   -4.558344
     4  C   -3.732424
     5  C   -3.902857
     6  H    1.396500
     7  H    1.440861
     8  H    1.189770
     9  H    1.342266
    10  H    1.154584
    11  H    1.144443
    12  H    1.339386
    13  H    1.239707
    14  H    1.229764
    15  H    1.539594
 Sum of Mulliken charges =  -0.00000

 Dipole moment (field-independent basis, Debye):
    X=              0.0450    Y=             -0.2279    Z=              0.1068  Tot=              0.2557

 Test job not archived.
 1\1\GINC-SE106\SP\RHF\Aug-CC-pVDZ\C5H10\OHZDE\06-Apr-2025\0\\#t hf aug
 -cc-pvdz iop(5/13=1,5/36=2,99/5=2) pseudo=read geom=check guess=(read,
 tcheck) scf=(maxcycle=1)\\title\\0,1\C,0,1.30229,0.615163,-0.139445\C,
 0,0.013355,0.809181,0.136131\C,0,2.07457,-0.668347,-0.088094\C,0,-2.20
 2655,-0.271676,-0.404781\C,0,-1.01035,-0.203515,0.558717\H,0,1.88149,1
 .484329,-0.436504\H,0,-0.366648,1.822918,0.039577\H,0,2.535067,-0.8805
 41,-1.056528\H,0,1.460917,-1.524351,0.185335\H,0,2.8918,-0.59864,0.634
 949\H,0,-2.954741,-0.977144,-0.04872\H,0,-1.884282,-0.58795,-1.398923\

 Normal termination of Gaussian 16 at Sun Apr  6 08:08:42 2025.
