 Gaussian 16, Revision C.01,

 ----------------------------------------------------------------------
 #t hf aug-cc-pvdz symm=none int=(grid=ultrafine) guess=(read,tcheck) s
 table=(opt,rrhf)
 ----------------------------------------------------------------------
 -----
 title
 -----
 Symbolic Z-matrix:
 Charge =  0 Multiplicity = 1

 SCF Done:  E(RHF) =  -615.054824022     A.U. after   13 cycles

 1\1\GINC-SE085\Stability\RHF\Aug-CC-pVDZ\C4H7Cl1\OHZDE\06-Apr-2025\0\\
 #t hf aug-cc-pvdz symm=none int=(grid=ultrafine) guess=(read,tcheck) s
 table=(opt,rrhf)\\title\\0,1\H,0,0.296999,2.638501,0.\Cl,0,-1.282302,-
 0.692895,0.\C,0,1.865985,-1.198419,0.\C,0,-0.5273,1.925834,0.\H,0,-1.1
 48337,2.109135,0.878732\H,0,-1.148337,2.109135,-0.878732\C,0,0.,0.5283
 12,0.\C,0,1.27958,0.174679,0.\H,0,1.985598,0.999563,0.\H,0,1.099594,-1
 .969354,0.\H,0,2.502012,-1.345103,-0.876739\H,0,2.502012,-1.345103,0.8
 76739\\Version=ES64L-G16RevC.01\HF=-615.054824\RMSD=4.475e-09\Dipole=0

 Normal termination of Gaussian 16 at Sun Apr  6 08:08:29 2025.
 Gaussian 16:  ES64L-G16RevC.01  3-Jul-2019

 ----------------------------------------------------------------------
 #t hf aug-cc-pvdz iop(5/13=1,5/36=2,99/5=2) pseudo=read geom=check gue
 ss=(read,tcheck) scf=(maxcycle=1)
 ----------------------------------------------------------------------
 -----
 title
 -----
 Structure from the checkpoint file:  "Z-2-chloro-2-butene.chk"
 Charge =  0 Multiplicity = 1

                         Standard orientation:
 ---------------------------------------------------------------------
 Center     Atomic      Atomic             Coordinates (Angstroms)
 Number     Number       Type             X           Y           Z
 ---------------------------------------------------------------------
      1          1           0        0.296999    2.638501    0.000000
      2         17           0       -1.282302   -0.692895    0.000000
      3          6           0        1.865985   -1.198419    0.000000
      4          6           0       -0.527300    1.925834    0.000000
      5          1           0       -1.148337    2.109135    0.878732
      6          1           0       -1.148337    2.109135   -0.878732
      7          6           0        0.000000    0.528312    0.000000
      8          6           0        1.279580    0.174679    0.000000
      9          1           0        1.985598    0.999563    0.000000
     10          1           0        1.099594   -1.969354    0.000000
     11          1           0        2.502012   -1.345103   -0.876739
     12          1           0        2.502012   -1.345103    0.876739
 ---------------------------------------------------------------------

 SCF Done:  E(RHF) =  -616.094292583     A.U. after    2 cycles

 The electronic state is 1-A'.
 Alpha  occ. eigenvalues --  -99.88211 -11.45934 -11.41439 -11.39652 -11.37564
 Alpha  occ. eigenvalues --  -10.45581  -9.65478  -9.64850  -9.64565  -1.36044
 Alpha  occ. eigenvalues --   -1.18461  -1.08605  -0.94587  -0.77645  -0.64481
 Alpha  occ. eigenvalues --   -0.61988  -0.60318  -0.56304  -0.54202  -0.52006
 Alpha  occ. eigenvalues --   -0.50584  -0.50108  -0.46445  -0.34230
 Alpha virt. eigenvalues --    0.03238   0.05070   0.05773   0.06499   0.06526
 Alpha virt. eigenvalues --    0.06987   0.07409   0.09426   0.11120   0.11122
 Alpha virt. eigenvalues --    0.12340   0.13959   0.14171   0.14681   0.15134

 Mulliken charges:
               1
     1  H    1.278639
     2  Cl  -0.564743
     3  C   -4.081281
     4  C   -4.628160
     5  H    1.191695
     6  H    1.191695
     7  C    0.030600
     8  C    0.576997
     9  H    1.409035
    10  H    1.382697
    11  H    1.106413
    12  H    1.106413
 Sum of Mulliken charges =  -0.00000

 Dipole moment (field-independent basis, Debye):
    X=              1.8801    Y=              1.2830    Z=              0.0000  Tot=              2.2762

 Test job not archived.
 1\1\GINC-SE085\SP\RHF\Aug-CC-pVDZ\C4H7Cl1\OHZDE\06-Apr-2025\0\\#t hf a
 ug-cc-pvdz iop(5/13=1,5/36=2,99/5=2) pseudo=read geom=check guess=(rea
 d,tcheck) scf=(maxcycle=1)\\title\\0,1\H,0,0.296999,2.638501,0.\Cl,0,-
 1.282302,-0.692895,0.\C,0,1.865985,-1.198419,0.\C,0,-0.5273,1.925834,0
 .\H,0,-1.148337,2.109135,0.878732\H,0,-1.148337,2.109135,-0.878732\C,0
 ,0.,0.528312,0.\C,0,1.27958,0.174679,0.\H,0,1.985598,0.999563,0.\H,0,1
 .099594,-1.969354,0.\H,0,2.502012,-1.345103,-0.876739\H,0,2.502012,-1.
 345103,0.876739\\Version=ES64L-G16RevC.01\State=1-A'\HF=-616.0942926\R

 Normal termination of Gaussian 16 at Sun Apr  6 08:08:33 2025.
