 Gaussian 16, Revision C.01,

 ----------------------------------------------------------------------
 #t hf aug-cc-pvdz symm=none int=(grid=ultrafine) guess=(read,tcheck) s
 table=(opt,rrhf)
 ----------------------------------------------------------------------
 -----
 title
 -----
 Symbolic Z-matrix:
 Charge =  0 Multiplicity = 1

 SCF Done:  E(RHF) =  -720.433861626     A.U. after   16 cycles
 Normal termination of Gaussian 16 at Sun Apr  6 08:08:30 2025.
 Gaussian 16:  ES64L-G16RevC.01  3-Jul-2019

 ----------------------------------------------------------------------
 #t hf aug-cc-pvdz iop(5/13=1,5/36=2,99/5=2) pseudo=read geom=check gue
 ss=(read,tcheck) scf=(maxcycle=1)
 ----------------------------------------------------------------------
 -----
 title
 -----
 Structure from the checkpoint file:  "Z-2-chloro-2-butenedinitrile.chk"
 Charge =  0 Multiplicity = 1

                         Standard orientation:
 ---------------------------------------------------------------------
 Center     Atomic      Atomic             Coordinates (Angstroms)
 Number     Number       Type             X           Y           Z
 ---------------------------------------------------------------------
      1         17           0       -0.219933    1.550529   -0.000002
      2          7           0       -2.880130   -0.962984    0.000001
      3          7           0        3.077266   -0.391223    0.000000
      4          6           0       -0.432054   -0.165225    0.000000
      5          6           0        0.591544   -1.033696    0.000001
      6          6           0       -1.783875   -0.609615    0.000001
      7          6           0        1.955445   -0.655823    0.000001
      8          1           0        0.372561   -2.093385    0.000003
 ---------------------------------------------------------------------

 SCF Done:  E(RHF) =  -721.827758017     A.U. after    2 cycles

 The electronic state is 1-A.
 Alpha  occ. eigenvalues --  -99.95378 -15.81158 -15.80259 -11.57344 -11.51188
 Alpha  occ. eigenvalues --  -11.48072 -11.46807 -10.52786  -9.72674  -9.71848
 Alpha  occ. eigenvalues --   -9.71648  -1.45654  -1.34412  -1.33604  -1.20956
 Alpha  occ. eigenvalues --   -1.01653  -0.79929  -0.76922  -0.66496  -0.63971
 Alpha  occ. eigenvalues --   -0.58079  -0.56184  -0.54154  -0.53678  -0.50811
 Alpha  occ. eigenvalues --   -0.49084  -0.47341  -0.38961
 Alpha virt. eigenvalues --    0.02125   0.02274   0.03995   0.07109   0.08200
 Alpha virt. eigenvalues --    0.09804   0.10265   0.10786   0.11107   0.11166
 Alpha virt. eigenvalues --    0.11908   0.13223   0.13431   0.14211   0.15741

 Mulliken charges:
               1
     1  Cl  -0.521769
     2  N   -2.192173
     3  N   -2.318601
     4  C    0.476945
     5  C    0.026544
     6  C    0.733008
     7  C    1.961148
     8  H    1.834899
 Sum of Mulliken charges =   0.00000

 Dipole moment (field-independent basis, Debye):
    X=             -0.0527    Y=             -0.9206    Z=              0.0000  Tot=              0.9221

 Test job not archived.
 1\1\GINC-SE085\SP\RHF\Aug-CC-pVDZ\C4H1Cl1N2\OHZDE\06-Apr-2025\0\\#t hf
  aug-cc-pvdz iop(5/13=1,5/36=2,99/5=2) pseudo=read geom=check guess=(r
 ead,tcheck) scf=(maxcycle=1)\\title\\0,1\Cl,0,-0.219933,1.550529,-0.00
 0002\N,0,-2.88013,-0.962984,0.000001\N,0,3.077266,-0.391223,0.\C,0,-0.
 432054,-0.165225,0.\C,0,0.591544,-1.033696,0.000001\C,0,-1.783875,-0.6
 09615,0.000001\C,0,1.955445,-0.655823,0.000001\H,0,0.372561,-2.093385,
 0.000003\\Version=ES64L-G16RevC.01\State=1-A\HF=-721.827758\RMSD=9.495
 e-01\Dipole=-0.0207499,-0.3621739,0.0000007\Quadrupole=-9.2162569,6.70

 Normal termination of Gaussian 16 at Sun Apr  6 08:08:34 2025.
