 Gaussian 16, Revision C.01,

 ----------------------------------------------------------------------
 #t hf aug-cc-pvdz symm=none int=(grid=ultrafine) guess=(read,tcheck) s
 table=(opt,rrhf)
 ----------------------------------------------------------------------
 -----
 title
 -----
 Symbolic Z-matrix:
 Charge =  0 Multiplicity = 1

 SCF Done:  E(RHF) =  -208.833737472     A.U. after   14 cycles
 Normal termination of Gaussian 16 at Sun Apr  6 08:08:28 2025.
 Gaussian 16:  ES64L-G16RevC.01  3-Jul-2019

 ----------------------------------------------------------------------
 #t hf aug-cc-pvdz iop(5/13=1,5/36=2,99/5=2) pseudo=read geom=check gue
 ss=(read,tcheck) scf=(maxcycle=1)
 ----------------------------------------------------------------------
 -----
 title
 -----
 Structure from the checkpoint file:  "Z-2-butenenitrile.chk"
 Charge =  0 Multiplicity = 1

                         Standard orientation:
 ---------------------------------------------------------------------
 Center     Atomic      Atomic             Coordinates (Angstroms)
 Number     Number       Type             X           Y           Z
 ---------------------------------------------------------------------
      1          6           0       -1.222725    0.248264    0.000000
      2          7           0       -2.224302   -0.323411    0.000000
      3          6           0        0.000000    0.979779    0.000000
      4          1           0       -0.097533    2.057310    0.000000
      5          6           0        1.206868    0.404586    0.000000
      6          1           0        2.065769    1.066361    0.000000
      7          6           0        1.490613   -1.057531    0.000000
      8          1           0        0.580711   -1.654271    0.000000
      9          1           0        2.086316   -1.328056    0.875372
     10          1           0        2.086316   -1.328056   -0.875372
 ---------------------------------------------------------------------

 SCF Done:  E(RHF) =  -209.818231174     A.U. after    2 cycles

 The electronic state is 1-A'.
 Alpha  occ. eigenvalues --  -15.75728 -11.48407 -11.44170 -11.42536 -11.39988
 Alpha  occ. eigenvalues --   -1.32771  -1.22580  -1.05076  -0.87011  -0.70294
 Alpha  occ. eigenvalues --   -0.65621  -0.59227  -0.54292  -0.53755  -0.50121
 Alpha  occ. eigenvalues --   -0.49570  -0.43547  -0.35330
 Alpha virt. eigenvalues --    0.02596   0.04907   0.05178   0.05916   0.07563
 Alpha virt. eigenvalues --    0.09373   0.09619   0.10876   0.12506   0.12654
 Alpha virt. eigenvalues --    0.13477   0.14117   0.14433   0.14810   0.16573

 Mulliken charges:
               1
     1  C    1.357644
     2  N   -2.223929
     3  C   -1.132723
     4  H    1.503500
     5  C   -0.463990
     6  H    1.400263
     7  C   -4.061278
     8  H    1.365415
     9  H    1.127549
    10  H    1.127549
 Sum of Mulliken charges =  -0.00000

 Dipole moment (field-independent basis, Debye):
    X=              3.8293    Y=              0.9603    Z=              0.0000  Tot=              3.9479

 Test job not archived.
 1\1\GINC-SE084\SP\RHF\Aug-CC-pVDZ\C4H5N1\OHZDE\06-Apr-2025\0\\#t hf au
 g-cc-pvdz iop(5/13=1,5/36=2,99/5=2) pseudo=read geom=check guess=(read
 ,tcheck) scf=(maxcycle=1)\\title\\0,1\C,0,-1.222725,0.248264,0.\N,0,-2
 .224302,-0.323411,0.\C,0,0.,0.979779,0.\H,0,-0.097533,2.05731,0.\C,0,1
 .206868,0.404586,0.\H,0,2.065769,1.066361,0.\C,0,1.490613,-1.057531,0.
 \H,0,0.580711,-1.654271,0.\H,0,2.086316,-1.328056,0.875372\H,0,2.08631
 6,-1.328056,-0.875372\\Version=ES64L-G16RevC.01\State=1-A'\HF=-209.818
 2312\RMSD=9.396e-01\Dipole=1.506569,0.3778131,0.\Quadrupole=-2.4564967

 Normal termination of Gaussian 16 at Sun Apr  6 08:08:33 2025.
