 Gaussian 16, Revision C.01,

 ----------------------------------------------------------------------
 #t hf aug-cc-pvdz symm=none int=(grid=ultrafine) guess=(read,tcheck) s
 table=(opt,rrhf)
 ----------------------------------------------------------------------
 -----
 title
 -----
 Symbolic Z-matrix:
 Charge =  0 Multiplicity = 1

 SCF Done:  E(RHF) =  -156.125980711     A.U. after   11 cycles
 Normal termination of Gaussian 16 at Sun Apr  6 08:08:26 2025.
 Gaussian 16:  ES64L-G16RevC.01  3-Jul-2019

 ----------------------------------------------------------------------
 #t hf aug-cc-pvdz iop(5/13=1,5/36=2,99/5=2) pseudo=read geom=check gue
 ss=(read,tcheck) scf=(maxcycle=1)
 ----------------------------------------------------------------------
 -----
 title
 -----
 Structure from the checkpoint file:  "Z-2-butene.chk"
 Charge =  0 Multiplicity = 1

                         Standard orientation:
 ---------------------------------------------------------------------
 Center     Atomic      Atomic             Coordinates (Angstroms)
 Number     Number       Type             X           Y           Z
 ---------------------------------------------------------------------
      1          6           0        0.000000    0.665985    0.661718
      2          6           0       -0.000000   -0.665985    0.661718
      3          6           0        0.000000    1.586665   -0.520621
      4          6           0       -0.000000   -1.586665   -0.520621
      5          1           0        0.000000    1.161212    1.627911
      6          1           0       -0.000000   -1.161212    1.627911
      7          1           0        0.000000    1.057812   -1.471692
      8          1           0       -0.000000   -1.057812   -1.471692
      9          1           0       -0.875737    2.240903   -0.501401
     10          1           0        0.875737    2.240903   -0.501401
     11          1           0        0.875737   -2.240903   -0.501401
     12          1           0       -0.875737   -2.240903   -0.501401
 ---------------------------------------------------------------------

 SCF Done:  E(RHF) =  -156.933927279     A.U. after    2 cycles

 The electronic state is 1-A1.
 Alpha  occ. eigenvalues --  -11.42432 -11.38705 -11.38280 -11.35005  -1.22402
 Alpha  occ. eigenvalues --   -1.06333  -0.93810  -0.74324  -0.65175  -0.56705
 Alpha  occ. eigenvalues --   -0.54912  -0.54768  -0.53189  -0.47823  -0.44351
 Alpha  occ. eigenvalues --   -0.32401
 Alpha virt. eigenvalues --    0.03410   0.05567   0.05944   0.06006   0.06153
 Alpha virt. eigenvalues --    0.06687   0.07132   0.09421   0.11628   0.12854
 Alpha virt. eigenvalues --    0.13875   0.14004   0.14626   0.15314   0.15624

 Mulliken charges:
               1
     1  C   -0.664433
     2  C   -0.664433
     3  C   -4.401415
     4  C   -4.401415
     5  H    1.391393
     6  H    1.391393
     7  H    1.381637
     8  H    1.381637
     9  H    1.146409
    10  H    1.146409
    11  H    1.146409
    12  H    1.146409
 Sum of Mulliken charges =  -0.00000

 Dipole moment (field-independent basis, Debye):
    X=              0.0000    Y=             -0.0000    Z=             -0.1739  Tot=              0.1739

 Test job not archived.
 1\1\GINC-SE046\SP\RHF\Aug-CC-pVDZ\C4H8\OHZDE\06-Apr-2025\0\\#t hf aug-
 cc-pvdz iop(5/13=1,5/36=2,99/5=2) pseudo=read geom=check guess=(read,t
 check) scf=(maxcycle=1)\\title\\0,1\C,0,0.,0.665985,0.661718\C,0,0.,-0
 .665985,0.661718\C,0,0.,1.586665,-0.520621\C,0,0.,-1.586665,-0.520621\
 H,0,0.,1.161212,1.627911\H,0,0.,-1.161212,1.627911\H,0,0.,1.057812,-1.
 471692\H,0,0.,-1.057812,-1.471692\H,0,-0.875737,2.240903,-0.501401\H,0
 ,0.875737,2.240903,-0.501401\H,0,0.875737,-2.240903,-0.501401\H,0,-0.8
 75737,-2.240903,-0.501401\\Version=ES64L-G16RevC.01\State=1-A1\HF=-156

 Normal termination of Gaussian 16 at Sun Apr  6 08:08:28 2025.
