 Gaussian 16, Revision C.01,

 ----------------------------------------------------------------------
 #t hf aug-cc-pvdz symm=none int=(grid=ultrafine) guess=(read,tcheck) s
 table=(opt,rrhf)
 ----------------------------------------------------------------------
 -----
 title
 -----
 Symbolic Z-matrix:
 Charge =  0 Multiplicity = 1

 SCF Done:  E(RHF) =  -192.769988134     A.U. after   14 cycles
 Normal termination of Gaussian 16 at Sun Apr  6 08:08:28 2025.
 Gaussian 16:  ES64L-G16RevC.01  3-Jul-2019

 ----------------------------------------------------------------------
 #t hf aug-cc-pvdz iop(5/13=1,5/36=2,99/5=2) pseudo=read geom=check gue
 ss=(read,tcheck) scf=(maxcycle=1)
 ----------------------------------------------------------------------
 -----
 title
 -----
 Structure from the checkpoint file:  "Z-3-penten-1-yne.chk"
 Charge =  0 Multiplicity = 1

                         Standard orientation:
 ---------------------------------------------------------------------
 Center     Atomic      Atomic             Coordinates (Angstroms)
 Number     Number       Type             X           Y           Z
 ---------------------------------------------------------------------
      1          1           0        3.165275   -0.906366    0.000000
      2          6           0        2.248373   -0.372188    0.000000
      3          6           0        1.205752    0.228394    0.000000
      4          1           0        0.114647    2.056770    0.000000
      5          6           0        0.000000    0.978779    0.000000
      6          1           0       -2.064969    1.154769    0.000000
      7          6           0       -1.233830    0.458318    0.000000
      8          1           0       -0.691320   -1.620929    0.000000
      9          1           0       -2.183701   -1.244462    0.875775
     10          1           0       -2.183701   -1.244462   -0.875775
     11          6           0       -1.579666   -0.992523    0.000000
 ---------------------------------------------------------------------

 SCF Done:  E(RHF) =  -193.714925443     A.U. after    2 cycles

 The electronic state is 1-A'.
 Alpha  occ. eigenvalues --  -11.45990 -11.42322 -11.40145 -11.39798 -11.37810
 Alpha  occ. eigenvalues --   -1.24729  -1.09447  -0.99660  -0.83438  -0.71531
 Alpha  occ. eigenvalues --   -0.66435  -0.59293  -0.57114  -0.51525  -0.49223
 Alpha  occ. eigenvalues --   -0.44319  -0.36971  -0.30821
 Alpha virt. eigenvalues --    0.03155   0.05002   0.05662   0.05829   0.06524
 Alpha virt. eigenvalues --    0.07680   0.10165   0.10843   0.10957   0.12633
 Alpha virt. eigenvalues --    0.12792   0.13831   0.14191   0.14218   0.14748

 Mulliken charges:
               1
     1  H    0.739177
     2  C   -3.364567
     3  C    3.232665
     4  H    1.348628
     5  C   -1.422373
     6  H    1.356938
     7  C   -0.998131
     8  H    1.303461
     9  H    1.116842
    10  H    1.116842
    11  C   -4.429482
 Sum of Mulliken charges =   0.00000

 Dipole moment (field-independent basis, Debye):
    X=             -0.8030    Y=             -0.2234    Z=              0.0000  Tot=              0.8335

 Test job not archived.
 1\1\GINC-SE167\SP\RHF\Aug-CC-pVDZ\C5H6\OHZDE\06-Apr-2025\0\\#t hf aug-
 cc-pvdz iop(5/13=1,5/36=2,99/5=2) pseudo=read geom=check guess=(read,t
 check) scf=(maxcycle=1)\\title\\0,1\H,0,3.165275,-0.906366,0.\C,0,2.24
 8373,-0.372188,0.\C,0,1.205752,0.228394,0.\H,0,0.114647,2.05677,0.\C,0
 ,0.,0.978779,0.\H,0,-2.064969,1.154769,0.\C,0,-1.23383,0.458318,0.\H,0
 ,-0.69132,-1.620929,0.\H,0,-2.183701,-1.244462,0.875775\H,0,-2.183701,
 -1.244462,-0.875775\C,0,-1.579666,-0.992523,0.\\Version=ES64L-G16RevC.
 01\State=1-A'\HF=-193.7149254\RMSD=1.197e+00\Dipole=-0.3159391,-0.0878

 Normal termination of Gaussian 16 at Sun Apr  6 08:08:31 2025.
