 Gaussian 16, Revision C.01,

 ----------------------------------------------------------------------
 #t hf aug-cc-pvdz symm=none int=(grid=ultrafine) guess=(read,tcheck) s
 table=(opt,rrhf)
 ----------------------------------------------------------------------
 -----
 title
 -----
 Symbolic Z-matrix:
 Charge =  0 Multiplicity = 1

 SCF Done:  E(RHF) =  -461.592765502     A.U. after   15 cycles
 Normal termination of Gaussian 16 at Sun Apr  6 08:08:42 2025.
 Gaussian 16:  ES64L-G16RevC.01  3-Jul-2019

 ----------------------------------------------------------------------
 #t hf aug-cc-pvdz iop(5/13=1,5/36=2,99/5=2) pseudo=read geom=check gue
 ss=(read,tcheck) scf=(maxcycle=1)
 ----------------------------------------------------------------------
 -----
 title
 -----
 Structure from the checkpoint file:  "Z-3-amino-2-4-difluorobut-2-enenitrile.chk"
 Charge =  0 Multiplicity = 1

                         Standard orientation:
 ---------------------------------------------------------------------
 Center     Atomic      Atomic             Coordinates (Angstroms)
 Number     Number       Type             X           Y           Z
 ---------------------------------------------------------------------
      1          9           0        2.712836   -0.183297   -0.382192
      2          9           0       -0.780636    1.809141   -0.002362
      3          7           0        0.499090   -1.575311    0.231574
      4          7           0       -3.035226   -0.748871   -0.138204
      5          6           0        0.398551   -0.217436    0.121358
      6          6           0        1.691625    0.542189    0.236949
      7          6           0       -0.771372    0.445989    0.008802
      8          6           0       -2.034053   -0.175673   -0.069809
      9          1           0        1.624059    1.515903   -0.239488
     10          1           0        1.970850    0.661136    1.285812
     11          1           0        1.376086   -1.979329   -0.052815
     12          1           0       -0.316350   -2.131455    0.030091
 ---------------------------------------------------------------------

 SCF Done:  E(RHF) =  -463.465982364     A.U. after    2 cycles

 The electronic state is 1-A.
 Alpha  occ. eigenvalues --  -29.30328 -29.28883 -15.80146 -15.77685 -11.55075
 Alpha  occ. eigenvalues --  -11.50291 -11.46949 -11.44624  -1.46296  -1.32701
 Alpha  occ. eigenvalues --   -1.23249  -1.17334  -0.92958  -0.82153  -0.77509
 Alpha  occ. eigenvalues --   -0.71053  -0.68495  -0.64693  -0.60123  -0.57866
 Alpha  occ. eigenvalues --   -0.53922  -0.47954  -0.46981  -0.41799  -0.40915
 Alpha  occ. eigenvalues --   -0.39261  -0.31312  -0.28518  -0.27788  -0.22325
 Alpha virt. eigenvalues --    0.03911   0.04766   0.05676   0.07265   0.08356
 Alpha virt. eigenvalues --    0.10115   0.10664   0.12003   0.12379   0.12524
 Alpha virt. eigenvalues --    0.13305   0.13433   0.14654   0.15406   0.16097

 Mulliken charges:
               1
     1  F    0.254193
     2  F    0.834135
     3  N   -3.357274
     4  N   -2.284128
     5  C   -0.276869
     6  C   -2.920036
     7  C    2.543939
     8  C    1.296321
     9  H    1.348586
    10  H    1.251704
    11  H    0.672364
    12  H    0.637067
 Sum of Mulliken charges =  -0.00000

 Dipole moment (field-independent basis, Debye):
    X=              4.8772    Y=              1.1193    Z=             -0.6473  Tot=              5.0457

 Test job not archived.
 1\1\GINC-SE107\SP\RHF\Aug-CC-pVDZ\C4H4F2N2\OHZDE\06-Apr-2025\0\\#t hf
 aug-cc-pvdz iop(5/13=1,5/36=2,99/5=2) pseudo=read geom=check guess=(re
 ad,tcheck) scf=(maxcycle=1)\\title\\0,1\F,0,2.712836,-0.183297,-0.3821
 92\F,0,-0.780636,1.809141,-0.002362\N,0,0.49909,-1.575311,0.231574\N,0
 ,-3.035226,-0.748871,-0.138204\C,0,0.398551,-0.217436,0.121358\C,0,1.6
 91625,0.542189,0.236949\C,0,-0.771372,0.445989,0.008802\C,0,-2.034053,
 -0.175673,-0.069809\H,0,1.624059,1.515903,-0.239488\H,0,1.97085,0.6611
 36,1.285812\H,0,1.376086,-1.979329,-0.052815\H,0,-0.31635,-2.131455,0.

 Normal termination of Gaussian 16 at Sun Apr  6 08:08:47 2025.
