 Gaussian 16, Revision C.01,

 ----------------------------------------------------------------------
 #t hf aug-cc-pvdz symm=none int=(grid=ultrafine) guess=(read,tcheck) s
 table=(opt,rrhf)
 ----------------------------------------------------------------------
 -----
 title
 -----
 Symbolic Z-matrix:
 Charge =  0 Multiplicity = 1

 SCF Done:  E(RHF) =  -234.204392313     A.U. after   13 cycles
 Normal termination of Gaussian 16 at Sun Apr  6 08:08:57 2025.
 Gaussian 16:  ES64L-G16RevC.01  3-Jul-2019

 ----------------------------------------------------------------------
 #t hf aug-cc-pvdz iop(5/13=1,5/36=2,99/5=2) pseudo=read geom=check gue
 ss=(read,tcheck) scf=(maxcycle=1)
 ----------------------------------------------------------------------
 -----
 title
 -----
 Structure from the checkpoint file:  "Z-3-methyl-2-pentene.chk"
 Charge =  0 Multiplicity = 1

                         Standard orientation:
 ---------------------------------------------------------------------
 Center     Atomic      Atomic             Coordinates (Angstroms)
 Number     Number       Type             X           Y           Z
 ---------------------------------------------------------------------
      1          6           0        1.701604   -1.275001   -0.436236
      2          1           0        2.374174   -0.561889   -0.914203
      3          1           0        2.313484   -2.070904   -0.008931
      4          1           0        1.074007   -1.711323   -1.214157
      5          6           0        0.842683   -0.605101    0.647356
      6          1           0        1.502107   -0.227760    1.434975
      7          1           0        0.212380   -1.360114    1.116333
      8          6           0        0.743877    1.839260   -0.066279
      9          1           0        0.096872    2.613381   -0.477032
     10          1           0        1.149562    2.202250    0.882755
     11          1           0        1.594614    1.719062   -0.742276
     12          6           0       -2.193807   -0.745612   -0.035612
     13          1           0       -3.043183   -0.530327    0.618671
     14          1           0       -2.614514   -1.013203   -1.008980
     15          1           0       -1.686431   -1.625328    0.355250
     16          6           0        0.004778    0.540753    0.128637
     17          6           0       -1.296904    0.449290   -0.156534
     18          1           0       -1.786454    1.344617   -0.530396
 ---------------------------------------------------------------------

 SCF Done:  E(RHF) =  -235.426136941     A.U. after    2 cycles

 The electronic state is 1-A.
 Alpha  occ. eigenvalues --  -11.43193 -11.40395 -11.38863 -11.37715 -11.36379
 Alpha  occ. eigenvalues --  -11.34315  -1.27503  -1.11511  -1.05919  -0.93028
 Alpha  occ. eigenvalues --   -0.88468  -0.72056  -0.63991  -0.59813  -0.58237
 Alpha  occ. eigenvalues --   -0.56759  -0.54995  -0.53649  -0.50610  -0.49047
 Alpha  occ. eigenvalues --   -0.47863  -0.44613  -0.41218  -0.31146
 Alpha virt. eigenvalues --    0.03769   0.05188   0.05339   0.05580   0.05852
 Alpha virt. eigenvalues --    0.06307   0.06373   0.07027   0.07602   0.08522
 Alpha virt. eigenvalues --    0.09012   0.09801   0.11526   0.12538   0.13257

 Mulliken charges:
               1
     1  C   -3.974308
     2  H    1.354162
     3  H    1.152522
     4  H    1.367401
     5  C   -3.567426
     6  H    1.203336
     7  H    1.455665
     8  C   -5.010953
     9  H    1.313982
    10  H    1.116896
    11  H    1.246428
    12  C   -4.548205
    13  H    1.118023
    14  H    1.135577
    15  H    1.372137
    16  C    2.258126
    17  C   -0.571877
    18  H    1.578516
 Sum of Mulliken charges =  -0.00000

 Dipole moment (field-independent basis, Debye):
    X=              0.0964    Y=             -0.1386    Z=              0.1077  Tot=              0.2002

 Test job not archived.
 1\1\GINC-SE107\SP\RHF\Aug-CC-pVDZ\C6H12\OHZDE\06-Apr-2025\0\\#t hf aug
 -cc-pvdz iop(5/13=1,5/36=2,99/5=2) pseudo=read geom=check guess=(read,
 tcheck) scf=(maxcycle=1)\\title\\0,1\C,0,1.701604,-1.275001,-0.436236\
 H,0,2.374174,-0.561889,-0.914203\H,0,2.313484,-2.070904,-0.008931\H,0,
 1.074007,-1.711323,-1.214157\C,0,0.842683,-0.605101,0.647356\H,0,1.502
 107,-0.22776,1.434975\H,0,0.21238,-1.360114,1.116333\C,0,0.743877,1.83
 926,-0.066279\H,0,0.096872,2.613381,-0.477032\H,0,1.149562,2.20225,0.8
 82755\H,0,1.594614,1.719062,-0.742276\C,0,-2.193807,-0.745612,-0.03561

 Normal termination of Gaussian 16 at Sun Apr  6 08:10:47 2025.
