 Gaussian 16, Revision C.01,

 ----------------------------------------------------------------------
 #t hf aug-cc-pvdz symm=none int=(grid=ultrafine) guess=(read,tcheck) s
 table=(opt,rrhf)
 ----------------------------------------------------------------------
 -----
 title
 -----
 Symbolic Z-matrix:
 Charge =  0 Multiplicity = 1

 SCF Done:  E(RHF) =  -337.684491499     A.U. after   13 cycles
 Normal termination of Gaussian 16 at Sun Apr  6 08:08:31 2025.
 Gaussian 16:  ES64L-G16RevC.01  3-Jul-2019

 ----------------------------------------------------------------------
 #t hf aug-cc-pvdz iop(5/13=1,5/36=2,99/5=2) pseudo=read geom=check gue
 ss=(read,tcheck) scf=(maxcycle=1)
 ----------------------------------------------------------------------
 -----
 title
 -----
 Structure from the checkpoint file:  "Z-azodioxymethane.chk"
 Charge =  0 Multiplicity = 1

                         Standard orientation:
 ---------------------------------------------------------------------
 Center     Atomic      Atomic             Coordinates (Angstroms)
 Number     Number       Type             X           Y           Z
 ---------------------------------------------------------------------
      1          7           0       -0.000879    0.657327   -0.156908
      2          7           0        0.000879   -0.657327   -0.156908
      3          8           0        0.011007    1.297461   -1.232955
      4          8           0       -0.011007   -1.297461   -1.232955
      5          6           0        0.000879    1.397974    1.121153
      6          6           0       -0.000879   -1.397974    1.121153
      7          1           0       -0.261515    2.413654    0.851840
      8          1           0       -0.729762    0.994639    1.816917
      9          1           0        0.995166    1.380452    1.566321
     10          1           0        0.261515   -2.413654    0.851840
     11          1           0        0.729762   -0.994639    1.816917
     12          1           0       -0.995166   -1.380452    1.566321
 ---------------------------------------------------------------------

 SCF Done:  E(RHF) =  -339.213434904     A.U. after    2 cycles

 The electronic state is 1-A.
 Alpha  occ. eigenvalues --  -21.03341 -21.03156 -15.91915 -15.90788 -11.47223
 Alpha  occ. eigenvalues --  -11.45109  -1.90186  -1.76225  -1.38128  -1.16942
 Alpha  occ. eigenvalues --   -1.08891  -0.81684  -0.75163  -0.73807  -0.67624
 Alpha  occ. eigenvalues --   -0.63786  -0.61151  -0.57534  -0.55158  -0.51445
 Alpha  occ. eigenvalues --   -0.41804  -0.31912  -0.29253  -0.19934
 Alpha virt. eigenvalues --    0.01997   0.04070   0.04503   0.05550   0.06018
 Alpha virt. eigenvalues --    0.07470   0.08723   0.10898   0.12690   0.14366
 Alpha virt. eigenvalues --    0.14388   0.15486   0.15858   0.17024   0.17650

 Mulliken charges:
               1
     1  N    1.781114
     2  N    1.781114
     3  O   -2.784771
     4  O   -2.784771
     5  C   -3.153790
     6  C   -3.153790
     7  H    1.367364
     8  H    1.401324
     9  H    1.388759
    10  H    1.367364
    11  H    1.401324
    12  H    1.388759
 Sum of Mulliken charges =  -0.00000

 Dipole moment (field-independent basis, Debye):
    X=              0.0000    Y=              0.0000    Z=              4.7004  Tot=              4.7004

 Test job not archived.
 1\1\GINC-SE169\SP\RHF\Aug-CC-pVDZ\C2H6N2O2\OHZDE\06-Apr-2025\0\\#t hf
 aug-cc-pvdz iop(5/13=1,5/36=2,99/5=2) pseudo=read geom=check guess=(re
 ad,tcheck) scf=(maxcycle=1)\\title\\0,1\N,0,-0.000879,0.657327,-0.1569
 08\N,0,0.000879,-0.657327,-0.156908\O,0,0.011007,1.297461,-1.232955\O,
 0,-0.011007,-1.297461,-1.232955\C,0,0.000879,1.397974,1.121153\C,0,-0.
 000879,-1.397974,1.121153\H,0,-0.261515,2.413654,0.85184\H,0,-0.729762
 ,0.994639,1.816917\H,0,0.995166,1.380452,1.566321\H,0,0.261515,-2.4136
 54,0.85184\H,0,0.729762,-0.994639,1.816917\H,0,-0.995166,-1.380452,1.5

 Normal termination of Gaussian 16 at Sun Apr  6 08:08:35 2025.
