 Gaussian 16, Revision C.01,

 ----------------------------------------------------------------------
 #t hf aug-cc-pvdz symm=none int=(grid=ultrafine) guess=(read,tcheck) s
 table=(opt,rrhf)
 ----------------------------------------------------------------------
 -----
 title
 -----
 Symbolic Z-matrix:
 Charge =  0 Multiplicity = 1

 SCF Done:  E(RHF) =  -188.077583983     A.U. after   11 cycles
 Normal termination of Gaussian 16 at Sun Apr  6 08:08:25 2025.
 Gaussian 16:  ES64L-G16RevC.01  3-Jul-2019

 ----------------------------------------------------------------------
 #t hf aug-cc-pvdz iop(5/13=1,5/36=2,99/5=2) pseudo=read geom=check gue
 ss=(read,tcheck) scf=(maxcycle=1)
 ----------------------------------------------------------------------
 -----
 title
 -----
 Structure from the checkpoint file:  "Z-dimethyldiazine.chk"
 Charge =  0 Multiplicity = 1

                         Standard orientation:
 ---------------------------------------------------------------------
 Center     Atomic      Atomic             Coordinates (Angstroms)
 Number     Number       Type             X           Y           Z
 ---------------------------------------------------------------------
      1          6           0        0.000000    1.361719    0.498953
      2          7           0        0.000000    0.616634   -0.777570
      3          7           0       -0.000000   -0.616634   -0.777570
      4          6           0       -0.000000   -1.361719    0.498953
      5          1           0        0.885227    1.126165    1.094742
      6          1           0       -0.885227    1.126165    1.094742
      7          1           0        0.000000    2.420611    0.259791
      8          1           0        0.885227   -1.126165    1.094742
      9          1           0       -0.885227   -1.126165    1.094742
     10          1           0       -0.000000   -2.420611    0.259791
 ---------------------------------------------------------------------

 SCF Done:  E(RHF) =  -188.984246919     A.U. after    2 cycles

 The electronic state is 1-A1.
 Alpha  occ. eigenvalues --  -15.78338 -15.77694 -11.39947 -11.39007  -1.53330
 Alpha  occ. eigenvalues --   -1.14643  -1.03627  -0.78736  -0.65779  -0.64433
 Alpha  occ. eigenvalues --   -0.61997  -0.57098  -0.55958  -0.45877  -0.43130
 Alpha  occ. eigenvalues --   -0.32119
 Alpha virt. eigenvalues --    0.03105   0.05100   0.05857   0.06357   0.07108
 Alpha virt. eigenvalues --    0.07375   0.10249   0.12126   0.14098   0.14348
 Alpha virt. eigenvalues --    0.15556   0.16343   0.16860   0.19032   0.19064

 Mulliken charges:
               1
     1  C   -3.287953
     2  N   -0.773111
     3  N   -0.773111
     4  C   -3.287953
     5  H    1.359885
     6  H    1.359885
     7  H    1.341294
     8  H    1.359885
     9  H    1.359885
    10  H    1.341294
 Sum of Mulliken charges =  -0.00000

 Dipole moment (field-independent basis, Debye):
    X=             -0.0000    Y=             -0.0000    Z=              2.5805  Tot=              2.5805

 Test job not archived.
 1\1\GINC-SE170\SP\RHF\Aug-CC-pVDZ\C2H6N2\OHZDE\06-Apr-2025\0\\#t hf au
 g-cc-pvdz iop(5/13=1,5/36=2,99/5=2) pseudo=read geom=check guess=(read
 ,tcheck) scf=(maxcycle=1)\\title\\0,1\C,0,0.,1.361719,0.498953\N,0,0.,
 0.616634,-0.77757\N,0,0.,-0.616634,-0.77757\C,0,0.,-1.361719,0.498953\
 H,0,0.885227,1.126165,1.094742\H,0,-0.885227,1.126165,1.094742\H,0,0.,
 2.420611,0.259791\H,0,0.885227,-1.126165,1.094742\H,0,-0.885227,-1.126
 165,1.094742\H,0,0.,-2.420611,0.259791\\Version=ES64L-G16RevC.01\State
 =1-A1\HF=-188.9842469\RMSD=1.040e-01\Dipole=0.,0.,1.0152562\Quadrupole

 Normal termination of Gaussian 16 at Sun Apr  6 08:08:27 2025.
