 Gaussian 16, Revision C.01,

 ----------------------------------------------------------------------
 #t hf aug-cc-pvdz symm=none int=(grid=ultrafine) guess=(read,tcheck) s
 table=(opt,rrhf)
 ----------------------------------------------------------------------
 -----
 title
 -----
 Symbolic Z-matrix:
 Charge =  0 Multiplicity = 1

 SCF Done:  E(RHF) =  -229.407254613     A.U. after   13 cycles
 Normal termination of Gaussian 16 at Sun Apr  6 08:08:30 2025.
 Gaussian 16:  ES64L-G16RevC.01  3-Jul-2019

 ----------------------------------------------------------------------
 #t hf aug-cc-pvdz iop(5/13=1,5/36=2,99/5=2) pseudo=read geom=check gue
 ss=(read,tcheck) scf=(maxcycle=1)
 ----------------------------------------------------------------------
 -----
 title
 -----
 Structure from the checkpoint file:  "Z-hexa-1-5-diyne-3-ene.chk"
 Charge =  0 Multiplicity = 1

                         Standard orientation:
 ---------------------------------------------------------------------
 Center     Atomic      Atomic             Coordinates (Angstroms)
 Number     Number       Type             X           Y           Z
 ---------------------------------------------------------------------
      1          6           0        0.000000    0.673836    1.076580
      2          6           0       -0.000000   -0.673836    1.076580
      3          6           0        0.000000    1.493940   -0.073575
      4          6           0       -0.000000   -1.493940   -0.073575
      5          1           0        0.000000    1.184203    2.032282
      6          1           0       -0.000000   -1.184203    2.032282
      7          6           0        0.000000    2.225403   -1.028515
      8          6           0       -0.000000   -2.225403   -1.028515
      9          1           0        0.000000    2.859977   -1.879220
     10          1           0       -0.000000   -2.859977   -1.879220
 ---------------------------------------------------------------------

 SCF Done:  E(RHF) =  -230.488436143     A.U. after    2 cycles

 The electronic state is 1-A1.
 Alpha  occ. eigenvalues --  -11.49452 -11.44473 -11.43040 -11.41354 -11.40882
 Alpha  occ. eigenvalues --  -11.40550  -1.26460  -1.11796  -1.04165  -0.90902
 Alpha  occ. eigenvalues --   -0.76977  -0.71782  -0.67748  -0.61311  -0.55443
 Alpha  occ. eigenvalues --   -0.48853  -0.40809  -0.37994  -0.37904  -0.30144
 Alpha virt. eigenvalues --    0.02886   0.04617   0.05542   0.05749   0.07837
 Alpha virt. eigenvalues --    0.09397   0.10763   0.11037   0.11076   0.12274
 Alpha virt. eigenvalues --    0.12423   0.13397   0.13697   0.14340   0.14667

 Mulliken charges:
               1
     1  C   -1.501040
     2  C   -1.501040
     3  C    3.492090
     4  C    3.492090
     5  H    1.355736
     6  H    1.355736
     7  C   -4.159627
     8  C   -4.159627
     9  H    0.812841
    10  H    0.812841
 Sum of Mulliken charges =  -0.00000

 Dipole moment (field-independent basis, Debye):
    X=              0.0000    Y=             -0.0000    Z=             -0.0200  Tot=              0.0200

 Test job not archived.
 1\1\GINC-SE168\SP\RHF\Aug-CC-pVDZ\C6H4\OHZDE\06-Apr-2025\0\\#t hf aug-
 cc-pvdz iop(5/13=1,5/36=2,99/5=2) pseudo=read geom=check guess=(read,t
 check) scf=(maxcycle=1)\\title\\0,1\C,0,0.,0.673836,1.07658\C,0,0.,-0.
 673836,1.07658\C,0,0.,1.49394,-0.073575\C,0,0.,-1.49394,-0.073575\H,0,
 0.,1.184203,2.032282\H,0,0.,-1.184203,2.032282\C,0,0.,2.225403,-1.0285
 15\C,0,0.,-2.225403,-1.028515\H,0,0.,2.859977,-1.87922\H,0,0.,-2.85997
 7,-1.87922\\Version=ES64L-G16RevC.01\State=1-A1\HF=-230.4884361\RMSD=1
 .566e+00\Dipole=0.,0.,-0.0078732\Quadrupole=-4.7365696,1.1651885,3.571

 Normal termination of Gaussian 16 at Sun Apr  6 08:08:33 2025.
