 Gaussian 16, Revision C.01,

 ----------------------------------------------------------------------
 #t hf aug-cc-pvdz symm=none int=(grid=ultrafine) guess=(read,tcheck) s
 table=(opt,rrhf)
 ----------------------------------------------------------------------
 -----
 title
 -----
 Symbolic Z-matrix:
 Charge =  0 Multiplicity = 1

 SCF Done:  E(RHF) =  -234.203448611     A.U. after   13 cycles
 Normal termination of Gaussian 16 at Sun Apr  6 08:08:58 2025.
 Gaussian 16:  ES64L-G16RevC.01  3-Jul-2019

 ----------------------------------------------------------------------
 #t hf aug-cc-pvdz iop(5/13=1,5/36=2,99/5=2) pseudo=read geom=check gue
 ss=(read,tcheck) scf=(maxcycle=1)
 ----------------------------------------------------------------------
 -----
 title
 -----
 Structure from the checkpoint file:  "Z-hex-2-ene.chk"
 Charge =  0 Multiplicity = 1

                         Standard orientation:
 ---------------------------------------------------------------------
 Center     Atomic      Atomic             Coordinates (Angstroms)
 Number     Number       Type             X           Y           Z
 ---------------------------------------------------------------------
      1          6           0        2.504241    0.931319   -0.085192
      2          6           0        1.998142   -0.478800   -0.128417
      3          6           0        0.769296   -0.918216    0.140008
      4          6           0       -0.434805   -0.119302    0.542445
      5          6           0       -1.601727   -0.257472   -0.447654
      6          6           0       -2.851525    0.501404   -0.006889
      7          1           0        1.734783    1.651980    0.184380
      8          1           0        3.319775    1.027195    0.636764
      9          1           0        2.913879    1.224357   -1.055460
     10          1           0        2.738677   -1.220567   -0.412233
     11          1           0        0.595713   -1.987355    0.051531
     12          1           0       -0.185051    0.936381    0.659414
     13          1           0       -0.776153   -0.463279    1.525879
     14          1           0       -1.278423    0.098753   -1.429077
     15          1           0       -1.840844   -1.317309   -0.573189
     16          1           0       -3.661297    0.386912   -0.728721
     17          1           0       -3.213611    0.139892    0.957916
     18          1           0       -2.649176    1.569437    0.096993
 ---------------------------------------------------------------------

 SCF Done:  E(RHF) =  -235.420696265     A.U. after    2 cycles

 The electronic state is 1-A.
 Alpha  occ. eigenvalues --  -11.43791 -11.41216 -11.38808 -11.38493 -11.36062
 Alpha  occ. eigenvalues --  -11.34293  -1.26216  -1.15266  -1.03437  -0.94275
 Alpha  occ. eigenvalues --   -0.84366  -0.74545  -0.66103  -0.61185  -0.57976
 Alpha  occ. eigenvalues --   -0.56204  -0.54832  -0.53009  -0.50786  -0.47096
 Alpha  occ. eigenvalues --   -0.46211  -0.44837  -0.42280  -0.31994
 Alpha virt. eigenvalues --    0.03798   0.05044   0.05389   0.05661   0.05853
 Alpha virt. eigenvalues --    0.06075   0.06439   0.06844   0.07658   0.07965
 Alpha virt. eigenvalues --    0.08848   0.09717   0.11872   0.12159   0.13469

 Mulliken charges:
               1
     1  C   -4.625747
     2  C   -0.809888
     3  C   -0.348056
     4  C   -3.507614
     5  C   -2.976519
     6  C   -3.853978
     7  H    1.281702
     8  H    1.169948
     9  H    1.197231
    10  H    1.405914
    11  H    1.456054
    12  H    1.747246
    13  H    1.322068
    14  H    1.499835
    15  H    1.401468
    16  H    1.115893
    17  H    1.224315
    18  H    1.300126
 Sum of Mulliken charges =  -0.00000

 Dipole moment (field-independent basis, Debye):
    X=             -0.0593    Y=              0.1641    Z=             -0.0283  Tot=              0.1768

 Test job not archived.
 1\1\GINC-SE168\SP\RHF\Aug-CC-pVDZ\C6H12\OHZDE\06-Apr-2025\0\\#t hf aug
 -cc-pvdz iop(5/13=1,5/36=2,99/5=2) pseudo=read geom=check guess=(read,
 tcheck) scf=(maxcycle=1)\\title\\0,1\C,0,2.504241,0.931319,-0.085192\C
 ,0,1.998142,-0.4788,-0.128417\C,0,0.769296,-0.918216,0.140008\C,0,-0.4
 34805,-0.119302,0.542445\C,0,-1.601727,-0.257472,-0.447654\C,0,-2.8515
 25,0.501404,-0.006889\H,0,1.734783,1.65198,0.18438\H,0,3.319775,1.0271
 95,0.636764\H,0,2.913879,1.224357,-1.05546\H,0,2.738677,-1.220567,-0.4
 12233\H,0,0.595713,-1.987355,0.051531\H,0,-0.185051,0.936381,0.659414\

 Normal termination of Gaussian 16 at Sun Apr  6 08:10:47 2025.
