                         Program Version 5.0.4 -  RELEASE  -
|  1> ! ri-mp2 aug-cc-pvdz aug-cc-pvdz/c tightscf
|  2> %pal nprocs 16 end
|  3> %maxcore 3800
|  4> %base "DZ_S66by10_22_1.25_dimer"
|  5> %scf STABPerform true end
|  6>
|  7> *xyz 0 1
|  8> C   -1.11362611    1.32702009    0.27516705
|  9> O   -0.46708264    2.34938778    0.46153746
| 10> O   -0.57808939    0.13692049    0.04961747
| 11> H    0.41332036    0.20325661    0.05548711
| 12> C   -2.61142469    1.28618957    0.27736131
| 13> H   -3.00664872    2.27688545    0.46578983
| 14> H   -2.96425623    0.91525868   -0.68200123
| 15> H   -2.95311421    0.59179821    1.04124041
| 16> N    4.62326136    1.09891766    0.18124266
| 17> H    5.01646647    0.18352743    0.00952323
| 18> C    5.54478926    2.14703328    0.36269577
| 19> O    6.74193565    1.92873747    0.30981581
| 20> C    4.90572319    3.42649566    0.60330292
| 21> H    5.52525796    4.29342054    0.75478019
| 22> C    3.55863899    3.50648581    0.63268416
| 23> H    3.03579880    4.43493281    0.80798236
| 24> N    2.75490824    2.41580383    0.44227813
| 25> H    1.73085641    2.48575152    0.46606839
| 26> C    3.25484073    1.16558104    0.20810590
| 27> O    2.54280828    0.17607616    0.03463572
| 28> *
| 29>
| 30> $new_job
| 31> ! ri-mp2 aug-cc-pvtz aug-cc-pvtz/c tightscf
| 32> %pal nprocs 16 end
| 33> %maxcore 3800
| 34> %base "TZ_S66by10_22_1.25_dimer"
| 35>
| 36> *xyz 0 1
| 37> C   -1.11362611    1.32702009    0.27516705
| 38> O   -0.46708264    2.34938778    0.46153746
| 39> O   -0.57808939    0.13692049    0.04961747
| 40> H    0.41332036    0.20325661    0.05548711
| 41> C   -2.61142469    1.28618957    0.27736131
| 42> H   -3.00664872    2.27688545    0.46578983
| 43> H   -2.96425623    0.91525868   -0.68200123
| 44> H   -2.95311421    0.59179821    1.04124041
| 45> N    4.62326136    1.09891766    0.18124266
| 46> H    5.01646647    0.18352743    0.00952323
| 47> C    5.54478926    2.14703328    0.36269577
| 48> O    6.74193565    1.92873747    0.30981581
| 49> C    4.90572319    3.42649566    0.60330292
| 50> H    5.52525796    4.29342054    0.75478019
| 51> C    3.55863899    3.50648581    0.63268416
| 52> H    3.03579880    4.43493281    0.80798236
| 53> N    2.75490824    2.41580383    0.44227813
| 54> H    1.73085641    2.48575152    0.46606839
| 55> C    3.25484073    1.16558104    0.20810590
| 56> O    2.54280828    0.17607616    0.03463572
| 57> *
| 58>
| 59> $new_job
| 60> ! ri-mp2 aug-cc-pvqz aug-cc-pvqz/c tightscf
| 61> %pal nprocs 16 end
| 62> %maxcore 3800
| 63> %base "QZ_S66by10_22_1.25_dimer"
| 64>
| 65> *xyz 0 1
| 66> C   -1.11362611    1.32702009    0.27516705
| 67> O   -0.46708264    2.34938778    0.46153746
| 68> O   -0.57808939    0.13692049    0.04961747
| 69> H    0.41332036    0.20325661    0.05548711
| 70> C   -2.61142469    1.28618957    0.27736131
| 71> H   -3.00664872    2.27688545    0.46578983
| 72> H   -2.96425623    0.91525868   -0.68200123
| 73> H   -2.95311421    0.59179821    1.04124041
| 74> N    4.62326136    1.09891766    0.18124266
| 75> H    5.01646647    0.18352743    0.00952323
| 76> C    5.54478926    2.14703328    0.36269577
| 77> O    6.74193565    1.92873747    0.30981581
| 78> C    4.90572319    3.42649566    0.60330292
| 79> H    5.52525796    4.29342054    0.75478019
| 80> C    3.55863899    3.50648581    0.63268416
| 81> H    3.03579880    4.43493281    0.80798236
| 82> N    2.75490824    2.41580383    0.44227813
| 83> H    1.73085641    2.48575152    0.46606839
| 84> C    3.25484073    1.16558104    0.20810590
| 85> O    2.54280828    0.17607616    0.03463572
| 86> *
| 87>
| 88>
| 89>
| 90>
| 91>                          ****END OF INPUT****
 Total Charge           Charge          ....    0
 Multiplicity           Mult            ....    1
 Number of Electrons    NEL             ....   90
MP2 TOTAL ENERGY:     -642.323939266 Eh
FINAL SINGLE POINT ENERGY      -642.323939265682
MP2 TOTAL ENERGY:     -642.869769591 Eh
FINAL SINGLE POINT ENERGY      -642.869769590564

CARTESIAN COORDINATES (ANGSTROEM)
---------------------------------
  C     -1.113626    1.327020    0.275167
  O     -0.467083    2.349388    0.461537
  O     -0.578089    0.136920    0.049617
  H      0.413320    0.203257    0.055487
  C     -2.611425    1.286190    0.277361
  H     -3.006649    2.276885    0.465790
  H     -2.964256    0.915259   -0.682001
  H     -2.953114    0.591798    1.041240
  N      4.623261    1.098918    0.181243
  H      5.016466    0.183527    0.009523
  C      5.544789    2.147033    0.362696
  O      6.741936    1.928737    0.309816
  C      4.905723    3.426496    0.603303
  H      5.525258    4.293421    0.754780
  C      3.558639    3.506486    0.632684
  H      3.035799    4.434933    0.807982
  N      2.754908    2.415804    0.442278
  H      1.730856    2.485752    0.466068
  C      3.254841    1.165581    0.208106
  O      2.542808    0.176076    0.034636

 Multiplicity           Mult            ....    1
 Number of Electrons    NEL             ....   90
 Basis Dimension        Dim             .... 1328

ORBITAL ENERGIES
----------------

  NO   OCC          E(Eh)            E(eV)
   0   2.0000     -20.613533      -560.9227
   1   2.0000     -20.555507      -559.3438
   2   2.0000     -20.549108      -559.1697
   3   2.0000     -20.539596      -558.9108
   4   2.0000     -15.638357      -425.5413
   5   2.0000     -15.627913      -425.2571
   6   2.0000     -11.421210      -310.7869
   7   2.0000     -11.397918      -310.1531
   8   2.0000     -11.379969      -309.6647
   9   2.0000     -11.336964      -308.4945
  10   2.0000     -11.252874      -306.2063
  11   2.0000     -11.247018      -306.0469
  12   2.0000      -1.470199       -40.0062
  13   2.0000      -1.436474       -39.0884
  14   2.0000      -1.397777       -38.0354
  15   2.0000      -1.363751       -37.1096
  16   2.0000      -1.312263       -35.7085
  17   2.0000      -1.246453       -33.9177
  18   2.0000      -1.087038       -29.5798
  19   2.0000      -1.033037       -28.1104
  20   2.0000      -0.934389       -25.4260
  21   2.0000      -0.901162       -24.5219
  22   2.0000      -0.832639       -22.6573
  23   2.0000      -0.804760       -21.8986
  24   2.0000      -0.766148       -20.8480
  25   2.0000      -0.720071       -19.5941
  26   2.0000      -0.709582       -19.3087
  27   2.0000      -0.688766       -18.7423
  28   2.0000      -0.676796       -18.4166
  29   2.0000      -0.671305       -18.2671
  30   2.0000      -0.658013       -17.9054
  31   2.0000      -0.655113       -17.8265
  32   2.0000      -0.613654       -16.6984
  33   2.0000      -0.601928       -16.3793
  34   2.0000      -0.586114       -15.9490
  35   2.0000      -0.574281       -15.6270
  36   2.0000      -0.571511       -15.5516
  37   2.0000      -0.565628       -15.3915
  38   2.0000      -0.524386       -14.2693
  39   2.0000      -0.490863       -13.3571
  40   2.0000      -0.489438       -13.3183
  41   2.0000      -0.465440       -12.6653
  42   2.0000      -0.450627       -12.2622
  43   2.0000      -0.441155       -12.0044
  44   2.0000      -0.368271       -10.0212
  45   0.0000       0.019265         0.5242
  46   0.0000       0.025826         0.7028
  47   0.0000       0.033732         0.9179
  48   0.0000       0.038124         1.0374
  49   0.0000       0.039222         1.0673

MULLIKEN ATOMIC CHARGES
-----------------------
   0 C :    0.898862
   1 O :   -0.797498
   2 O :   -0.689942
   3 H :    0.386721
   4 C :   -0.750464
   5 H :    0.334048
   6 H :    0.296563
   7 H :    0.295845
   8 N :   -0.683652
   9 H :    0.144771
  10 C :    1.114373
  11 O :   -0.806699
  12 C :   -0.396993
  13 H :    0.306116
  14 C :   -0.266274
  15 H :    0.363046
  16 N :   -0.489015
  17 H :    0.150575
  18 C :    1.396646
  19 O :   -0.807031
Sum of atomic charges:   -0.0000000

LOEWDIN ATOMIC CHARGES
----------------------
   0 C :   -1.023078
   1 O :    0.726464
   2 O :    1.252153
   3 H :   -0.906454
   4 C :    0.867911
   5 H :   -0.325234
   6 H :   -0.303192
   7 H :   -0.303215
   8 N :    0.781465
   9 H :   -0.516900
  10 C :   -0.859814
  11 O :    0.682602
  12 C :    0.337169
  13 H :   -0.354103
  14 C :    0.242750
  15 H :   -0.294769
  16 N :    0.810100
  17 H :   -0.597188
  18 C :   -0.962881
  19 O :    0.746215

  Mayer bond orders larger than 0.100000
B(  0-C ,  1-O ) :   1.5623 B(  0-C ,  2-O ) :   0.9548 B(  0-C ,  4-C ) :   0.7435
B(  2-O ,  3-H ) :   0.8482 B(  4-C ,  5-H ) :   0.9567 B(  4-C ,  6-H ) :   0.9359
B(  4-C ,  7-H ) :   0.9367 B(  8-N ,  9-H ) :   1.1627 B(  8-N , 10-C ) :   1.0241
B(  8-N , 11-O ) :   0.1646 B(  8-N , 18-C ) :   0.9970 B(  8-N , 19-O ) :   0.1175
B( 10-C , 11-O ) :   1.0719 B( 10-C , 12-C ) :   1.1667 B( 10-C , 14-C ) :  -0.1264
B( 11-O , 12-C ) :   0.2641 B( 12-C , 13-H ) :   0.9914 B( 12-C , 14-C ) :   1.4478
B( 13-H , 14-C ) :  -0.1253 B( 14-C , 15-H ) :   0.9685 B( 14-C , 16-N ) :   0.9112
B( 16-N , 17-H ) :   1.1185 B( 16-N , 18-C ) :   1.1237 B( 16-N , 19-O ) :   0.1690
B( 18-C , 19-O ) :   1.2793

MP2 TOTAL ENERGY:     -643.049409028 Eh
FINAL SINGLE POINT ENERGY      -643.049409027955

DIPOLE MOMENT
-------------
                                X             Y             Z
Electronic contribution:      9.65378      -0.81871      -0.22751
Nuclear contribution   :    -11.26756       1.64240       0.39115
                        -----------------------------------------
Total Dipole Moment    :     -1.61378       0.82370       0.16364
                        -----------------------------------------
Magnitude (a.u.)       :      1.81921
Magnitude (Debye)      :      4.62406

Rotational constants in cm-1:     0.092722     0.011596     0.010326
Rotational constants in MHz :  2779.741200   347.631234   309.576478

                             ****ORCA TERMINATED NORMALLY****
TOTAL RUN TIME: 0 days 5 hours 13 minutes 50 seconds 294 msec
