                         Program Version 5.0.4 -  RELEASE  -
|  1> ! ri-mp2 aug-cc-pvdz aug-cc-pvdz/c tightscf
|  2> %pal nprocs 16 end
|  3> %maxcore 3800
|  4> %base "DZ_S66by10_20_1.5_dimer"
|  5> %scf STABPerform true end
|  6>
|  7> *xyz 0 1
|  8> C   -1.06170920    1.29714057    0.29206000
|  9> O   -0.35816112    2.27045861    0.53181267
| 10> O   -0.58930352    0.09491776    0.00378881
| 11> H    0.40443566    0.12772262    0.01841184
| 12> C   -2.55842780    1.34254982    0.29625732
| 13> H   -2.89599798    2.34746400    0.51831634
| 14> H   -2.93288928    1.02239045   -0.67299555
| 15> H   -2.93721196    0.64491043    1.03955708
| 16> C    3.64542026    1.11220748    0.27773514
| 17> O    2.94180189    0.13889299    0.03794754
| 18> O    3.17299393    2.31464287    0.56551361
| 19> H    2.17920539    2.28174463    0.55111311
| 20> C    5.14213271    1.06630473    0.27577075
| 21> H    5.47971227    0.06498554    0.03824525
| 22> H    5.52363125    1.77665767   -0.45369815
| 23> H    5.51364902    1.36899925    1.25182611
| 24> *
| 25>
| 26> $new_job
| 27> ! ri-mp2 aug-cc-pvtz aug-cc-pvtz/c tightscf
| 28> %pal nprocs 16 end
| 29> %maxcore 3800
| 30> %base "TZ_S66by10_20_1.5_dimer"
| 31>
| 32> *xyz 0 1
| 33> C   -1.06170920    1.29714057    0.29206000
| 34> O   -0.35816112    2.27045861    0.53181267
| 35> O   -0.58930352    0.09491776    0.00378881
| 36> H    0.40443566    0.12772262    0.01841184
| 37> C   -2.55842780    1.34254982    0.29625732
| 38> H   -2.89599798    2.34746400    0.51831634
| 39> H   -2.93288928    1.02239045   -0.67299555
| 40> H   -2.93721196    0.64491043    1.03955708
| 41> C    3.64542026    1.11220748    0.27773514
| 42> O    2.94180189    0.13889299    0.03794754
| 43> O    3.17299393    2.31464287    0.56551361
| 44> H    2.17920539    2.28174463    0.55111311
| 45> C    5.14213271    1.06630473    0.27577075
| 46> H    5.47971227    0.06498554    0.03824525
| 47> H    5.52363125    1.77665767   -0.45369815
| 48> H    5.51364902    1.36899925    1.25182611
| 49> *
| 50>
| 51> $new_job
| 52> ! ri-mp2 aug-cc-pvqz aug-cc-pvqz/c tightscf
| 53> %pal nprocs 16 end
| 54> %maxcore 3800
| 55> %base "QZ_S66by10_20_1.5_dimer"
| 56>
| 57> *xyz 0 1
| 58> C   -1.06170920    1.29714057    0.29206000
| 59> O   -0.35816112    2.27045861    0.53181267
| 60> O   -0.58930352    0.09491776    0.00378881
| 61> H    0.40443566    0.12772262    0.01841184
| 62> C   -2.55842780    1.34254982    0.29625732
| 63> H   -2.89599798    2.34746400    0.51831634
| 64> H   -2.93288928    1.02239045   -0.67299555
| 65> H   -2.93721196    0.64491043    1.03955708
| 66> C    3.64542026    1.11220748    0.27773514
| 67> O    2.94180189    0.13889299    0.03794754
| 68> O    3.17299393    2.31464287    0.56551361
| 69> H    2.17920539    2.28174463    0.55111311
| 70> C    5.14213271    1.06630473    0.27577075
| 71> H    5.47971227    0.06498554    0.03824525
| 72> H    5.52363125    1.77665767   -0.45369815
| 73> H    5.51364902    1.36899925    1.25182611
| 74> *
| 75>
| 76>
| 77>
| 78>
| 79>                          ****END OF INPUT****
 Total Charge           Charge          ....    0
 Multiplicity           Mult            ....    1
 Number of Electrons    NEL             ....   64
MP2 TOTAL ENERGY:     -457.059142859 Eh
FINAL SINGLE POINT ENERGY      -457.059142859471
MP2 TOTAL ENERGY:     -457.456413929 Eh
FINAL SINGLE POINT ENERGY      -457.456413929173

CARTESIAN COORDINATES (ANGSTROEM)
---------------------------------
  C     -1.061709    1.297141    0.292060
  O     -0.358161    2.270459    0.531813
  O     -0.589304    0.094918    0.003789
  H      0.404436    0.127723    0.018412
  C     -2.558428    1.342550    0.296257
  H     -2.895998    2.347464    0.518316
  H     -2.932889    1.022390   -0.672996
  H     -2.937212    0.644910    1.039557
  C      3.645420    1.112207    0.277735
  O      2.941802    0.138893    0.037948
  O      3.172994    2.314643    0.565514
  H      2.179205    2.281745    0.551113
  C      5.142133    1.066305    0.275771
  H      5.479712    0.064986    0.038245
  H      5.523631    1.776658   -0.453698
  H      5.513649    1.368999    1.251826

 Multiplicity           Mult            ....    1
 Number of Electrons    NEL             ....   64
 Basis Dimension        Dim             .... 1008

ORBITAL ENERGIES
----------------

  NO   OCC          E(Eh)            E(eV)
   0   2.0000     -20.615208      -560.9683
   1   2.0000     -20.615204      -560.9682
   2   2.0000     -20.547763      -559.1331
   3   2.0000     -20.547745      -559.1326
   4   2.0000     -11.391290      -309.9728
   5   2.0000     -11.391270      -309.9722
   6   2.0000     -11.242899      -305.9348
   7   2.0000     -11.242894      -305.9347
   8   2.0000      -1.468724       -39.9660
   9   2.0000      -1.467616       -39.9359
  10   2.0000      -1.357417       -36.9372
  11   2.0000      -1.356242       -36.9052
  12   2.0000      -1.029429       -28.0122
  13   2.0000      -1.028304       -27.9816
  14   2.0000      -0.830948       -22.6112
  15   2.0000      -0.827481       -22.5169
  16   2.0000      -0.712638       -19.3919
  17   2.0000      -0.703939       -19.1552
  18   2.0000      -0.684427       -18.6242
  19   2.0000      -0.681725       -18.5507
  20   2.0000      -0.655366       -17.8334
  21   2.0000      -0.654384       -17.8067
  22   2.0000      -0.582272       -15.8444
  23   2.0000      -0.581209       -15.8155
  24   2.0000      -0.574391       -15.6300
  25   2.0000      -0.569058       -15.4848
  26   2.0000      -0.563467       -15.3327
  27   2.0000      -0.562979       -15.3194
  28   2.0000      -0.482854       -13.1391
  29   2.0000      -0.481410       -13.0998
  30   2.0000      -0.462139       -12.5754
  31   2.0000      -0.454207       -12.3596
  32   0.0000       0.025391         0.6909
  33   0.0000       0.028497         0.7754
  34   0.0000       0.039343         1.0706
  35   0.0000       0.040874         1.1122
  36   0.0000       0.044805         1.2192

MULLIKEN ATOMIC CHARGES
-----------------------
   0 C :    0.887324
   1 O :   -0.775143
   2 O :   -0.656315
   3 H :    0.402726
   4 C :   -0.752546
   5 H :    0.313403
   6 H :    0.288462
   7 H :    0.292092
   8 C :    0.887261
   9 O :   -0.775123
  10 O :   -0.656341
  11 H :    0.402747
  12 C :   -0.752671
  13 H :    0.313501
  14 H :    0.290662
  15 H :    0.289958
Sum of atomic charges:    0.0000000

LOEWDIN ATOMIC CHARGES
----------------------
   0 C :   -1.048372
   1 O :    0.689531
   2 O :    1.238852
   3 H :   -0.809428
   4 C :    0.863187
   5 H :   -0.325361
   6 H :   -0.304635
   7 H :   -0.303778
   8 C :   -1.048243
   9 O :    0.689491
  10 O :    1.238774
  11 H :   -0.809387
  12 C :    0.863264
  13 H :   -0.325406
  14 H :   -0.304223
  15 H :   -0.304267

  Mayer bond orders larger than 0.100000
B(  0-C ,  1-O ) :   1.5299 B(  0-C ,  2-O ) :   0.9897 B(  0-C ,  4-C ) :   0.8275
B(  2-O ,  3-H ) :   0.8537 B(  4-C ,  5-H ) :   0.9622 B(  4-C ,  6-H ) :   0.9335
B(  4-C ,  7-H ) :   0.9251 B(  8-C ,  9-O ) :   1.5299 B(  8-C , 10-O ) :   0.9897
B(  8-C , 12-C ) :   0.8275 B( 10-O , 11-H ) :   0.8537 B( 12-C , 13-H ) :   0.9621
B( 12-C , 14-H ) :   0.9286 B( 12-C , 15-H ) :   0.9300

MP2 TOTAL ENERGY:     -457.586194357 Eh
FINAL SINGLE POINT ENERGY      -457.586194357306

DIPOLE MOMENT
-------------
                                X             Y             Z
Electronic contribution:      0.00033       0.00156      -0.00738
Nuclear contribution   :     -0.00018      -0.00204       0.00898
                        -----------------------------------------
Total Dipole Moment    :      0.00015      -0.00049       0.00160
                        -----------------------------------------
Magnitude (a.u.)       :      0.00168
Magnitude (Debye)      :      0.00426

Rotational constants in cm-1:     0.187919     0.021027     0.019043
Rotational constants in MHz :  5633.677391   630.364435   570.900002

                             ****ORCA TERMINATED NORMALLY****
TOTAL RUN TIME: 0 days 1 hours 16 minutes 42 seconds 970 msec
