                         Program Version 5.0.4 -  RELEASE  -
|  1> ! ri-mp2 aug-cc-pvdz aug-cc-pvdz/c tightscf
|  2> %pal nprocs 16 end
|  3> %maxcore 3800
|  4> %base "DZ_S66by10_1_0.7_dimer"
|  5> %scf STABPerform true end
|  6>
|  7> *xyz 0 1
|  8> O   -0.70219605   -0.05606026    0.00994226
|  9> H   -1.02219322    0.84677578   -0.01148871
| 10> H    0.25752106    0.04212150    0.00521900
| 11> O    1.66555518    0.03107387    0.00192113
| 12> H    2.04217679   -0.40730619    0.76804551
| 13> H    2.03781949   -0.44513910   -0.74348137
| 14> *
| 15>
| 16> $new_job
| 17> ! ri-mp2 aug-cc-pvtz aug-cc-pvtz/c tightscf
| 18> %pal nprocs 16 end
| 19> %maxcore 3800
| 20> %base "TZ_S66by10_1_0.7_dimer"
| 21>
| 22> *xyz 0 1
| 23> O   -0.70219605   -0.05606026    0.00994226
| 24> H   -1.02219322    0.84677578   -0.01148871
| 25> H    0.25752106    0.04212150    0.00521900
| 26> O    1.66555518    0.03107387    0.00192113
| 27> H    2.04217679   -0.40730619    0.76804551
| 28> H    2.03781949   -0.44513910   -0.74348137
| 29> *
| 30>
| 31> $new_job
| 32> ! ri-mp2 aug-cc-pvqz aug-cc-pvqz/c tightscf
| 33> %pal nprocs 16 end
| 34> %maxcore 3800
| 35> %base "QZ_S66by10_1_0.7_dimer"
| 36>
| 37> *xyz 0 1
| 38> O   -0.70219605   -0.05606026    0.00994226
| 39> H   -1.02219322    0.84677578   -0.01148871
| 40> H    0.25752106    0.04212150    0.00521900
| 41> O    1.66555518    0.03107387    0.00192113
| 42> H    2.04217679   -0.40730619    0.76804551
| 43> H    2.03781949   -0.44513910   -0.74348137
| 44> *
| 45>
| 46>
| 47>
| 48>
| 49>                          ****END OF INPUT****
 Total Charge           Charge          ....    0
 Multiplicity           Mult            ....    1
 Number of Electrons    NEL             ....   20
MP2 TOTAL ENERGY:     -152.514345817 Eh
FINAL SINGLE POINT ENERGY      -152.514345817150
MP2 TOTAL ENERGY:     -152.651519279 Eh
FINAL SINGLE POINT ENERGY      -152.651519279070

CARTESIAN COORDINATES (ANGSTROEM)
---------------------------------
  O     -0.702196   -0.056060    0.009942
  H     -1.022193    0.846776   -0.011489
  H      0.257521    0.042121    0.005219
  O      1.665555    0.031074    0.001921
  H      2.042177   -0.407306    0.768046
  H      2.037819   -0.445139   -0.743481

 Multiplicity           Mult            ....    1
 Number of Electrons    NEL             ....   20
 Basis Dimension        Dim             ....  344

ORBITAL ENERGIES
----------------

  NO   OCC          E(Eh)            E(eV)
   0   2.0000     -20.606088      -560.7202
   1   2.0000     -20.497483      -557.7649
   2   2.0000      -1.411222       -38.4013
   3   2.0000      -1.295920       -35.2638
   4   2.0000      -0.762837       -20.7578
   5   2.0000      -0.726736       -19.7755
   6   2.0000      -0.621699       -16.9173
   7   2.0000      -0.559354       -15.2208
   8   2.0000      -0.503955       -13.7133
   9   2.0000      -0.454361       -12.3638
  10   0.0000       0.017251         0.4694
  11   0.0000       0.039666         1.0794
  12   0.0000       0.045591         1.2406
  13   0.0000       0.070392         1.9155
  14   0.0000       0.097886         2.6636

MULLIKEN ATOMIC CHARGES
-----------------------
   0 O :   -0.634523
   1 H :    0.290537
   2 H :    0.189361
   3 O :   -0.478275
   4 H :    0.316419
   5 H :    0.316482
Sum of atomic charges:   -0.0000000

LOEWDIN ATOMIC CHARGES
----------------------
   0 O :    1.598243
   1 H :   -0.785598
   2 H :   -1.359579
   3 O :    1.787926
   4 H :   -0.620501
   5 H :   -0.620492

  Mayer bond orders larger than 0.100000
B(  0-O ,  1-H ) :   0.9549 B(  0-O ,  2-H ) :   1.0065 B(  2-H ,  3-O ) :   0.1797
B(  3-O ,  4-H ) :   0.9220 B(  3-O ,  5-H ) :   0.9219

MP2 TOTAL ENERGY:     -152.697374813 Eh
FINAL SINGLE POINT ENERGY      -152.697374812748

DIPOLE MOMENT
-------------
                                X             Y             Z
Electronic contribution:      0.24136      -0.06307       0.00096
Nuclear contribution   :      1.15582       0.07194      -0.00452
                        -----------------------------------------
Total Dipole Moment    :      1.39718       0.00886      -0.00356
                        -----------------------------------------
Magnitude (a.u.)       :      1.39722
Magnitude (Debye)      :      3.55144

Rotational constants in cm-1:     7.369851     0.317037     0.316935
Rotational constants in MHz : 220942.582659  9504.530368  9501.475087

                             ****ORCA TERMINATED NORMALLY****
TOTAL RUN TIME: 0 days 0 hours 3 minutes 3 seconds 820 msec
