                         Program Version 5.0.4 -  RELEASE  -
|  1> ! ri-mp2 aug-cc-pvdz aug-cc-pvdz/c tightscf
|  2> %pal nprocs 16 end
|  3> %maxcore 3800
|  4> %base "DZ_S66by10_51_0.95_dimer"
|  5> %scf STABPerform true end
|  6>
|  7> *xyz 0 1
|  8> C   -0.60172996   -0.02857012    0.38493492
|  9> H   -1.66373543   -0.02852657    0.37901431
| 10> C    0.61010917   -0.02866364    0.38816379
| 11> H    1.67213544   -0.02879308    0.38796752
| 12> C   -0.00699066    0.09602527    4.02085766
| 13> H   -0.00359628    0.06229022    2.95756078
| 14> C   -0.01092708    0.13431529    5.23232304
| 15> H   -0.01419331    0.16769117    6.29323446
| 16> *
| 17>
| 18> $new_job
| 19> ! ri-mp2 aug-cc-pvtz aug-cc-pvtz/c tightscf
| 20> %pal nprocs 16 end
| 21> %maxcore 3800
| 22> %base "TZ_S66by10_51_0.95_dimer"
| 23>
| 24> *xyz 0 1
| 25> C   -0.60172996   -0.02857012    0.38493492
| 26> H   -1.66373543   -0.02852657    0.37901431
| 27> C    0.61010917   -0.02866364    0.38816379
| 28> H    1.67213544   -0.02879308    0.38796752
| 29> C   -0.00699066    0.09602527    4.02085766
| 30> H   -0.00359628    0.06229022    2.95756078
| 31> C   -0.01092708    0.13431529    5.23232304
| 32> H   -0.01419331    0.16769117    6.29323446
| 33> *
| 34>
| 35> $new_job
| 36> ! ri-mp2 aug-cc-pvqz aug-cc-pvqz/c tightscf
| 37> %pal nprocs 16 end
| 38> %maxcore 3800
| 39> %base "QZ_S66by10_51_0.95_dimer"
| 40>
| 41> *xyz 0 1
| 42> C   -0.60172996   -0.02857012    0.38493492
| 43> H   -1.66373543   -0.02852657    0.37901431
| 44> C    0.61010917   -0.02866364    0.38816379
| 45> H    1.67213544   -0.02879308    0.38796752
| 46> C   -0.00699066    0.09602527    4.02085766
| 47> H   -0.00359628    0.06229022    2.95756078
| 48> C   -0.01092708    0.13431529    5.23232304
| 49> H   -0.01419331    0.16769117    6.29323446
| 50> *
| 51>
| 52>
| 53>
| 54>
| 55>                          ****END OF INPUT****
 Total Charge           Charge          ....    0
 Multiplicity           Mult            ....    1
 Number of Electrons    NEL             ....   28
MP2 TOTAL ENERGY:     -154.187951032 Eh
FINAL SINGLE POINT ENERGY      -154.187951031735
MP2 TOTAL ENERGY:     -154.331236247 Eh
FINAL SINGLE POINT ENERGY      -154.331236247207

CARTESIAN COORDINATES (ANGSTROEM)
---------------------------------
  C     -0.601730   -0.028570    0.384935
  H     -1.663735   -0.028527    0.379014
  C      0.610109   -0.028664    0.388164
  H      1.672135   -0.028793    0.387968
  C     -0.006991    0.096025    4.020858
  H     -0.003596    0.062290    2.957561
  C     -0.010927    0.134315    5.232323
  H     -0.014193    0.167691    6.293234

 Multiplicity           Mult            ....    1
 Number of Electrons    NEL             ....   28
 Basis Dimension        Dim             ....  504

ORBITAL ENERGIES
----------------

  NO   OCC          E(Eh)            E(eV)
   0   2.0000     -11.256028      -306.2921
   1   2.0000     -11.252409      -306.1936
   2   2.0000     -11.236501      -305.7607
   3   2.0000     -11.232739      -305.6584
   4   2.0000      -1.040118       -28.3030
   5   2.0000      -1.019856       -27.7517
   6   2.0000      -0.779363       -21.2075
   7   2.0000      -0.760681       -20.6992
   8   2.0000      -0.691532       -18.8175
   9   2.0000      -0.673009       -18.3135
  10   2.0000      -0.421628       -11.4731
  11   2.0000      -0.420421       -11.4402
  12   2.0000      -0.401425       -10.9233
  13   2.0000      -0.401069       -10.9136
  14   0.0000       0.025705         0.6995
  15   0.0000       0.028860         0.7853
  16   0.0000       0.031427         0.8552
  17   0.0000       0.053960         1.4683
  18   0.0000       0.069948         1.9034

MULLIKEN ATOMIC CHARGES
-----------------------
   0 C :   -0.586653
   1 H :    0.572894
   2 C :   -0.586607
   3 H :    0.572918
   4 C :   -0.623902
   5 H :    0.833294
   6 C :   -0.741515
   7 H :    0.559571
Sum of atomic charges:   -0.0000000

LOEWDIN ATOMIC CHARGES
----------------------
   0 C :    0.492797
   1 H :   -0.456033
   2 C :    0.492847
   3 H :   -0.456042
   4 C :    0.480169
   5 H :   -0.562653
   6 C :    0.492768
   7 H :   -0.483852

  Mayer bond orders larger than 0.100000
B(  0-C ,  1-H ) :   0.6876 B(  0-C ,  2-C ) :   2.6638 B(  2-C ,  3-H ) :   0.6875
B(  4-C ,  5-H ) :   0.4103 B(  4-C ,  6-C ) :   2.5651 B(  5-H ,  6-C ) :  -0.1467
B(  6-C ,  7-H ) :   0.7188

MP2 TOTAL ENERGY:     -154.374235963 Eh
FINAL SINGLE POINT ENERGY      -154.374235962761

DIPOLE MOMENT
-------------
                                X             Y             Z
Electronic contribution:      0.00043      -0.00511      -0.14730
Nuclear contribution   :      0.00013      -0.00039      -0.00736
                        -----------------------------------------
Total Dipole Moment    :      0.00056      -0.00549      -0.15466
                        -----------------------------------------
Magnitude (a.u.)       :      0.15476
Magnitude (Debye)      :      0.39336

Rotational constants in cm-1:     1.168390     0.067762     0.064047
Rotational constants in MHz : 35027.436767  2031.442508  1920.086748

                             ****ORCA TERMINATED NORMALLY****
TOTAL RUN TIME: 0 days 0 hours 8 minutes 27 seconds 304 msec
