                         Program Version 5.0.4 -  RELEASE  -
|  1> ! ri-mp2 aug-cc-pvdz aug-cc-pvdz/c tightscf
|  2> %pal nprocs 16 end
|  3> %maxcore 3800
|  4> %base "DZ_S66by10_4_0.8_dimer"
|  5> %scf STABPerform true end
|  6>
|  7> *xyz 0 1
|  8> O   -0.39201845   -0.38471874    0.07607132
|  9> H   -0.91146085    0.41381204    0.17764877
| 10> H    0.52490382   -0.06848469    0.09051136
| 11> C    1.86220565   -2.28100310   -0.22457741
| 12> H    2.51216849   -3.14211498   -0.35749279
| 13> H    1.18122968   -2.20353104   -1.06844268
| 14> H    1.24918875   -2.41979909    0.66243095
| 15> C    2.61693773   -0.98299022   -0.09198390
| 16> O    2.04022228    0.09230463    0.06460484
| 17> N    3.96757085   -1.08049291   -0.15660187
| 18> H    4.36852248   -1.99102689   -0.28611697
| 19> C    4.83581296    0.07147755   -0.04715879
| 20> H    4.19931883    0.93977799    0.08762582
| 21> H    5.50140247   -0.01997765    0.80893409
| 22> H    5.43027868    0.20089804   -0.94941797
| 23> *
| 24>
| 25> $new_job
| 26> ! ri-mp2 aug-cc-pvtz aug-cc-pvtz/c tightscf
| 27> %pal nprocs 16 end
| 28> %maxcore 3800
| 29> %base "TZ_S66by10_4_0.8_dimer"
| 30>
| 31> *xyz 0 1
| 32> O   -0.39201845   -0.38471874    0.07607132
| 33> H   -0.91146085    0.41381204    0.17764877
| 34> H    0.52490382   -0.06848469    0.09051136
| 35> C    1.86220565   -2.28100310   -0.22457741
| 36> H    2.51216849   -3.14211498   -0.35749279
| 37> H    1.18122968   -2.20353104   -1.06844268
| 38> H    1.24918875   -2.41979909    0.66243095
| 39> C    2.61693773   -0.98299022   -0.09198390
| 40> O    2.04022228    0.09230463    0.06460484
| 41> N    3.96757085   -1.08049291   -0.15660187
| 42> H    4.36852248   -1.99102689   -0.28611697
| 43> C    4.83581296    0.07147755   -0.04715879
| 44> H    4.19931883    0.93977799    0.08762582
| 45> H    5.50140247   -0.01997765    0.80893409
| 46> H    5.43027868    0.20089804   -0.94941797
| 47> *
| 48>
| 49> $new_job
| 50> ! ri-mp2 aug-cc-pvqz aug-cc-pvqz/c tightscf
| 51> %pal nprocs 16 end
| 52> %maxcore 3800
| 53> %base "QZ_S66by10_4_0.8_dimer"
| 54>
| 55> *xyz 0 1
| 56> O   -0.39201845   -0.38471874    0.07607132
| 57> H   -0.91146085    0.41381204    0.17764877
| 58> H    0.52490382   -0.06848469    0.09051136
| 59> C    1.86220565   -2.28100310   -0.22457741
| 60> H    2.51216849   -3.14211498   -0.35749279
| 61> H    1.18122968   -2.20353104   -1.06844268
| 62> H    1.24918875   -2.41979909    0.66243095
| 63> C    2.61693773   -0.98299022   -0.09198390
| 64> O    2.04022228    0.09230463    0.06460484
| 65> N    3.96757085   -1.08049291   -0.15660187
| 66> H    4.36852248   -1.99102689   -0.28611697
| 67> C    4.83581296    0.07147755   -0.04715879
| 68> H    4.19931883    0.93977799    0.08762582
| 69> H    5.50140247   -0.01997765    0.80893409
| 70> H    5.43027868    0.20089804   -0.94941797
| 71> *
| 72>
| 73>
| 74>
| 75>
| 76>                          ****END OF INPUT****
 Total Charge           Charge          ....    0
 Multiplicity           Mult            ....    1
 Number of Electrons    NEL             ....   50
MP2 TOTAL ENERGY:     -324.115219619 Eh
FINAL SINGLE POINT ENERGY      -324.115219618957
MP2 TOTAL ENERGY:     -324.407578923 Eh
FINAL SINGLE POINT ENERGY      -324.407578923413

CARTESIAN COORDINATES (ANGSTROEM)
---------------------------------
  O     -0.392018   -0.384719    0.076071
  H     -0.911461    0.413812    0.177649
  H      0.524904   -0.068485    0.090511
  C      1.862206   -2.281003   -0.224577
  H      2.512168   -3.142115   -0.357493
  H      1.181230   -2.203531   -1.068443
  H      1.249189   -2.419799    0.662431
  C      2.616938   -0.982990   -0.091984
  O      2.040222    0.092305    0.064605
  N      3.967571   -1.080493   -0.156602
  H      4.368522   -1.991027   -0.286117
  C      4.835813    0.071478   -0.047159
  H      4.199319    0.939778    0.087626
  H      5.501402   -0.019978    0.808934
  H      5.430279    0.200898   -0.949418

 Multiplicity           Mult            ....    1
 Number of Electrons    NEL             ....   50
 Basis Dimension        Dim             ....  894

ORBITAL ENERGIES
----------------

  NO   OCC          E(Eh)            E(eV)
   0   2.0000     -20.528645      -558.6128
   1   2.0000     -20.495756      -557.7179
   2   2.0000     -15.600257      -424.5046
   3   2.0000     -11.365811      -309.2794
   4   2.0000     -11.265785      -306.5576
   5   2.0000     -11.234367      -305.7027
   6   2.0000      -1.400772       -38.1169
   7   2.0000      -1.292525       -35.1714
   8   2.0000      -1.246638       -33.9227
   9   2.0000      -1.027189       -27.9512
  10   2.0000      -0.942410       -25.6443
  11   2.0000      -0.811937       -22.0939
  12   2.0000      -0.703465       -19.1423
  13   2.0000      -0.686237       -18.6735
  14   2.0000      -0.667204       -18.1555
  15   2.0000      -0.645793       -17.5729
  16   2.0000      -0.593806       -16.1583
  17   2.0000      -0.589061       -16.0292
  18   2.0000      -0.565335       -15.3836
  19   2.0000      -0.555223       -15.1084
  20   2.0000      -0.523596       -14.2478
  21   2.0000      -0.519340       -14.1319
  22   2.0000      -0.451927       -12.2976
  23   2.0000      -0.438222       -11.9246
  24   2.0000      -0.410051       -11.1581
  25   0.0000       0.017322         0.4714
  26   0.0000       0.029896         0.8135
  27   0.0000       0.035062         0.9541
  28   0.0000       0.037723         1.0265
  29   0.0000       0.049300         1.3415

MULLIKEN ATOMIC CHARGES
-----------------------
   0 O :   -0.746039
   1 H :    0.270305
   2 H :    0.294282
   3 C :   -0.732107
   4 H :    0.290986
   5 H :    0.277021
   6 H :    0.276770
   7 C :    0.952364
   8 O :   -0.768113
   9 N :   -0.470909
  10 H :    0.237293
  11 C :   -0.730545
  12 H :    0.294794
  13 H :    0.276447
  14 H :    0.277450
Sum of atomic charges:    0.0000000

LOEWDIN ATOMIC CHARGES
----------------------
   0 O :    1.611342
   1 H :   -0.770040
   2 H :   -1.338027
   3 C :    0.914665
   4 H :   -0.305700
   5 H :   -0.299363
   6 H :   -0.297905
   7 C :   -0.666138
   8 O :    0.928881
   9 N :    0.851685
  10 H :   -0.503938
  11 C :    0.801271
  12 H :   -0.360029
  13 H :   -0.283359
  14 H :   -0.283345

  Mayer bond orders larger than 0.100000
B(  0-O ,  1-H ) :   1.0002 B(  0-O ,  2-H ) :   0.8955 B(  3-C ,  4-H ) :   0.9774
B(  3-C ,  5-H ) :   0.9364 B(  3-C ,  6-H ) :   0.9362 B(  3-C ,  7-C ) :   0.8196
B(  7-C ,  8-O ) :   1.3261 B(  7-C ,  9-N ) :   1.1715 B(  7-C , 11-C ) :  -0.1048
B(  8-O ,  9-N ) :   0.1166 B(  9-N , 10-H ) :   0.9903 B(  9-N , 11-C ) :   0.8439
B( 11-C , 12-H ) :   0.9433 B( 11-C , 13-H ) :   0.9535 B( 11-C , 14-H ) :   0.9523

MP2 TOTAL ENERGY:     -324.501581788 Eh
FINAL SINGLE POINT ENERGY      -324.501581787626

DIPOLE MOMENT
-------------
                                X             Y             Z
Electronic contribution:     -0.57761       0.97484       0.15462
Nuclear contribution   :      2.32073      -1.59832      -0.30203
                        -----------------------------------------
Total Dipole Moment    :      1.74312      -0.62348      -0.14741
                        -----------------------------------------
Magnitude (a.u.)       :      1.85712
Magnitude (Debye)      :      4.72044

Rotational constants in cm-1:     0.227635     0.059396     0.047942
Rotational constants in MHz :  6824.325576  1780.658757  1437.273535

                             ****ORCA TERMINATED NORMALLY****
TOTAL RUN TIME: 0 days 1 hours 9 minutes 13 seconds 699 msec
