                         Program Version 5.0.4 -  RELEASE  -
|  1> ! ri-mp2 aug-cc-pvdz aug-cc-pvdz/c tightscf
|  2> %pal nprocs 16 end
|  3> %maxcore 3800
|  4> %base "DZ_S66by10_12_1.5_dimer"
|  5> %scf STABPerform true end
|  6>
|  7> *xyz 0 1
|  8> N   -0.53346397   -0.27959351    0.10699576
|  9> H   -0.62915138   -1.24842455    0.38284867
| 10> H   -1.12260363   -0.16615944   -0.70776410
| 11> C   -1.01690943    0.58848610    1.18737346
| 12> H   -0.91275967    1.62555174    0.87952116
| 13> H   -2.05473726    0.41508213    1.47850360
| 14> H   -0.38502338    0.44880090    2.06061419
| 15> O    3.05147112    1.28838272    0.17605563
| 16> H    2.23395371    0.79211023    0.00290273
| 17> H    3.63337257    1.02988485   -0.53969046
| 18> *
| 19>
| 20> $new_job
| 21> ! ri-mp2 aug-cc-pvtz aug-cc-pvtz/c tightscf
| 22> %pal nprocs 16 end
| 23> %maxcore 3800
| 24> %base "TZ_S66by10_12_1.5_dimer"
| 25>
| 26> *xyz 0 1
| 27> N   -0.53346397   -0.27959351    0.10699576
| 28> H   -0.62915138   -1.24842455    0.38284867
| 29> H   -1.12260363   -0.16615944   -0.70776410
| 30> C   -1.01690943    0.58848610    1.18737346
| 31> H   -0.91275967    1.62555174    0.87952116
| 32> H   -2.05473726    0.41508213    1.47850360
| 33> H   -0.38502338    0.44880090    2.06061419
| 34> O    3.05147112    1.28838272    0.17605563
| 35> H    2.23395371    0.79211023    0.00290273
| 36> H    3.63337257    1.02988485   -0.53969046
| 37> *
| 38>
| 39> $new_job
| 40> ! ri-mp2 aug-cc-pvqz aug-cc-pvqz/c tightscf
| 41> %pal nprocs 16 end
| 42> %maxcore 3800
| 43> %base "QZ_S66by10_12_1.5_dimer"
| 44>
| 45> *xyz 0 1
| 46> N   -0.53346397   -0.27959351    0.10699576
| 47> H   -0.62915138   -1.24842455    0.38284867
| 48> H   -1.12260363   -0.16615944   -0.70776410
| 49> C   -1.01690943    0.58848610    1.18737346
| 50> H   -0.91275967    1.62555174    0.87952116
| 51> H   -2.05473726    0.41508213    1.47850360
| 52> H   -0.38502338    0.44880090    2.06061419
| 53> O    3.05147112    1.28838272    0.17605563
| 54> H    2.23395371    0.79211023    0.00290273
| 55> H    3.63337257    1.02988485   -0.53969046
| 56> *
| 57>
| 58>
| 59>
| 60>
| 61>                          ****END OF INPUT****
 Total Charge           Charge          ....    0
 Multiplicity           Mult            ....    1
 Number of Electrons    NEL             ....   28
MP2 TOTAL ENERGY:     -171.839473926 Eh
FINAL SINGLE POINT ENERGY      -171.839473926030
MP2 TOTAL ENERGY:     -172.001254241 Eh
FINAL SINGLE POINT ENERGY      -172.001254240571

CARTESIAN COORDINATES (ANGSTROEM)
---------------------------------
  N     -0.533464   -0.279594    0.106996
  H     -0.629151   -1.248425    0.382849
  H     -1.122604   -0.166159   -0.707764
  C     -1.016909    0.588486    1.187373
  H     -0.912760    1.625552    0.879521
  H     -2.054737    0.415082    1.478504
  H     -0.385023    0.448801    2.060614
  O      3.051471    1.288383    0.176056
  H      2.233954    0.792110    0.002903
  H      3.633373    1.029885   -0.539690

 Multiplicity           Mult            ....    1
 Number of Electrons    NEL             ....   28
 Basis Dimension        Dim             ....  562

ORBITAL ENERGIES
----------------

  NO   OCC          E(Eh)            E(eV)
   0   2.0000     -20.549335      -559.1758
   1   2.0000     -15.548558      -423.0978
   2   2.0000     -11.244706      -305.9840
   3   2.0000      -1.332955       -36.2715
   4   2.0000      -1.178714       -32.0744
   5   2.0000      -0.903125       -24.5753
   6   2.0000      -0.695945       -18.9376
   7   2.0000      -0.670324       -18.2404
   8   2.0000      -0.611688       -16.6449
   9   2.0000      -0.569224       -15.4894
  10   2.0000      -0.562818       -15.3151
  11   2.0000      -0.523651       -14.2493
  12   2.0000      -0.493942       -13.4409
  13   2.0000      -0.404798       -11.0151
  14   0.0000       0.022899         0.6231
  15   0.0000       0.034500         0.9388
  16   0.0000       0.038399         1.0449
  17   0.0000       0.039338         1.0704
  18   0.0000       0.051656         1.4056

MULLIKEN ATOMIC CHARGES
-----------------------
   0 N :   -0.612223
   1 H :    0.227855
   2 H :    0.231143
   3 C :   -0.702321
   4 H :    0.267066
   5 H :    0.327785
   6 H :    0.267087
   7 O :   -0.608428
   8 H :    0.300773
   9 H :    0.301262
Sum of atomic charges:   -0.0000000

LOEWDIN ATOMIC CHARGES
----------------------
   0 N :    1.250870
   1 H :   -0.527797
   2 H :   -0.527978
   3 C :    0.753083
   4 H :   -0.316006
   5 H :   -0.294873
   6 H :   -0.315872
   7 O :    1.589623
   8 H :   -0.803399
   9 H :   -0.807651

  Mayer bond orders larger than 0.100000
B(  0-N ,  1-H ) :   0.9553 B(  0-N ,  2-H ) :   0.9532 B(  0-N ,  3-C ) :   0.9681
B(  3-C ,  4-H ) :   0.9248 B(  3-C ,  5-H ) :   0.8766 B(  3-C ,  6-H ) :   0.9237
B(  7-O ,  8-H ) :   0.9588 B(  7-O ,  9-H ) :   0.9604

MP2 TOTAL ENERGY:     -172.052772839 Eh
FINAL SINGLE POINT ENERGY      -172.052772838925

DIPOLE MOMENT
-------------
                                X             Y             Z
Electronic contribution:      2.45862       0.20001      -0.80854
Nuclear contribution   :     -3.25614      -0.84690       0.36517
                        -----------------------------------------
Total Dipole Moment    :     -0.79752      -0.64688      -0.44338
                        -----------------------------------------
Magnitude (a.u.)       :      1.11852
Magnitude (Debye)      :      2.84305

Rotational constants in cm-1:     0.732523     0.087937     0.080670
Rotational constants in MHz : 21960.472289  2636.276806  2418.412852

                             ****ORCA TERMINATED NORMALLY****
TOTAL RUN TIME: 0 days 0 hours 9 minutes 49 seconds 912 msec
