                         Program Version 5.0.4 -  RELEASE  -
|  1> ! ri-mp2 aug-cc-pvdz aug-cc-pvdz/c tightscf
|  2> %pal nprocs 16 end
|  3> %maxcore 3800
|  4> %base "DZ_S66by10_63_0.8_dimer"
|  5>
|  6> *xyz 0 1
|  7> C    0.60678496    1.33042185    0.31643451
|  8> H    1.24649846    2.20226434    0.33035231
|  9> C    1.11808466    0.08724886    0.68511652
| 10> H    2.15005753   -0.00388678    0.99375824
| 11> C    0.29290229   -1.03608737    0.66910727
| 12> H    0.68849686   -2.00096149    0.95537797
| 13> C   -1.04283174   -0.91671112    0.28818964
| 14> H   -1.68270956   -1.78848825    0.27934903
| 15> C   -1.55358838    0.32734899   -0.07994317
| 16> H   -2.58923495    0.42028908   -0.37734619
| 17> C   -0.72804164    1.45084316   -0.06684834
| 18> H   -1.12362379    2.41565865   -0.35386143
| 19> C    0.48728003   -0.37189320    3.42160265
| 20> O    1.68277271   -0.20794245    3.49811843
| 21> O   -0.09222164   -1.58329816    3.62104101
| 22> H    0.64222922   -2.18440665    3.81407912
| 23> C   -0.53460419    0.67203832    3.10092147
| 24> H   -0.05630977    1.64298467    3.05409870
| 25> H   -0.98740430    0.43884213    2.13821342
| 26> H   -1.31945521    0.66650182    3.85342095
| 27> *
| 28>
| 29> $new_job
| 30> ! ri-mp2 aug-cc-pvtz aug-cc-pvtz/c tightscf
| 31> %pal nprocs 16 end
| 32> %maxcore 3800
| 33> %base "TZ_S66by10_63_0.8_dimer"
| 34>
| 35> *xyz 0 1
| 36> C    0.60678496    1.33042185    0.31643451
| 37> H    1.24649846    2.20226434    0.33035231
| 38> C    1.11808466    0.08724886    0.68511652
| 39> H    2.15005753   -0.00388678    0.99375824
| 40> C    0.29290229   -1.03608737    0.66910727
| 41> H    0.68849686   -2.00096149    0.95537797
| 42> C   -1.04283174   -0.91671112    0.28818964
| 43> H   -1.68270956   -1.78848825    0.27934903
| 44> C   -1.55358838    0.32734899   -0.07994317
| 45> H   -2.58923495    0.42028908   -0.37734619
| 46> C   -0.72804164    1.45084316   -0.06684834
| 47> H   -1.12362379    2.41565865   -0.35386143
| 48> C    0.48728003   -0.37189320    3.42160265
| 49> O    1.68277271   -0.20794245    3.49811843
| 50> O   -0.09222164   -1.58329816    3.62104101
| 51> H    0.64222922   -2.18440665    3.81407912
| 52> C   -0.53460419    0.67203832    3.10092147
| 53> H   -0.05630977    1.64298467    3.05409870
| 54> H   -0.98740430    0.43884213    2.13821342
| 55> H   -1.31945521    0.66650182    3.85342095
| 56> *
| 57>
| 58> $new_job
| 59> ! ri-mp2 aug-cc-pvqz aug-cc-pvqz/c tightscf
| 60> %pal nprocs 16 end
| 61> %maxcore 3800
| 62> %base "QZ_S66by10_63_0.8_dimer"
| 63>
| 64> *xyz 0 1
| 65> C    0.60678496    1.33042185    0.31643451
| 66> H    1.24649846    2.20226434    0.33035231
| 67> C    1.11808466    0.08724886    0.68511652
| 68> H    2.15005753   -0.00388678    0.99375824
| 69> C    0.29290229   -1.03608737    0.66910727
| 70> H    0.68849686   -2.00096149    0.95537797
| 71> C   -1.04283174   -0.91671112    0.28818964
| 72> H   -1.68270956   -1.78848825    0.27934903
| 73> C   -1.55358838    0.32734899   -0.07994317
| 74> H   -2.58923495    0.42028908   -0.37734619
| 75> C   -0.72804164    1.45084316   -0.06684834
| 76> H   -1.12362379    2.41565865   -0.35386143
| 77> C    0.48728003   -0.37189320    3.42160265
| 78> O    1.68277271   -0.20794245    3.49811843
| 79> O   -0.09222164   -1.58329816    3.62104101
| 80> H    0.64222922   -2.18440665    3.81407912
| 81> C   -0.53460419    0.67203832    3.10092147
| 82> H   -0.05630977    1.64298467    3.05409870
| 83> H   -0.98740430    0.43884213    2.13821342
| 84> H   -1.31945521    0.66650182    3.85342095
| 85> *
| 86>
| 87>
| 88>
| 89>
| 90>                          ****END OF INPUT****
 Total Charge           Charge          ....    0
 Multiplicity           Mult            ....    1
 Number of Electrons    NEL             ....   74
MP2 TOTAL ENERGY:     -460.066067334 Eh
FINAL SINGLE POINT ENERGY      -460.066067334016
MP2 TOTAL ENERGY:     -460.468004149 Eh
FINAL SINGLE POINT ENERGY      -460.468004148764

CARTESIAN COORDINATES (ANGSTROEM)
---------------------------------
  C      0.606785    1.330422    0.316435
  H      1.246498    2.202264    0.330352
  C      1.118085    0.087249    0.685117
  H      2.150058   -0.003887    0.993758
  C      0.292902   -1.036087    0.669107
  H      0.688497   -2.000961    0.955378
  C     -1.042832   -0.916711    0.288190
  H     -1.682710   -1.788488    0.279349
  C     -1.553588    0.327349   -0.079943
  H     -2.589235    0.420289   -0.377346
  C     -0.728042    1.450843   -0.066848
  H     -1.123624    2.415659   -0.353861
  C      0.487280   -0.371893    3.421603
  O      1.682773   -0.207942    3.498118
  O     -0.092222   -1.583298    3.621041
  H      0.642229   -2.184407    3.814079
  C     -0.534604    0.672038    3.100921
  H     -0.056310    1.642985    3.054099
  H     -0.987404    0.438842    2.138213
  H     -1.319455    0.666502    3.853421

 Multiplicity           Mult            ....    1
 Number of Electrons    NEL             ....   74
 Basis Dimension        Dim             .... 1260

ORBITAL ENERGIES
----------------

  NO   OCC          E(Eh)            E(eV)
   0   2.0000     -20.604208      -560.6690
   1   2.0000     -20.537989      -558.8671
   2   2.0000     -11.379197      -309.6437
   3   2.0000     -11.240217      -305.8619
   4   2.0000     -11.239582      -305.8446
   5   2.0000     -11.238380      -305.8119
   6   2.0000     -11.236994      -305.7741
   7   2.0000     -11.236328      -305.7560
   8   2.0000     -11.234902      -305.7172
   9   2.0000     -11.220630      -305.3289
  10   2.0000      -1.457871       -39.6707
  11   2.0000      -1.353308       -36.8254
  12   2.0000      -1.158814       -31.5329
  13   2.0000      -1.022433       -27.8218
  14   2.0000      -1.020709       -27.7749
  15   2.0000      -1.013848       -27.5882
  16   2.0000      -0.830063       -22.5872
  17   2.0000      -0.828932       -22.5564
  18   2.0000      -0.811447       -22.0806
  19   2.0000      -0.716253       -19.4902
  20   2.0000      -0.700061       -19.0496
  21   2.0000      -0.670809       -18.2537
  22   2.0000      -0.650928       -17.7126
  23   2.0000      -0.648282       -17.6407
  24   2.0000      -0.623817       -16.9749
  25   2.0000      -0.594053       -16.1650
  26   2.0000      -0.592710       -16.1285
  27   2.0000      -0.576867       -15.6974
  28   2.0000      -0.561645       -15.2831
  29   2.0000      -0.560016       -15.2388
  30   2.0000      -0.501565       -13.6483
  31   2.0000      -0.499303       -13.5867
  32   2.0000      -0.484054       -13.1718
  33   2.0000      -0.477413       -12.9911
  34   2.0000      -0.446280       -12.1439
  35   2.0000      -0.344094        -9.3633
  36   2.0000      -0.341776        -9.3002
  37   0.0000       0.022312         0.6072
  38   0.0000       0.027873         0.7585
  39   0.0000       0.031571         0.8591
  40   0.0000       0.036401         0.9905
  41   0.0000       0.041270         1.1230

MULLIKEN ATOMIC CHARGES
-----------------------
   0 C :   -0.375816
   1 H :    0.258212
   2 C :   -0.226515
   3 H :    0.320700
   4 C :   -0.214767
   5 H :    0.307513
   6 C :   -0.405966
   7 H :    0.255512
   8 C :   -0.236136
   9 H :    0.290471
  10 C :   -0.403917
  11 H :    0.222298
  12 C :    1.345828
  13 O :   -0.922942
  14 O :   -0.778901
  15 H :    0.296597
  16 C :   -1.012781
  17 H :    0.333925
  18 H :    0.655764
  19 H :    0.290921
Sum of atomic charges:    0.0000000

LOEWDIN ATOMIC CHARGES
----------------------
   0 C :    0.335890
   1 H :   -0.304488
   2 C :    0.286341
   3 H :   -0.326902
   4 C :    0.294245
   5 H :   -0.311409
   6 C :    0.342338
   7 H :   -0.303218
   8 C :    0.342609
   9 H :   -0.310663
  10 C :    0.341047
  11 H :   -0.310576
  12 C :   -1.055591
  13 O :    0.735201
  14 O :    1.271655
  15 H :   -0.818172
  16 C :    0.851483
  17 H :   -0.297535
  18 H :   -0.492834
  19 H :   -0.269422

  Mayer bond orders larger than 0.100000
B(  0-C ,  1-H ) :   1.1136 B(  0-C ,  2-C ) :   1.1932 B(  0-C ,  6-C ) :   0.1651
B(  0-C , 10-C ) :   1.2604 B(  0-C , 18-H ) :  -0.1189 B(  2-C ,  3-H ) :   1.0460
B(  2-C ,  4-C ) :   1.1709 B(  2-C ,  8-C ) :   0.1448 B(  2-C , 18-H ) :  -0.1109
B(  4-C ,  5-H ) :   1.0294 B(  4-C ,  6-C ) :   1.1753 B(  4-C , 10-C ) :   0.1190
B(  6-C ,  7-H ) :   1.1201 B(  6-C ,  8-C ) :   1.2226 B(  8-C ,  9-H ) :   1.0744
B(  8-C , 10-C ) :   1.2119 B(  8-C , 18-H ) :  -0.1067 B( 10-C , 11-H ) :   1.1539
B( 10-C , 18-H ) :  -0.1221 B( 12-C , 13-O ) :   1.1807 B( 12-C , 14-O ) :   0.6809
B( 12-C , 16-C ) :   1.0393 B( 14-O , 15-H ) :   0.9039 B( 16-C , 17-H ) :   0.9409
B( 16-C , 18-H ) :   0.7468 B( 16-C , 19-H ) :   0.9921

MP2 TOTAL ENERGY:     -460.596760647 Eh
FINAL SINGLE POINT ENERGY      -460.596760646808

DIPOLE MOMENT
-------------
                                X             Y             Z
Electronic contribution:      2.55778      -2.30805       1.49473
Nuclear contribution   :     -3.23796       2.23580      -1.70104
                        -----------------------------------------
Total Dipole Moment    :     -0.68018      -0.07225      -0.20631
                        -----------------------------------------
Magnitude (a.u.)       :      0.71444
Magnitude (Debye)      :      1.81597

Rotational constants in cm-1:     0.076116     0.033943     0.031356
Rotational constants in MHz :  2281.893769  1017.599994   940.038536

                             ****ORCA TERMINATED NORMALLY****
TOTAL RUN TIME: 0 days 0 hours 58 minutes 32 seconds 166 msec
