                         Program Version 5.0.4 -  RELEASE  -
|  1> ! ri-mp2 aug-cc-pvdz aug-cc-pvdz/c tightscf
|  2> %pal nprocs 16 end
|  3> %maxcore 3800
|  4> %base "DZ_S66by10_24_1.1_dimer"
|  5>
|  6> *xyz 0 1
|  7> C    0.71264532    1.12099570    0.06054078
|  8> H    1.35784165    1.98639917    0.12773717
|  9> C    1.25823573   -0.15925190    0.12423352
| 10> H    2.32495428   -0.28709988    0.24674303
| 11> C    0.42688496   -1.27452666    0.04265043
| 12> H    0.85044465   -2.26843268    0.09474995
| 13> C   -0.94957784   -1.11007406   -0.10031360
| 14> H   -1.59445570   -1.97627370   -0.16371348
| 15> C   -1.49552564    0.17105056   -0.16154602
| 16> H   -2.56378279    0.29922115   -0.27370311
| 17> C   -0.66382760    1.28664289   -0.08340143
| 18> H   -1.08690070    2.28100020   -0.13288613
| 19> C    2.06957532    1.10898956    3.94436871
| 20> H    2.71442045    1.97517331    4.00811943
| 21> C    2.61552845   -0.17216154    4.00588844
| 22> H    3.68373533   -0.30030859    4.11863266
| 23> C    1.78387897   -1.28776164    3.92723801
| 24> H    2.20696068   -2.28211407    3.97689168
| 25> C    0.40747741   -1.12212661    3.78252126
| 26> H   -0.23762519   -1.98753685    3.71488863
| 27> C   -0.13808246    0.15810614    3.71855544
| 28> H   -1.20471050    0.28593535    3.59537667
| 29> C    0.69319449    1.27338690    3.80062638
| 30> H    0.26966961    2.26729194    3.74825745
| 31> *
| 32>
| 33> $new_job
| 34> ! ri-mp2 aug-cc-pvtz aug-cc-pvtz/c tightscf
| 35> %pal nprocs 16 end
| 36> %maxcore 3800
| 37> %base "TZ_S66by10_24_1.1_dimer"
| 38>
| 39> *xyz 0 1
| 40> C    0.71264532    1.12099570    0.06054078
| 41> H    1.35784165    1.98639917    0.12773717
| 42> C    1.25823573   -0.15925190    0.12423352
| 43> H    2.32495428   -0.28709988    0.24674303
| 44> C    0.42688496   -1.27452666    0.04265043
| 45> H    0.85044465   -2.26843268    0.09474995
| 46> C   -0.94957784   -1.11007406   -0.10031360
| 47> H   -1.59445570   -1.97627370   -0.16371348
| 48> C   -1.49552564    0.17105056   -0.16154602
| 49> H   -2.56378279    0.29922115   -0.27370311
| 50> C   -0.66382760    1.28664289   -0.08340143
| 51> H   -1.08690070    2.28100020   -0.13288613
| 52> C    2.06957532    1.10898956    3.94436871
| 53> H    2.71442045    1.97517331    4.00811943
| 54> C    2.61552845   -0.17216154    4.00588844
| 55> H    3.68373533   -0.30030859    4.11863266
| 56> C    1.78387897   -1.28776164    3.92723801
| 57> H    2.20696068   -2.28211407    3.97689168
| 58> C    0.40747741   -1.12212661    3.78252126
| 59> H   -0.23762519   -1.98753685    3.71488863
| 60> C   -0.13808246    0.15810614    3.71855544
| 61> H   -1.20471050    0.28593535    3.59537667
| 62> C    0.69319449    1.27338690    3.80062638
| 63> H    0.26966961    2.26729194    3.74825745
| 64> *
| 65>
| 66> $new_job
| 67> ! ri-mp2 aug-cc-pvqz aug-cc-pvqz/c tightscf
| 68> %pal nprocs 16 end
| 69> %maxcore 3800
| 70> %base "QZ_S66by10_24_1.1_dimer"
| 71>
| 72> *xyz 0 1
| 73> C    0.71264532    1.12099570    0.06054078
| 74> H    1.35784165    1.98639917    0.12773717
| 75> C    1.25823573   -0.15925190    0.12423352
| 76> H    2.32495428   -0.28709988    0.24674303
| 77> C    0.42688496   -1.27452666    0.04265043
| 78> H    0.85044465   -2.26843268    0.09474995
| 79> C   -0.94957784   -1.11007406   -0.10031360
| 80> H   -1.59445570   -1.97627370   -0.16371348
| 81> C   -1.49552564    0.17105056   -0.16154602
| 82> H   -2.56378279    0.29922115   -0.27370311
| 83> C   -0.66382760    1.28664289   -0.08340143
| 84> H   -1.08690070    2.28100020   -0.13288613
| 85> C    2.06957532    1.10898956    3.94436871
| 86> H    2.71442045    1.97517331    4.00811943
| 87> C    2.61552845   -0.17216154    4.00588844
| 88> H    3.68373533   -0.30030859    4.11863266
| 89> C    1.78387897   -1.28776164    3.92723801
| 90> H    2.20696068   -2.28211407    3.97689168
| 91> C    0.40747741   -1.12212661    3.78252126
| 92> H   -0.23762519   -1.98753685    3.71488863
| 93> C   -0.13808246    0.15810614    3.71855544
| 94> H   -1.20471050    0.28593535    3.59537667
| 95> C    0.69319449    1.27338690    3.80062638
| 96> H    0.26966961    2.26729194    3.74825745
| 97> *
| 98>
| 99>
|100>
|101>
|102>                          ****END OF INPUT****
 Total Charge           Charge          ....    0
 Multiplicity           Mult            ....    1
 Number of Electrons    NEL             ....   84
MP2 TOTAL ENERGY:     -463.086693133 Eh
FINAL SINGLE POINT ENERGY      -463.086693132593
MP2 TOTAL ENERGY:     -463.497016280 Eh
FINAL SINGLE POINT ENERGY      -463.497016279659

CARTESIAN COORDINATES (ANGSTROEM)
---------------------------------
  C      0.712645    1.120996    0.060541
  H      1.357842    1.986399    0.127737
  C      1.258236   -0.159252    0.124234
  H      2.324954   -0.287100    0.246743
  C      0.426885   -1.274527    0.042650
  H      0.850445   -2.268433    0.094750
  C     -0.949578   -1.110074   -0.100314
  H     -1.594456   -1.976274   -0.163713
  C     -1.495526    0.171051   -0.161546
  H     -2.563783    0.299221   -0.273703
  C     -0.663828    1.286643   -0.083401
  H     -1.086901    2.281000   -0.132886
  C      2.069575    1.108990    3.944369
  H      2.714420    1.975173    4.008119
  C      2.615528   -0.172162    4.005888
  H      3.683735   -0.300309    4.118633
  C      1.783879   -1.287762    3.927238
  H      2.206961   -2.282114    3.976892
  C      0.407477   -1.122127    3.782521
  H     -0.237625   -1.987537    3.714889
  C     -0.138082    0.158106    3.718555
  H     -1.204710    0.285935    3.595377
  C      0.693194    1.273387    3.800626
  H      0.269670    2.267292    3.748257

 Multiplicity           Mult            ....    1
 Number of Electrons    NEL             ....   84
 Basis Dimension        Dim             .... 1512

ORBITAL ENERGIES
----------------

  NO   OCC          E(Eh)            E(eV)
   0   2.0000     -11.230697      -305.6028
   1   2.0000     -11.230695      -305.6027
   2   2.0000     -11.229827      -305.5791
   3   2.0000     -11.229822      -305.5790
   4   2.0000     -11.229474      -305.5695
   5   2.0000     -11.229466      -305.5693
   6   2.0000     -11.228596      -305.5456
   7   2.0000     -11.228591      -305.5455
   8   2.0000     -11.228396      -305.5402
   9   2.0000     -11.228389      -305.5400
  10   2.0000     -11.227234      -305.5086
  11   2.0000     -11.227223      -305.5083
  12   2.0000      -1.146172       -31.1889
  13   2.0000      -1.144302       -31.1380
  14   2.0000      -1.010544       -27.4983
  15   2.0000      -1.009728       -27.4761
  16   2.0000      -1.009674       -27.4746
  17   2.0000      -1.009008       -27.4565
  18   2.0000      -0.819507       -22.2999
  19   2.0000      -0.819488       -22.2994
  20   2.0000      -0.819294       -22.2941
  21   2.0000      -0.819058       -22.2877
  22   2.0000      -0.705524       -19.1983
  23   2.0000      -0.704776       -19.1779
  24   2.0000      -0.639756       -17.4086
  25   2.0000      -0.639571       -17.4036
  26   2.0000      -0.614518       -16.7219
  27   2.0000      -0.614347       -16.7172
  28   2.0000      -0.584078       -15.8936
  29   2.0000      -0.583579       -15.8800
  30   2.0000      -0.583446       -15.8764
  31   2.0000      -0.583040       -15.8653
  32   2.0000      -0.508212       -13.8291
  33   2.0000      -0.490444       -13.3457
  34   2.0000      -0.490442       -13.3456
  35   2.0000      -0.490395       -13.3443
  36   2.0000      -0.490343       -13.3429
  37   2.0000      -0.487458       -13.2644
  38   2.0000      -0.341251        -9.2859
  39   2.0000      -0.331891        -9.0312
  40   2.0000      -0.331195        -9.0123
  41   2.0000      -0.323368        -8.7993
  42   0.0000       0.024524         0.6673
  43   0.0000       0.027609         0.7513
  44   0.0000       0.027764         0.7555
  45   0.0000       0.037339         1.0161
  46   0.0000       0.037897         1.0312

MULLIKEN ATOMIC CHARGES
-----------------------
   0 C :   -0.324431
   1 H :    0.331446
   2 C :   -0.426811
   3 H :    0.279787
   4 C :   -0.324098
   5 H :    0.314979
   6 C :   -0.242871
   7 H :    0.319404
   8 C :   -0.305626
   9 H :    0.306848
  10 C :   -0.245638
  11 H :    0.317025
  12 C :   -0.243474
  13 H :    0.319391
  14 C :   -0.305240
  15 H :    0.306938
  16 C :   -0.246177
  17 H :    0.316999
  18 C :   -0.323803
  19 H :    0.331528
  20 C :   -0.427165
  21 H :    0.279548
  22 C :   -0.323555
  23 H :    0.314998
Sum of atomic charges:    0.0000000

LOEWDIN ATOMIC CHARGES
----------------------
   0 C :    0.319532
   1 H :   -0.320202
   2 C :    0.317870
   3 H :   -0.318418
   4 C :    0.320584
   5 H :   -0.320767
   6 C :    0.325935
   7 H :   -0.325134
   8 C :    0.325682
   9 H :   -0.326007
  10 C :    0.325442
  11 H :   -0.324513
  12 C :    0.325975
  13 H :   -0.325154
  14 C :    0.325719
  15 H :   -0.326007
  16 C :    0.325463
  17 H :   -0.324514
  18 C :    0.319534
  19 H :   -0.320227
  20 C :    0.317834
  21 H :   -0.318439
  22 C :    0.320582
  23 H :   -0.320771

  Mayer bond orders larger than 0.100000
B(  0-C ,  1-H ) :   1.0046 B(  0-C ,  2-C ) :   1.2401 B(  0-C ,  6-C ) :   0.1736
B(  0-C , 10-C ) :   1.2028 B(  2-C ,  3-H ) :   1.0292 B(  2-C ,  4-C ) :   1.2388
B(  2-C ,  8-C ) :   0.1840 B(  4-C ,  5-H ) :   1.0206 B(  4-C ,  6-C ) :   1.1851
B(  4-C , 10-C ) :   0.1731 B(  6-C ,  7-H ) :   1.0323 B(  6-C ,  8-C ) :   1.2120
B(  8-C ,  9-H ) :   1.0449 B(  8-C , 10-C ) :   1.2090 B( 10-C , 11-H ) :   1.0349
B( 12-C , 13-H ) :   1.0322 B( 12-C , 14-C ) :   1.2119 B( 12-C , 18-C ) :   0.1736
B( 12-C , 22-C ) :   1.1850 B( 14-C , 15-H ) :   1.0448 B( 14-C , 16-C ) :   1.2089
B( 14-C , 20-C ) :   0.1840 B( 16-C , 17-H ) :   1.0350 B( 16-C , 18-C ) :   1.2027
B( 16-C , 22-C ) :   0.1731 B( 18-C , 19-H ) :   1.0046 B( 18-C , 20-C ) :   1.2399
B( 20-C , 21-H ) :   1.0294 B( 20-C , 22-C ) :   1.2386 B( 22-C , 23-H ) :   1.0206

MP2 TOTAL ENERGY:     -463.626488472 Eh
FINAL SINGLE POINT ENERGY      -463.626488472184

DIPOLE MOMENT
-------------
                                X             Y             Z
Electronic contribution:     -0.00010       0.00001       0.00005
Nuclear contribution   :      0.00013      -0.00001      -0.00023
                        -----------------------------------------
Total Dipole Moment    :      0.00003       0.00000      -0.00018
                        -----------------------------------------
Magnitude (a.u.)       :      0.00018
Magnitude (Debye)      :      0.00047

Rotational constants in cm-1:     0.053771     0.020122     0.019198
Rotational constants in MHz :  1611.999780   603.252377   575.536789

                             ****ORCA TERMINATED NORMALLY****
TOTAL RUN TIME: 0 days 1 hours 20 minutes 45 seconds 891 msec
