                         Program Version 5.0.4 -  RELEASE  -
|  1> ! ri-mp2 aug-cc-pvdz aug-cc-pvdz/c tightscf
|  2> %pal nprocs 16 end
|  3> %maxcore 3800
|  4> %base "DZ_S66by10_64_0.7_dimer"
|  5> %scf STABPerform true end
|  6>
|  7> *xyz 0 1
|  8> C    1.62971482    0.50301252    0.27011189
|  9> H    1.64157338    1.45923792   -0.24808286
| 10> H    2.31531919   -0.18355470   -0.21758635
| 11> H    1.96974564    0.64936024    1.29398105
| 12> C    0.26182776   -0.13286122    0.31456221
| 13> O    0.09925265   -1.30961602    0.61183995
| 14> N   -0.77350225    0.70251214    0.02207590
| 15> H   -0.56901138    1.66655677   -0.16581434
| 16> C   -2.15001214    0.26596865    0.09505328
| 17> H   -2.14473761   -0.81940745    0.10091210
| 18> H   -2.64054318    0.61582035    1.00360442
| 19> H   -2.70774393    0.62075110   -0.76826057
| 20> C   -0.15460070    0.52472233    3.05645927
| 21> H   -0.15948226    1.26689614    3.84234184
| 22> H   -0.80313345    0.69249097    2.20777571
| 23> C    0.61390961   -0.56223960    3.12626888
| 24> H    1.25921457   -0.73406524    3.97639675
| 25> H    0.60879762   -1.29743972    2.33395961
| 26> *
| 27>
| 28> $new_job
| 29> ! ri-mp2 aug-cc-pvtz aug-cc-pvtz/c tightscf
| 30> %pal nprocs 16 end
| 31> %maxcore 3800
| 32> %base "TZ_S66by10_64_0.7_dimer"
| 33>
| 34> *xyz 0 1
| 35> C    1.62971482    0.50301252    0.27011189
| 36> H    1.64157338    1.45923792   -0.24808286
| 37> H    2.31531919   -0.18355470   -0.21758635
| 38> H    1.96974564    0.64936024    1.29398105
| 39> C    0.26182776   -0.13286122    0.31456221
| 40> O    0.09925265   -1.30961602    0.61183995
| 41> N   -0.77350225    0.70251214    0.02207590
| 42> H   -0.56901138    1.66655677   -0.16581434
| 43> C   -2.15001214    0.26596865    0.09505328
| 44> H   -2.14473761   -0.81940745    0.10091210
| 45> H   -2.64054318    0.61582035    1.00360442
| 46> H   -2.70774393    0.62075110   -0.76826057
| 47> C   -0.15460070    0.52472233    3.05645927
| 48> H   -0.15948226    1.26689614    3.84234184
| 49> H   -0.80313345    0.69249097    2.20777571
| 50> C    0.61390961   -0.56223960    3.12626888
| 51> H    1.25921457   -0.73406524    3.97639675
| 52> H    0.60879762   -1.29743972    2.33395961
| 53> *
| 54>
| 55> $new_job
| 56> ! ri-mp2 aug-cc-pvqz aug-cc-pvqz/c tightscf
| 57> %pal nprocs 16 end
| 58> %maxcore 3800
| 59> %base "QZ_S66by10_64_0.7_dimer"
| 60>
| 61> *xyz 0 1
| 62> C    1.62971482    0.50301252    0.27011189
| 63> H    1.64157338    1.45923792   -0.24808286
| 64> H    2.31531919   -0.18355470   -0.21758635
| 65> H    1.96974564    0.64936024    1.29398105
| 66> C    0.26182776   -0.13286122    0.31456221
| 67> O    0.09925265   -1.30961602    0.61183995
| 68> N   -0.77350225    0.70251214    0.02207590
| 69> H   -0.56901138    1.66655677   -0.16581434
| 70> C   -2.15001214    0.26596865    0.09505328
| 71> H   -2.14473761   -0.81940745    0.10091210
| 72> H   -2.64054318    0.61582035    1.00360442
| 73> H   -2.70774393    0.62075110   -0.76826057
| 74> C   -0.15460070    0.52472233    3.05645927
| 75> H   -0.15948226    1.26689614    3.84234184
| 76> H   -0.80313345    0.69249097    2.20777571
| 77> C    0.61390961   -0.56223960    3.12626888
| 78> H    1.25921457   -0.73406524    3.97639675
| 79> H    0.60879762   -1.29743972    2.33395961
| 80> *
| 81>
| 82>
| 83>
| 84>
| 85>                          ****END OF INPUT****
 Total Charge           Charge          ....    0
 Multiplicity           Mult            ....    1
 Number of Electrons    NEL             ....   56
MP2 TOTAL ENERGY:     -326.164960614 Eh
FINAL SINGLE POINT ENERGY      -326.164960614077
MP2 TOTAL ENERGY:     -326.464686154 Eh
FINAL SINGLE POINT ENERGY      -326.464686153623

CARTESIAN COORDINATES (ANGSTROEM)
---------------------------------
  C      1.629715    0.503013    0.270112
  H      1.641573    1.459238   -0.248083
  H      2.315319   -0.183555   -0.217586
  H      1.969746    0.649360    1.293981
  C      0.261828   -0.132861    0.314562
  O      0.099253   -1.309616    0.611840
  N     -0.773502    0.702512    0.022076
  H     -0.569011    1.666557   -0.165814
  C     -2.150012    0.265969    0.095053
  H     -2.144738   -0.819407    0.100912
  H     -2.640543    0.615820    1.003604
  H     -2.707744    0.620751   -0.768261
  C     -0.154601    0.524722    3.056459
  H     -0.159482    1.266896    3.842342
  H     -0.803133    0.692491    2.207776
  C      0.613910   -0.562240    3.126269
  H      1.259215   -0.734065    3.976397
  H      0.608798   -1.297440    2.333960

 Multiplicity           Mult            ....    1
 Number of Electrons    NEL             ....   56
 Basis Dimension        Dim             .... 1066

ORBITAL ENERGIES
----------------

  NO   OCC          E(Eh)            E(eV)
   0   2.0000     -20.512385      -558.1704
   1   2.0000     -15.586167      -424.1212
   2   2.0000     -11.351072      -308.8784
   3   2.0000     -11.258838      -306.3686
   4   2.0000     -11.229945      -305.5823
   5   2.0000     -11.207973      -304.9844
   6   2.0000     -11.201658      -304.8126
   7   2.0000      -1.384054       -37.6620
   8   2.0000      -1.235886       -33.6302
   9   2.0000      -1.023578       -27.8530
  10   2.0000      -1.015897       -27.6440
  11   2.0000      -0.934719       -25.4350
  12   2.0000      -0.798351       -21.7242
  13   2.0000      -0.774942       -21.0872
  14   2.0000      -0.693739       -18.8776
  15   2.0000      -0.672736       -18.3061
  16   2.0000      -0.657542       -17.8926
  17   2.0000      -0.610403       -16.6099
  18   2.0000      -0.589131       -16.0311
  19   2.0000      -0.587264       -15.9803
  20   2.0000      -0.564288       -15.3551
  21   2.0000      -0.556091       -15.1320
  22   2.0000      -0.547746       -14.9049
  23   2.0000      -0.510977       -13.9044
  24   2.0000      -0.487545       -13.2668
  25   2.0000      -0.426546       -11.6069
  26   2.0000      -0.389998       -10.6124
  27   2.0000      -0.358614        -9.7584
  28   0.0000       0.019500         0.5306
  29   0.0000       0.030388         0.8269
  30   0.0000       0.032489         0.8841
  31   0.0000       0.035130         0.9559
  32   0.0000       0.045363         1.2344

MULLIKEN ATOMIC CHARGES
-----------------------
   0 C :   -0.865269
   1 H :    0.245596
   2 H :    0.289865
   3 H :    0.328535
   4 C :    1.331804
   5 O :   -0.963349
   6 N :   -0.454739
   7 H :    0.190478
   8 C :   -0.847300
   9 H :    0.299447
  10 H :    0.237868
  11 H :    0.337583
  12 C :   -0.958878
  13 H :    0.322468
  14 H :    0.518745
  15 C :   -0.841524
  16 H :    0.332112
  17 H :    0.496559
Sum of atomic charges:    0.0000000

LOEWDIN ATOMIC CHARGES
----------------------
   0 C :    0.915035
   1 H :   -0.295385
   2 H :   -0.288681
   3 H :   -0.327740
   4 C :   -0.827934
   5 O :    0.836051
   6 N :    0.839596
   7 H :   -0.483182
   8 C :    0.802786
   9 H :   -0.337758
  10 H :   -0.282421
  11 H :   -0.279424
  12 C :    0.767625
  13 H :   -0.338553
  14 H :   -0.495387
  15 C :    0.748306
  16 H :   -0.335064
  17 H :   -0.617870

  Mayer bond orders larger than 0.100000
B(  0-C ,  1-H ) :   1.0014 B(  0-C ,  2-H ) :   0.9748 B(  0-C ,  3-H ) :   0.9112
B(  0-C ,  4-C ) :   0.7514 B(  4-C ,  5-O ) :   0.9715 B(  4-C ,  6-N ) :   1.1580
B(  5-O ,  6-N ) :   0.1652 B(  6-N ,  7-H ) :   1.0263 B(  6-N ,  8-C ) :   0.8374
B(  8-C ,  9-H ) :   0.9502 B(  8-C , 10-H ) :   0.9712 B(  8-C , 11-H ) :   0.9356
B( 12-C , 13-H ) :   0.9712 B( 12-C , 14-H ) :   0.7158 B( 12-C , 15-C ) :   1.8625
B( 15-C , 16-H ) :   1.0005 B( 15-C , 17-H ) :   0.6792

MP2 TOTAL ENERGY:     -326.558529013 Eh
FINAL SINGLE POINT ENERGY      -326.558529013040

DIPOLE MOMENT
-------------
                                X             Y             Z
Electronic contribution:      0.25712      -2.25745      -2.26247
Nuclear contribution   :     -0.33136       3.67312       1.70745
                        -----------------------------------------
Total Dipole Moment    :     -0.07424       1.41566      -0.55502
                        -----------------------------------------
Magnitude (a.u.)       :      1.52239
Magnitude (Debye)      :      3.86960

Rotational constants in cm-1:     0.100438     0.067631     0.054524
Rotational constants in MHz :  3011.056777  2027.520450  1634.594725

                             ****ORCA TERMINATED NORMALLY****
TOTAL RUN TIME: 0 days 3 hours 12 minutes 11 seconds 690 msec
