                         Program Version 5.0.4 -  RELEASE  -
|  1> ! ri-mp2 aug-cc-pvdz aug-cc-pvdz/c tightscf
|  2> %pal nprocs 16 end
|  3> %maxcore 3800
|  4> %base "DZ_S66by10_19_0.9_dimer"
|  5>
|  6> *xyz 0 1
|  7> O   -0.62765177    0.08746727    0.00147128
|  8> H    0.34360203    0.12230333   -0.00060045
|  9> C   -0.97793123   -1.27855601    0.00123841
| 10> H   -2.06339209   -1.34204332    0.00500898
| 11> H   -0.61488369   -1.80637584   -0.88538395
| 12> H   -0.60864033   -1.80823682    0.88417273
| 13> N    2.09857142    0.02597053   -0.00153437
| 14> C    2.79493981    0.00153520   -1.14625397
| 15> H    2.21046121    0.02475873   -2.05722941
| 16> C    4.18457687   -0.04820767   -1.19493922
| 17> H    4.69192922   -0.06549970   -2.14872195
| 18> C    4.89495010   -0.07392029    0.00067380
| 19> H    5.97528611   -0.11168504    0.00152310
| 20> C    4.18270265   -0.04889918    1.19521366
| 21> H    4.68850138   -0.06672351    2.14969935
| 22> C    2.79314901    0.00085051    1.14425957
| 23> H    2.20714322    0.02352494    2.05437826
| 24> *
| 25>
| 26> $new_job
| 27> ! ri-mp2 aug-cc-pvtz aug-cc-pvtz/c tightscf
| 28> %pal nprocs 16 end
| 29> %maxcore 3800
| 30> %base "TZ_S66by10_19_0.9_dimer"
| 31>
| 32> *xyz 0 1
| 33> O   -0.62765177    0.08746727    0.00147128
| 34> H    0.34360203    0.12230333   -0.00060045
| 35> C   -0.97793123   -1.27855601    0.00123841
| 36> H   -2.06339209   -1.34204332    0.00500898
| 37> H   -0.61488369   -1.80637584   -0.88538395
| 38> H   -0.60864033   -1.80823682    0.88417273
| 39> N    2.09857142    0.02597053   -0.00153437
| 40> C    2.79493981    0.00153520   -1.14625397
| 41> H    2.21046121    0.02475873   -2.05722941
| 42> C    4.18457687   -0.04820767   -1.19493922
| 43> H    4.69192922   -0.06549970   -2.14872195
| 44> C    4.89495010   -0.07392029    0.00067380
| 45> H    5.97528611   -0.11168504    0.00152310
| 46> C    4.18270265   -0.04889918    1.19521366
| 47> H    4.68850138   -0.06672351    2.14969935
| 48> C    2.79314901    0.00085051    1.14425957
| 49> H    2.20714322    0.02352494    2.05437826
| 50> *
| 51>
| 52> $new_job
| 53> ! ri-mp2 aug-cc-pvqz aug-cc-pvqz/c tightscf
| 54> %pal nprocs 16 end
| 55> %maxcore 3800
| 56> %base "QZ_S66by10_19_0.9_dimer"
| 57>
| 58> *xyz 0 1
| 59> O   -0.62765177    0.08746727    0.00147128
| 60> H    0.34360203    0.12230333   -0.00060045
| 61> C   -0.97793123   -1.27855601    0.00123841
| 62> H   -2.06339209   -1.34204332    0.00500898
| 63> H   -0.61488369   -1.80637584   -0.88538395
| 64> H   -0.60864033   -1.80823682    0.88417273
| 65> N    2.09857142    0.02597053   -0.00153437
| 66> C    2.79493981    0.00153520   -1.14625397
| 67> H    2.21046121    0.02475873   -2.05722941
| 68> C    4.18457687   -0.04820767   -1.19493922
| 69> H    4.69192922   -0.06549970   -2.14872195
| 70> C    4.89495010   -0.07392029    0.00067380
| 71> H    5.97528611   -0.11168504    0.00152310
| 72> C    4.18270265   -0.04889918    1.19521366
| 73> H    4.68850138   -0.06672351    2.14969935
| 74> C    2.79314901    0.00085051    1.14425957
| 75> H    2.20714322    0.02352494    2.05437826
| 76> *
| 77>
| 78>
| 79>
| 80>
| 81>                          ****END OF INPUT****
 Total Charge           Charge          ....    0
 Multiplicity           Mult            ....    1
 Number of Electrons    NEL             ....   60
MP2 TOTAL ENERGY:     -362.996674788 Eh
FINAL SINGLE POINT ENERGY      -362.996674788339
MP2 TOTAL ENERGY:     -363.318505423 Eh
FINAL SINGLE POINT ENERGY      -363.318505422682

CARTESIAN COORDINATES (ANGSTROEM)
---------------------------------
  O     -0.627652    0.087467    0.001471
  H      0.343602    0.122303   -0.000600
  C     -0.977931   -1.278556    0.001238
  H     -2.063392   -1.342043    0.005009
  H     -0.614884   -1.806376   -0.885384
  H     -0.608640   -1.808237    0.884173
  N      2.098571    0.025971   -0.001534
  C      2.794940    0.001535   -1.146254
  H      2.210461    0.024759   -2.057229
  C      4.184577   -0.048208   -1.194939
  H      4.691929   -0.065500   -2.148722
  C      4.894950   -0.073920    0.000674
  H      5.975286   -0.111685    0.001523
  C      4.182703   -0.048899    1.195214
  H      4.688501   -0.066724    2.149699
  C      2.793149    0.000851    1.144260
  H      2.207143    0.023525    2.054378

 Multiplicity           Mult            ....    1
 Number of Electrons    NEL             ....   60
 Basis Dimension        Dim             .... 1054

ORBITAL ENERGIES
----------------

  NO   OCC          E(Eh)            E(eV)
   0   2.0000     -20.505260      -557.9765
   1   2.0000     -15.584568      -424.0776
   2   2.0000     -11.291855      -307.2670
   3   2.0000     -11.291837      -307.2665
   4   2.0000     -11.274639      -306.7985
   5   2.0000     -11.255274      -306.2716
   6   2.0000     -11.255223      -306.2702
   7   2.0000     -11.241096      -305.8858
   8   2.0000      -1.316455       -35.8226
   9   2.0000      -1.276409       -34.7329
  10   2.0000      -1.105848       -30.0917
  11   2.0000      -1.050333       -28.5810
  12   2.0000      -0.894071       -24.3289
  13   2.0000      -0.875277       -23.8175
  14   2.0000      -0.873533       -23.7700
  15   2.0000      -0.741588       -20.1796
  16   2.0000      -0.678168       -18.4539
  17   2.0000      -0.671894       -18.2832
  18   2.0000      -0.661921       -18.0118
  19   2.0000      -0.614697       -16.7268
  20   2.0000      -0.590780       -16.0759
  21   2.0000      -0.587696       -15.9920
  22   2.0000      -0.562993       -15.3198
  23   2.0000      -0.555873       -15.1261
  24   2.0000      -0.536154       -14.5895
  25   2.0000      -0.482325       -13.1247
  26   2.0000      -0.429606       -11.6902
  27   2.0000      -0.410812       -11.1788
  28   2.0000      -0.402363       -10.9489
  29   2.0000      -0.363119        -9.8810
  30   0.0000       0.018255         0.4967
  31   0.0000       0.025683         0.6989
  32   0.0000       0.031235         0.8499
  33   0.0000       0.040852         1.1117
  34   0.0000       0.042743         1.1631

MULLIKEN ATOMIC CHARGES
-----------------------
   0 O :   -0.777139
   1 H :    0.302633
   2 C :   -0.616853
   3 H :    0.443975
   4 H :    0.253286
   5 H :    0.253369
   6 N :   -0.410731
   7 C :   -0.304976
   8 H :    0.362975
   9 C :   -0.171152
  10 H :    0.298211
  11 C :   -0.148408
  12 H :    0.329283
  13 C :   -0.170837
  14 H :    0.298414
  15 C :   -0.304706
  16 H :    0.362657
Sum of atomic charges:   -0.0000000

LOEWDIN ATOMIC CHARGES
----------------------
   0 O :    1.238661
   1 H :   -1.118876
   2 C :    0.549195
   3 H :   -0.345998
   4 H :   -0.319785
   5 H :   -0.319829
   6 N :    0.628804
   7 C :    0.140929
   8 H :   -0.330840
   9 C :    0.347145
  10 H :   -0.327484
  11 C :    0.339465
  12 H :   -0.311220
  13 C :    0.347245
  14 H :   -0.327579
  15 C :    0.140865
  16 H :   -0.330696

  Mayer bond orders larger than 0.100000
B(  0-O ,  1-H ) :   0.8912 B(  0-O ,  2-C ) :   0.8718 B(  0-O ,  6-N ) :  -0.1035
B(  2-C ,  3-H ) :   0.8074 B(  2-C ,  4-H ) :   0.9174 B(  2-C ,  5-H ) :   0.9172
B(  6-N ,  7-C ) :   1.4307 B(  6-N , 15-C ) :   1.4310 B(  7-C ,  8-H ) :   0.9619
B(  7-C ,  9-C ) :   1.1832 B(  7-C , 10-H ) :  -0.1017 B(  7-C , 11-C ) :  -0.1104
B(  7-C , 13-C ) :   0.1133 B(  9-C , 10-H ) :   1.0181 B(  9-C , 11-C ) :   1.1652
B(  9-C , 13-C ) :  -0.1056 B(  9-C , 15-C ) :   0.1132 B( 11-C , 12-H ) :   0.9931
B( 11-C , 13-C ) :   1.1654 B( 11-C , 15-C ) :  -0.1108 B( 13-C , 14-H ) :   1.0178
B( 13-C , 15-C ) :   1.1825 B( 14-H , 15-C ) :  -0.1017 B( 15-C , 16-H ) :   0.9622

MP2 TOTAL ENERGY:     -363.420791655 Eh
FINAL SINGLE POINT ENERGY      -363.420791655227

DIPOLE MOMENT
-------------
                                X             Y             Z
Electronic contribution:      5.24465       2.67507      -0.00299
Nuclear contribution   :     -3.32115      -3.14203       0.00213
                        -----------------------------------------
Total Dipole Moment    :      1.92350      -0.46695      -0.00086
                        -----------------------------------------
Magnitude (a.u.)       :      1.97937
Magnitude (Debye)      :      5.03115

Rotational constants in cm-1:     0.163402     0.031909     0.028304
Rotational constants in MHz :  4898.656632   956.609948   848.537420

                             ****ORCA TERMINATED NORMALLY****
TOTAL RUN TIME: 0 days 0 hours 23 minutes 46 seconds 764 msec
