                         Program Version 5.0.4 -  RELEASE  -
|  1> ! ri-mp2 aug-cc-pvdz aug-cc-pvdz/c tightscf
|  2> %pal nprocs 16 end
|  3> %maxcore 3800
|  4> %base "DZ_S66by10_44_1.05_dimer"
|  5> %scf STABPerform true end
|  6>
|  7> *xyz 0 1
|  8> C    0.66640038    0.18381078    0.41973683
|  9> H    1.22888182   -0.32988301    1.18625971
| 10> H    1.22803556    0.69720813   -0.34760989
| 11> C   -0.66597358    0.18297343    0.41961191
| 12> H   -1.22792171   -0.33149890    1.18610334
| 13> H   -1.22818427    0.69564575   -0.34774808
| 14> C   -2.53277605   -0.40764327    4.36045195
| 15> H   -2.56226950   -1.02066405    3.45926207
| 16> H   -2.56891000   -1.08186389    5.21606896
| 17> H   -3.43394741    0.20337316    4.37769790
| 18> C   -1.27133957    0.44503215    4.39626989
| 19> H   -1.27174543    1.06512572    5.29566383
| 20> H   -1.26295122    1.13194046    3.54720948
| 21> C   -0.00006531   -0.39252542    4.36932668
| 22> H   -0.00021936   -1.07919813    5.22115869
| 23> H    0.00007576   -1.02010326    3.47268419
| 24> C    1.27115510    0.44506101    4.39673122
| 25> H    1.27142810    1.06487176    5.29621663
| 26> H    1.26296027    1.13213565    3.54782359
| 27> C    2.53260648   -0.40766351    4.36090703
| 28> H    2.56222995   -1.02052001    3.45959786
| 29> H    3.43378459    0.20327266    4.37848507
| 30> H    2.56852484   -1.08211959    5.21641275
| 31> *
| 32>
| 33> $new_job
| 34> ! ri-mp2 aug-cc-pvtz aug-cc-pvtz/c tightscf
| 35> %pal nprocs 16 end
| 36> %maxcore 3800
| 37> %base "TZ_S66by10_44_1.05_dimer"
| 38>
| 39> *xyz 0 1
| 40> C    0.66640038    0.18381078    0.41973683
| 41> H    1.22888182   -0.32988301    1.18625971
| 42> H    1.22803556    0.69720813   -0.34760989
| 43> C   -0.66597358    0.18297343    0.41961191
| 44> H   -1.22792171   -0.33149890    1.18610334
| 45> H   -1.22818427    0.69564575   -0.34774808
| 46> C   -2.53277605   -0.40764327    4.36045195
| 47> H   -2.56226950   -1.02066405    3.45926207
| 48> H   -2.56891000   -1.08186389    5.21606896
| 49> H   -3.43394741    0.20337316    4.37769790
| 50> C   -1.27133957    0.44503215    4.39626989
| 51> H   -1.27174543    1.06512572    5.29566383
| 52> H   -1.26295122    1.13194046    3.54720948
| 53> C   -0.00006531   -0.39252542    4.36932668
| 54> H   -0.00021936   -1.07919813    5.22115869
| 55> H    0.00007576   -1.02010326    3.47268419
| 56> C    1.27115510    0.44506101    4.39673122
| 57> H    1.27142810    1.06487176    5.29621663
| 58> H    1.26296027    1.13213565    3.54782359
| 59> C    2.53260648   -0.40766351    4.36090703
| 60> H    2.56222995   -1.02052001    3.45959786
| 61> H    3.43378459    0.20327266    4.37848507
| 62> H    2.56852484   -1.08211959    5.21641275
| 63> *
| 64>
| 65> $new_job
| 66> ! ri-mp2 aug-cc-pvqz aug-cc-pvqz/c tightscf
| 67> %pal nprocs 16 end
| 68> %maxcore 3800
| 69> %base "QZ_S66by10_44_1.05_dimer"
| 70>
| 71> *xyz 0 1
| 72> C    0.66640038    0.18381078    0.41973683
| 73> H    1.22888182   -0.32988301    1.18625971
| 74> H    1.22803556    0.69720813   -0.34760989
| 75> C   -0.66597358    0.18297343    0.41961191
| 76> H   -1.22792171   -0.33149890    1.18610334
| 77> H   -1.22818427    0.69564575   -0.34774808
| 78> C   -2.53277605   -0.40764327    4.36045195
| 79> H   -2.56226950   -1.02066405    3.45926207
| 80> H   -2.56891000   -1.08186389    5.21606896
| 81> H   -3.43394741    0.20337316    4.37769790
| 82> C   -1.27133957    0.44503215    4.39626989
| 83> H   -1.27174543    1.06512572    5.29566383
| 84> H   -1.26295122    1.13194046    3.54720948
| 85> C   -0.00006531   -0.39252542    4.36932668
| 86> H   -0.00021936   -1.07919813    5.22115869
| 87> H    0.00007576   -1.02010326    3.47268419
| 88> C    1.27115510    0.44506101    4.39673122
| 89> H    1.27142810    1.06487176    5.29621663
| 90> H    1.26296027    1.13213565    3.54782359
| 91> C    2.53260648   -0.40766351    4.36090703
| 92> H    2.56222995   -1.02052001    3.45959786
| 93> H    3.43378459    0.20327266    4.37848507
| 94> H    2.56852484   -1.08211959    5.21641275
| 95> *
| 96>
| 97>
| 98>
| 99>
|100>                          ****END OF INPUT****
 Total Charge           Charge          ....    0
 Multiplicity           Mult            ....    1
 Number of Electrons    NEL             ....   58
MP2 TOTAL ENERGY:     -275.445562549 Eh
FINAL SINGLE POINT ENERGY      -275.445562548707
MP2 TOTAL ENERGY:     -275.718545964 Eh
FINAL SINGLE POINT ENERGY      -275.718545964491

CARTESIAN COORDINATES (ANGSTROEM)
---------------------------------
  C      0.666400    0.183811    0.419737
  H      1.228882   -0.329883    1.186260
  H      1.228036    0.697208   -0.347610
  C     -0.665974    0.182973    0.419612
  H     -1.227922   -0.331499    1.186103
  H     -1.228184    0.695646   -0.347748
  C     -2.532776   -0.407643    4.360452
  H     -2.562270   -1.020664    3.459262
  H     -2.568910   -1.081864    5.216069
  H     -3.433947    0.203373    4.377698
  C     -1.271340    0.445032    4.396270
  H     -1.271745    1.065126    5.295664
  H     -1.262951    1.131940    3.547209
  C     -0.000065   -0.392525    4.369327
  H     -0.000219   -1.079198    5.221159
  H      0.000076   -1.020103    3.472684
  C      1.271155    0.445061    4.396731
  H      1.271428    1.064872    5.296217
  H      1.262960    1.132136    3.547824
  C      2.532606   -0.407664    4.360907
  H      2.562230   -1.020520    3.459598
  H      3.433785    0.203273    4.378485
  H      2.568525   -1.082120    5.216413

 Multiplicity           Mult            ....    1
 Number of Electrons    NEL             ....   58
 Basis Dimension        Dim             .... 1296

ORBITAL ENERGIES
----------------

  NO   OCC          E(Eh)            E(eV)
   0   2.0000     -11.230537      -305.5984
   1   2.0000     -11.228811      -305.5515
   2   2.0000     -11.210958      -305.0657
   3   2.0000     -11.210828      -305.0621
   4   2.0000     -11.209409      -305.0235
   5   2.0000     -11.207051      -304.9594
   6   2.0000     -11.207044      -304.9592
   7   2.0000      -1.081340       -29.4248
   8   2.0000      -1.035281       -28.1714
   9   2.0000      -1.015644       -27.6371
  10   2.0000      -0.919553       -25.0223
  11   2.0000      -0.820184       -22.3183
  12   2.0000      -0.794350       -21.6153
  13   2.0000      -0.785217       -21.3668
  14   2.0000      -0.654990       -17.8232
  15   2.0000      -0.639166       -17.3926
  16   2.0000      -0.598935       -16.2978
  17   2.0000      -0.593912       -16.1612
  18   2.0000      -0.588347       -16.0097
  19   2.0000      -0.554568       -15.0906
  20   2.0000      -0.548426       -14.9234
  21   2.0000      -0.526645       -14.3307
  22   2.0000      -0.509556       -13.8657
  23   2.0000      -0.494855       -13.4657
  24   2.0000      -0.476437       -12.9645
  25   2.0000      -0.462115       -12.5748
  26   2.0000      -0.459719       -12.5096
  27   2.0000      -0.447075       -12.1655
  28   2.0000      -0.377904       -10.2833
  29   0.0000       0.026314         0.7160
  30   0.0000       0.028676         0.7803
  31   0.0000       0.031599         0.8598
  32   0.0000       0.034360         0.9350
  33   0.0000       0.042591         1.1590

MULLIKEN ATOMIC CHARGES
-----------------------
   0 C :   -1.028156
   1 H :    0.590020
   2 H :    0.425173
   3 C :   -1.028075
   4 H :    0.590196
   5 H :    0.425199
   6 C :   -0.950355
   7 H :    0.256357
   8 H :    0.231359
   9 H :    0.249959
  10 C :   -0.511604
  11 H :    0.309040
  12 H :    0.253578
  13 C :   -0.206596
  14 H :    0.292214
  15 H :    0.263410
  16 C :   -0.511705
  17 H :    0.309146
  18 H :    0.253578
  19 C :   -0.950414
  20 H :    0.256398
  21 H :    0.249969
  22 H :    0.231308
Sum of atomic charges:   -0.0000000

LOEWDIN ATOMIC CHARGES
----------------------
   0 C :    0.763884
   1 H :   -0.381890
   2 H :   -0.363083
   3 C :    0.763873
   4 H :   -0.381821
   5 H :   -0.363115
   6 C :    0.926899
   7 H :   -0.291511
   8 H :   -0.284117
   9 H :   -0.280940
  10 C :    0.499080
  11 H :   -0.269277
  12 H :   -0.283409
  13 C :    0.481593
  14 H :   -0.265182
  15 H :   -0.287694
  16 C :    0.499120
  17 H :   -0.269357
  18 H :   -0.283418
  19 C :    0.926913
  20 H :   -0.291502
  21 H :   -0.280977
  22 H :   -0.284068

  Mayer bond orders larger than 0.100000
B(  0-C ,  1-H ) :   0.5464 B(  0-C ,  2-H ) :   0.8705 B(  0-C ,  3-C ) :   2.0784
B(  3-C ,  4-H ) :   0.5462 B(  3-C ,  5-H ) :   0.8704 B(  6-C ,  7-H ) :   0.9126
B(  6-C ,  8-H ) :   0.9815 B(  6-C ,  9-H ) :   1.0378 B(  6-C , 10-C ) :   1.0043
B(  6-C , 13-C ) :  -0.1130 B( 10-C , 11-H ) :   0.8532 B( 10-C , 12-H ) :   0.8817
B( 10-C , 13-C ) :   0.8121 B( 13-C , 14-H ) :   0.8788 B( 13-C , 15-H ) :   0.8623
B( 13-C , 16-C ) :   0.8120 B( 13-C , 19-C ) :  -0.1131 B( 16-C , 17-H ) :   0.8532
B( 16-C , 18-H ) :   0.8817 B( 16-C , 19-C ) :   1.0043 B( 19-C , 20-H ) :   0.9125
B( 19-C , 21-H ) :   1.0377 B( 19-C , 22-H ) :   0.9816

MP2 TOTAL ENERGY:     -275.799659830 Eh
FINAL SINGLE POINT ENERGY      -275.799659829859

DIPOLE MOMENT
-------------
                                X             Y             Z
Electronic contribution:      0.00018       0.76705      -1.74021
Nuclear contribution   :     -0.00019      -0.69616       1.75298
                        -----------------------------------------
Total Dipole Moment    :     -0.00001       0.07089       0.01276
                        -----------------------------------------
Magnitude (a.u.)       :      0.07203
Magnitude (Debye)      :      0.18308

Rotational constants in cm-1:     0.058301     0.048081     0.028363
Rotational constants in MHz :  1747.834642  1441.417133   850.313081

                             ****ORCA TERMINATED NORMALLY****
TOTAL RUN TIME: 0 days 2 hours 56 minutes 22 seconds 566 msec
