                         Program Version 5.0.4 -  RELEASE  -
|  1> ! ri-mp2 aug-cc-pvdz aug-cc-pvdz/c tightscf
|  2> %pal nprocs 16 end
|  3> %maxcore 3800
|  4> %base "DZ_S66by10_11_0.95_dimer"
|  5> %scf STABPerform true end
|  6>
|  7> *xyz 0 1
|  8> N   -0.56970824    0.81437245    0.10109775
|  9> H    0.13087774    0.56141065   -0.58761455
| 10> H   -1.46125215    0.52691480   -0.28042996
| 11> C   -0.30551437    0.06571030    1.32879173
| 12> H   -1.05714948    0.31427017    2.07595940
| 13> H   -0.28802353   -1.02229248    1.21484626
| 14> H    0.66045772    0.36850913    1.73024224
| 15> C    2.18322687    2.69533703   -0.13922834
| 16> H    2.30784534    3.10651376   -1.13827268
| 17> H    2.68979824    3.33632958    0.57855618
| 18> H    1.11681511    2.66880750    0.07919308
| 19> C    2.69521856    1.27753934   -0.13693431
| 20> O    2.23523867    0.41180292   -0.87610893
| 21> N    3.68170153    1.00450700    0.75539640
| 22> H    4.08146255    1.75943977    1.28074915
| 23> C    4.27014687   -0.31508355    0.83289596
| 24> H    3.48197025   -1.05641369    0.73987537
| 25> H    4.99140665   -0.48707892    0.03435157
| 26> H    4.76480038   -0.43095174    1.79283549
| 27> *
| 28>
| 29> $new_job
| 30> ! ri-mp2 aug-cc-pvtz aug-cc-pvtz/c tightscf
| 31> %pal nprocs 16 end
| 32> %maxcore 3800
| 33> %base "TZ_S66by10_11_0.95_dimer"
| 34>
| 35> *xyz 0 1
| 36> N   -0.56970824    0.81437245    0.10109775
| 37> H    0.13087774    0.56141065   -0.58761455
| 38> H   -1.46125215    0.52691480   -0.28042996
| 39> C   -0.30551437    0.06571030    1.32879173
| 40> H   -1.05714948    0.31427017    2.07595940
| 41> H   -0.28802353   -1.02229248    1.21484626
| 42> H    0.66045772    0.36850913    1.73024224
| 43> C    2.18322687    2.69533703   -0.13922834
| 44> H    2.30784534    3.10651376   -1.13827268
| 45> H    2.68979824    3.33632958    0.57855618
| 46> H    1.11681511    2.66880750    0.07919308
| 47> C    2.69521856    1.27753934   -0.13693431
| 48> O    2.23523867    0.41180292   -0.87610893
| 49> N    3.68170153    1.00450700    0.75539640
| 50> H    4.08146255    1.75943977    1.28074915
| 51> C    4.27014687   -0.31508355    0.83289596
| 52> H    3.48197025   -1.05641369    0.73987537
| 53> H    4.99140665   -0.48707892    0.03435157
| 54> H    4.76480038   -0.43095174    1.79283549
| 55> *
| 56>
| 57> $new_job
| 58> ! ri-mp2 aug-cc-pvqz aug-cc-pvqz/c tightscf
| 59> %pal nprocs 16 end
| 60> %maxcore 3800
| 61> %base "QZ_S66by10_11_0.95_dimer"
| 62>
| 63> *xyz 0 1
| 64> N   -0.56970824    0.81437245    0.10109775
| 65> H    0.13087774    0.56141065   -0.58761455
| 66> H   -1.46125215    0.52691480   -0.28042996
| 67> C   -0.30551437    0.06571030    1.32879173
| 68> H   -1.05714948    0.31427017    2.07595940
| 69> H   -0.28802353   -1.02229248    1.21484626
| 70> H    0.66045772    0.36850913    1.73024224
| 71> C    2.18322687    2.69533703   -0.13922834
| 72> H    2.30784534    3.10651376   -1.13827268
| 73> H    2.68979824    3.33632958    0.57855618
| 74> H    1.11681511    2.66880750    0.07919308
| 75> C    2.69521856    1.27753934   -0.13693431
| 76> O    2.23523867    0.41180292   -0.87610893
| 77> N    3.68170153    1.00450700    0.75539640
| 78> H    4.08146255    1.75943977    1.28074915
| 79> C    4.27014687   -0.31508355    0.83289596
| 80> H    3.48197025   -1.05641369    0.73987537
| 81> H    4.99140665   -0.48707892    0.03435157
| 82> H    4.76480038   -0.43095174    1.79283549
| 83> *
| 84>
| 85>
| 86>
| 87>
| 88>                          ****END OF INPUT****
 Total Charge           Charge          ....    0
 Multiplicity           Mult            ....    1
 Number of Electrons    NEL             ....   58
MP2 TOTAL ENERGY:     -343.430531960 Eh
FINAL SINGLE POINT ENERGY      -343.430531959724
MP2 TOTAL ENERGY:     -343.747295531 Eh
FINAL SINGLE POINT ENERGY      -343.747295531322

CARTESIAN COORDINATES (ANGSTROEM)
---------------------------------
  N     -0.569708    0.814372    0.101098
  H      0.130878    0.561411   -0.587615
  H     -1.461252    0.526915   -0.280430
  C     -0.305514    0.065710    1.328792
  H     -1.057149    0.314270    2.075959
  H     -0.288024   -1.022292    1.214846
  H      0.660458    0.368509    1.730242
  C      2.183227    2.695337   -0.139228
  H      2.307845    3.106514   -1.138273
  H      2.689798    3.336330    0.578556
  H      1.116815    2.668807    0.079193
  C      2.695219    1.277539   -0.136934
  O      2.235239    0.411803   -0.876109
  N      3.681702    1.004507    0.755396
  H      4.081463    1.759440    1.280749
  C      4.270147   -0.315084    0.832896
  H      3.481970   -1.056414    0.739875
  H      4.991407   -0.487079    0.034352
  H      4.764800   -0.430952    1.792835

 Multiplicity           Mult            ....    1
 Number of Electrons    NEL             ....   58
 Basis Dimension        Dim             .... 1112

ORBITAL ENERGIES
----------------

  NO   OCC          E(Eh)            E(eV)
   0   2.0000     -20.511633      -558.1499
   1   2.0000     -15.586799      -424.1384
   2   2.0000     -15.516878      -422.2357
   3   2.0000     -11.347600      -308.7839
   4   2.0000     -11.258649      -306.3634
   5   2.0000     -11.227413      -305.5134
   6   2.0000     -11.225668      -305.4660
   7   2.0000      -1.377464       -37.4827
   8   2.0000      -1.232194       -33.5297
   9   2.0000      -1.153857       -31.3980
  10   2.0000      -1.016313       -27.6553
  11   2.0000      -0.932647       -25.3786
  12   2.0000      -0.882122       -24.0038
  13   2.0000      -0.793057       -21.5802
  14   2.0000      -0.689625       -18.7656
  15   2.0000      -0.657910       -17.9027
  16   2.0000      -0.654654       -17.8140
  17   2.0000      -0.628419       -17.1001
  18   2.0000      -0.592315       -16.1177
  19   2.0000      -0.580321       -15.7913
  20   2.0000      -0.579854       -15.7786
  21   2.0000      -0.556842       -15.1524
  22   2.0000      -0.547171       -14.8893
  23   2.0000      -0.538628       -14.6568
  24   2.0000      -0.503828       -13.7098
  25   2.0000      -0.502274       -13.6676
  26   2.0000      -0.424647       -11.5552
  27   2.0000      -0.396356       -10.7854
  28   2.0000      -0.377679       -10.2772
  29   0.0000       0.020046         0.5455
  30   0.0000       0.031068         0.8454
  31   0.0000       0.034244         0.9318
  32   0.0000       0.035426         0.9640
  33   0.0000       0.047547         1.2938

MULLIKEN ATOMIC CHARGES
-----------------------
   0 N :   -0.606256
   1 H :    0.325382
   2 H :    0.159277
   3 C :   -0.872157
   4 H :    0.374469
   5 H :    0.268470
   6 H :    0.306602
   7 C :   -0.836298
   8 H :    0.301404
   9 H :    0.250712
  10 H :    0.311387
  11 C :    1.187206
  12 O :   -0.973167
  13 N :   -0.580919
  14 H :    0.277397
  15 C :   -0.863953
  16 H :    0.308346
  17 H :    0.308768
  18 H :    0.353330
Sum of atomic charges:    0.0000000

LOEWDIN ATOMIC CHARGES
----------------------
   0 N :    1.254499
   1 H :   -0.671505
   2 H :   -0.508372
   3 C :    0.747623
   4 H :   -0.308260
   5 H :   -0.284259
   6 H :   -0.328499
   7 C :    0.902020
   8 H :   -0.287666
   9 H :   -0.305963
  10 H :   -0.345371
  11 C :   -0.829519
  12 O :    0.759970
  13 N :    0.827537
  14 H :   -0.503324
  15 C :    0.778615
  16 H :   -0.323570
  17 H :   -0.280119
  18 H :   -0.293839

  Mayer bond orders larger than 0.100000
B(  0-N ,  1-H ) :   0.8373 B(  0-N ,  2-H ) :   1.0280 B(  0-N ,  3-C ) :   0.9618
B(  3-C ,  4-H ) :   0.8687 B(  3-C ,  5-H ) :   0.9323 B(  3-C ,  6-H ) :   0.8769
B(  7-C ,  8-H ) :   0.9186 B(  7-C ,  9-H ) :   1.0040 B(  7-C , 10-H ) :   0.9080
B(  7-C , 11-C ) :   0.8130 B( 11-C , 12-O ) :   1.0541 B( 11-C , 13-N ) :   1.0445
B( 12-O , 13-N ) :   0.1656 B( 13-N , 14-H ) :   0.9493 B( 13-N , 15-C ) :   0.8447
B( 15-C , 16-H ) :   0.9501 B( 15-C , 17-H ) :   0.9401 B( 15-C , 18-H ) :   0.9035

MP2 TOTAL ENERGY:     -343.846816411 Eh
FINAL SINGLE POINT ENERGY      -343.846816411430

DIPOLE MOMENT
-------------
                                X             Y             Z
Electronic contribution:      3.19107       0.68315      -3.12406
Nuclear contribution   :     -2.29823      -0.30735       3.99112
                        -----------------------------------------
Total Dipole Moment    :      0.89284       0.37580       0.86706
                        -----------------------------------------
Magnitude (a.u.)       :      1.30007
Magnitude (Debye)      :      3.30451

Rotational constants in cm-1:     0.107986     0.045978     0.038924
Rotational constants in MHz :  3237.353304  1378.383315  1166.922235

                             ****ORCA TERMINATED NORMALLY****
TOTAL RUN TIME: 0 days 3 hours 36 minutes 44 seconds 847 msec
