                         Program Version 5.0.4 -  RELEASE  -
|  1> ! ri-mp2 aug-cc-pvdz aug-cc-pvdz/c tightscf
|  2> %pal nprocs 16 end
|  3> %maxcore 3800
|  4> %base "DZ_S66by10_49_0.8_dimer"
|  5>
|  6> *xyz 0 1
|  7> C    0.84507720    1.05791869    0.69945490
|  8> H    1.50640601    1.90322178    0.83338235
|  9> C    1.37550931   -0.21745534    0.51116093
| 10> H    2.44718367   -0.36147258    0.50285232
| 11> C    0.52406810   -1.30704432    0.33319233
| 12> H    0.93572726   -2.29602641    0.18492305
| 13> C   -0.85771573   -1.12146341    0.34638409
| 14> H   -1.51838119   -1.96645805    0.20836325
| 15> C   -1.38804570    0.15363438    0.53761349
| 16> H   -2.45971752    0.29741587    0.55003229
| 17> C   -0.53661315    1.24342221    0.71273882
| 18> H   -0.94892427    2.23280628    0.85736635
| 19> N    0.03164259    0.48947439    6.09828134
| 20> C    0.18632641    1.42743599    5.15340446
| 21> H    0.32809724    2.43996200    5.51130618
| 22> C    0.17211714    1.16014623    3.78690502
| 23> H    0.30235720    1.96117202    3.07301961
| 24> C   -0.01222117   -0.15148346    3.36161459
| 25> H   -0.02878762   -0.39460213    2.30826665
| 26> C   -0.17407009   -1.13651779    4.33047368
| 27> H   -0.32061312   -2.17172876    4.05570216
| 28> C   -0.14486762   -0.76918469    5.67356318
| 29> H   -0.26846375   -1.51669866    6.44766418
| 30> *
| 31>
| 32> $new_job
| 33> ! ri-mp2 aug-cc-pvtz aug-cc-pvtz/c tightscf
| 34> %pal nprocs 16 end
| 35> %maxcore 3800
| 36> %base "TZ_S66by10_49_0.8_dimer"
| 37>
| 38> *xyz 0 1
| 39> C    0.84507720    1.05791869    0.69945490
| 40> H    1.50640601    1.90322178    0.83338235
| 41> C    1.37550931   -0.21745534    0.51116093
| 42> H    2.44718367   -0.36147258    0.50285232
| 43> C    0.52406810   -1.30704432    0.33319233
| 44> H    0.93572726   -2.29602641    0.18492305
| 45> C   -0.85771573   -1.12146341    0.34638409
| 46> H   -1.51838119   -1.96645805    0.20836325
| 47> C   -1.38804570    0.15363438    0.53761349
| 48> H   -2.45971752    0.29741587    0.55003229
| 49> C   -0.53661315    1.24342221    0.71273882
| 50> H   -0.94892427    2.23280628    0.85736635
| 51> N    0.03164259    0.48947439    6.09828134
| 52> C    0.18632641    1.42743599    5.15340446
| 53> H    0.32809724    2.43996200    5.51130618
| 54> C    0.17211714    1.16014623    3.78690502
| 55> H    0.30235720    1.96117202    3.07301961
| 56> C   -0.01222117   -0.15148346    3.36161459
| 57> H   -0.02878762   -0.39460213    2.30826665
| 58> C   -0.17407009   -1.13651779    4.33047368
| 59> H   -0.32061312   -2.17172876    4.05570216
| 60> C   -0.14486762   -0.76918469    5.67356318
| 61> H   -0.26846375   -1.51669866    6.44766418
| 62> *
| 63>
| 64> $new_job
| 65> ! ri-mp2 aug-cc-pvqz aug-cc-pvqz/c tightscf
| 66> %pal nprocs 16 end
| 67> %maxcore 3800
| 68> %base "QZ_S66by10_49_0.8_dimer"
| 69>
| 70> *xyz 0 1
| 71> C    0.84507720    1.05791869    0.69945490
| 72> H    1.50640601    1.90322178    0.83338235
| 73> C    1.37550931   -0.21745534    0.51116093
| 74> H    2.44718367   -0.36147258    0.50285232
| 75> C    0.52406810   -1.30704432    0.33319233
| 76> H    0.93572726   -2.29602641    0.18492305
| 77> C   -0.85771573   -1.12146341    0.34638409
| 78> H   -1.51838119   -1.96645805    0.20836325
| 79> C   -1.38804570    0.15363438    0.53761349
| 80> H   -2.45971752    0.29741587    0.55003229
| 81> C   -0.53661315    1.24342221    0.71273882
| 82> H   -0.94892427    2.23280628    0.85736635
| 83> N    0.03164259    0.48947439    6.09828134
| 84> C    0.18632641    1.42743599    5.15340446
| 85> H    0.32809724    2.43996200    5.51130618
| 86> C    0.17211714    1.16014623    3.78690502
| 87> H    0.30235720    1.96117202    3.07301961
| 88> C   -0.01222117   -0.15148346    3.36161459
| 89> H   -0.02878762   -0.39460213    2.30826665
| 90> C   -0.17407009   -1.13651779    4.33047368
| 91> H   -0.32061312   -2.17172876    4.05570216
| 92> C   -0.14486762   -0.76918469    5.67356318
| 93> H   -0.26846375   -1.51669866    6.44766418
| 94> *
| 95>
| 96>
| 97>
| 98>
| 99>                          ****END OF INPUT****
 Total Charge           Charge          ....    0
 Multiplicity           Mult            ....    1
 Number of Electrons    NEL             ....   84
MP2 TOTAL ENERGY:     -479.104822225 Eh
FINAL SINGLE POINT ENERGY      -479.104822224895
MP2 TOTAL ENERGY:     -479.522478450 Eh
FINAL SINGLE POINT ENERGY      -479.522478449872

CARTESIAN COORDINATES (ANGSTROEM)
---------------------------------
  C      0.845077    1.057919    0.699455
  H      1.506406    1.903222    0.833382
  C      1.375509   -0.217455    0.511161
  H      2.447184   -0.361473    0.502852
  C      0.524068   -1.307044    0.333192
  H      0.935727   -2.296026    0.184923
  C     -0.857716   -1.121463    0.346384
  H     -1.518381   -1.966458    0.208363
  C     -1.388046    0.153634    0.537613
  H     -2.459718    0.297416    0.550032
  C     -0.536613    1.243422    0.712739
  H     -0.948924    2.232806    0.857366
  N      0.031643    0.489474    6.098281
  C      0.186326    1.427436    5.153404
  H      0.328097    2.439962    5.511306
  C      0.172117    1.160146    3.786905
  H      0.302357    1.961172    3.073020
  C     -0.012221   -0.151483    3.361615
  H     -0.028788   -0.394602    2.308267
  C     -0.174070   -1.136518    4.330474
  H     -0.320613   -2.171729    4.055702
  C     -0.144868   -0.769185    5.673563
  H     -0.268464   -1.516699    6.447664

 Multiplicity           Mult            ....    1
 Number of Electrons    NEL             ....   84
 Basis Dimension        Dim             .... 1466

ORBITAL ENERGIES
----------------

  NO   OCC          E(Eh)            E(eV)
   0   2.0000     -15.551931      -423.1896
   1   2.0000     -11.262989      -306.4815
   2   2.0000     -11.262714      -306.4740
   3   2.0000     -11.247936      -306.0719
   4   2.0000     -11.247385      -306.0569
   5   2.0000     -11.247245      -306.0531
   6   2.0000     -11.246120      -306.0225
   7   2.0000     -11.246046      -306.0205
   8   2.0000     -11.245421      -306.0035
   9   2.0000     -11.236440      -305.7591
  10   2.0000     -11.226207      -305.4806
  11   2.0000     -11.224752      -305.4410
  12   2.0000      -1.243911       -33.8485
  13   2.0000      -1.168344       -31.7922
  14   2.0000      -1.074620       -29.2419
  15   2.0000      -1.030603       -28.0441
  16   2.0000      -1.029155       -28.0047
  17   2.0000      -1.020023       -27.7562
  18   2.0000      -0.846938       -23.0464
  19   2.0000      -0.844354       -22.9760
  20   2.0000      -0.837701       -22.7950
  21   2.0000      -0.836752       -22.7692
  22   2.0000      -0.726930       -19.7808
  23   2.0000      -0.711692       -19.3661
  24   2.0000      -0.657044       -17.8791
  25   2.0000      -0.647601       -17.6221
  26   2.0000      -0.643048       -17.4982
  27   2.0000      -0.632106       -17.2005
  28   2.0000      -0.602770       -16.4022
  29   2.0000      -0.601891       -16.3783
  30   2.0000      -0.587048       -15.9744
  31   2.0000      -0.582065       -15.8388
  32   2.0000      -0.529575       -14.4105
  33   2.0000      -0.508345       -13.8328
  34   2.0000      -0.508103       -13.8262
  35   2.0000      -0.506556       -13.7841
  36   2.0000      -0.486643       -13.2422
  37   2.0000      -0.407888       -11.0992
  38   2.0000      -0.380022       -10.3409
  39   2.0000      -0.352734        -9.5984
  40   2.0000      -0.344274        -9.3682
  41   2.0000      -0.335674        -9.1341
  42   0.0000       0.019683         0.5356
  43   0.0000       0.024769         0.6740
  44   0.0000       0.027787         0.7561
  45   0.0000       0.033707         0.9172
  46   0.0000       0.038229         1.0403

MULLIKEN ATOMIC CHARGES
-----------------------
   0 C :   -0.270779
   1 H :    0.314433
   2 C :   -0.482287
   3 H :    0.244915
   4 C :   -0.274271
   5 H :    0.268282
   6 C :   -0.284945
   7 H :    0.268567
   8 C :   -0.471937
   9 H :    0.249563
  10 C :   -0.287985
  11 H :    0.305220
  12 N :   -0.778354
  13 C :   -0.202389
  14 H :    0.466858
  15 C :   -0.505704
  16 H :    0.290568
  17 C :    0.023262
  18 H :    1.487263
  19 C :   -0.840705
  20 H :    0.196768
  21 C :   -0.199487
  22 H :    0.483145
Sum of atomic charges:    0.0000000

LOEWDIN ATOMIC CHARGES
----------------------
   0 C :    0.315885
   1 H :   -0.298030
   2 C :    0.351685
   3 H :   -0.302086
   4 C :    0.348377
   5 H :   -0.305850
   6 C :    0.348029
   7 H :   -0.305838
   8 C :    0.351027
   9 H :   -0.302040
  10 C :    0.315705
  11 H :   -0.297904
  12 N :    0.586274
  13 C :    0.087792
  14 H :   -0.355782
  15 C :    0.347768
  16 H :   -0.368413
  17 C :    0.309228
  18 H :   -0.583847
  19 C :    0.366274
  20 H :   -0.322499
  21 C :    0.072648
  22 H :   -0.358404

  Mayer bond orders larger than 0.100000
B(  0-C ,  1-H ) :   1.0234 B(  0-C ,  2-C ) :   1.2593 B(  0-C ,  6-C ) :   0.1166
B(  0-C , 10-C ) :   1.1956 B(  0-C , 18-H ) :  -0.1971 B(  2-C ,  3-H ) :   1.1146
B(  2-C ,  4-C ) :   1.2987 B(  2-C ,  8-C ) :   0.2275 B(  2-C , 18-H ) :  -0.1949
B(  4-C ,  5-H ) :   1.1091 B(  4-C ,  6-C ) :   1.1504 B(  4-C , 10-C ) :   0.1250
B(  4-C , 18-H ) :  -0.1603 B(  6-C ,  7-H ) :   1.1100 B(  6-C ,  8-C ) :   1.2886
B(  6-C , 18-H ) :  -0.1519 B(  8-C ,  9-H ) :   1.1069 B(  8-C , 10-C ) :   1.2639
B(  8-C , 18-H ) :  -0.1829 B( 10-C , 11-H ) :   1.0318 B( 10-C , 18-H ) :  -0.1924
B( 12-N , 13-C ) :   1.0937 B( 12-N , 14-H ) :  -0.1439 B( 12-N , 19-C ) :   0.1047
B( 12-N , 21-C ) :   1.1730 B( 12-N , 22-H ) :  -0.1435 B( 13-C , 14-H ) :   0.9219
B( 13-C , 15-C ) :   1.2965 B( 13-C , 17-C ) :  -0.3360 B( 13-C , 19-C ) :   0.2360
B( 14-H , 15-C ) :  -0.1507 B( 15-C , 16-H ) :   1.0097 B( 15-C , 17-C ) :   1.1397
B( 15-C , 18-H ) :  -0.3308 B( 17-C , 19-C ) :   0.8656 B( 17-C , 21-C ) :  -0.4249
B( 18-H , 19-C ) :  -0.1948 B( 19-C , 20-H ) :   1.1233 B( 19-C , 21-C ) :   1.4313
B( 19-C , 22-H ) :  -0.1522 B( 21-C , 22-H ) :   0.8889

MP2 TOTAL ENERGY:     -479.654549469 Eh
FINAL SINGLE POINT ENERGY      -479.654549468659

DIPOLE MOMENT
-------------
                                X             Y             Z
Electronic contribution:      0.02409       0.38276       3.01184
Nuclear contribution   :     -0.04260      -0.60407      -4.25774
                        -----------------------------------------
Total Dipole Moment    :     -0.01852      -0.22132      -1.24590
                        -----------------------------------------
Magnitude (a.u.)       :      1.26554
Magnitude (Debye)      :      3.21674

Rotational constants in cm-1:     0.065732     0.019160     0.017576
Rotational constants in MHz :  1970.604885   574.401066   526.903035

                             ****ORCA TERMINATED NORMALLY****
TOTAL RUN TIME: 0 days 1 hours 43 minutes 20 seconds 70 msec
