                         Program Version 5.0.4 -  RELEASE  -
|  1> ! ri-mp2 aug-cc-pvdz aug-cc-pvdz/c tightscf
|  2> %pal nprocs 16 end
|  3> %maxcore 3800
|  4> %base "DZ_S66by10_31_0.95_dimer"
|  5> %scf STABPerform true end
|  6>
|  7> *xyz 0 1
|  8> N   -0.05087365   -0.98008127    0.03396219
|  9> H   -0.05322205   -1.99069374    0.04982167
| 10> C   -1.30881316   -0.36187638    0.00402596
| 11> O   -2.32722000   -1.03255492   -0.00582886
| 12> C   -1.23681849    1.08804829   -0.01222440
| 13> H   -2.15273897    1.65146044   -0.05477443
| 14> C   -0.03519433    1.69783584    0.03370483
| 15> H    0.07036636    2.77247575    0.03188224
| 16> N    1.13452913    0.99028251    0.09184461
| 17> H    2.02372032    1.45677218    0.15569277
| 18> C    1.19318599   -0.39183287    0.11577512
| 19> O    2.23639797   -1.01118826    0.19418562
| 20> C    0.72243504    0.02050721    3.26488223
| 21> H    1.23955278   -0.85048069    2.88765564
| 22> H    1.32804605    0.80750125    3.69219657
| 23> C   -0.60634146    0.12109765    3.21563531
| 24> H   -1.21834434   -0.66638193    2.79873459
| 25> H   -1.11816645    0.99216725    3.59963507
| 26> *
| 27>
| 28> $new_job
| 29> ! ri-mp2 aug-cc-pvtz aug-cc-pvtz/c tightscf
| 30> %pal nprocs 16 end
| 31> %maxcore 3800
| 32> %base "TZ_S66by10_31_0.95_dimer"
| 33>
| 34> *xyz 0 1
| 35> N   -0.05087365   -0.98008127    0.03396219
| 36> H   -0.05322205   -1.99069374    0.04982167
| 37> C   -1.30881316   -0.36187638    0.00402596
| 38> O   -2.32722000   -1.03255492   -0.00582886
| 39> C   -1.23681849    1.08804829   -0.01222440
| 40> H   -2.15273897    1.65146044   -0.05477443
| 41> C   -0.03519433    1.69783584    0.03370483
| 42> H    0.07036636    2.77247575    0.03188224
| 43> N    1.13452913    0.99028251    0.09184461
| 44> H    2.02372032    1.45677218    0.15569277
| 45> C    1.19318599   -0.39183287    0.11577512
| 46> O    2.23639797   -1.01118826    0.19418562
| 47> C    0.72243504    0.02050721    3.26488223
| 48> H    1.23955278   -0.85048069    2.88765564
| 49> H    1.32804605    0.80750125    3.69219657
| 50> C   -0.60634146    0.12109765    3.21563531
| 51> H   -1.21834434   -0.66638193    2.79873459
| 52> H   -1.11816645    0.99216725    3.59963507
| 53> *
| 54>
| 55> $new_job
| 56> ! ri-mp2 aug-cc-pvqz aug-cc-pvqz/c tightscf
| 57> %pal nprocs 16 end
| 58> %maxcore 3800
| 59> %base "QZ_S66by10_31_0.95_dimer"
| 60>
| 61> *xyz 0 1
| 62> N   -0.05087365   -0.98008127    0.03396219
| 63> H   -0.05322205   -1.99069374    0.04982167
| 64> C   -1.30881316   -0.36187638    0.00402596
| 65> O   -2.32722000   -1.03255492   -0.00582886
| 66> C   -1.23681849    1.08804829   -0.01222440
| 67> H   -2.15273897    1.65146044   -0.05477443
| 68> C   -0.03519433    1.69783584    0.03370483
| 69> H    0.07036636    2.77247575    0.03188224
| 70> N    1.13452913    0.99028251    0.09184461
| 71> H    2.02372032    1.45677218    0.15569277
| 72> C    1.19318599   -0.39183287    0.11577512
| 73> O    2.23639797   -1.01118826    0.19418562
| 74> C    0.72243504    0.02050721    3.26488223
| 75> H    1.23955278   -0.85048069    2.88765564
| 76> H    1.32804605    0.80750125    3.69219657
| 77> C   -0.60634146    0.12109765    3.21563531
| 78> H   -1.21834434   -0.66638193    2.79873459
| 79> H   -1.11816645    0.99216725    3.59963507
| 80> *
| 81>
| 82>
| 83>
| 84>
| 85>                          ****END OF INPUT****
 Total Charge           Charge          ....    0
 Multiplicity           Mult            ....    1
 Number of Electrons    NEL             ....   74
MP2 TOTAL ENERGY:     -492.115232722 Eh
FINAL SINGLE POINT ENERGY      -492.115232722222
MP2 TOTAL ENERGY:     -492.537650862 Eh
FINAL SINGLE POINT ENERGY      -492.537650861913

CARTESIAN COORDINATES (ANGSTROEM)
---------------------------------
  N     -0.050874   -0.980081    0.033962
  H     -0.053222   -1.990694    0.049822
  C     -1.308813   -0.361876    0.004026
  O     -2.327220   -1.032555   -0.005829
  C     -1.236818    1.088048   -0.012224
  H     -2.152739    1.651460   -0.054774
  C     -0.035194    1.697836    0.033705
  H      0.070366    2.772476    0.031882
  N      1.134529    0.990283    0.091845
  H      2.023720    1.456772    0.155693
  C      1.193186   -0.391833    0.115775
  O      2.236398   -1.011188    0.194186
  C      0.722435    0.020507    3.264882
  H      1.239553   -0.850481    2.887656
  H      1.328046    0.807501    3.692197
  C     -0.606341    0.121098    3.215635
  H     -1.218344   -0.666382    2.798735
  H     -1.118166    0.992167    3.599635

 Multiplicity           Mult            ....    1
 Number of Electrons    NEL             ....   74
 Basis Dimension        Dim             .... 1168

ORBITAL ENERGIES
----------------

  NO   OCC          E(Eh)            E(eV)
   0   2.0000     -20.542985      -559.0030
   1   2.0000     -20.537988      -558.8671
   2   2.0000     -15.639294      -425.5668
   3   2.0000     -15.622834      -425.1189
   4   2.0000     -11.415871      -310.6416
   5   2.0000     -11.378102      -309.6139
   6   2.0000     -11.336247      -308.4750
   7   2.0000     -11.250792      -306.1496
   8   2.0000     -11.233281      -305.6731
   9   2.0000     -11.231209      -305.6167
  10   2.0000      -1.434202       -39.0266
  11   2.0000      -1.396470       -37.9999
  12   2.0000      -1.310750       -35.6673
  13   2.0000      -1.243548       -33.8387
  14   2.0000      -1.085348       -29.5338
  15   2.0000      -1.039298       -28.2807
  16   2.0000      -0.931145       -25.3377
  17   2.0000      -0.899497       -24.4766
  18   2.0000      -0.804849       -21.9011
  19   2.0000      -0.798365       -21.7246
  20   2.0000      -0.763149       -20.7664
  21   2.0000      -0.712190       -19.3797
  22   2.0000      -0.676242       -18.4015
  23   2.0000      -0.672445       -18.2982
  24   2.0000      -0.651422       -17.7261
  25   2.0000      -0.645415       -17.5626
  26   2.0000      -0.613296       -16.6886
  27   2.0000      -0.599854       -16.3228
  28   2.0000      -0.591520       -16.0961
  29   2.0000      -0.570467       -15.5232
  30   2.0000      -0.525033       -14.2869
  31   2.0000      -0.510250       -13.8846
  32   2.0000      -0.482799       -13.1376
  33   2.0000      -0.448619       -12.2076
  34   2.0000      -0.436998       -11.8913
  35   2.0000      -0.383456       -10.4344
  36   2.0000      -0.364717        -9.9244
  37   0.0000       0.012675         0.3449
  38   0.0000       0.028665         0.7800
  39   0.0000       0.032815         0.8929
  40   0.0000       0.036118         0.9828
  41   0.0000       0.044825         1.2197

MULLIKEN ATOMIC CHARGES
-----------------------
   0 N :   -0.662973
   1 H :    0.062812
   2 C :    1.349503
   3 O :   -0.901179
   4 C :   -0.485650
   5 H :    0.239266
   6 C :   -0.106613
   7 H :    0.416466
   8 N :   -0.630184
   9 H :    0.069225
  10 C :    1.538016
  11 O :   -0.874201
  12 C :   -0.756619
  13 H :    0.379473
  14 H :    0.393849
  15 C :   -0.818738
  16 H :    0.406072
  17 H :    0.381474
Sum of atomic charges:    0.0000000

LOEWDIN ATOMIC CHARGES
----------------------
   0 N :    0.773745
   1 H :   -0.512070
   2 C :   -0.899401
   3 O :    0.693210
   4 C :    0.318141
   5 H :   -0.347816
   6 C :    0.223721
   7 H :   -0.292522
   8 N :    0.807914
   9 H :   -0.486626
  10 C :   -1.032958
  11 O :    0.703603
  12 C :    0.748464
  13 H :   -0.374270
  14 H :   -0.351820
  15 C :    0.747279
  16 H :   -0.369712
  17 H :   -0.348883

  Mayer bond orders larger than 0.100000
B(  0-N ,  1-H ) :   1.2009 B(  0-N ,  2-C ) :   0.9582 B(  0-N ,  3-O ) :   0.2154
B(  0-N , 10-C ) :   1.0896 B(  0-N , 11-O ) :   0.2164 B(  2-C ,  3-O ) :   0.9060
B(  2-C ,  4-C ) :   1.1161 B(  3-O ,  4-C ) :   0.2568 B(  4-C ,  5-H ) :   1.0589
B(  4-C ,  6-C ) :   1.4529 B(  6-C ,  7-H ) :   0.9316 B(  6-C ,  8-N ) :   0.9147
B(  8-N ,  9-H ) :   1.1912 B(  8-N , 10-C ) :   1.0651 B(  8-N , 11-O ) :   0.2225
B( 10-C , 11-O ) :   0.9536 B( 12-C , 13-H ) :   0.8226 B( 12-C , 14-H ) :   0.8488
B( 12-C , 15-C ) :   1.9853 B( 15-C , 16-H ) :   0.8096 B( 15-C , 17-H ) :   0.8622

MP2 TOTAL ENERGY:     -492.675271057 Eh
FINAL SINGLE POINT ENERGY      -492.675271057447

DIPOLE MOMENT
-------------
                                X             Y             Z
Electronic contribution:      0.32208      -2.10137      -7.06324
Nuclear contribution   :      0.19329       4.00526       7.09664
                        -----------------------------------------
Total Dipole Moment    :      0.51537       1.90389       0.03340
                        -----------------------------------------
Magnitude (a.u.)       :      1.97269
Magnitude (Debye)      :      5.01418

Rotational constants in cm-1:     0.047657     0.041586     0.034040
Rotational constants in MHz :  1428.712291  1246.710513  1020.495935

                             ****ORCA TERMINATED NORMALLY****
TOTAL RUN TIME: 0 days 4 hours 0 minutes 33 seconds 85 msec
