                         Program Version 5.0.4 -  RELEASE  -
|  1> ! ri-mp2 aug-cc-pvdz aug-cc-pvdz/c tightscf
|  2> %pal nprocs 16 end
|  3> %maxcore 3800
|  4> %base "DZ_S66by10_17_1.25_dimer"
|  5> %scf STABPerform true end
|  6>
|  7> *xyz 0 1
|  8> N   -0.72999913    0.02276763    0.00091465
|  9> H    0.29842255    0.07400447    0.00162304
| 10> C   -1.29682453   -1.24042682    0.00150234
| 11> O   -0.59409886   -2.25351751    0.00263371
| 12> C   -2.74362229   -1.26233170    0.00047938
| 13> H   -3.24959045   -2.21183517    0.00083311
| 14> C   -3.42201997   -0.09590921   -0.00092259
| 15> H   -4.50089709   -0.04921603   -0.00174546
| 16> N   -2.77483684    1.10540895   -0.00141807
| 17> H   -3.28383807    1.97387739   -0.00248574
| 18> C   -1.39147866    1.23701978   -0.00052538
| 19> O   -0.83984371    2.31703528   -0.00100125
| 20> N    4.59609199   -1.10927164    0.00050160
| 21> H    5.04333577   -0.20269844    0.00088841
| 22> C    5.45213976   -2.22388942   -0.00099828
| 23> O    6.66159178   -2.07218501   -0.00174748
| 24> C    4.73792133   -3.48606296   -0.00150267
| 25> H    5.30450587   -4.40109371   -0.00264131
| 26> C    3.38775235   -3.48988084   -0.00054258
| 27> H    2.81078911   -4.40284560   -0.00086126
| 28> N    2.64976094   -2.33900000    0.00090783
| 29> H    1.62342468   -2.36044279    0.00158490
| 30> C    3.22253188   -1.09433496    0.00145848
| 31> O    2.57221099   -0.05311665    0.00269487
| 32> *
| 33>
| 34> $new_job
| 35> ! ri-mp2 aug-cc-pvtz aug-cc-pvtz/c tightscf
| 36> %pal nprocs 16 end
| 37> %maxcore 3800
| 38> %base "TZ_S66by10_17_1.25_dimer"
| 39>
| 40> *xyz 0 1
| 41> N   -0.72999913    0.02276763    0.00091465
| 42> H    0.29842255    0.07400447    0.00162304
| 43> C   -1.29682453   -1.24042682    0.00150234
| 44> O   -0.59409886   -2.25351751    0.00263371
| 45> C   -2.74362229   -1.26233170    0.00047938
| 46> H   -3.24959045   -2.21183517    0.00083311
| 47> C   -3.42201997   -0.09590921   -0.00092259
| 48> H   -4.50089709   -0.04921603   -0.00174546
| 49> N   -2.77483684    1.10540895   -0.00141807
| 50> H   -3.28383807    1.97387739   -0.00248574
| 51> C   -1.39147866    1.23701978   -0.00052538
| 52> O   -0.83984371    2.31703528   -0.00100125
| 53> N    4.59609199   -1.10927164    0.00050160
| 54> H    5.04333577   -0.20269844    0.00088841
| 55> C    5.45213976   -2.22388942   -0.00099828
| 56> O    6.66159178   -2.07218501   -0.00174748
| 57> C    4.73792133   -3.48606296   -0.00150267
| 58> H    5.30450587   -4.40109371   -0.00264131
| 59> C    3.38775235   -3.48988084   -0.00054258
| 60> H    2.81078911   -4.40284560   -0.00086126
| 61> N    2.64976094   -2.33900000    0.00090783
| 62> H    1.62342468   -2.36044279    0.00158490
| 63> C    3.22253188   -1.09433496    0.00145848
| 64> O    2.57221099   -0.05311665    0.00269487
| 65> *
| 66>
| 67> $new_job
| 68> ! ri-mp2 aug-cc-pvqz aug-cc-pvqz/c tightscf
| 69> %pal nprocs 16 end
| 70> %maxcore 3800
| 71> %base "QZ_S66by10_17_1.25_dimer"
| 72>
| 73> *xyz 0 1
| 74> N   -0.72999913    0.02276763    0.00091465
| 75> H    0.29842255    0.07400447    0.00162304
| 76> C   -1.29682453   -1.24042682    0.00150234
| 77> O   -0.59409886   -2.25351751    0.00263371
| 78> C   -2.74362229   -1.26233170    0.00047938
| 79> H   -3.24959045   -2.21183517    0.00083311
| 80> C   -3.42201997   -0.09590921   -0.00092259
| 81> H   -4.50089709   -0.04921603   -0.00174546
| 82> N   -2.77483684    1.10540895   -0.00141807
| 83> H   -3.28383807    1.97387739   -0.00248574
| 84> C   -1.39147866    1.23701978   -0.00052538
| 85> O   -0.83984371    2.31703528   -0.00100125
| 86> N    4.59609199   -1.10927164    0.00050160
| 87> H    5.04333577   -0.20269844    0.00088841
| 88> C    5.45213976   -2.22388942   -0.00099828
| 89> O    6.66159178   -2.07218501   -0.00174748
| 90> C    4.73792133   -3.48606296   -0.00150267
| 91> H    5.30450587   -4.40109371   -0.00264131
| 92> C    3.38775235   -3.48988084   -0.00054258
| 93> H    2.81078911   -4.40284560   -0.00086126
| 94> N    2.64976094   -2.33900000    0.00090783
| 95> H    1.62342468   -2.36044279    0.00158490
| 96> C    3.22253188   -1.09433496    0.00145848
| 97> O    2.57221099   -0.05311665    0.00269487
| 98> *
| 99>
|100>
|101>
|102>
|103>                          ****END OF INPUT****
 Total Charge           Charge          ....    0
 Multiplicity           Mult            ....    1
 Number of Electrons    NEL             ....  116
MP2 TOTAL ENERGY:     -827.576902660 Eh
FINAL SINGLE POINT ENERGY      -827.576902659838
MP2 TOTAL ENERGY:     -828.271114774 Eh
FINAL SINGLE POINT ENERGY      -828.271114774150

CARTESIAN COORDINATES (ANGSTROEM)
---------------------------------
  N     -0.729999    0.022768    0.000915
  H      0.298423    0.074004    0.001623
  C     -1.296825   -1.240427    0.001502
  O     -0.594099   -2.253518    0.002634
  C     -2.743622   -1.262332    0.000479
  H     -3.249590   -2.211835    0.000833
  C     -3.422020   -0.095909   -0.000923
  H     -4.500897   -0.049216   -0.001745
  N     -2.774837    1.105409   -0.001418
  H     -3.283838    1.973877   -0.002486
  C     -1.391479    1.237020   -0.000525
  O     -0.839844    2.317035   -0.001001
  N      4.596092   -1.109272    0.000502
  H      5.043336   -0.202698    0.000888
  C      5.452140   -2.223889   -0.000998
  O      6.661592   -2.072185   -0.001747
  C      4.737921   -3.486063   -0.001503
  H      5.304506   -4.401094   -0.002641
  C      3.387752   -3.489881   -0.000543
  H      2.810789   -4.402846   -0.000861
  N      2.649761   -2.339000    0.000908
  H      1.623425   -2.360443    0.001585
  C      3.222532   -1.094335    0.001458
  O      2.572211   -0.053117    0.002695

 Multiplicity           Mult            ....    1
 Number of Electrons    NEL             ....  116
 Basis Dimension        Dim             .... 1648

ORBITAL ENERGIES
----------------

  NO   OCC          E(Eh)            E(eV)
   0   2.0000     -20.547748      -559.1327
   1   2.0000     -20.545033      -559.0588
   2   2.0000     -20.539414      -558.9059
   3   2.0000     -20.532633      -558.7214
   4   2.0000     -15.645924      -425.7472
   5   2.0000     -15.630633      -425.3311
   6   2.0000     -15.628195      -425.2648
   7   2.0000     -15.620005      -425.0419
   8   2.0000     -11.419037      -310.7278
   9   2.0000     -11.412260      -310.5434
  10   2.0000     -11.388922      -309.9083
  11   2.0000     -11.373082      -309.4773
  12   2.0000     -11.345224      -308.7192
  13   2.0000     -11.330434      -308.3168
  14   2.0000     -11.257561      -306.3338
  15   2.0000     -11.245941      -306.0176
  16   2.0000      -1.437641       -39.1202
  17   2.0000      -1.428063       -38.8596
  18   2.0000      -1.401379       -38.1335
  19   2.0000      -1.390406       -37.8349
  20   2.0000      -1.316269       -35.8175
  21   2.0000      -1.304303       -35.4919
  22   2.0000      -1.249585       -34.0029
  23   2.0000      -1.238411       -33.6989
  24   2.0000      -1.092095       -29.7174
  25   2.0000      -1.079649       -29.3787
  26   2.0000      -0.936952       -25.4958
  27   2.0000      -0.926722       -25.2174
  28   2.0000      -0.906457       -24.6659
  29   2.0000      -0.893033       -24.3007
  30   2.0000      -0.809646       -22.0316
  31   2.0000      -0.796807       -21.6822
  32   2.0000      -0.770501       -20.9664
  33   2.0000      -0.758357       -20.6359
  34   2.0000      -0.718560       -19.5530
  35   2.0000      -0.706639       -19.2286
  36   2.0000      -0.685928       -18.6651
  37   2.0000      -0.671917       -18.2838
  38   2.0000      -0.669611       -18.2210
  39   2.0000      -0.662860       -18.0373
  40   2.0000      -0.654840       -17.8191
  41   2.0000      -0.646557       -17.5937
  42   2.0000      -0.620522       -16.8853
  43   2.0000      -0.606745       -16.5104
  44   2.0000      -0.605174       -16.4676
  45   2.0000      -0.593962       -16.1625
  46   2.0000      -0.577915       -15.7259
  47   2.0000      -0.564147       -15.3512
  48   2.0000      -0.528895       -14.3920
  49   2.0000      -0.516546       -14.0559
  50   2.0000      -0.488423       -13.2907
  51   2.0000      -0.478264       -13.0142
  52   2.0000      -0.459323       -12.4988
  53   2.0000      -0.443482       -12.0678
  54   2.0000      -0.441518       -12.0143
  55   2.0000      -0.432797       -11.7770
  56   2.0000      -0.373297       -10.1579
  57   2.0000      -0.360883        -9.8201
  58   0.0000       0.009344         0.2543
  59   0.0000       0.021602         0.5878
  60   0.0000       0.028608         0.7785
  61   0.0000       0.036037         0.9806
  62   0.0000       0.039999         1.0884

MULLIKEN ATOMIC CHARGES
-----------------------
   0 N :   -0.651114
   1 H :    0.195615
   2 C :    1.163766
   3 O :   -0.910479
   4 C :   -0.447189
   5 H :    0.280817
   6 C :   -0.101984
   7 H :    0.433159
   8 N :   -0.715533
   9 H :    0.092462
  10 C :    1.432455
  11 O :   -0.758046
  12 N :   -0.684378
  13 H :    0.142319
  14 C :    1.097576
  15 O :   -0.818012
  16 C :   -0.382037
  17 H :    0.303536
  18 C :   -0.300097
  19 H :    0.350663
  20 N :   -0.487522
  21 H :    0.191761
  22 C :    1.420392
  23 O :   -0.848132
Sum of atomic charges:    0.0000000

LOEWDIN ATOMIC CHARGES
----------------------
   0 N :    0.781807
   1 H :   -0.598614
   2 C :   -0.849887
   3 O :    0.724287
   4 C :    0.332067
   5 H :   -0.354698
   6 C :    0.237153
   7 H :   -0.295484
   8 N :    0.812552
   9 H :   -0.492589
  10 C :   -0.973802
  11 O :    0.700097
  12 N :    0.779579
  13 H :   -0.518446
  14 C :   -0.863857
  15 O :    0.679778
  16 C :    0.334932
  17 H :   -0.355545
  18 C :    0.238972
  19 H :   -0.295579
  20 N :    0.809020
  21 H :   -0.591097
  22 C :   -0.971440
  23 O :    0.730795

  Mayer bond orders larger than 0.100000
B(  0-N ,  1-H ) :   1.0500 B(  0-N ,  2-C ) :   0.9457 B(  0-N ,  3-O ) :   0.1776
B(  0-N , 10-C ) :   1.1495 B(  0-N , 11-O ) :   0.2574 B(  2-C ,  3-O ) :   1.2455
B(  2-C ,  4-C ) :   0.9397 B(  2-C ,  6-C ) :  -0.2559 B(  3-O ,  4-C ) :   0.1992
B(  4-C ,  5-H ) :   1.0061 B(  4-C ,  6-C ) :   1.5154 B(  4-C ,  7-H ) :  -0.1175
B(  6-C ,  7-H ) :   0.9286 B(  6-C ,  8-N ) :   0.9212 B(  8-N ,  9-H ) :   1.2098
B(  8-N , 10-C ) :   1.0692 B(  8-N , 11-O ) :   0.1777 B( 10-C , 11-O ) :   1.0814
B( 12-N , 13-H ) :   1.1695 B( 12-N , 14-C ) :   1.0440 B( 12-N , 15-O ) :   0.1510
B( 12-N , 22-C ) :   0.9657 B( 13-H , 22-C ) :  -0.1001 B( 14-C , 15-O ) :   1.0549
B( 14-C , 16-C ) :   1.1736 B( 14-C , 18-C ) :  -0.1074 B( 15-O , 16-C ) :   0.2682
B( 16-C , 17-H ) :   0.9925 B( 16-C , 18-C ) :   1.4461 B( 17-H , 18-C ) :  -0.1285
B( 18-C , 19-H ) :   0.9771 B( 18-C , 20-N ) :   0.9524 B( 20-N , 21-H ) :   1.0831
B( 20-N , 22-C ) :   1.0909 B( 20-N , 23-O ) :   0.1505 B( 22-C , 23-O ) :   1.3203

MP2 TOTAL ENERGY:     -828.500647338 Eh
FINAL SINGLE POINT ENERGY      -828.500647337561

DIPOLE MOMENT
-------------
                                X             Y             Z
Electronic contribution:      2.09072       2.69224       0.00208
Nuclear contribution   :     -5.43260      -3.55860      -0.00389
                        -----------------------------------------
Total Dipole Moment    :     -3.34189      -0.86636      -0.00182
                        -----------------------------------------
Magnitude (a.u.)       :      3.45236
Magnitude (Debye)      :      8.77520

Rotational constants in cm-1:     0.046489     0.006687     0.005846
Rotational constants in MHz :  1393.711177   200.483775   175.271265

                             ****ORCA TERMINATED NORMALLY****
TOTAL RUN TIME: 0 days 8 hours 25 minutes 56 seconds 588 msec
