                         Program Version 5.0.4 -  RELEASE  -
|  1> ! ri-mp2 aug-cc-pvdz aug-cc-pvdz/c tightscf
|  2> %pal nprocs 16 end
|  3> %maxcore 3800
|  4> %base "DZ_S66by10_64_1.05_dimer"
|  5> %scf STABPerform true end
|  6>
|  7> *xyz 0 1
|  8> C    1.62971482    0.50301252    0.27011189
|  9> H    1.64157338    1.45923792   -0.24808286
| 10> H    2.31531919   -0.18355470   -0.21758635
| 11> H    1.96974564    0.64936024    1.29398105
| 12> C    0.26182776   -0.13286122    0.31456221
| 13> O    0.09925265   -1.30961602    0.61183995
| 14> N   -0.77350225    0.70251214    0.02207590
| 15> H   -0.56901138    1.66655677   -0.16581434
| 16> C   -2.15001214    0.26596865    0.09505328
| 17> H   -2.14473761   -0.81940745    0.10091210
| 18> H   -2.64054318    0.61582035    1.00360442
| 19> H   -2.70774393    0.62075110   -0.76826057
| 20> C   -0.01978666    0.51639247    3.94794474
| 21> H   -0.02466823    1.25856628    4.73382731
| 22> H   -0.66831942    0.68416111    3.09926118
| 23> C    0.74872364   -0.57056946    4.01775435
| 24> H    1.39402860   -0.74239510    4.86788222
| 25> H    0.74361165   -1.30576958    3.22544507
| 26> *
| 27>
| 28> $new_job
| 29> ! ri-mp2 aug-cc-pvtz aug-cc-pvtz/c tightscf
| 30> %pal nprocs 16 end
| 31> %maxcore 3800
| 32> %base "TZ_S66by10_64_1.05_dimer"
| 33>
| 34> *xyz 0 1
| 35> C    1.62971482    0.50301252    0.27011189
| 36> H    1.64157338    1.45923792   -0.24808286
| 37> H    2.31531919   -0.18355470   -0.21758635
| 38> H    1.96974564    0.64936024    1.29398105
| 39> C    0.26182776   -0.13286122    0.31456221
| 40> O    0.09925265   -1.30961602    0.61183995
| 41> N   -0.77350225    0.70251214    0.02207590
| 42> H   -0.56901138    1.66655677   -0.16581434
| 43> C   -2.15001214    0.26596865    0.09505328
| 44> H   -2.14473761   -0.81940745    0.10091210
| 45> H   -2.64054318    0.61582035    1.00360442
| 46> H   -2.70774393    0.62075110   -0.76826057
| 47> C   -0.01978666    0.51639247    3.94794474
| 48> H   -0.02466823    1.25856628    4.73382731
| 49> H   -0.66831942    0.68416111    3.09926118
| 50> C    0.74872364   -0.57056946    4.01775435
| 51> H    1.39402860   -0.74239510    4.86788222
| 52> H    0.74361165   -1.30576958    3.22544507
| 53> *
| 54>
| 55> $new_job
| 56> ! ri-mp2 aug-cc-pvqz aug-cc-pvqz/c tightscf
| 57> %pal nprocs 16 end
| 58> %maxcore 3800
| 59> %base "QZ_S66by10_64_1.05_dimer"
| 60>
| 61> *xyz 0 1
| 62> C    1.62971482    0.50301252    0.27011189
| 63> H    1.64157338    1.45923792   -0.24808286
| 64> H    2.31531919   -0.18355470   -0.21758635
| 65> H    1.96974564    0.64936024    1.29398105
| 66> C    0.26182776   -0.13286122    0.31456221
| 67> O    0.09925265   -1.30961602    0.61183995
| 68> N   -0.77350225    0.70251214    0.02207590
| 69> H   -0.56901138    1.66655677   -0.16581434
| 70> C   -2.15001214    0.26596865    0.09505328
| 71> H   -2.14473761   -0.81940745    0.10091210
| 72> H   -2.64054318    0.61582035    1.00360442
| 73> H   -2.70774393    0.62075110   -0.76826057
| 74> C   -0.01978666    0.51639247    3.94794474
| 75> H   -0.02466823    1.25856628    4.73382731
| 76> H   -0.66831942    0.68416111    3.09926118
| 77> C    0.74872364   -0.57056946    4.01775435
| 78> H    1.39402860   -0.74239510    4.86788222
| 79> H    0.74361165   -1.30576958    3.22544507
| 80> *
| 81>
| 82>
| 83>
| 84>
| 85>                          ****END OF INPUT****
 Total Charge           Charge          ....    0
 Multiplicity           Mult            ....    1
 Number of Electrons    NEL             ....   56
MP2 TOTAL ENERGY:     -326.181104424 Eh
FINAL SINGLE POINT ENERGY      -326.181104424390
MP2 TOTAL ENERGY:     -326.480417096 Eh
FINAL SINGLE POINT ENERGY      -326.480417095874

CARTESIAN COORDINATES (ANGSTROEM)
---------------------------------
  C      1.629715    0.503013    0.270112
  H      1.641573    1.459238   -0.248083
  H      2.315319   -0.183555   -0.217586
  H      1.969746    0.649360    1.293981
  C      0.261828   -0.132861    0.314562
  O      0.099253   -1.309616    0.611840
  N     -0.773502    0.702512    0.022076
  H     -0.569011    1.666557   -0.165814
  C     -2.150012    0.265969    0.095053
  H     -2.144738   -0.819407    0.100912
  H     -2.640543    0.615820    1.003604
  H     -2.707744    0.620751   -0.768261
  C     -0.019787    0.516392    3.947945
  H     -0.024668    1.258566    4.733827
  H     -0.668319    0.684161    3.099261
  C      0.748724   -0.570569    4.017754
  H      1.394029   -0.742395    4.867882
  H      0.743612   -1.305770    3.225445

 Multiplicity           Mult            ....    1
 Number of Electrons    NEL             ....   56
 Basis Dimension        Dim             .... 1066

ORBITAL ENERGIES
----------------

  NO   OCC          E(Eh)            E(eV)
   0   2.0000     -20.510204      -558.1110
   1   2.0000     -15.585484      -424.1026
   2   2.0000     -11.347445      -308.7797
   3   2.0000     -11.256679      -306.3098
   4   2.0000     -11.231813      -305.6332
   5   2.0000     -11.222059      -305.3678
   6   2.0000     -11.219786      -305.3059
   7   2.0000      -1.375284       -37.4234
   8   2.0000      -1.231065       -33.4990
   9   2.0000      -1.027012       -27.9464
  10   2.0000      -1.018491       -27.7146
  11   2.0000      -0.932634       -25.3782
  12   2.0000      -0.790935       -21.5224
  13   2.0000      -0.784874       -21.3575
  14   2.0000      -0.690997       -18.8030
  15   2.0000      -0.653693       -17.7879
  16   2.0000      -0.644926       -17.5493
  17   2.0000      -0.628225       -17.0949
  18   2.0000      -0.587559       -15.9883
  19   2.0000      -0.582304       -15.8453
  20   2.0000      -0.577944       -15.7266
  21   2.0000      -0.555255       -15.1093
  22   2.0000      -0.545782       -14.8515
  23   2.0000      -0.505808       -13.7637
  24   2.0000      -0.500340       -13.6149
  25   2.0000      -0.422759       -11.5039
  26   2.0000      -0.393747       -10.7144
  27   2.0000      -0.370189       -10.0733
  28   0.0000       0.019761         0.5377
  29   0.0000       0.030824         0.8388
  30   0.0000       0.031918         0.8685
  31   0.0000       0.035559         0.9676
  32   0.0000       0.044121         1.2006

MULLIKEN ATOMIC CHARGES
-----------------------
   0 C :   -0.781842
   1 H :    0.240052
   2 H :    0.293198
   3 H :    0.336734
   4 C :    1.057786
   5 O :   -0.946990
   6 N :   -0.553900
   7 H :    0.257500
   8 C :   -0.818532
   9 H :    0.300444
  10 H :    0.280999
  11 H :    0.349487
  12 C :   -1.013052
  13 H :    0.414918
  14 H :    0.536208
  15 C :   -0.954336
  16 H :    0.461918
  17 H :    0.539406
Sum of atomic charges:    0.0000000

LOEWDIN ATOMIC CHARGES
----------------------
   0 C :    0.888050
   1 H :   -0.308174
   2 H :   -0.302096
   3 H :   -0.306008
   4 C :   -0.858539
   5 O :    0.715254
   6 N :    0.823982
   7 H :   -0.504597
   8 C :    0.782114
   9 H :   -0.355481
  10 H :   -0.284143
  11 H :   -0.288051
  12 C :    0.752493
  13 H :   -0.367270
  14 H :   -0.387152
  15 C :    0.756517
  16 H :   -0.364706
  17 H :   -0.392195

  Mayer bond orders larger than 0.100000
B(  0-C ,  1-H ) :   1.0139 B(  0-C ,  2-H ) :   0.9663 B(  0-C ,  3-H ) :   0.8562
B(  0-C ,  4-C ) :   0.8454 B(  4-C ,  5-O ) :   1.0864 B(  4-C ,  6-N ) :   1.1091
B(  5-O ,  6-N ) :   0.1599 B(  6-N ,  7-H ) :   0.9583 B(  6-N ,  8-C ) :   0.8322
B(  8-C ,  9-H ) :   0.9373 B(  8-C , 10-H ) :   0.9404 B(  8-C , 11-H ) :   0.9064
B( 12-C , 13-H ) :   0.8731 B( 12-C , 14-H ) :   0.6659 B( 12-C , 15-C ) :   1.9504
B( 15-C , 16-H ) :   0.8230 B( 15-C , 17-H ) :   0.6564

MP2 TOTAL ENERGY:     -326.574392019 Eh
FINAL SINGLE POINT ENERGY      -326.574392019098

DIPOLE MOMENT
-------------
                                X             Y             Z
Electronic contribution:      0.13350      -2.17941      -2.90872
Nuclear contribution   :     -0.21207       3.66575       2.49625
                        -----------------------------------------
Total Dipole Moment    :     -0.07858       1.48634      -0.41248
                        -----------------------------------------
Magnitude (a.u.)       :      1.54451
Magnitude (Debye)      :      3.92583

Rotational constants in cm-1:     0.095520     0.046573     0.039212
Rotational constants in MHz :  2863.614183  1396.238396  1175.556488

                             ****ORCA TERMINATED NORMALLY****
TOTAL RUN TIME: 0 days 2 hours 33 minutes 52 seconds 121 msec
