                         Program Version 5.0.4 -  RELEASE  -
|  1> ! ri-mp2 aug-cc-pvdz aug-cc-pvdz/c tightscf
|  2> %pal nprocs 16 end
|  3> %maxcore 3800
|  4> %base "DZ_S66by10_54_0.95_dimer"
|  5>
|  6> *xyz 0 1
|  7> C    0.78014717   -0.60991473   -1.20755689
|  8> H    0.89619160   -1.13763959   -2.14414463
|  9> C    0.47794275    0.75099363   -1.20789541
| 10> H    0.35696423    1.27816780   -2.14405407
| 11> C    0.32728928    1.43186787   -0.00000000
| 12> H    0.09146503    2.48713922    0.00000000
| 13> C    0.47794275    0.75099363    1.20789541
| 14> H    0.35696423    1.27816780    2.14405407
| 15> C    0.78014717   -0.60991473    1.20755689
| 16> H    0.89619160   -1.13763959    2.14414463
| 17> C    0.93164831   -1.28998134    0.00000000
| 18> H    1.16848573   -2.34521369   -0.00000000
| 19> O   -2.64407750   -0.25806557    0.00000000
| 20> H   -2.47927351   -1.20278709    0.00000000
| 21> H   -1.75677656    0.11352476    0.00000000
| 22> *
| 23>
| 24> $new_job
| 25> ! ri-mp2 aug-cc-pvtz aug-cc-pvtz/c tightscf
| 26> %pal nprocs 16 end
| 27> %maxcore 3800
| 28> %base "TZ_S66by10_54_0.95_dimer"
| 29>
| 30> *xyz 0 1
| 31> C    0.78014717   -0.60991473   -1.20755689
| 32> H    0.89619160   -1.13763959   -2.14414463
| 33> C    0.47794275    0.75099363   -1.20789541
| 34> H    0.35696423    1.27816780   -2.14405407
| 35> C    0.32728928    1.43186787   -0.00000000
| 36> H    0.09146503    2.48713922    0.00000000
| 37> C    0.47794275    0.75099363    1.20789541
| 38> H    0.35696423    1.27816780    2.14405407
| 39> C    0.78014717   -0.60991473    1.20755689
| 40> H    0.89619160   -1.13763959    2.14414463
| 41> C    0.93164831   -1.28998134    0.00000000
| 42> H    1.16848573   -2.34521369   -0.00000000
| 43> O   -2.64407750   -0.25806557    0.00000000
| 44> H   -2.47927351   -1.20278709    0.00000000
| 45> H   -1.75677656    0.11352476    0.00000000
| 46> *
| 47>
| 48> $new_job
| 49> ! ri-mp2 aug-cc-pvqz aug-cc-pvqz/c tightscf
| 50> %pal nprocs 16 end
| 51> %maxcore 3800
| 52> %base "QZ_S66by10_54_0.95_dimer"
| 53>
| 54> *xyz 0 1
| 55> C    0.78014717   -0.60991473   -1.20755689
| 56> H    0.89619160   -1.13763959   -2.14414463
| 57> C    0.47794275    0.75099363   -1.20789541
| 58> H    0.35696423    1.27816780   -2.14405407
| 59> C    0.32728928    1.43186787   -0.00000000
| 60> H    0.09146503    2.48713922    0.00000000
| 61> C    0.47794275    0.75099363    1.20789541
| 62> H    0.35696423    1.27816780    2.14405407
| 63> C    0.78014717   -0.60991473    1.20755689
| 64> H    0.89619160   -1.13763959    2.14414463
| 65> C    0.93164831   -1.28998134    0.00000000
| 66> H    1.16848573   -2.34521369   -0.00000000
| 67> O   -2.64407750   -0.25806557    0.00000000
| 68> H   -2.47927351   -1.20278709    0.00000000
| 69> H   -1.75677656    0.11352476    0.00000000
| 70> *
| 71>
| 72>
| 73>
| 74>
| 75>                          ****END OF INPUT****
 Total Charge           Charge          ....    0
 Multiplicity           Mult            ....    1
 Number of Electrons    NEL             ....   52
MP2 TOTAL ENERGY:     -307.806839541 Eh
FINAL SINGLE POINT ENERGY      -307.806839541329
MP2 TOTAL ENERGY:     -308.080281464 Eh
FINAL SINGLE POINT ENERGY      -308.080281464036

CARTESIAN COORDINATES (ANGSTROEM)
---------------------------------
  C      0.780147   -0.609915   -1.207557
  H      0.896192   -1.137640   -2.144145
  C      0.477943    0.750994   -1.207895
  H      0.356964    1.278168   -2.144054
  C      0.327289    1.431868   -0.000000
  H      0.091465    2.487139    0.000000
  C      0.477943    0.750994    1.207895
  H      0.356964    1.278168    2.144054
  C      0.780147   -0.609915    1.207557
  H      0.896192   -1.137640    2.144145
  C      0.931648   -1.289981    0.000000
  H      1.168486   -2.345214   -0.000000
  O     -2.644077   -0.258066    0.000000
  H     -2.479274   -1.202787    0.000000
  H     -1.756777    0.113525    0.000000

 Multiplicity           Mult            ....    1
 Number of Electrons    NEL             ....   52
 Basis Dimension        Dim             ....  928

ORBITAL ENERGIES
----------------

  NO   OCC          E(Eh)            E(eV)
   0   2.0000     -20.540686      -558.9405
   1   2.0000     -11.247357      -306.0561
   2   2.0000     -11.246727      -306.0390
   3   2.0000     -11.246626      -306.0362
   4   2.0000     -11.245471      -306.0048
   5   2.0000     -11.245380      -306.0023
   6   2.0000     -11.244770      -305.9858
   7   2.0000      -1.329364       -36.1738
   8   2.0000      -1.163443       -31.6589
   9   2.0000      -1.027350       -27.9556
  10   2.0000      -1.026935       -27.9443
  11   2.0000      -0.835931       -22.7469
  12   2.0000      -0.835800       -22.7433
  13   2.0000      -0.721746       -19.6397
  14   2.0000      -0.691650       -18.8207
  15   2.0000      -0.655255       -17.8304
  16   2.0000      -0.631119       -17.1736
  17   2.0000      -0.600045       -16.3280
  18   2.0000      -0.599859       -16.3230
  19   2.0000      -0.570176       -15.5153
  20   2.0000      -0.511648       -13.9227
  21   2.0000      -0.506538       -13.7836
  22   2.0000      -0.506393       -13.7796
  23   2.0000      -0.488485       -13.2924
  24   2.0000      -0.351535        -9.5657
  25   2.0000      -0.349627        -9.5138
  26   0.0000       0.022841         0.6215
  27   0.0000       0.028792         0.7835
  28   0.0000       0.028900         0.7864
  29   0.0000       0.040889         1.1126
  30   0.0000       0.041010         1.1159

MULLIKEN ATOMIC CHARGES
-----------------------
   0 C :   -0.336480
   1 H :    0.325526
   2 C :   -0.344575
   3 H :    0.306981
   4 C :   -0.190249
   5 H :    0.312504
   6 C :   -0.344575
   7 H :    0.306981
   8 C :   -0.336480
   9 H :    0.325526
  10 C :   -0.363853
  11 H :    0.300269
  12 O :   -0.683682
  13 H :    0.324578
  14 H :    0.397527
Sum of atomic charges:   -0.0000000

LOEWDIN ATOMIC CHARGES
----------------------
   0 C :    0.331338
   1 H :   -0.320461
   2 C :    0.329606
   3 H :   -0.316135
   4 C :    0.325054
   5 H :   -0.314412
   6 C :    0.329606
   7 H :   -0.316135
   8 C :    0.331338
   9 H :   -0.320461
  10 C :    0.329730
  11 H :   -0.322404
  12 O :    1.637930
  13 H :   -0.783918
  14 H :   -0.920677

  Mayer bond orders larger than 0.100000
B(  0-C ,  1-H ) :   1.0352 B(  0-C ,  2-C ) :   1.2098 B(  0-C ,  6-C ) :   0.1448
B(  0-C , 10-C ) :   1.1879 B(  2-C ,  3-H ) :   1.0647 B(  2-C ,  4-C ) :   1.1791
B(  2-C ,  8-C ) :   0.1448 B(  4-C ,  5-H ) :   1.0631 B(  4-C ,  6-C ) :   1.1791
B(  4-C , 10-C ) :   0.1377 B(  6-C ,  7-H ) :   1.0647 B(  6-C ,  8-C ) :   1.2098
B(  8-C ,  9-H ) :   1.0352 B(  8-C , 10-C ) :   1.1879 B( 10-C , 11-H ) :   1.0580
B( 12-O , 13-H ) :   0.9254 B( 12-O , 14-H ) :   0.8748

MP2 TOTAL ENERGY:     -308.167776113 Eh
FINAL SINGLE POINT ENERGY      -308.167776112810

DIPOLE MOMENT
-------------
                                X             Y             Z
Electronic contribution:      1.56517       0.33186       0.00000
Nuclear contribution   :     -0.68065      -0.65181      -0.00000
                        -----------------------------------------
Total Dipole Moment    :      0.88452      -0.31995       0.00000
                        -----------------------------------------
Magnitude (a.u.)       :      0.94061
Magnitude (Debye)      :      2.39084

Rotational constants in cm-1:     0.095841     0.069235     0.068858
Rotational constants in MHz :  2873.240506  2075.610169  2064.301181

                             ****ORCA TERMINATED NORMALLY****
TOTAL RUN TIME: 0 days 0 hours 21 minutes 22 seconds 130 msec
