                         Program Version 5.0.4 -  RELEASE  -
|  1> ! ri-mp2 aug-cc-pvdz aug-cc-pvdz/c tightscf
|  2> %pal nprocs 16 end
|  3> %maxcore 3800
|  4> %base "DZ_S66by10_45_1.0_dimer"
|  5> %scf STABPerform true end
|  6>
|  7> *xyz 0 1
|  8> C   -0.60618936    0.05587406    0.58900491
|  9> H   -1.66803667    0.05577624    0.58901162
| 10> C    0.60584873    0.05554087    0.58926624
| 11> H    1.66767817    0.05486328    0.58972794
| 12> C   -2.53040381   -0.34748862    4.22025252
| 13> H   -2.53877044   -1.00944216    3.35384193
| 14> H   -2.58232214   -0.97375784    5.11084329
| 15> H   -3.43281843    0.26141543    4.18749089
| 16> C   -1.26987168    0.50711209    4.23132179
| 17> H   -1.28652335    1.18011132    5.09173091
| 18> H   -1.24460469    1.14132810    3.34252568
| 19> C    0.00004694   -0.33121891    4.27177712
| 20> H    0.00004967   -0.94900856    5.17483852
| 21> H    0.00011403   -1.01951806    3.42253593
| 22> C    1.26994550    0.50715716    4.23140866
| 23> H    1.28657332    1.18012428    5.09182996
| 24> H    1.24480058    1.14132948    3.34260747
| 25> C    2.53046799   -0.34747942    4.22046225
| 26> H    2.53884775   -1.00946217    3.35408317
| 27> H    3.43284676    0.26145192    4.18773588
| 28> H    2.58228522   -0.97369416    5.11109579
| 29> *
| 30>
| 31> $new_job
| 32> ! ri-mp2 aug-cc-pvtz aug-cc-pvtz/c tightscf
| 33> %pal nprocs 16 end
| 34> %maxcore 3800
| 35> %base "TZ_S66by10_45_1.0_dimer"
| 36>
| 37> *xyz 0 1
| 38> C   -0.60618936    0.05587406    0.58900491
| 39> H   -1.66803667    0.05577624    0.58901162
| 40> C    0.60584873    0.05554087    0.58926624
| 41> H    1.66767817    0.05486328    0.58972794
| 42> C   -2.53040381   -0.34748862    4.22025252
| 43> H   -2.53877044   -1.00944216    3.35384193
| 44> H   -2.58232214   -0.97375784    5.11084329
| 45> H   -3.43281843    0.26141543    4.18749089
| 46> C   -1.26987168    0.50711209    4.23132179
| 47> H   -1.28652335    1.18011132    5.09173091
| 48> H   -1.24460469    1.14132810    3.34252568
| 49> C    0.00004694   -0.33121891    4.27177712
| 50> H    0.00004967   -0.94900856    5.17483852
| 51> H    0.00011403   -1.01951806    3.42253593
| 52> C    1.26994550    0.50715716    4.23140866
| 53> H    1.28657332    1.18012428    5.09182996
| 54> H    1.24480058    1.14132948    3.34260747
| 55> C    2.53046799   -0.34747942    4.22046225
| 56> H    2.53884775   -1.00946217    3.35408317
| 57> H    3.43284676    0.26145192    4.18773588
| 58> H    2.58228522   -0.97369416    5.11109579
| 59> *
| 60>
| 61> $new_job
| 62> ! ri-mp2 aug-cc-pvqz aug-cc-pvqz/c tightscf
| 63> %pal nprocs 16 end
| 64> %maxcore 3800
| 65> %base "QZ_S66by10_45_1.0_dimer"
| 66>
| 67> *xyz 0 1
| 68> C   -0.60618936    0.05587406    0.58900491
| 69> H   -1.66803667    0.05577624    0.58901162
| 70> C    0.60584873    0.05554087    0.58926624
| 71> H    1.66767817    0.05486328    0.58972794
| 72> C   -2.53040381   -0.34748862    4.22025252
| 73> H   -2.53877044   -1.00944216    3.35384193
| 74> H   -2.58232214   -0.97375784    5.11084329
| 75> H   -3.43281843    0.26141543    4.18749089
| 76> C   -1.26987168    0.50711209    4.23132179
| 77> H   -1.28652335    1.18011132    5.09173091
| 78> H   -1.24460469    1.14132810    3.34252568
| 79> C    0.00004694   -0.33121891    4.27177712
| 80> H    0.00004967   -0.94900856    5.17483852
| 81> H    0.00011403   -1.01951806    3.42253593
| 82> C    1.26994550    0.50715716    4.23140866
| 83> H    1.28657332    1.18012428    5.09182996
| 84> H    1.24480058    1.14132948    3.34260747
| 85> C    2.53046799   -0.34747942    4.22046225
| 86> H    2.53884775   -1.00946217    3.35408317
| 87> H    3.43284676    0.26145192    4.18773588
| 88> H    2.58228522   -0.97369416    5.11109579
| 89> *
| 90>
| 91>
| 92>
| 93>
| 94>                          ****END OF INPUT****
 Total Charge           Charge          ....    0
 Multiplicity           Mult            ....    1
 Number of Electrons    NEL             ....   56
MP2 TOTAL ENERGY:     -274.209667807 Eh
FINAL SINGLE POINT ENERGY      -274.209667807191
MP2 TOTAL ENERGY:     -274.478176590 Eh
FINAL SINGLE POINT ENERGY      -274.478176589839

CARTESIAN COORDINATES (ANGSTROEM)
---------------------------------
  C     -0.606189    0.055874    0.589005
  H     -1.668037    0.055776    0.589012
  C      0.605849    0.055541    0.589266
  H      1.667678    0.054863    0.589728
  C     -2.530404   -0.347489    4.220253
  H     -2.538770   -1.009442    3.353842
  H     -2.582322   -0.973758    5.110843
  H     -3.432818    0.261415    4.187491
  C     -1.269872    0.507112    4.231322
  H     -1.286523    1.180111    5.091731
  H     -1.244605    1.141328    3.342526
  C      0.000047   -0.331219    4.271777
  H      0.000050   -0.949009    5.174839
  H      0.000114   -1.019518    3.422536
  C      1.269945    0.507157    4.231409
  H      1.286573    1.180124    5.091830
  H      1.244801    1.141329    3.342607
  C      2.530468   -0.347479    4.220462
  H      2.538848   -1.009462    3.354083
  H      3.432847    0.261452    4.187736
  H      2.582285   -0.973694    5.111096

 Multiplicity           Mult            ....    1
 Number of Electrons    NEL             ....   56
 Basis Dimension        Dim             .... 1204

ORBITAL ENERGIES
----------------

  NO   OCC          E(Eh)            E(eV)
   0   2.0000     -11.246462      -306.0318
   1   2.0000     -11.242848      -305.9334
   2   2.0000     -11.207936      -304.9835
   3   2.0000     -11.207901      -304.9825
   4   2.0000     -11.205487      -304.9168
   5   2.0000     -11.205486      -304.9168
   6   2.0000     -11.203632      -304.8663
   7   2.0000      -1.078119       -29.3371
   8   2.0000      -1.029453       -28.0128
   9   2.0000      -1.013416       -27.5765
  10   2.0000      -0.916941       -24.9512
  11   2.0000      -0.817796       -22.2534
  12   2.0000      -0.781550       -21.2671
  13   2.0000      -0.771196       -20.9853
  14   2.0000      -0.683327       -18.5943
  15   2.0000      -0.644808       -17.5461
  16   2.0000      -0.596668       -16.2362
  17   2.0000      -0.591342       -16.0912
  18   2.0000      -0.551433       -15.0053
  19   2.0000      -0.546952       -14.8833
  20   2.0000      -0.524171       -14.2634
  21   2.0000      -0.492970       -13.4144
  22   2.0000      -0.474189       -12.9033
  23   2.0000      -0.459526       -12.5043
  24   2.0000      -0.456991       -12.4354
  25   2.0000      -0.444064       -12.0836
  26   2.0000      -0.409850       -11.1526
  27   2.0000      -0.409356       -11.1392
  28   0.0000       0.026566         0.7229
  29   0.0000       0.027203         0.7402
  30   0.0000       0.034113         0.9283
  31   0.0000       0.034443         0.9373
  32   0.0000       0.040107         1.0914

MULLIKEN ATOMIC CHARGES
-----------------------
   0 C :   -0.562921
   1 H :    0.553062
   2 C :   -0.562843
   3 H :    0.553043
   4 C :   -0.938254
   5 H :    0.231111
   6 H :    0.250442
   7 H :    0.252849
   8 C :   -0.522710
   9 H :    0.287970
  10 H :    0.257201
  11 C :   -0.203331
  12 H :    0.300014
  13 H :    0.285688
  14 C :   -0.522676
  15 H :    0.287980
  16 H :    0.257189
  17 C :   -0.938259
  18 H :    0.231149
  19 H :    0.252844
  20 H :    0.250451
Sum of atomic charges:   -0.0000000

LOEWDIN ATOMIC CHARGES
----------------------
   0 C :    0.502068
   1 H :   -0.452941
   2 C :    0.502058
   3 H :   -0.452959
   4 C :    0.923783
   5 H :   -0.291087
   6 H :   -0.284198
   7 H :   -0.282280
   8 C :    0.491718
   9 H :   -0.267830
  10 H :   -0.295110
  11 C :    0.474794
  12 H :   -0.264083
  13 H :   -0.298931
  14 C :    0.491731
  15 H :   -0.267832
  16 H :   -0.295116
  17 C :    0.923793
  18 H :   -0.291093
  19 H :   -0.282291
  20 H :   -0.284192

  Mayer bond orders larger than 0.100000
B(  0-C ,  1-H ) :   0.7081 B(  0-C ,  2-C ) :   2.5641 B(  2-C ,  3-H ) :   0.7082
B(  4-C ,  5-H ) :   0.9402 B(  4-C ,  6-H ) :   0.9619 B(  4-C ,  7-H ) :   1.0358
B(  4-C ,  8-C ) :   0.9858 B(  4-C , 11-C ) :  -0.1004 B(  8-C ,  9-H ) :   0.8695
B(  8-C , 10-H ) :   0.8759 B(  8-C , 11-C ) :   0.8096 B( 11-C , 12-H ) :   0.8751
B( 11-C , 13-H ) :   0.8665 B( 11-C , 14-C ) :   0.8096 B( 11-C , 17-C ) :  -0.1003
B( 14-C , 15-H ) :   0.8695 B( 14-C , 16-H ) :   0.8759 B( 14-C , 17-C ) :   0.9858
B( 17-C , 18-H ) :   0.9401 B( 17-C , 19-H ) :   1.0358 B( 17-C , 20-H ) :   0.9619

MP2 TOTAL ENERGY:     -274.557879249 Eh
FINAL SINGLE POINT ENERGY      -274.557879248571

DIPOLE MOMENT
-------------
                                X             Y             Z
Electronic contribution:     -0.00037       0.72359      -5.83890
Nuclear contribution   :      0.00035      -0.68885       5.81851
                        -----------------------------------------
Total Dipole Moment    :     -0.00002       0.03475      -0.02039
                        -----------------------------------------
Magnitude (a.u.)       :      0.04029
Magnitude (Debye)      :      0.10240

Rotational constants in cm-1:     0.059363     0.059044     0.032064
Rotational constants in MHz :  1779.644951  1770.100475   961.254021

                             ****ORCA TERMINATED NORMALLY****
TOTAL RUN TIME: 0 days 3 hours 41 minutes 13 seconds 695 msec
