                         Program Version 5.0.4 -  RELEASE  -
|  1> ! ri-mp2 aug-cc-pvdz aug-cc-pvdz/c tightscf
|  2> %pal nprocs 16 end
|  3> %maxcore 3800
|  4> %base "DZ_S66by10_10_0.7_dimer"
|  5> %scf STABPerform true end
|  6>
|  7> *xyz 0 1
|  8> N   -0.63864138    0.47091637    0.04456848
|  9> H    0.18995436   -0.11393716   -0.00577361
| 10> H   -1.30046894    0.08125680   -0.61366848
| 11> C   -1.19865882    0.39139858    1.39194660
| 12> H   -2.09273777    1.00924471    1.45316749
| 13> H   -1.46274551   -0.61584367    1.72945219
| 14> H   -0.48027554    0.79867491    2.10108731
| 15> N    1.75870866   -0.35652481    0.13826468
| 16> H    2.05497733   -0.08198708   -0.78972056
| 17> H    2.38225832   -1.10421513    0.41345954
| 18> C    1.91893863    0.77868578    1.05193999
| 19> H    1.64874833    0.46399000    2.05759309
| 20> H    2.92634894    1.20046234    1.08891172
| 21> H    1.22639825    1.56446126    0.75928274
| 22> *
| 23>
| 24> $new_job
| 25> ! ri-mp2 aug-cc-pvtz aug-cc-pvtz/c tightscf
| 26> %pal nprocs 16 end
| 27> %maxcore 3800
| 28> %base "TZ_S66by10_10_0.7_dimer"
| 29>
| 30> *xyz 0 1
| 31> N   -0.63864138    0.47091637    0.04456848
| 32> H    0.18995436   -0.11393716   -0.00577361
| 33> H   -1.30046894    0.08125680   -0.61366848
| 34> C   -1.19865882    0.39139858    1.39194660
| 35> H   -2.09273777    1.00924471    1.45316749
| 36> H   -1.46274551   -0.61584367    1.72945219
| 37> H   -0.48027554    0.79867491    2.10108731
| 38> N    1.75870866   -0.35652481    0.13826468
| 39> H    2.05497733   -0.08198708   -0.78972056
| 40> H    2.38225832   -1.10421513    0.41345954
| 41> C    1.91893863    0.77868578    1.05193999
| 42> H    1.64874833    0.46399000    2.05759309
| 43> H    2.92634894    1.20046234    1.08891172
| 44> H    1.22639825    1.56446126    0.75928274
| 45> *
| 46>
| 47> $new_job
| 48> ! ri-mp2 aug-cc-pvqz aug-cc-pvqz/c tightscf
| 49> %pal nprocs 16 end
| 50> %maxcore 3800
| 51> %base "QZ_S66by10_10_0.7_dimer"
| 52>
| 53> *xyz 0 1
| 54> N   -0.63864138    0.47091637    0.04456848
| 55> H    0.18995436   -0.11393716   -0.00577361
| 56> H   -1.30046894    0.08125680   -0.61366848
| 57> C   -1.19865882    0.39139858    1.39194660
| 58> H   -2.09273777    1.00924471    1.45316749
| 59> H   -1.46274551   -0.61584367    1.72945219
| 60> H   -0.48027554    0.79867491    2.10108731
| 61> N    1.75870866   -0.35652481    0.13826468
| 62> H    2.05497733   -0.08198708   -0.78972056
| 63> H    2.38225832   -1.10421513    0.41345954
| 64> C    1.91893863    0.77868578    1.05193999
| 65> H    1.64874833    0.46399000    2.05759309
| 66> H    2.92634894    1.20046234    1.08891172
| 67> H    1.22639825    1.56446126    0.75928274
| 68> *
| 69>
| 70>
| 71>
| 72>
| 73>                          ****END OF INPUT****
 Total Charge           Charge          ....    0
 Multiplicity           Mult            ....    1
 Number of Electrons    NEL             ....   36
MP2 TOTAL ENERGY:     -191.137193355 Eh
FINAL SINGLE POINT ENERGY      -191.137193355192
MP2 TOTAL ENERGY:     -191.325164292 Eh
FINAL SINGLE POINT ENERGY      -191.325164291540

CARTESIAN COORDINATES (ANGSTROEM)
---------------------------------
  N     -0.638641    0.470916    0.044568
  H      0.189954   -0.113937   -0.005774
  H     -1.300469    0.081257   -0.613668
  C     -1.198659    0.391399    1.391947
  H     -2.092738    1.009245    1.453167
  H     -1.462746   -0.615844    1.729452
  H     -0.480276    0.798675    2.101087
  N      1.758709   -0.356525    0.138265
  H      2.054977   -0.081987   -0.789721
  H      2.382258   -1.104215    0.413460
  C      1.918939    0.778686    1.051940
  H      1.648748    0.463990    2.057593
  H      2.926349    1.200462    1.088912
  H      1.226398    1.564461    0.759283

 Multiplicity           Mult            ....    1
 Number of Electrons    NEL             ....   36
 Basis Dimension        Dim             ....  780

ORBITAL ENERGIES
----------------

  NO   OCC          E(Eh)            E(eV)
   0   2.0000     -15.551454      -423.1766
   1   2.0000     -15.488987      -421.4768
   2   2.0000     -11.239301      -305.8369
   3   2.0000     -11.217983      -305.2568
   4   2.0000      -1.197057       -32.5736
   5   2.0000      -1.135331       -30.8939
   6   2.0000      -0.905687       -24.6450
   7   2.0000      -0.873247       -23.7623
   8   2.0000      -0.690173       -18.7806
   9   2.0000      -0.661627       -18.0038
  10   2.0000      -0.596107       -16.2209
  11   2.0000      -0.582450       -15.8493
  12   2.0000      -0.558112       -15.1870
  13   2.0000      -0.524095       -14.2613
  14   2.0000      -0.523231       -14.2378
  15   2.0000      -0.502395       -13.6709
  16   2.0000      -0.403738       -10.9863
  17   2.0000      -0.354585        -9.6487
  18   0.0000       0.023076         0.6279
  19   0.0000       0.034892         0.9495
  20   0.0000       0.035958         0.9785
  21   0.0000       0.037705         1.0260
  22   0.0000       0.051107         1.3907

MULLIKEN ATOMIC CHARGES
-----------------------
   0 N :   -0.583137
   1 H :    0.355632
   2 H :    0.103520
   3 C :   -0.806425
   4 H :    0.339981
   5 H :    0.266375
   6 H :    0.275093
   7 N :   -0.388249
   8 H :    0.200010
   9 H :    0.148840
  10 C :   -0.716447
  11 H :    0.221008
  12 H :    0.360620
  13 H :    0.223179
Sum of atomic charges:    0.0000000

LOEWDIN ATOMIC CHARGES
----------------------
   0 N :    1.254645
   1 H :   -0.907282
   2 H :   -0.486654
   3 C :    0.764245
   4 H :   -0.304077
   5 H :   -0.277390
   6 H :   -0.355926
   7 N :    1.306446
   8 H :   -0.437676
   9 H :   -0.445084
  10 C :    0.794604
  11 H :   -0.294843
  12 H :   -0.260497
  13 H :   -0.350512

  Mayer bond orders larger than 0.100000
B(  0-N ,  1-H ) :   0.7687 B(  0-N ,  2-H ) :   1.0461 B(  0-N ,  3-C ) :   0.9557
B(  3-C ,  4-H ) :   0.9119 B(  3-C ,  5-H ) :   0.9322 B(  3-C ,  6-H ) :   0.9086
B(  7-N ,  8-H ) :   0.9547 B(  7-N ,  9-H ) :   1.0271 B(  7-N , 10-C ) :   0.9893
B( 10-C , 11-H ) :   0.9612 B( 10-C , 12-H ) :   0.8461 B( 10-C , 13-H ) :   0.9700

MP2 TOTAL ENERGY:     -191.382440212 Eh
FINAL SINGLE POINT ENERGY      -191.382440212359

DIPOLE MOMENT
-------------
                                X             Y             Z
Electronic contribution:      0.44014      -0.60092      -1.58366
Nuclear contribution   :      0.32704       0.14927       1.61341
                        -----------------------------------------
Total Dipole Moment    :      0.76718      -0.45165       0.02975
                        -----------------------------------------
Magnitude (a.u.)       :      0.89075
Magnitude (Debye)      :      2.26411

Rotational constants in cm-1:     0.405462     0.119798     0.105086
Rotational constants in MHz : 12155.446928  3591.459108  3150.409707

                             ****ORCA TERMINATED NORMALLY****
TOTAL RUN TIME: 0 days 0 hours 34 minutes 16 seconds 517 msec
