                         Program Version 5.0.4 -  RELEASE  -
|  1> ! ri-mp2 aug-cc-pvdz aug-cc-pvdz/c tightscf
|  2> %pal nprocs 16 end
|  3> %maxcore 3800
|  4> %base "DZ_S66by10_43_0.7_dimer"
|  5> %scf STABPerform true end
|  6>
|  7> *xyz 0 1
|  8> N    0.62608128   -0.85091265    0.80591569
|  9> H    0.40918989   -1.81150056    1.03440142
| 10> C   -0.43245619   -0.08733581    0.29466376
| 11> O   -1.53077162   -0.58840313    0.12359257
| 12> C   -0.06687462    1.29127521    0.01963739
| 13> H   -0.80974352    1.95181039   -0.39283965
| 14> C    1.18354208    1.71793501    0.29053321
| 15> H    1.50185022    2.73387064    0.10983284
| 16> N    2.13412979    0.88660160    0.81908177
| 17> H    3.05533594    1.22390137    1.04342778
| 18> C    1.90278319   -0.44317844    1.12831175
| 19> O    2.74380631   -1.16392354    1.62858730
| 20> C   -0.32083062   -0.01177501    3.88374716
| 21> C   -1.63757681    0.72951379    4.09862006
| 22> H   -2.34464821    0.11130761    4.65348240
| 23> H   -1.47807725    1.64969834    4.66280508
| 24> H   -2.09528658    0.99101081    3.14346640
| 25> C    0.29460599   -0.36521293    5.23502460
| 26> H    1.23776816   -0.89758624    5.10424277
| 27> H    0.49162694    0.53452881    5.81982674
| 28> H   -0.37668803   -1.00294994    5.81176135
| 29> C    0.64429365    0.88170281    3.10795806
| 30> H    1.59286413    0.36910811    2.93760407
| 31> H    0.84958385    1.79983926    3.66138443
| 32> H    0.22189826    1.16018942    2.14049362
| 33> C   -0.58214782   -1.29180940    3.09338226
| 34> H   -1.04588622   -1.06997570    2.13075762
| 35> H    0.35042848   -1.83020832    2.91374558
| 36> H   -1.25265563   -1.95362336    3.64356718
| 37> *
| 38>
| 39> $new_job
| 40> ! ri-mp2 aug-cc-pvtz aug-cc-pvtz/c tightscf
| 41> %pal nprocs 16 end
| 42> %maxcore 3800
| 43> %base "TZ_S66by10_43_0.7_dimer"
| 44>
| 45> *xyz 0 1
| 46> N    0.62608128   -0.85091265    0.80591569
| 47> H    0.40918989   -1.81150056    1.03440142
| 48> C   -0.43245619   -0.08733581    0.29466376
| 49> O   -1.53077162   -0.58840313    0.12359257
| 50> C   -0.06687462    1.29127521    0.01963739
| 51> H   -0.80974352    1.95181039   -0.39283965
| 52> C    1.18354208    1.71793501    0.29053321
| 53> H    1.50185022    2.73387064    0.10983284
| 54> N    2.13412979    0.88660160    0.81908177
| 55> H    3.05533594    1.22390137    1.04342778
| 56> C    1.90278319   -0.44317844    1.12831175
| 57> O    2.74380631   -1.16392354    1.62858730
| 58> C   -0.32083062   -0.01177501    3.88374716
| 59> C   -1.63757681    0.72951379    4.09862006
| 60> H   -2.34464821    0.11130761    4.65348240
| 61> H   -1.47807725    1.64969834    4.66280508
| 62> H   -2.09528658    0.99101081    3.14346640
| 63> C    0.29460599   -0.36521293    5.23502460
| 64> H    1.23776816   -0.89758624    5.10424277
| 65> H    0.49162694    0.53452881    5.81982674
| 66> H   -0.37668803   -1.00294994    5.81176135
| 67> C    0.64429365    0.88170281    3.10795806
| 68> H    1.59286413    0.36910811    2.93760407
| 69> H    0.84958385    1.79983926    3.66138443
| 70> H    0.22189826    1.16018942    2.14049362
| 71> C   -0.58214782   -1.29180940    3.09338226
| 72> H   -1.04588622   -1.06997570    2.13075762
| 73> H    0.35042848   -1.83020832    2.91374558
| 74> H   -1.25265563   -1.95362336    3.64356718
| 75> *
| 76>
| 77> $new_job
| 78> ! ri-mp2 aug-cc-pvqz aug-cc-pvqz/c tightscf
| 79> %pal nprocs 16 end
| 80> %maxcore 3800
| 81> %base "QZ_S66by10_43_0.7_dimer"
| 82>
| 83> *xyz 0 1
| 84> N    0.62608128   -0.85091265    0.80591569
| 85> H    0.40918989   -1.81150056    1.03440142
| 86> C   -0.43245619   -0.08733581    0.29466376
| 87> O   -1.53077162   -0.58840313    0.12359257
| 88> C   -0.06687462    1.29127521    0.01963739
| 89> H   -0.80974352    1.95181039   -0.39283965
| 90> C    1.18354208    1.71793501    0.29053321
| 91> H    1.50185022    2.73387064    0.10983284
| 92> N    2.13412979    0.88660160    0.81908177
| 93> H    3.05533594    1.22390137    1.04342778
| 94> C    1.90278319   -0.44317844    1.12831175
| 95> O    2.74380631   -1.16392354    1.62858730
| 96> C   -0.32083062   -0.01177501    3.88374716
| 97> C   -1.63757681    0.72951379    4.09862006
| 98> H   -2.34464821    0.11130761    4.65348240
| 99> H   -1.47807725    1.64969834    4.66280508
|100> H   -2.09528658    0.99101081    3.14346640
|101> C    0.29460599   -0.36521293    5.23502460
|102> H    1.23776816   -0.89758624    5.10424277
|103> H    0.49162694    0.53452881    5.81982674
|104> H   -0.37668803   -1.00294994    5.81176135
|105> C    0.64429365    0.88170281    3.10795806
|106> H    1.59286413    0.36910811    2.93760407
|107> H    0.84958385    1.79983926    3.66138443
|108> H    0.22189826    1.16018942    2.14049362
|109> C   -0.58214782   -1.29180940    3.09338226
|110> H   -1.04588622   -1.06997570    2.13075762
|111> H    0.35042848   -1.83020832    2.91374558
|112> H   -1.25265563   -1.95362336    3.64356718
|113> *
|114>
|115>
|116>
|117>
|118>                          ****END OF INPUT****
 Total Charge           Charge          ....    0
 Multiplicity           Mult            ....    1
 Number of Electrons    NEL             ....  100
MP2 TOTAL ENERGY:     -610.874010584 Eh
FINAL SINGLE POINT ENERGY      -610.874010584384
MP2 TOTAL ENERGY:     -611.415384785 Eh
FINAL SINGLE POINT ENERGY      -611.415384784907

CARTESIAN COORDINATES (ANGSTROEM)
---------------------------------
  N      0.626081   -0.850913    0.805916
  H      0.409190   -1.811501    1.034401
  C     -0.432456   -0.087336    0.294664
  O     -1.530772   -0.588403    0.123593
  C     -0.066875    1.291275    0.019637
  H     -0.809744    1.951810   -0.392840
  C      1.183542    1.717935    0.290533
  H      1.501850    2.733871    0.109833
  N      2.134130    0.886602    0.819082
  H      3.055336    1.223901    1.043428
  C      1.902783   -0.443178    1.128312
  O      2.743806   -1.163924    1.628587
  C     -0.320831   -0.011775    3.883747
  C     -1.637577    0.729514    4.098620
  H     -2.344648    0.111308    4.653482
  H     -1.478077    1.649698    4.662805
  H     -2.095287    0.991011    3.143466
  C      0.294606   -0.365213    5.235025
  H      1.237768   -0.897586    5.104243
  H      0.491627    0.534529    5.819827
  H     -0.376688   -1.002950    5.811761
  C      0.644294    0.881703    3.107958
  H      1.592864    0.369108    2.937604
  H      0.849584    1.799839    3.661384
  H      0.221898    1.160189    2.140494
  C     -0.582148   -1.291809    3.093382
  H     -1.045886   -1.069976    2.130758
  H      0.350428   -1.830208    2.913746
  H     -1.252656   -1.953623    3.643567

 Multiplicity           Mult            ....    1
 Number of Electrons    NEL             ....  100
 Basis Dimension        Dim             .... 1776

ORBITAL ENERGIES
----------------

  NO   OCC          E(Eh)            E(eV)
   0   2.0000     -20.546645      -559.1026
   1   2.0000     -20.543249      -559.0102
   2   2.0000     -15.639630      -425.5760
   3   2.0000     -15.620141      -425.0457
   4   2.0000     -11.418761      -310.7203
   5   2.0000     -11.381468      -309.7055
   6   2.0000     -11.339664      -308.5679
   7   2.0000     -11.253822      -306.2321
   8   2.0000     -11.223103      -305.3962
   9   2.0000     -11.201908      -304.8194
  10   2.0000     -11.200857      -304.7908
  11   2.0000     -11.200553      -304.7825
  12   2.0000     -11.194798      -304.6259
  13   2.0000      -1.439895       -39.1815
  14   2.0000      -1.403442       -38.1896
  15   2.0000      -1.315762       -35.8037
  16   2.0000      -1.248344       -33.9692
  17   2.0000      -1.105478       -30.0816
  18   2.0000      -1.091679       -29.7061
  19   2.0000      -0.947512       -25.7831
  20   2.0000      -0.934277       -25.4230
  21   2.0000      -0.925822       -25.1929
  22   2.0000      -0.922770       -25.1099
  23   2.0000      -0.902517       -24.5587
  24   2.0000      -0.808861       -22.0102
  25   2.0000      -0.768499       -20.9119
  26   2.0000      -0.742793       -20.2124
  27   2.0000      -0.715379       -19.4665
  28   2.0000      -0.681312       -18.5394
  29   2.0000      -0.673120       -18.3165
  30   2.0000      -0.655939       -17.8490
  31   2.0000      -0.631639       -17.1878
  32   2.0000      -0.620028       -16.8718
  33   2.0000      -0.615998       -16.7622
  34   2.0000      -0.605182       -16.4678
  35   2.0000      -0.604764       -16.4565
  36   2.0000      -0.567632       -15.4461
  37   2.0000      -0.561816       -15.2878
  38   2.0000      -0.544640       -14.8204
  39   2.0000      -0.531780       -14.4705
  40   2.0000      -0.510779       -13.8990
  41   2.0000      -0.502584       -13.6760
  42   2.0000      -0.499281       -13.5861
  43   2.0000      -0.485775       -13.2186
  44   2.0000      -0.456965       -12.4347
  45   2.0000      -0.448624       -12.2077
  46   2.0000      -0.447662       -12.1815
  47   2.0000      -0.444267       -12.0891
  48   2.0000      -0.431453       -11.7404
  49   2.0000      -0.367674       -10.0049
  50   0.0000       0.011477         0.3123
  51   0.0000       0.027769         0.7556
  52   0.0000       0.028676         0.7803
  53   0.0000       0.032682         0.8893
  54   0.0000       0.040752         1.1089

MULLIKEN ATOMIC CHARGES
-----------------------
   0 N :   -0.631795
   1 H :   -0.028618
   2 C :    1.563926
   3 O :   -1.010394
   4 C :   -0.619370
   5 H :    0.233962
   6 C :   -0.204589
   7 H :    0.360553
   8 N :   -0.826490
   9 H :    0.018501
  10 C :    2.106478
  11 O :   -1.021679
  12 C :    1.774288
  13 C :   -1.119835
  14 H :    0.211812
  15 H :    0.202458
  16 H :    0.234057
  17 C :   -1.100407
  18 H :    0.187928
  19 H :    0.215563
  20 H :    0.216450
  21 C :   -1.105263
  22 H :    0.202898
  23 H :    0.093943
  24 H :    0.511900
  25 C :   -1.052504
  26 H :    0.297723
  27 H :    0.213053
  28 H :    0.075453
Sum of atomic charges:    0.0000000

LOEWDIN ATOMIC CHARGES
----------------------
   0 N :    0.813591
   1 H :   -0.558276
   2 C :   -0.810802
   3 O :    0.784951
   4 C :    0.367688
   5 H :   -0.325211
   6 C :    0.253916
   7 H :   -0.270277
   8 N :    0.841885
   9 H :   -0.453070
  10 C :   -0.997384
  11 O :    0.780840
  12 C :   -0.254891
  13 C :    0.923780
  14 H :   -0.266481
  15 H :   -0.268000
  16 H :   -0.265091
  17 C :    0.920977
  18 H :   -0.264530
  19 H :   -0.269779
  20 H :   -0.269664
  21 C :    0.859684
  22 H :   -0.431122
  23 H :   -0.219186
  24 H :   -0.485700
  25 C :    0.895626
  26 H :   -0.494014
  27 H :   -0.307414
  28 H :   -0.232045

  Mayer bond orders larger than 0.100000
B(  0-N ,  1-H ) :   1.1940 B(  0-N ,  2-C ) :   1.0646 B(  0-N ,  3-O ) :   0.2793
B(  0-N , 10-C ) :   1.1629 B(  0-N , 11-O ) :   0.4049 B(  1-H , 11-O ) :   0.1376
B(  2-C ,  3-O ) :   0.5813 B(  2-C ,  4-C ) :   1.1265 B(  3-O ,  4-C ) :   0.2677
B(  4-C ,  5-H ) :   1.0521 B(  4-C ,  6-C ) :   1.6748 B(  4-C , 24-H ) :  -0.1301
B(  6-C ,  7-H ) :   0.9891 B(  6-C ,  8-N ) :   1.0236 B(  6-C ,  9-H ) :  -0.1004
B(  6-C , 24-H ) :  -0.1484 B(  8-N ,  9-H ) :   1.2507 B(  8-N , 10-C ) :   0.9299
B(  8-N , 11-O ) :   0.3170 B(  8-N , 24-H ) :  -0.1023 B( 10-C , 11-O ) :   0.3106
B( 12-C , 13-C ) :   0.3245 B( 12-C , 14-H ) :  -0.1223 B( 12-C , 15-H ) :  -0.1162
B( 12-C , 16-H ) :  -0.1436 B( 12-C , 18-H ) :  -0.1975 B( 12-C , 19-H ) :  -0.1679
B( 12-C , 20-H ) :  -0.1607 B( 12-C , 21-C ) :   0.6141 B( 12-C , 25-C ) :   0.3202
B( 12-C , 27-H ) :  -0.1200 B( 13-C , 14-H ) :   1.0866 B( 13-C , 15-H ) :   1.0864
B( 13-C , 16-H ) :   1.0741 B( 13-C , 17-C ) :   0.1580 B( 17-C , 18-H ) :   1.1522
B( 17-C , 19-H ) :   1.0948 B( 17-C , 20-H ) :   1.0986 B( 21-C , 22-H ) :   0.9794
B( 21-C , 23-H ) :   1.1832 B( 21-C , 24-H ) :   0.9123 B( 21-C , 25-C ) :   0.1282
B( 25-C , 26-H ) :   0.9574 B( 25-C , 27-H ) :   1.0340 B( 25-C , 28-H ) :   1.2144

MP2 TOTAL ENERGY:     -611.586762921 Eh
FINAL SINGLE POINT ENERGY      -611.586762921326

DIPOLE MOMENT
-------------
                                X             Y             Z
Electronic contribution:      6.25016      -1.52118     -16.85050
Nuclear contribution   :     -5.41450       3.23669      16.56759
                        -----------------------------------------
Total Dipole Moment    :      0.83566       1.71551      -0.28291
                        -----------------------------------------
Magnitude (a.u.)       :      1.92908
Magnitude (Debye)      :      4.90333

Rotational constants in cm-1:     0.035219     0.022235     0.018889
Rotational constants in MHz :  1055.848869   666.590551   566.271653

                             ****ORCA TERMINATED NORMALLY****
TOTAL RUN TIME: 0 days 16 hours 17 minutes 57 seconds 402 msec
