                         Program Version 5.0.4 -  RELEASE  -
|  1> ! ri-mp2 aug-cc-pvdz aug-cc-pvdz/c tightscf
|  2> %pal nprocs 16 end
|  3> %maxcore 3800
|  4> %base "DZ_S66by10_10_1.05_dimer"
|  5> %scf STABPerform true end
|  6>
|  7> *xyz 0 1
|  8> N   -0.63864138    0.47091637    0.04456848
|  9> H    0.18995436   -0.11393716   -0.00577361
| 10> H   -1.30046894    0.08125680   -0.61366848
| 11> C   -1.19865882    0.39139858    1.39194660
| 12> H   -2.09273777    1.00924471    1.45316749
| 13> H   -1.46274551   -0.61584367    1.72945219
| 14> H   -0.48027554    0.79867491    2.10108731
| 15> N    2.54274133   -0.47776537    0.21025219
| 16> H    2.83901000   -0.20322764   -0.71773305
| 17> H    3.16629100   -1.22545569    0.48544706
| 18> C    2.70297131    0.65744522    1.12392750
| 19> H    2.43278101    0.34274944    2.12958061
| 20> H    3.71038162    1.07922178    1.16089923
| 21> H    2.01043093    1.44322070    0.83127025
| 22> *
| 23>
| 24> $new_job
| 25> ! ri-mp2 aug-cc-pvtz aug-cc-pvtz/c tightscf
| 26> %pal nprocs 16 end
| 27> %maxcore 3800
| 28> %base "TZ_S66by10_10_1.05_dimer"
| 29>
| 30> *xyz 0 1
| 31> N   -0.63864138    0.47091637    0.04456848
| 32> H    0.18995436   -0.11393716   -0.00577361
| 33> H   -1.30046894    0.08125680   -0.61366848
| 34> C   -1.19865882    0.39139858    1.39194660
| 35> H   -2.09273777    1.00924471    1.45316749
| 36> H   -1.46274551   -0.61584367    1.72945219
| 37> H   -0.48027554    0.79867491    2.10108731
| 38> N    2.54274133   -0.47776537    0.21025219
| 39> H    2.83901000   -0.20322764   -0.71773305
| 40> H    3.16629100   -1.22545569    0.48544706
| 41> C    2.70297131    0.65744522    1.12392750
| 42> H    2.43278101    0.34274944    2.12958061
| 43> H    3.71038162    1.07922178    1.16089923
| 44> H    2.01043093    1.44322070    0.83127025
| 45> *
| 46>
| 47> $new_job
| 48> ! ri-mp2 aug-cc-pvqz aug-cc-pvqz/c tightscf
| 49> %pal nprocs 16 end
| 50> %maxcore 3800
| 51> %base "QZ_S66by10_10_1.05_dimer"
| 52>
| 53> *xyz 0 1
| 54> N   -0.63864138    0.47091637    0.04456848
| 55> H    0.18995436   -0.11393716   -0.00577361
| 56> H   -1.30046894    0.08125680   -0.61366848
| 57> C   -1.19865882    0.39139858    1.39194660
| 58> H   -2.09273777    1.00924471    1.45316749
| 59> H   -1.46274551   -0.61584367    1.72945219
| 60> H   -0.48027554    0.79867491    2.10108731
| 61> N    2.54274133   -0.47776537    0.21025219
| 62> H    2.83901000   -0.20322764   -0.71773305
| 63> H    3.16629100   -1.22545569    0.48544706
| 64> C    2.70297131    0.65744522    1.12392750
| 65> H    2.43278101    0.34274944    2.12958061
| 66> H    3.71038162    1.07922178    1.16089923
| 67> H    2.01043093    1.44322070    0.83127025
| 68> *
| 69>
| 70>
| 71>
| 72>
| 73>                          ****END OF INPUT****
 Total Charge           Charge          ....    0
 Multiplicity           Mult            ....    1
 Number of Electrons    NEL             ....   36
MP2 TOTAL ENERGY:     -191.154000737 Eh
FINAL SINGLE POINT ENERGY      -191.154000737386
MP2 TOTAL ENERGY:     -191.341159931 Eh
FINAL SINGLE POINT ENERGY      -191.341159931296

CARTESIAN COORDINATES (ANGSTROEM)
---------------------------------
  N     -0.638641    0.470916    0.044568
  H      0.189954   -0.113937   -0.005774
  H     -1.300469    0.081257   -0.613668
  C     -1.198659    0.391399    1.391947
  H     -2.092738    1.009245    1.453167
  H     -1.462746   -0.615844    1.729452
  H     -0.480276    0.798675    2.101087
  N      2.542741   -0.477765    0.210252
  H      2.839010   -0.203228   -0.717733
  H      3.166291   -1.225456    0.485447
  C      2.702971    0.657445    1.123927
  H      2.432781    0.342749    2.129581
  H      3.710382    1.079222    1.160899
  H      2.010431    1.443221    0.831270

 Multiplicity           Mult            ....    1
 Number of Electrons    NEL             ....   36
 Basis Dimension        Dim             ....  780

ORBITAL ENERGIES
----------------

  NO   OCC          E(Eh)            E(eV)
   0   2.0000     -15.544765      -422.9946
   1   2.0000     -15.520098      -422.3233
   2   2.0000     -11.240327      -305.8648
   3   2.0000     -11.228214      -305.5352
   4   2.0000      -1.176755       -32.0211
   5   2.0000      -1.154967       -31.4282
   6   2.0000      -0.899216       -24.4689
   7   2.0000      -0.883124       -24.0310
   8   2.0000      -0.668454       -18.1896
   9   2.0000      -0.649423       -17.6717
  10   2.0000      -0.607022       -16.5179
  11   2.0000      -0.591221       -16.0879
  12   2.0000      -0.558751       -15.2044
  13   2.0000      -0.541272       -14.7288
  14   2.0000      -0.519690       -14.1415
  15   2.0000      -0.504416       -13.7259
  16   2.0000      -0.402509       -10.9528
  17   2.0000      -0.378073       -10.2879
  18   0.0000       0.024472         0.6659
  19   0.0000       0.034289         0.9330
  20   0.0000       0.036038         0.9806
  21   0.0000       0.037669         1.0250
  22   0.0000       0.049838         1.3561

MULLIKEN ATOMIC CHARGES
-----------------------
   0 N :   -0.628494
   1 H :    0.297382
   2 H :    0.208440
   3 C :   -0.780790
   4 H :    0.325514
   5 H :    0.261332
   6 H :    0.303233
   7 N :   -0.567391
   8 H :    0.232385
   9 H :    0.217973
  10 C :   -0.762903
  11 H :    0.255437
  12 H :    0.359661
  13 H :    0.278221
Sum of atomic charges:   -0.0000000

LOEWDIN ATOMIC CHARGES
----------------------
   0 N :    1.254199
   1 H :   -0.613524
   2 H :   -0.521590
   3 C :    0.741120
   4 H :   -0.313906
   5 H :   -0.290853
   6 H :   -0.323618
   7 N :    1.260412
   8 H :   -0.510321
   9 H :   -0.514189
  10 C :    0.753900
  11 H :   -0.308745
  12 H :   -0.287238
  13 H :   -0.325645

  Mayer bond orders larger than 0.100000
B(  0-N ,  1-H ) :   0.8706 B(  0-N ,  2-H ) :   0.9814 B(  0-N ,  3-C ) :   0.9866
B(  3-C ,  4-H ) :   0.8977 B(  3-C ,  5-H ) :   0.9273 B(  3-C ,  6-H ) :   0.8966
B(  7-N ,  8-H ) :   0.9348 B(  7-N ,  9-H ) :   0.9622 B(  7-N , 10-C ) :   0.9962
B( 10-C , 11-H ) :   0.9451 B( 10-C , 12-H ) :   0.8465 B( 10-C , 13-H ) :   0.9155

MP2 TOTAL ENERGY:     -191.398372710 Eh
FINAL SINGLE POINT ENERGY      -191.398372709903

DIPOLE MOMENT
-------------
                                X             Y             Z
Electronic contribution:      0.23469      -0.54591      -1.53829
Nuclear contribution   :      0.32704       0.14927       1.61341
                        -----------------------------------------
Total Dipole Moment    :      0.56173      -0.39664       0.07512
                        -----------------------------------------
Magnitude (a.u.)       :      0.69174
Magnitude (Debye)      :      1.75827

Rotational constants in cm-1:     0.399633     0.077170     0.070717
Rotational constants in MHz : 11980.684737  2313.509513  2120.039306

                             ****ORCA TERMINATED NORMALLY****
TOTAL RUN TIME: 0 days 0 hours 32 minutes 33 seconds 137 msec
