                         Program Version 5.0.4 -  RELEASE  -
|  1> ! ri-mp2 aug-cc-pvdz aug-cc-pvdz/c tightscf
|  2> %pal nprocs 16 end
|  3> %maxcore 3800
|  4> %base "DZ_S66by10_23_0.7_dimer"
|  5> %scf STABPerform true end
|  6>
|  7> *xyz 0 1
|  8> C   -1.23272700    1.21163896   -0.14162406
|  9> O   -0.57127667    2.24201573    0.02561679
| 10> N   -0.67058051    0.00388878   -0.31428147
| 11> H    0.34384695   -0.09056011   -0.30832667
| 12> H   -1.24421373   -0.80632370   -0.44668271
| 13> C   -2.73824495    1.26675766   -0.15588657
| 14> H   -3.07797534    1.64660511    0.80450159
| 15> H   -3.20211503    0.30286549   -0.34621112
| 16> H   -3.04998747    1.97549049   -0.91859737
| 17> N    3.68012071    1.10967678   -0.12602807
| 18> H    4.17015016    0.23371960   -0.24396654
| 19> C    4.48374673    2.25252172    0.02445363
| 20> O    5.69930875    2.15689940    0.00926885
| 21> C    3.71115455    3.46783821    0.18759756
| 22> H    4.23291754    4.40103107    0.31063269
| 23> C    2.36199384    3.40616268    0.18192081
| 24> H    1.74158979    4.28252306    0.29959770
| 25> N    1.67691173    2.23388117    0.02735504
| 26> H    0.64412125    2.22482010    0.02651772
| 27> C    2.30780170    1.02941167   -0.13490499
| 28> O    1.71061297   -0.03450429   -0.27671249
| 29> *
| 30>
| 31> $new_job
| 32> ! ri-mp2 aug-cc-pvtz aug-cc-pvtz/c tightscf
| 33> %pal nprocs 16 end
| 34> %maxcore 3800
| 35> %base "TZ_S66by10_23_0.7_dimer"
| 36>
| 37> *xyz 0 1
| 38> C   -1.23272700    1.21163896   -0.14162406
| 39> O   -0.57127667    2.24201573    0.02561679
| 40> N   -0.67058051    0.00388878   -0.31428147
| 41> H    0.34384695   -0.09056011   -0.30832667
| 42> H   -1.24421373   -0.80632370   -0.44668271
| 43> C   -2.73824495    1.26675766   -0.15588657
| 44> H   -3.07797534    1.64660511    0.80450159
| 45> H   -3.20211503    0.30286549   -0.34621112
| 46> H   -3.04998747    1.97549049   -0.91859737
| 47> N    3.68012071    1.10967678   -0.12602807
| 48> H    4.17015016    0.23371960   -0.24396654
| 49> C    4.48374673    2.25252172    0.02445363
| 50> O    5.69930875    2.15689940    0.00926885
| 51> C    3.71115455    3.46783821    0.18759756
| 52> H    4.23291754    4.40103107    0.31063269
| 53> C    2.36199384    3.40616268    0.18192081
| 54> H    1.74158979    4.28252306    0.29959770
| 55> N    1.67691173    2.23388117    0.02735504
| 56> H    0.64412125    2.22482010    0.02651772
| 57> C    2.30780170    1.02941167   -0.13490499
| 58> O    1.71061297   -0.03450429   -0.27671249
| 59> *
| 60>
| 61> $new_job
| 62> ! ri-mp2 aug-cc-pvqz aug-cc-pvqz/c tightscf
| 63> %pal nprocs 16 end
| 64> %maxcore 3800
| 65> %base "QZ_S66by10_23_0.7_dimer"
| 66>
| 67> *xyz 0 1
| 68> C   -1.23272700    1.21163896   -0.14162406
| 69> O   -0.57127667    2.24201573    0.02561679
| 70> N   -0.67058051    0.00388878   -0.31428147
| 71> H    0.34384695   -0.09056011   -0.30832667
| 72> H   -1.24421373   -0.80632370   -0.44668271
| 73> C   -2.73824495    1.26675766   -0.15588657
| 74> H   -3.07797534    1.64660511    0.80450159
| 75> H   -3.20211503    0.30286549   -0.34621112
| 76> H   -3.04998747    1.97549049   -0.91859737
| 77> N    3.68012071    1.10967678   -0.12602807
| 78> H    4.17015016    0.23371960   -0.24396654
| 79> C    4.48374673    2.25252172    0.02445363
| 80> O    5.69930875    2.15689940    0.00926885
| 81> C    3.71115455    3.46783821    0.18759756
| 82> H    4.23291754    4.40103107    0.31063269
| 83> C    2.36199384    3.40616268    0.18192081
| 84> H    1.74158979    4.28252306    0.29959770
| 85> N    1.67691173    2.23388117    0.02735504
| 86> H    0.64412125    2.22482010    0.02651772
| 87> C    2.30780170    1.02941167   -0.13490499
| 88> O    1.71061297   -0.03450429   -0.27671249
| 89> *
| 90>
| 91>
| 92>
| 93>
| 94>                          ****END OF INPUT****
 Total Charge           Charge          ....    0
 Multiplicity           Mult            ....    1
 Number of Electrons    NEL             ....   90
MP2 TOTAL ENERGY:     -622.434722415 Eh
FINAL SINGLE POINT ENERGY      -622.434722415420
MP2 TOTAL ENERGY:     -622.970071096 Eh
FINAL SINGLE POINT ENERGY      -622.970071096079

CARTESIAN COORDINATES (ANGSTROEM)
---------------------------------
  C     -1.232727    1.211639   -0.141624
  O     -0.571277    2.242016    0.025617
  N     -0.670581    0.003889   -0.314281
  H      0.343847   -0.090560   -0.308327
  H     -1.244214   -0.806324   -0.446683
  C     -2.738245    1.266758   -0.155887
  H     -3.077975    1.646605    0.804502
  H     -3.202115    0.302865   -0.346211
  H     -3.049987    1.975490   -0.918597
  N      3.680121    1.109677   -0.126028
  H      4.170150    0.233720   -0.243967
  C      4.483747    2.252522    0.024454
  O      5.699309    2.156899    0.009269
  C      3.711155    3.467838    0.187598
  H      4.232918    4.401031    0.310633
  C      2.361994    3.406163    0.181921
  H      1.741590    4.282523    0.299598
  N      1.676912    2.233881    0.027355
  H      0.644121    2.224820    0.026518
  C      2.307802    1.029412   -0.134905
  O      1.710613   -0.034504   -0.276712

 Multiplicity           Mult            ....    1
 Number of Electrons    NEL             ....   90
 Basis Dimension        Dim             .... 1374

ORBITAL ENERGIES
----------------

  NO   OCC          E(Eh)            E(eV)
   0   2.0000     -20.545624      -559.0748
   1   2.0000     -20.543854      -559.0267
   2   2.0000     -20.522051      -558.4334
   3   2.0000     -15.614664      -424.8966
   4   2.0000     -15.574774      -423.8111
   5   2.0000     -15.569759      -423.6747
   6   2.0000     -11.409492      -310.4681
   7   2.0000     -11.380929      -309.6908
   8   2.0000     -11.363116      -309.2061
   9   2.0000     -11.311233      -307.7943
  10   2.0000     -11.251789      -306.1767
  11   2.0000     -11.229449      -305.5688
  12   2.0000      -1.443132       -39.2696
  13   2.0000      -1.424423       -38.7605
  14   2.0000      -1.384412       -37.6718
  15   2.0000      -1.294272       -35.2189
  16   2.0000      -1.227665       -33.4065
  17   2.0000      -1.221842       -33.2480
  18   2.0000      -1.064886       -28.9770
  19   2.0000      -1.027716       -27.9656
  20   2.0000      -0.910922       -24.7875
  21   2.0000      -0.899595       -24.4792
  22   2.0000      -0.832813       -22.6620
  23   2.0000      -0.810499       -22.0548
  24   2.0000      -0.763661       -20.7803
  25   2.0000      -0.742782       -20.2121
  26   2.0000      -0.719936       -19.5904
  27   2.0000      -0.679544       -18.4913
  28   2.0000      -0.663744       -18.0614
  29   2.0000      -0.656983       -17.8774
  30   2.0000      -0.638709       -17.3802
  31   2.0000      -0.627777       -17.0827
  32   2.0000      -0.612013       -16.6537
  33   2.0000      -0.593585       -16.1523
  34   2.0000      -0.581527       -15.8242
  35   2.0000      -0.564439       -15.3592
  36   2.0000      -0.561670       -15.2838
  37   2.0000      -0.549722       -14.9587
  38   2.0000      -0.502224       -13.6662
  39   2.0000      -0.486339       -13.2340
  40   2.0000      -0.442944       -12.0531
  41   2.0000      -0.438384       -11.9290
  42   2.0000      -0.432722       -11.7750
  43   2.0000      -0.428497       -11.6600
  44   2.0000      -0.342377        -9.3165
  45   0.0000       0.015344         0.4175
  46   0.0000       0.026497         0.7210
  47   0.0000       0.031026         0.8443
  48   0.0000       0.035641         0.9698
  49   0.0000       0.039496         1.0747

MULLIKEN ATOMIC CHARGES
-----------------------
   0 C :    0.825009
   1 O :   -0.711645
   2 N :   -0.696102
   3 H :    0.377450
   4 H :    0.202961
   5 C :   -0.638862
   6 H :    0.270638
   7 H :    0.257276
   8 H :    0.263218
   9 N :   -0.678471
  10 H :    0.113677
  11 C :    1.141427
  12 O :   -0.849674
  13 C :   -0.414844
  14 H :    0.263365
  15 C :   -0.327296
  16 H :    0.289771
  17 N :   -0.637692
  18 H :    0.395849
  19 C :    1.328244
  20 O :   -0.774297
Sum of atomic charges:   -0.0000000

LOEWDIN ATOMIC CHARGES
----------------------
   0 C :   -0.533258
   1 O :    1.120740
   2 N :    1.273244
   3 H :   -1.150186
   4 H :   -0.467675
   5 C :    0.928574
   6 H :   -0.292533
   7 H :   -0.310116
   8 H :   -0.294668
   9 N :    0.800993
  10 H :   -0.517170
  11 C :   -0.868758
  12 O :    0.672643
  13 C :    0.333283
  14 H :   -0.359795
  15 C :    0.256633
  16 H :   -0.290449
  17 N :    0.788586
  18 H :   -1.348816
  19 C :   -0.757860
  20 O :    1.016588

  Mayer bond orders larger than 0.100000
B(  0-C ,  1-O ) :   1.3897 B(  0-C ,  2-N ) :   1.1755 B(  0-C ,  5-C ) :   0.6862
B(  0-C ,  7-H ) :  -0.1420 B(  2-N ,  3-H ) :   0.8057 B(  2-N ,  4-H ) :   1.0740
B(  5-C ,  6-H ) :   0.9506 B(  5-C ,  7-H ) :   1.0228 B(  5-C ,  8-H ) :   0.9713
B(  9-N , 10-H ) :   1.1939 B(  9-N , 11-C ) :   1.0154 B(  9-N , 12-O ) :   0.1556
B(  9-N , 19-C ) :   1.0686 B(  9-N , 20-O ) :   0.1253 B( 10-H , 19-C ) :  -0.1040
B( 11-C , 12-O ) :   0.9890 B( 11-C , 13-C ) :   1.1804 B( 12-O , 13-C ) :   0.2888
B( 13-C , 14-H ) :   1.0247 B( 13-C , 15-C ) :   1.4339 B( 13-C , 17-N ) :  -0.1018
B( 15-C , 16-H ) :   0.9957 B( 15-C , 17-N ) :   1.2215 B( 17-N , 18-H ) :   0.8220
B( 17-N , 19-C ) :   1.2956 B( 17-N , 20-O ) :   0.1730 B( 19-C , 20-O ) :   1.2046

MP2 TOTAL ENERGY:     -623.144695380 Eh
FINAL SINGLE POINT ENERGY      -623.144695379518

DIPOLE MOMENT
-------------
                                X             Y             Z
Electronic contribution:     10.71078       0.39544       0.16399
Nuclear contribution   :    -13.38324      -0.67223      -0.23374
                        -----------------------------------------
Total Dipole Moment    :     -2.67246      -0.27679      -0.06975
                        -----------------------------------------
Magnitude (a.u.)       :      2.68766
Magnitude (Debye)      :      6.83150

Rotational constants in cm-1:     0.089394     0.015383     0.013157
Rotational constants in MHz :  2679.966665   461.159138   394.425022

                             ****ORCA TERMINATED NORMALLY****
TOTAL RUN TIME: 0 days 8 hours 2 minutes 2 seconds 232 msec
