                         Program Version 5.0.4 -  RELEASE  -
|  1> ! ri-mp2 aug-cc-pvdz aug-cc-pvdz/c tightscf
|  2> %pal nprocs 16 end
|  3> %maxcore 3800
|  4> %base "DZ_S66by10_66_1.1_dimer"
|  5>
|  6> *xyz 0 1
|  7> N   -0.54105920    0.02957620   -0.20899508
|  8> H    0.05555335   -0.78611810   -0.13029335
|  9> H   -1.46966940   -0.27470845    0.05314338
| 10> C   -0.07879927    1.04239036    0.73845886
| 11> H   -0.72015294    1.91941377    0.67198026
| 12> H   -0.05075819    0.72382293    1.78551453
| 13> H    0.92643072    1.35660379    0.46199919
| 14> N    2.58904753   -1.30769084    0.04750066
| 15> C    2.92748385   -0.49534677   -0.96421182
| 16> H    2.38481663   -0.63988475   -1.88959318
| 17> C    3.89881311    0.49678702   -0.86384481
| 18> H    4.12366555    1.12112731   -1.71669551
| 19> C    4.55965318    0.66632846    0.34841963
| 20> H    5.31750712    1.42856580    0.46480375
| 21> C    4.21952027   -0.16863406    1.40754258
| 22> H    4.70210867   -0.07817182    2.37024323
| 23> C    3.23573870   -1.13342307    1.20835920
| 24> H    2.94965437   -1.79717068    2.01496985
| 25> *
| 26>
| 27> $new_job
| 28> ! ri-mp2 aug-cc-pvtz aug-cc-pvtz/c tightscf
| 29> %pal nprocs 16 end
| 30> %maxcore 3800
| 31> %base "TZ_S66by10_66_1.1_dimer"
| 32>
| 33> *xyz 0 1
| 34> N   -0.54105920    0.02957620   -0.20899508
| 35> H    0.05555335   -0.78611810   -0.13029335
| 36> H   -1.46966940   -0.27470845    0.05314338
| 37> C   -0.07879927    1.04239036    0.73845886
| 38> H   -0.72015294    1.91941377    0.67198026
| 39> H   -0.05075819    0.72382293    1.78551453
| 40> H    0.92643072    1.35660379    0.46199919
| 41> N    2.58904753   -1.30769084    0.04750066
| 42> C    2.92748385   -0.49534677   -0.96421182
| 43> H    2.38481663   -0.63988475   -1.88959318
| 44> C    3.89881311    0.49678702   -0.86384481
| 45> H    4.12366555    1.12112731   -1.71669551
| 46> C    4.55965318    0.66632846    0.34841963
| 47> H    5.31750712    1.42856580    0.46480375
| 48> C    4.21952027   -0.16863406    1.40754258
| 49> H    4.70210867   -0.07817182    2.37024323
| 50> C    3.23573870   -1.13342307    1.20835920
| 51> H    2.94965437   -1.79717068    2.01496985
| 52> *
| 53>
| 54> $new_job
| 55> ! ri-mp2 aug-cc-pvqz aug-cc-pvqz/c tightscf
| 56> %pal nprocs 16 end
| 57> %maxcore 3800
| 58> %base "QZ_S66by10_66_1.1_dimer"
| 59>
| 60> *xyz 0 1
| 61> N   -0.54105920    0.02957620   -0.20899508
| 62> H    0.05555335   -0.78611810   -0.13029335
| 63> H   -1.46966940   -0.27470845    0.05314338
| 64> C   -0.07879927    1.04239036    0.73845886
| 65> H   -0.72015294    1.91941377    0.67198026
| 66> H   -0.05075819    0.72382293    1.78551453
| 67> H    0.92643072    1.35660379    0.46199919
| 68> N    2.58904753   -1.30769084    0.04750066
| 69> C    2.92748385   -0.49534677   -0.96421182
| 70> H    2.38481663   -0.63988475   -1.88959318
| 71> C    3.89881311    0.49678702   -0.86384481
| 72> H    4.12366555    1.12112731   -1.71669551
| 73> C    4.55965318    0.66632846    0.34841963
| 74> H    5.31750712    1.42856580    0.46480375
| 75> C    4.21952027   -0.16863406    1.40754258
| 76> H    4.70210867   -0.07817182    2.37024323
| 77> C    3.23573870   -1.13342307    1.20835920
| 78> H    2.94965437   -1.79717068    2.01496985
| 79> *
| 80>
| 81>
| 82>
| 83>
| 84>                          ****END OF INPUT****
 Total Charge           Charge          ....    0
 Multiplicity           Mult            ....    1
 Number of Electrons    NEL             ....   60
MP2 TOTAL ENERGY:     -343.144140567 Eh
FINAL SINGLE POINT ENERGY      -343.144140567183
MP2 TOTAL ENERGY:     -343.451683824 Eh
FINAL SINGLE POINT ENERGY      -343.451683823826

CARTESIAN COORDINATES (ANGSTROEM)
---------------------------------
  N     -0.541059    0.029576   -0.208995
  H      0.055553   -0.786118   -0.130293
  H     -1.469669   -0.274708    0.053143
  C     -0.078799    1.042390    0.738459
  H     -0.720153    1.919414    0.671980
  H     -0.050758    0.723823    1.785515
  H      0.926431    1.356604    0.461999
  N      2.589048   -1.307691    0.047501
  C      2.927484   -0.495347   -0.964212
  H      2.384817   -0.639885   -1.889593
  C      3.898813    0.496787   -0.863845
  H      4.123666    1.121127   -1.716696
  C      4.559653    0.666328    0.348420
  H      5.317507    1.428566    0.464804
  C      4.219520   -0.168634    1.407543
  H      4.702109   -0.078172    2.370243
  C      3.235739   -1.133423    1.208359
  H      2.949654   -1.797171    2.014970

 Multiplicity           Mult            ....    1
 Number of Electrons    NEL             ....   60
 Basis Dimension        Dim             .... 1100

ORBITAL ENERGIES
----------------

  NO   OCC          E(Eh)            E(eV)
   0   2.0000     -15.568454      -423.6392
   1   2.0000     -15.523918      -422.4273
   2   2.0000     -11.278139      -306.8938
   3   2.0000     -11.276476      -306.8485
   4   2.0000     -11.262525      -306.4689
   5   2.0000     -11.244121      -305.9681
   6   2.0000     -11.243272      -305.9450
   7   2.0000     -11.228244      -305.5360
   8   2.0000      -1.260009       -34.2866
   9   2.0000      -1.157772       -31.5046
  10   2.0000      -1.092693       -29.7337
  11   2.0000      -1.036644       -28.2085
  12   2.0000      -0.883833       -24.0503
  13   2.0000      -0.862329       -23.4652
  14   2.0000      -0.859018       -23.3751
  15   2.0000      -0.725354       -19.7379
  16   2.0000      -0.663898       -18.0656
  17   2.0000      -0.656978       -17.8773
  18   2.0000      -0.650674       -17.7057
  19   2.0000      -0.601391       -16.3647
  20   2.0000      -0.592617       -16.1259
  21   2.0000      -0.580499       -15.7962
  22   2.0000      -0.547736       -14.9047
  23   2.0000      -0.540157       -14.6984
  24   2.0000      -0.522983       -14.2311
  25   2.0000      -0.504397       -13.7253
  26   2.0000      -0.424500       -11.5512
  27   2.0000      -0.388104       -10.5609
  28   2.0000      -0.381167       -10.3721
  29   2.0000      -0.350874        -9.5478
  30   0.0000       0.021921         0.5965
  31   0.0000       0.028442         0.7740
  32   0.0000       0.031526         0.8579
  33   0.0000       0.037914         1.0317
  34   0.0000       0.043179         1.1750

MULLIKEN ATOMIC CHARGES
-----------------------
   0 N :   -0.685528
   1 H :    0.297687
   2 H :    0.218863
   3 C :   -0.786343
   4 H :    0.363826
   5 H :    0.248196
   6 H :    0.316730
   7 N :   -0.573829
   8 C :   -0.125263
   9 H :    0.447996
  10 C :   -0.316057
  11 H :    0.345336
  12 C :   -0.352086
  13 H :    0.364980
  14 C :   -0.311642
  15 H :    0.328752
  16 C :   -0.259984
  17 H :    0.478367
Sum of atomic charges:    0.0000000

LOEWDIN ATOMIC CHARGES
----------------------
   0 N :    1.257358
   1 H :   -0.580109
   2 H :   -0.523676
   3 C :    0.735994
   4 H :   -0.310526
   5 H :   -0.287752
   6 H :   -0.330743
   7 N :    0.586689
   8 C :    0.058655
   9 H :   -0.345145
  10 C :    0.331315
  11 H :   -0.326903
  12 C :    0.329046
  13 H :   -0.313150
  14 C :    0.328577
  15 H :   -0.329668
  16 C :    0.070469
  17 H :   -0.350431

  Mayer bond orders larger than 0.100000
B(  0-N ,  1-H ) :   0.8744 B(  0-N ,  2-H ) :   0.9660 B(  0-N ,  3-C ) :   0.9559
B(  3-C ,  4-H ) :   0.8719 B(  3-C ,  5-H ) :   0.9340 B(  3-C ,  6-H ) :   0.8662
B(  7-N ,  8-C ) :   1.1913 B(  7-N ,  9-H ) :  -0.1150 B(  7-N , 16-C ) :   1.2345
B(  7-N , 17-H ) :  -0.1184 B(  8-C ,  9-H ) :   0.8865 B(  8-C , 10-C ) :   1.2054
B(  8-C , 14-C ) :   0.1250 B( 10-C , 11-H ) :   0.9645 B( 10-C , 12-C ) :   1.2294
B( 12-C , 13-H ) :   0.9596 B( 12-C , 14-C ) :   1.2440 B( 14-C , 15-H ) :   0.9978
B( 14-C , 16-C ) :   1.1951 B( 16-C , 17-H ) :   0.8606

MP2 TOTAL ENERGY:     -343.548562738 Eh
FINAL SINGLE POINT ENERGY      -343.548562737887

DIPOLE MOMENT
-------------
                                X             Y             Z
Electronic contribution:      6.85389      -3.24075      -1.17828
Nuclear contribution   :     -6.12263       3.63556       1.75432
                        -----------------------------------------
Total Dipole Moment    :      0.73125       0.39481       0.57604
                        -----------------------------------------
Magnitude (a.u.)       :      1.01115
Magnitude (Debye)      :      2.57015

Rotational constants in cm-1:     0.106165     0.036570     0.035491
Rotational constants in MHz :  3182.736906  1096.344705  1063.982710

                             ****ORCA TERMINATED NORMALLY****
TOTAL RUN TIME: 0 days 0 hours 27 minutes 36 seconds 368 msec
