                         Program Version 5.0.4 -  RELEASE  -
|  1> ! ri-mp2 aug-cc-pvdz aug-cc-pvdz/c tightscf
|  2> %pal nprocs 16 end
|  3> %maxcore 3800
|  4> %base "DZ_S66by10_31_1.1_dimer"
|  5> %scf STABPerform true end
|  6>
|  7> *xyz 0 1
|  8> N   -0.05087365   -0.98008127    0.03396219
|  9> H   -0.05322205   -1.99069374    0.04982167
| 10> C   -1.30881316   -0.36187638    0.00402596
| 11> O   -2.32722000   -1.03255492   -0.00582886
| 12> C   -1.23681849    1.08804829   -0.01222440
| 13> H   -2.15273897    1.65146044   -0.05477443
| 14> C   -0.03519433    1.69783584    0.03370483
| 15> H    0.07036636    2.77247575    0.03188224
| 16> N    1.13452913    0.99028251    0.09184461
| 17> H    2.02372032    1.45677218    0.15569277
| 18> C    1.19318599   -0.39183287    0.11577512
| 19> O    2.23639797   -1.01118826    0.19418562
| 20> C    0.73451674    0.03588334    3.71574814
| 21> H    1.25163448   -0.83510456    3.33852155
| 22> H    1.34012774    0.82287738    4.14306248
| 23> C   -0.59425976    0.13647379    3.66650121
| 24> H   -1.20626265   -0.65100580    3.24960050
| 25> H   -1.10608475    1.00754338    4.05050098
| 26> *
| 27>
| 28> $new_job
| 29> ! ri-mp2 aug-cc-pvtz aug-cc-pvtz/c tightscf
| 30> %pal nprocs 16 end
| 31> %maxcore 3800
| 32> %base "TZ_S66by10_31_1.1_dimer"
| 33>
| 34> *xyz 0 1
| 35> N   -0.05087365   -0.98008127    0.03396219
| 36> H   -0.05322205   -1.99069374    0.04982167
| 37> C   -1.30881316   -0.36187638    0.00402596
| 38> O   -2.32722000   -1.03255492   -0.00582886
| 39> C   -1.23681849    1.08804829   -0.01222440
| 40> H   -2.15273897    1.65146044   -0.05477443
| 41> C   -0.03519433    1.69783584    0.03370483
| 42> H    0.07036636    2.77247575    0.03188224
| 43> N    1.13452913    0.99028251    0.09184461
| 44> H    2.02372032    1.45677218    0.15569277
| 45> C    1.19318599   -0.39183287    0.11577512
| 46> O    2.23639797   -1.01118826    0.19418562
| 47> C    0.73451674    0.03588334    3.71574814
| 48> H    1.25163448   -0.83510456    3.33852155
| 49> H    1.34012774    0.82287738    4.14306248
| 50> C   -0.59425976    0.13647379    3.66650121
| 51> H   -1.20626265   -0.65100580    3.24960050
| 52> H   -1.10608475    1.00754338    4.05050098
| 53> *
| 54>
| 55> $new_job
| 56> ! ri-mp2 aug-cc-pvqz aug-cc-pvqz/c tightscf
| 57> %pal nprocs 16 end
| 58> %maxcore 3800
| 59> %base "QZ_S66by10_31_1.1_dimer"
| 60>
| 61> *xyz 0 1
| 62> N   -0.05087365   -0.98008127    0.03396219
| 63> H   -0.05322205   -1.99069374    0.04982167
| 64> C   -1.30881316   -0.36187638    0.00402596
| 65> O   -2.32722000   -1.03255492   -0.00582886
| 66> C   -1.23681849    1.08804829   -0.01222440
| 67> H   -2.15273897    1.65146044   -0.05477443
| 68> C   -0.03519433    1.69783584    0.03370483
| 69> H    0.07036636    2.77247575    0.03188224
| 70> N    1.13452913    0.99028251    0.09184461
| 71> H    2.02372032    1.45677218    0.15569277
| 72> C    1.19318599   -0.39183287    0.11577512
| 73> O    2.23639797   -1.01118826    0.19418562
| 74> C    0.73451674    0.03588334    3.71574814
| 75> H    1.25163448   -0.83510456    3.33852155
| 76> H    1.34012774    0.82287738    4.14306248
| 77> C   -0.59425976    0.13647379    3.66650121
| 78> H   -1.20626265   -0.65100580    3.24960050
| 79> H   -1.10608475    1.00754338    4.05050098
| 80> *
| 81>
| 82>
| 83>
| 84>
| 85>                          ****END OF INPUT****
 Total Charge           Charge          ....    0
 Multiplicity           Mult            ....    1
 Number of Electrons    NEL             ....   74
MP2 TOTAL ENERGY:     -492.113034472 Eh
FINAL SINGLE POINT ENERGY      -492.113034471626
MP2 TOTAL ENERGY:     -492.536123669 Eh
FINAL SINGLE POINT ENERGY      -492.536123668702

CARTESIAN COORDINATES (ANGSTROEM)
---------------------------------
  N     -0.050874   -0.980081    0.033962
  H     -0.053222   -1.990694    0.049822
  C     -1.308813   -0.361876    0.004026
  O     -2.327220   -1.032555   -0.005829
  C     -1.236818    1.088048   -0.012224
  H     -2.152739    1.651460   -0.054774
  C     -0.035194    1.697836    0.033705
  H      0.070366    2.772476    0.031882
  N      1.134529    0.990283    0.091845
  H      2.023720    1.456772    0.155693
  C      1.193186   -0.391833    0.115775
  O      2.236398   -1.011188    0.194186
  C      0.734517    0.035883    3.715748
  H      1.251634   -0.835105    3.338522
  H      1.340128    0.822877    4.143062
  C     -0.594260    0.136474    3.666501
  H     -1.206263   -0.651006    3.249600
  H     -1.106085    1.007543    4.050501

 Multiplicity           Mult            ....    1
 Number of Electrons    NEL             ....   74
 Basis Dimension        Dim             .... 1168

ORBITAL ENERGIES
----------------

  NO   OCC          E(Eh)            E(eV)
   0   2.0000     -20.543090      -559.0059
   1   2.0000     -20.537785      -558.8615
   2   2.0000     -15.639721      -425.5785
   3   2.0000     -15.623512      -425.1374
   4   2.0000     -11.416000      -310.6451
   5   2.0000     -11.378146      -309.6151
   6   2.0000     -11.336920      -308.4933
   7   2.0000     -11.251224      -306.1614
   8   2.0000     -11.233931      -305.6908
   9   2.0000     -11.232116      -305.6414
  10   2.0000      -1.434123       -39.0245
  11   2.0000      -1.396123       -37.9904
  12   2.0000      -1.311038       -35.6752
  13   2.0000      -1.243765       -33.8446
  14   2.0000      -1.085654       -29.5421
  15   2.0000      -1.038512       -28.2594
  16   2.0000      -0.931438       -25.3457
  17   2.0000      -0.899654       -24.4808
  18   2.0000      -0.805130       -21.9087
  19   2.0000      -0.797500       -21.7011
  20   2.0000      -0.763342       -20.7716
  21   2.0000      -0.712524       -19.3888
  22   2.0000      -0.676178       -18.3997
  23   2.0000      -0.668514       -18.1912
  24   2.0000      -0.651416       -17.7259
  25   2.0000      -0.647612       -17.6224
  26   2.0000      -0.613334       -16.6897
  27   2.0000      -0.599937       -16.3251
  28   2.0000      -0.591607       -16.0984
  29   2.0000      -0.569670       -15.5015
  30   2.0000      -0.524195       -14.2641
  31   2.0000      -0.511715       -13.9245
  32   2.0000      -0.482722       -13.1355
  33   2.0000      -0.448437       -12.2026
  34   2.0000      -0.436358       -11.8739
  35   2.0000      -0.382756       -10.4153
  36   2.0000      -0.365887        -9.9563
  37   0.0000       0.012801         0.3483
  38   0.0000       0.028677         0.7803
  39   0.0000       0.032443         0.8828
  40   0.0000       0.036034         0.9805
  41   0.0000       0.044485         1.2105

MULLIKEN ATOMIC CHARGES
-----------------------
   0 N :   -0.676012
   1 H :    0.074126
   2 C :    1.245805
   3 O :   -0.874294
   4 C :   -0.425218
   5 H :    0.266134
   6 C :   -0.142757
   7 H :    0.417366
   8 N :   -0.612763
   9 H :    0.074155
  10 C :    1.485026
  11 O :   -0.844662
  12 C :   -0.853128
  13 H :    0.441297
  14 H :    0.421445
  15 C :   -0.866008
  16 H :    0.442111
  17 H :    0.427375
Sum of atomic charges:    0.0000000

LOEWDIN ATOMIC CHARGES
----------------------
   0 N :    0.773573
   1 H :   -0.517732
   2 C :   -0.885196
   3 O :    0.686112
   4 C :    0.321868
   5 H :   -0.351903
   6 C :    0.225849
   7 H :   -0.295307
   8 N :    0.807859
   9 H :   -0.490354
  10 C :   -1.014447
  11 O :    0.694221
  12 C :    0.752435
  13 H :   -0.367212
  14 H :   -0.364280
  15 C :    0.751367
  16 H :   -0.365003
  17 H :   -0.361849

  Mayer bond orders larger than 0.100000
B(  0-N ,  1-H ) :   1.2046 B(  0-N ,  2-C ) :   0.9540 B(  0-N ,  3-O ) :   0.2105
B(  0-N , 10-C ) :   1.0796 B(  0-N , 11-O ) :   0.2111 B(  2-C ,  3-O ) :   0.9432
B(  2-C ,  4-C ) :   1.1650 B(  3-O ,  4-C ) :   0.2628 B(  4-C ,  5-H ) :   1.0282
B(  4-C ,  6-C ) :   1.4570 B(  6-C ,  7-H ) :   0.9294 B(  6-C ,  8-N ) :   0.8792
B(  8-N ,  9-H ) :   1.1981 B(  8-N , 10-C ) :   1.0995 B(  8-N , 11-O ) :   0.2202
B( 10-C , 11-O ) :   1.0193 B( 12-C , 13-H ) :   0.7809 B( 12-C , 14-H ) :   0.8262
B( 12-C , 15-C ) :   1.9904 B( 15-C , 16-H ) :   0.7871 B( 15-C , 17-H ) :   0.8146

MP2 TOTAL ENERGY:     -492.673976213 Eh
FINAL SINGLE POINT ENERGY      -492.673976212898

DIPOLE MOMENT
-------------
                                X             Y             Z
Electronic contribution:      0.29809      -2.14376      -8.06612
Nuclear contribution   :      0.22038       4.03973       8.10754
                        -----------------------------------------
Total Dipole Moment    :      0.51847       1.89598       0.04141
                        -----------------------------------------
Magnitude (a.u.)       :      1.96602
Magnitude (Debye)      :      4.99724

Rotational constants in cm-1:     0.043337     0.038379     0.029878
Rotational constants in MHz :  1299.207722  1150.578589   895.705410

                             ****ORCA TERMINATED NORMALLY****
TOTAL RUN TIME: 0 days 3 hours 45 minutes 49 seconds 603 msec
