                         Program Version 5.0.4 -  RELEASE  -
|  1> ! ri-mp2 aug-cc-pvdz aug-cc-pvdz/c tightscf
|  2> %pal nprocs 16 end
|  3> %maxcore 3800
|  4> %base "DZ_S66by10_62_0.8_dimer"
|  5> %scf STABPerform true end
|  6>
|  7> *xyz 0 1
|  8> C   -2.58777605   -0.32310566    0.46945828
|  9> H   -2.61038910   -0.87636604   -0.46961946
| 10> H   -2.65974410   -1.05188654    1.27771411
| 11> H   -3.47603507    0.30562460    0.50896129
| 12> C   -1.30955982    0.49739424    0.58506260
| 13> H   -1.31725060    1.08326190    1.50634108
| 14> H   -1.26237673    1.21557375   -0.23677617
| 15> C   -0.05682966   -0.36826029    0.55844017
| 16> H   -0.08617526   -1.07335882    1.39587537
| 17> H   -0.05380919   -0.97684333   -0.35147393
| 18> C    1.23159606    0.44006559    0.63203246
| 19> H    1.21328340    1.05356193    1.53459305
| 20> H    1.26629733    1.13137662   -0.21310563
| 21> C    2.47257523   -0.44314441    0.61922148
| 22> H    2.52071888   -1.03526342   -0.29489695
| 23> H    3.38773437    0.14408974    0.68390871
| 24> H    2.45929703   -1.13936423    1.45861821
| 25> C    0.03239963    0.18036252    3.65735134
| 26> O    0.05931189    1.36543601    3.36551016
| 27> N    1.16497990   -0.57151512    3.76017129
| 28> H    2.03592015   -0.14893460    3.49150903
| 29> H    1.12604193   -1.56340179    3.89159421
| 30> C   -1.25782135   -0.55857496    3.92180517
| 31> H   -1.11057135   -1.51929632    4.40892954
| 32> H   -1.76404888   -0.71688389    2.97099183
| 33> H   -1.89576530    0.06866147    4.53707703
| 34> *
| 35>
| 36> $new_job
| 37> ! ri-mp2 aug-cc-pvtz aug-cc-pvtz/c tightscf
| 38> %pal nprocs 16 end
| 39> %maxcore 3800
| 40> %base "TZ_S66by10_62_0.8_dimer"
| 41>
| 42> *xyz 0 1
| 43> C   -2.58777605   -0.32310566    0.46945828
| 44> H   -2.61038910   -0.87636604   -0.46961946
| 45> H   -2.65974410   -1.05188654    1.27771411
| 46> H   -3.47603507    0.30562460    0.50896129
| 47> C   -1.30955982    0.49739424    0.58506260
| 48> H   -1.31725060    1.08326190    1.50634108
| 49> H   -1.26237673    1.21557375   -0.23677617
| 50> C   -0.05682966   -0.36826029    0.55844017
| 51> H   -0.08617526   -1.07335882    1.39587537
| 52> H   -0.05380919   -0.97684333   -0.35147393
| 53> C    1.23159606    0.44006559    0.63203246
| 54> H    1.21328340    1.05356193    1.53459305
| 55> H    1.26629733    1.13137662   -0.21310563
| 56> C    2.47257523   -0.44314441    0.61922148
| 57> H    2.52071888   -1.03526342   -0.29489695
| 58> H    3.38773437    0.14408974    0.68390871
| 59> H    2.45929703   -1.13936423    1.45861821
| 60> C    0.03239963    0.18036252    3.65735134
| 61> O    0.05931189    1.36543601    3.36551016
| 62> N    1.16497990   -0.57151512    3.76017129
| 63> H    2.03592015   -0.14893460    3.49150903
| 64> H    1.12604193   -1.56340179    3.89159421
| 65> C   -1.25782135   -0.55857496    3.92180517
| 66> H   -1.11057135   -1.51929632    4.40892954
| 67> H   -1.76404888   -0.71688389    2.97099183
| 68> H   -1.89576530    0.06866147    4.53707703
| 69> *
| 70>
| 71> $new_job
| 72> ! ri-mp2 aug-cc-pvqz aug-cc-pvqz/c tightscf
| 73> %pal nprocs 16 end
| 74> %maxcore 3800
| 75> %base "QZ_S66by10_62_0.8_dimer"
| 76>
| 77> *xyz 0 1
| 78> C   -2.58777605   -0.32310566    0.46945828
| 79> H   -2.61038910   -0.87636604   -0.46961946
| 80> H   -2.65974410   -1.05188654    1.27771411
| 81> H   -3.47603507    0.30562460    0.50896129
| 82> C   -1.30955982    0.49739424    0.58506260
| 83> H   -1.31725060    1.08326190    1.50634108
| 84> H   -1.26237673    1.21557375   -0.23677617
| 85> C   -0.05682966   -0.36826029    0.55844017
| 86> H   -0.08617526   -1.07335882    1.39587537
| 87> H   -0.05380919   -0.97684333   -0.35147393
| 88> C    1.23159606    0.44006559    0.63203246
| 89> H    1.21328340    1.05356193    1.53459305
| 90> H    1.26629733    1.13137662   -0.21310563
| 91> C    2.47257523   -0.44314441    0.61922148
| 92> H    2.52071888   -1.03526342   -0.29489695
| 93> H    3.38773437    0.14408974    0.68390871
| 94> H    2.45929703   -1.13936423    1.45861821
| 95> C    0.03239963    0.18036252    3.65735134
| 96> O    0.05931189    1.36543601    3.36551016
| 97> N    1.16497990   -0.57151512    3.76017129
| 98> H    2.03592015   -0.14893460    3.49150903
| 99> H    1.12604193   -1.56340179    3.89159421
|100> C   -1.25782135   -0.55857496    3.92180517
|101> H   -1.11057135   -1.51929632    4.40892954
|102> H   -1.76404888   -0.71688389    2.97099183
|103> H   -1.89576530    0.06866147    4.53707703
|104> *
|105>
|106>
|107>
|108>
|109>                          ****END OF INPUT****
 Total Charge           Charge          ....    0
 Multiplicity           Mult            ....    1
 Number of Electrons    NEL             ....   74
MP2 TOTAL ENERGY:     -405.786906603 Eh
FINAL SINGLE POINT ENERGY      -405.786906602532
MP2 TOTAL ENERGY:     -406.167988982 Eh
FINAL SINGLE POINT ENERGY      -406.167988981741

CARTESIAN COORDINATES (ANGSTROEM)
---------------------------------
  C     -2.587776   -0.323106    0.469458
  H     -2.610389   -0.876366   -0.469619
  H     -2.659744   -1.051887    1.277714
  H     -3.476035    0.305625    0.508961
  C     -1.309560    0.497394    0.585063
  H     -1.317251    1.083262    1.506341
  H     -1.262377    1.215574   -0.236776
  C     -0.056830   -0.368260    0.558440
  H     -0.086175   -1.073359    1.395875
  H     -0.053809   -0.976843   -0.351474
  C      1.231596    0.440066    0.632032
  H      1.213283    1.053562    1.534593
  H      1.266297    1.131377   -0.213106
  C      2.472575   -0.443144    0.619221
  H      2.520719   -1.035263   -0.294897
  H      3.387734    0.144090    0.683909
  H      2.459297   -1.139364    1.458618
  C      0.032400    0.180363    3.657351
  O      0.059312    1.365436    3.365510
  N      1.164980   -0.571515    3.760171
  H      2.035920   -0.148935    3.491509
  H      1.126042   -1.563402    3.891594
  C     -1.257821   -0.558575    3.921805
  H     -1.110571   -1.519296    4.408930
  H     -1.764049   -0.716884    2.970992
  H     -1.895765    0.068661    4.537077

 Multiplicity           Mult            ....    1
 Number of Electrons    NEL             ....   74
 Basis Dimension        Dim             .... 1502

ORBITAL ENERGIES
----------------

  NO   OCC          E(Eh)            E(eV)
   0   2.0000     -20.516431      -558.2805
   1   2.0000     -15.585938      -424.1149
   2   2.0000     -11.355385      -308.9957
   3   2.0000     -11.235818      -305.7422
   4   2.0000     -11.205348      -304.9130
   5   2.0000     -11.205244      -304.9102
   6   2.0000     -11.204841      -304.8992
   7   2.0000     -11.200339      -304.7767
   8   2.0000     -11.198693      -304.7319
   9   2.0000      -1.383204       -37.6389
  10   2.0000      -1.216789       -33.1105
  11   2.0000      -1.076145       -29.2834
  12   2.0000      -1.014854       -27.6156
  13   2.0000      -1.005309       -27.3559
  14   2.0000      -0.917368       -24.9629
  15   2.0000      -0.815900       -22.2018
  16   2.0000      -0.803299       -21.8589
  17   2.0000      -0.779704       -21.2168
  18   2.0000      -0.731428       -19.9032
  19   2.0000      -0.669715       -18.2239
  20   2.0000      -0.662483       -18.0271
  21   2.0000      -0.605129       -16.4664
  22   2.0000      -0.594328       -16.1725
  23   2.0000      -0.592828       -16.1317
  24   2.0000      -0.590266       -16.0620
  25   2.0000      -0.562588       -15.3088
  26   2.0000      -0.550338       -14.9755
  27   2.0000      -0.547383       -14.8951
  28   2.0000      -0.533164       -14.5081
  29   2.0000      -0.517488       -14.0816
  30   2.0000      -0.490766       -13.3544
  31   2.0000      -0.472990       -12.8707
  32   2.0000      -0.460072       -12.5192
  33   2.0000      -0.453886       -12.3509
  34   2.0000      -0.441950       -12.0261
  35   2.0000      -0.426343       -11.6014
  36   2.0000      -0.411518       -11.1980
  37   0.0000       0.018955         0.5158
  38   0.0000       0.027912         0.7595
  39   0.0000       0.030856         0.8396
  40   0.0000       0.033486         0.9112
  41   0.0000       0.041111         1.1187

MULLIKEN ATOMIC CHARGES
-----------------------
   0 C :   -0.995647
   1 H :    0.211516
   2 H :    0.201521
   3 H :    0.226234
   4 C :   -0.504727
   5 H :    0.303649
   6 H :    0.259075
   7 C :   -0.075902
   8 H :    0.256084
   9 H :    0.285416
  10 C :   -0.537446
  11 H :    0.253422
  12 H :    0.268080
  13 C :   -0.980533
  14 H :    0.251350
  15 H :    0.238687
  16 H :    0.234704
  17 C :    1.486323
  18 O :   -1.031565
  19 N :   -0.823422
  20 H :    0.235651
  21 H :    0.263292
  22 C :   -0.828934
  23 H :    0.234353
  24 H :    0.309656
  25 H :    0.259162
Sum of atomic charges:    0.0000000

LOEWDIN ATOMIC CHARGES
----------------------
   0 C :    0.942037
   1 H :   -0.276888
   2 H :   -0.312685
   3 H :   -0.269844
   4 C :    0.510030
   5 H :   -0.354450
   6 H :   -0.260001
   7 C :    0.488336
   8 H :   -0.320931
   9 H :   -0.257433
  10 C :    0.501758
  11 H :   -0.401313
  12 H :   -0.259684
  13 C :    0.930149
  14 H :   -0.279878
  15 H :   -0.274447
  16 H :   -0.318220
  17 C :   -0.815223
  18 O :    0.778492
  19 N :    1.269719
  20 H :   -0.509070
  21 H :   -0.478867
  22 C :    0.918859
  23 H :   -0.287116
  24 H :   -0.380814
  25 H :   -0.282517

  Mayer bond orders larger than 0.100000
B(  0-C ,  1-H ) :   1.0381 B(  0-C ,  2-H ) :   0.9502 B(  0-C ,  3-H ) :   1.0542
B(  0-C ,  4-C ) :   0.9226 B(  0-C ,  7-C ) :  -0.1425 B(  4-C ,  5-H ) :   0.8939
B(  4-C ,  6-H ) :   0.9346 B(  4-C ,  7-C ) :   0.6919 B(  7-C ,  8-H ) :   0.8919
B(  7-C ,  9-H ) :   0.9237 B(  7-C , 10-C ) :   0.7491 B(  7-C , 13-C ) :  -0.1257
B( 10-C , 11-H ) :   0.8816 B( 10-C , 12-H ) :   0.8951 B( 10-C , 13-C ) :   0.9509
B( 13-C , 14-H ) :   0.9832 B( 13-C , 15-H ) :   1.0494 B( 13-C , 16-H ) :   0.9541
B( 17-C , 18-O ) :   0.8911 B( 17-C , 19-N ) :   0.9696 B( 17-C , 22-C ) :   0.8544
B( 18-O , 19-N ) :   0.1648 B( 19-N , 20-H ) :   0.9668 B( 19-N , 21-H ) :   0.9511
B( 22-C , 23-H ) :   1.0444 B( 22-C , 24-H ) :   0.7499 B( 22-C , 25-H ) :   1.0316

MP2 TOTAL ENERGY:     -406.285236843 Eh
FINAL SINGLE POINT ENERGY      -406.285236842810

DIPOLE MOMENT
-------------
                                X             Y             Z
Electronic contribution:      1.90492       3.60601       7.17608
Nuclear contribution   :     -1.75343      -4.98506      -6.87276
                        -----------------------------------------
Total Dipole Moment    :      0.15149      -1.37905       0.30332
                        -----------------------------------------
Magnitude (a.u.)       :      1.42011
Magnitude (Debye)      :      3.60964

Rotational constants in cm-1:     0.046357     0.042803     0.026936
Rotational constants in MHz :  1389.755438  1283.214154   807.517375

                             ****ORCA TERMINATED NORMALLY****
TOTAL RUN TIME: 0 days 9 hours 47 minutes 35 seconds 957 msec
