                         Program Version 5.0.4 -  RELEASE  -
|  1> ! ri-mp2 aug-cc-pvdz aug-cc-pvdz/c tightscf
|  2> %pal nprocs 16 end
|  3> %maxcore 3800
|  4> %base "DZ_S66by10_26_1.1_dimer"
|  5> %scf STABPerform true end
|  6>
|  7> *xyz 0 1
|  8> N    1.37690111    0.83974747    0.73462494
|  9> H    1.05181240    1.38622385    1.52335563
| 10> C    1.30898271    1.45752981   -0.52065500
| 11> O    0.92056136    2.61107777   -0.62597673
| 12> N    2.01142293   -1.21320830   -0.09807182
| 13> H    1.72728551    0.99084268   -2.61199556
| 14> C    2.02573687   -0.69717123   -1.36439740
| 15> H    2.29751698   -1.39106004   -2.14564531
| 16> C    1.71451235    0.59193780   -1.61248722
| 17> H    2.12945422   -2.20152091    0.05682913
| 18> C    1.64594503   -0.48520598    1.01871830
| 19> O    1.56111602   -0.97181638    2.12980905
| 20> N   -1.65077158   -0.88702963    0.73462494
| 21> H   -1.32568287   -1.43350601    1.52335563
| 22> C   -1.58285318   -1.50481197   -0.52065500
| 23> O   -1.19443183   -2.65835993   -0.62597673
| 24> N   -2.28529340    1.16592614   -0.09807182
| 25> H   -2.00115598   -1.03812485   -2.61199556
| 26> C   -2.29960734    0.64988907   -1.36439740
| 27> H   -2.57138745    1.34377788   -2.14564531
| 28> C   -1.98838281   -0.63921996   -1.61248722
| 29> H   -2.40332468    2.15423874    0.05682913
| 30> C   -1.91981549    0.43792381    1.01871830
| 31> O   -1.83498648    0.92453421    2.12980905
| 32> *
| 33>
| 34> $new_job
| 35> ! ri-mp2 aug-cc-pvtz aug-cc-pvtz/c tightscf
| 36> %pal nprocs 16 end
| 37> %maxcore 3800
| 38> %base "TZ_S66by10_26_1.1_dimer"
| 39>
| 40> *xyz 0 1
| 41> N    1.37690111    0.83974747    0.73462494
| 42> H    1.05181240    1.38622385    1.52335563
| 43> C    1.30898271    1.45752981   -0.52065500
| 44> O    0.92056136    2.61107777   -0.62597673
| 45> N    2.01142293   -1.21320830   -0.09807182
| 46> H    1.72728551    0.99084268   -2.61199556
| 47> C    2.02573687   -0.69717123   -1.36439740
| 48> H    2.29751698   -1.39106004   -2.14564531
| 49> C    1.71451235    0.59193780   -1.61248722
| 50> H    2.12945422   -2.20152091    0.05682913
| 51> C    1.64594503   -0.48520598    1.01871830
| 52> O    1.56111602   -0.97181638    2.12980905
| 53> N   -1.65077158   -0.88702963    0.73462494
| 54> H   -1.32568287   -1.43350601    1.52335563
| 55> C   -1.58285318   -1.50481197   -0.52065500
| 56> O   -1.19443183   -2.65835993   -0.62597673
| 57> N   -2.28529340    1.16592614   -0.09807182
| 58> H   -2.00115598   -1.03812485   -2.61199556
| 59> C   -2.29960734    0.64988907   -1.36439740
| 60> H   -2.57138745    1.34377788   -2.14564531
| 61> C   -1.98838281   -0.63921996   -1.61248722
| 62> H   -2.40332468    2.15423874    0.05682913
| 63> C   -1.91981549    0.43792381    1.01871830
| 64> O   -1.83498648    0.92453421    2.12980905
| 65> *
| 66>
| 67> $new_job
| 68> ! ri-mp2 aug-cc-pvqz aug-cc-pvqz/c tightscf
| 69> %pal nprocs 16 end
| 70> %maxcore 3800
| 71> %base "QZ_S66by10_26_1.1_dimer"
| 72>
| 73> *xyz 0 1
| 74> N    1.37690111    0.83974747    0.73462494
| 75> H    1.05181240    1.38622385    1.52335563
| 76> C    1.30898271    1.45752981   -0.52065500
| 77> O    0.92056136    2.61107777   -0.62597673
| 78> N    2.01142293   -1.21320830   -0.09807182
| 79> H    1.72728551    0.99084268   -2.61199556
| 80> C    2.02573687   -0.69717123   -1.36439740
| 81> H    2.29751698   -1.39106004   -2.14564531
| 82> C    1.71451235    0.59193780   -1.61248722
| 83> H    2.12945422   -2.20152091    0.05682913
| 84> C    1.64594503   -0.48520598    1.01871830
| 85> O    1.56111602   -0.97181638    2.12980905
| 86> N   -1.65077158   -0.88702963    0.73462494
| 87> H   -1.32568287   -1.43350601    1.52335563
| 88> C   -1.58285318   -1.50481197   -0.52065500
| 89> O   -1.19443183   -2.65835993   -0.62597673
| 90> N   -2.28529340    1.16592614   -0.09807182
| 91> H   -2.00115598   -1.03812485   -2.61199556
| 92> C   -2.29960734    0.64988907   -1.36439740
| 93> H   -2.57138745    1.34377788   -2.14564531
| 94> C   -1.98838281   -0.63921996   -1.61248722
| 95> H   -2.40332468    2.15423874    0.05682913
| 96> C   -1.91981549    0.43792381    1.01871830
| 97> O   -1.83498648    0.92453421    2.12980905
| 98> *
| 99>
|100>
|101>
|102>
|103>                          ****END OF INPUT****
 Total Charge           Charge          ....    0
 Multiplicity           Mult            ....    1
 Number of Electrons    NEL             ....  116
MP2 TOTAL ENERGY:     -827.574929290 Eh
FINAL SINGLE POINT ENERGY      -827.574929290030
MP2 TOTAL ENERGY:     -828.267492204 Eh
FINAL SINGLE POINT ENERGY      -828.267492203824

CARTESIAN COORDINATES (ANGSTROEM)
---------------------------------
  N      1.376901    0.839747    0.734625
  H      1.051812    1.386224    1.523356
  C      1.308983    1.457530   -0.520655
  O      0.920561    2.611078   -0.625977
  N      2.011423   -1.213208   -0.098072
  H      1.727286    0.990843   -2.611996
  C      2.025737   -0.697171   -1.364397
  H      2.297517   -1.391060   -2.145645
  C      1.714512    0.591938   -1.612487
  H      2.129454   -2.201521    0.056829
  C      1.645945   -0.485206    1.018718
  O      1.561116   -0.971816    2.129809
  N     -1.650772   -0.887030    0.734625
  H     -1.325683   -1.433506    1.523356
  C     -1.582853   -1.504812   -0.520655
  O     -1.194432   -2.658360   -0.625977
  N     -2.285293    1.165926   -0.098072
  H     -2.001156   -1.038125   -2.611996
  C     -2.299607    0.649889   -1.364397
  H     -2.571387    1.343778   -2.145645
  C     -1.988383   -0.639220   -1.612487
  H     -2.403325    2.154239    0.056829
  C     -1.919815    0.437924    1.018718
  O     -1.834986    0.924534    2.129809

 Multiplicity           Mult            ....    1
 Number of Electrons    NEL             ....  116
 Basis Dimension        Dim             .... 1648

ORBITAL ENERGIES
----------------

  NO   OCC          E(Eh)            E(eV)
   0   2.0000     -20.545242      -559.0645
   1   2.0000     -20.545242      -559.0644
   2   2.0000     -20.544065      -559.0324
   3   2.0000     -20.544065      -559.0324
   4   2.0000     -15.641308      -425.6216
   5   2.0000     -15.641308      -425.6216
   6   2.0000     -15.627502      -425.2459
   7   2.0000     -15.627500      -425.2459
   8   2.0000     -11.418348      -310.7090
   9   2.0000     -11.418347      -310.7090
  10   2.0000     -11.384511      -309.7883
  11   2.0000     -11.384511      -309.7883
  12   2.0000     -11.340929      -308.6024
  13   2.0000     -11.340928      -308.6023
  14   2.0000     -11.255148      -306.2681
  15   2.0000     -11.255147      -306.2681
  16   2.0000      -1.438085       -39.1323
  17   2.0000      -1.435889       -39.0725
  18   2.0000      -1.401424       -38.1347
  19   2.0000      -1.400979       -38.1226
  20   2.0000      -1.313929       -35.7538
  21   2.0000      -1.313913       -35.7534
  22   2.0000      -1.247937       -33.9581
  23   2.0000      -1.246971       -33.9318
  24   2.0000      -1.090187       -29.6655
  25   2.0000      -1.088804       -29.6279
  26   2.0000      -0.934918       -25.4404
  27   2.0000      -0.934699       -25.4345
  28   2.0000      -0.902925       -24.5698
  29   2.0000      -0.902547       -24.5596
  30   2.0000      -0.807401       -21.9705
  31   2.0000      -0.807051       -21.9610
  32   2.0000      -0.767093       -20.8737
  33   2.0000      -0.766638       -20.8613
  34   2.0000      -0.714999       -19.4561
  35   2.0000      -0.714911       -19.4537
  36   2.0000      -0.684170       -18.6172
  37   2.0000      -0.680555       -18.5188
  38   2.0000      -0.680044       -18.5049
  39   2.0000      -0.660038       -17.9605
  40   2.0000      -0.654101       -17.7990
  41   2.0000      -0.652778       -17.7630
  42   2.0000      -0.617287       -16.7972
  43   2.0000      -0.617265       -16.7966
  44   2.0000      -0.604265       -16.4429
  45   2.0000      -0.603857       -16.4318
  46   2.0000      -0.582376       -15.8473
  47   2.0000      -0.569357       -15.4930
  48   2.0000      -0.531845       -14.4723
  49   2.0000      -0.520053       -14.1514
  50   2.0000      -0.485775       -13.2186
  51   2.0000      -0.484798       -13.1920
  52   2.0000      -0.454584       -12.3699
  53   2.0000      -0.453709       -12.3460
  54   2.0000      -0.441587       -12.0162
  55   2.0000      -0.440582       -11.9888
  56   2.0000      -0.378610       -10.3025
  57   2.0000      -0.363285        -9.8855
  58   0.0000       0.014288         0.3888
  59   0.0000       0.020247         0.5510
  60   0.0000       0.031081         0.8458
  61   0.0000       0.032158         0.8751
  62   0.0000       0.041303         1.1239

MULLIKEN ATOMIC CHARGES
-----------------------
   0 N :   -0.736239
   1 H :    0.115888
   2 C :    1.319803
   3 O :   -0.947486
   4 N :   -0.708022
   5 H :    0.239437
   6 C :   -0.118107
   7 H :    0.401862
   8 C :   -0.403304
   9 H :    0.114732
  10 C :    1.608150
  11 O :   -0.886713
  12 N :   -0.736239
  13 H :    0.115888
  14 C :    1.319803
  15 O :   -0.947486
  16 N :   -0.708022
  17 H :    0.239437
  18 C :   -0.118107
  19 H :    0.401862
  20 C :   -0.403304
  21 H :    0.114731
  22 C :    1.608150
  23 O :   -0.886713
Sum of atomic charges:    0.0000000

LOEWDIN ATOMIC CHARGES
----------------------
   0 N :    0.777633
   1 H :   -0.524463
   2 C :   -0.885972
   3 O :    0.688664
   4 N :    0.815504
   5 H :   -0.351143
   6 C :    0.230761
   7 H :   -0.289644
   8 C :    0.324438
   9 H :   -0.486214
  10 C :   -1.009017
  11 O :    0.709455
  12 N :    0.777633
  13 H :   -0.524463
  14 C :   -0.885972
  15 O :    0.688664
  16 N :    0.815504
  17 H :   -0.351143
  18 C :    0.230761
  19 H :   -0.289644
  20 C :    0.324438
  21 H :   -0.486214
  22 C :   -1.009017
  23 O :    0.709455

  Mayer bond orders larger than 0.100000
B(  0-N ,  1-H ) :   1.1509 B(  0-N ,  2-C ) :   0.9638 B(  0-N ,  3-O ) :   0.1942
B(  0-N , 10-C ) :   1.0537 B(  0-N , 11-O ) :   0.2129 B(  2-C ,  3-O ) :   0.8337
B(  2-C ,  8-C ) :   1.1458 B(  3-O ,  8-C ) :   0.2172 B(  4-N ,  6-C ) :   0.9350
B(  4-N ,  9-H ) :   1.1406 B(  4-N , 10-C ) :   1.0447 B(  4-N , 11-O ) :   0.2089
B(  5-H ,  8-C ) :   1.0457 B(  6-C ,  7-H ) :   0.9556 B(  6-C ,  8-C ) :   1.4689
B( 10-C , 11-O ) :   0.9309 B( 12-N , 13-H ) :   1.1509 B( 12-N , 14-C ) :   0.9638
B( 12-N , 15-O ) :   0.1942 B( 12-N , 22-C ) :   1.0537 B( 12-N , 23-O ) :   0.2129
B( 14-C , 15-O ) :   0.8337 B( 14-C , 20-C ) :   1.1458 B( 15-O , 20-C ) :   0.2172
B( 16-N , 18-C ) :   0.9350 B( 16-N , 21-H ) :   1.1406 B( 16-N , 22-C ) :   1.0447
B( 16-N , 23-O ) :   0.2089 B( 17-H , 20-C ) :   1.0458 B( 18-C , 19-H ) :   0.9556
B( 18-C , 20-C ) :   1.4689 B( 22-C , 23-O ) :   0.9309

MP2 TOTAL ENERGY:     -828.496451941 Eh
FINAL SINGLE POINT ENERGY      -828.496451940959

DIPOLE MOMENT
-------------
                                X             Y             Z
Electronic contribution:      0.00000      -0.00000       3.67034
Nuclear contribution   :     -0.00000      -0.00000      -5.91054
                        -----------------------------------------
Total Dipole Moment    :      0.00000      -0.00000      -2.24019
                        -----------------------------------------
Magnitude (a.u.)       :      2.24019
Magnitude (Debye)      :      5.69412

Rotational constants in cm-1:     0.022569     0.016600     0.015557
Rotational constants in MHz :   676.593963   497.663301   466.378167

                             ****ORCA TERMINATED NORMALLY****
TOTAL RUN TIME: 0 days 14 hours 27 minutes 15 seconds 644 msec
