                         Program Version 5.0.4 -  RELEASE  -
|  1> ! ri-mp2 aug-cc-pvdz aug-cc-pvdz/c tightscf
|  2> %pal nprocs 16 end
|  3> %maxcore 3800
|  4> %base "DZ_S66by10_22_2.0_dimer"
|  5> %scf STABPerform true end
|  6>
|  7> *xyz 0 1
|  8> C   -1.11362611    1.32702009    0.27516705
|  9> O   -0.46708264    2.34938778    0.46153746
| 10> O   -0.57808939    0.13692049    0.04961747
| 11> H    0.41332036    0.20325661    0.05548711
| 12> C   -2.61142469    1.28618957    0.27736131
| 13> H   -3.00664872    2.27688545    0.46578983
| 14> H   -2.96425623    0.91525868   -0.68200123
| 15> H   -2.95311421    0.59179821    1.04124041
| 16> N    5.90123458    1.13116160    0.17642291
| 17> H    6.29443970    0.21577137    0.00470348
| 18> C    6.82276249    2.17927722    0.35787602
| 19> O    8.01990888    1.96098141    0.30499606
| 20> C    6.18369642    3.45873960    0.59848317
| 21> H    6.80323118    4.32566448    0.74996045
| 22> C    4.83661222    3.53872976    0.62786441
| 23> H    4.31377203    4.46717676    0.80316262
| 24> N    4.03288147    2.44804777    0.43745838
| 25> H    3.00882964    2.51799546    0.46124864
| 26> C    4.53281395    1.19782499    0.20328615
| 27> O    3.82078151    0.20832010    0.02981597
| 28> *
| 29>
| 30> $new_job
| 31> ! ri-mp2 aug-cc-pvtz aug-cc-pvtz/c tightscf
| 32> %pal nprocs 16 end
| 33> %maxcore 3800
| 34> %base "TZ_S66by10_22_2.0_dimer"
| 35>
| 36> *xyz 0 1
| 37> C   -1.11362611    1.32702009    0.27516705
| 38> O   -0.46708264    2.34938778    0.46153746
| 39> O   -0.57808939    0.13692049    0.04961747
| 40> H    0.41332036    0.20325661    0.05548711
| 41> C   -2.61142469    1.28618957    0.27736131
| 42> H   -3.00664872    2.27688545    0.46578983
| 43> H   -2.96425623    0.91525868   -0.68200123
| 44> H   -2.95311421    0.59179821    1.04124041
| 45> N    5.90123458    1.13116160    0.17642291
| 46> H    6.29443970    0.21577137    0.00470348
| 47> C    6.82276249    2.17927722    0.35787602
| 48> O    8.01990888    1.96098141    0.30499606
| 49> C    6.18369642    3.45873960    0.59848317
| 50> H    6.80323118    4.32566448    0.74996045
| 51> C    4.83661222    3.53872976    0.62786441
| 52> H    4.31377203    4.46717676    0.80316262
| 53> N    4.03288147    2.44804777    0.43745838
| 54> H    3.00882964    2.51799546    0.46124864
| 55> C    4.53281395    1.19782499    0.20328615
| 56> O    3.82078151    0.20832010    0.02981597
| 57> *
| 58>
| 59> $new_job
| 60> ! ri-mp2 aug-cc-pvqz aug-cc-pvqz/c tightscf
| 61> %pal nprocs 16 end
| 62> %maxcore 3800
| 63> %base "QZ_S66by10_22_2.0_dimer"
| 64>
| 65> *xyz 0 1
| 66> C   -1.11362611    1.32702009    0.27516705
| 67> O   -0.46708264    2.34938778    0.46153746
| 68> O   -0.57808939    0.13692049    0.04961747
| 69> H    0.41332036    0.20325661    0.05548711
| 70> C   -2.61142469    1.28618957    0.27736131
| 71> H   -3.00664872    2.27688545    0.46578983
| 72> H   -2.96425623    0.91525868   -0.68200123
| 73> H   -2.95311421    0.59179821    1.04124041
| 74> N    5.90123458    1.13116160    0.17642291
| 75> H    6.29443970    0.21577137    0.00470348
| 76> C    6.82276249    2.17927722    0.35787602
| 77> O    8.01990888    1.96098141    0.30499606
| 78> C    6.18369642    3.45873960    0.59848317
| 79> H    6.80323118    4.32566448    0.74996045
| 80> C    4.83661222    3.53872976    0.62786441
| 81> H    4.31377203    4.46717676    0.80316262
| 82> N    4.03288147    2.44804777    0.43745838
| 83> H    3.00882964    2.51799546    0.46124864
| 84> C    4.53281395    1.19782499    0.20328615
| 85> O    3.82078151    0.20832010    0.02981597
| 86> *
| 87>
| 88>
| 89>
| 90>
| 91>                          ****END OF INPUT****
 Total Charge           Charge          ....    0
 Multiplicity           Mult            ....    1
 Number of Electrons    NEL             ....   90
MP2 TOTAL ENERGY:     -642.305594581 Eh
FINAL SINGLE POINT ENERGY      -642.305594580924
MP2 TOTAL ENERGY:     -642.851648862 Eh
FINAL SINGLE POINT ENERGY      -642.851648862358

CARTESIAN COORDINATES (ANGSTROEM)
---------------------------------
  C     -1.113626    1.327020    0.275167
  O     -0.467083    2.349388    0.461537
  O     -0.578089    0.136920    0.049617
  H      0.413320    0.203257    0.055487
  C     -2.611425    1.286190    0.277361
  H     -3.006649    2.276885    0.465790
  H     -2.964256    0.915259   -0.682001
  H     -2.953114    0.591798    1.041240
  N      5.901235    1.131162    0.176423
  H      6.294440    0.215771    0.004703
  C      6.822762    2.179277    0.357876
  O      8.019909    1.960981    0.304996
  C      6.183696    3.458740    0.598483
  H      6.803231    4.325664    0.749960
  C      4.836612    3.538730    0.627864
  H      4.313772    4.467177    0.803163
  N      4.032881    2.448048    0.437458
  H      3.008830    2.517995    0.461249
  C      4.532814    1.197825    0.203286
  O      3.820782    0.208320    0.029816

 Multiplicity           Mult            ....    1
 Number of Electrons    NEL             ....   90
 Basis Dimension        Dim             .... 1328

ORBITAL ENERGIES
----------------

  NO   OCC          E(Eh)            E(eV)
   0   2.0000     -20.622744      -561.1734
   1   2.0000     -20.549690      -559.1855
   2   2.0000     -20.540990      -558.9488
   3   2.0000     -20.540095      -558.9244
   4   2.0000     -15.645212      -425.7279
   5   2.0000     -15.625979      -425.2045
   6   2.0000     -11.416788      -310.6666
   7   2.0000     -11.394222      -310.0525
   8   2.0000     -11.380177      -309.6704
   9   2.0000     -11.339873      -308.5736
  10   2.0000     -11.255149      -306.2682
  11   2.0000     -11.246218      -306.0252
  12   2.0000      -1.472735       -40.0752
  13   2.0000      -1.431957       -38.9655
  14   2.0000      -1.396537       -38.0017
  15   2.0000      -1.360196       -37.0128
  16   2.0000      -1.311908       -35.6988
  17   2.0000      -1.246277       -33.9129
  18   2.0000      -1.088835       -29.6287
  19   2.0000      -1.032099       -28.0848
  20   2.0000      -0.936216       -25.4757
  21   2.0000      -0.900503       -24.5039
  22   2.0000      -0.836718       -22.7682
  23   2.0000      -0.806314       -21.9409
  24   2.0000      -0.766826       -20.8664
  25   2.0000      -0.714300       -19.4371
  26   2.0000      -0.710186       -19.3252
  27   2.0000      -0.686392       -18.6777
  28   2.0000      -0.676752       -18.4154
  29   2.0000      -0.670465       -18.2443
  30   2.0000      -0.659257       -17.9393
  31   2.0000      -0.650095       -17.6900
  32   2.0000      -0.614813       -16.7299
  33   2.0000      -0.601503       -16.3677
  34   2.0000      -0.584776       -15.9126
  35   2.0000      -0.575628       -15.6636
  36   2.0000      -0.571099       -15.5404
  37   2.0000      -0.567495       -15.4423
  38   2.0000      -0.523629       -14.2487
  39   2.0000      -0.484891       -13.1946
  40   2.0000      -0.482710       -13.1352
  41   2.0000      -0.459524       -12.5043
  42   2.0000      -0.449429       -12.2296
  43   2.0000      -0.436815       -11.8864
  44   2.0000      -0.370003       -10.0683
  45   0.0000       0.018287         0.4976
  46   0.0000       0.025318         0.6889
  47   0.0000       0.034237         0.9316
  48   0.0000       0.037710         1.0261
  49   0.0000       0.038010         1.0343

MULLIKEN ATOMIC CHARGES
-----------------------
   0 C :    0.915001
   1 O :   -0.762997
   2 O :   -0.688776
   3 H :    0.402483
   4 C :   -0.757753
   5 H :    0.303389
   6 H :    0.292281
   7 H :    0.291855
   8 N :   -0.670050
   9 H :    0.140833
  10 C :    1.117606
  11 O :   -0.787512
  12 C :   -0.406931
  13 H :    0.307638
  14 C :   -0.225716
  15 H :    0.404771
  16 N :   -0.666081
  17 H :    0.180271
  18 C :    1.411404
  19 O :   -0.801718
Sum of atomic charges:   -0.0000000

LOEWDIN ATOMIC CHARGES
----------------------
   0 C :   -1.063764
   1 O :    0.661617
   2 O :    1.227329
   3 H :   -0.747045
   4 C :    0.858384
   5 H :   -0.325951
   6 H :   -0.304774
   7 H :   -0.304800
   8 N :    0.774281
   9 H :   -0.518545
  10 C :   -0.860813
  11 O :    0.682740
  12 C :    0.335710
  13 H :   -0.353816
  14 C :    0.235105
  15 H :   -0.298301
  16 N :    0.798475
  17 H :   -0.459781
  18 C :   -1.008112
  19 O :    0.672060

  Mayer bond orders larger than 0.100000
B(  0-C ,  1-O ) :   1.5281 B(  0-C ,  2-O ) :   0.9508 B(  0-C ,  4-C ) :   0.8668
B(  2-O ,  3-H ) :   0.8201 B(  4-C ,  5-H ) :   0.9624 B(  4-C ,  6-H ) :   0.9262
B(  4-C ,  7-H ) :   0.9268 B(  8-N ,  9-H ) :   1.1586 B(  8-N , 10-C ) :   0.9766
B(  8-N , 11-O ) :   0.1774 B(  8-N , 18-C ) :   1.0270 B(  8-N , 19-O ) :   0.1337
B( 10-C , 11-O ) :   1.1320 B( 10-C , 12-C ) :   1.1676 B( 10-C , 14-C ) :  -0.1532
B( 11-O , 12-C ) :   0.2459 B( 12-C , 13-H ) :   0.9924 B( 12-C , 14-C ) :   1.4262
B( 13-H , 14-C ) :  -0.1213 B( 14-C , 15-H ) :   0.9293 B( 14-C , 16-N ) :   0.8822
B( 16-N , 17-H ) :   1.0999 B( 16-N , 18-C ) :   1.1262 B( 16-N , 19-O ) :   0.1957
B( 18-C , 19-O ) :   1.2356

MP2 TOTAL ENERGY:     -643.031780000 Eh
FINAL SINGLE POINT ENERGY      -643.031779999825

DIPOLE MOMENT
-------------
                                X             Y             Z
Electronic contribution:     11.10524      -0.77384      -0.23160
Nuclear contribution   :    -12.72381       1.60566       0.39664
                        -----------------------------------------
Total Dipole Moment    :     -1.61857       0.83182       0.16504
                        -----------------------------------------
Magnitude (a.u.)       :      1.82728
Magnitude (Debye)      :      4.64457

Rotational constants in cm-1:     0.092070     0.008192     0.007533
Rotational constants in MHz :  2760.200198   245.577042   225.825572

                             ****ORCA TERMINATED NORMALLY****
TOTAL RUN TIME: 0 days 4 hours 14 minutes 30 seconds 576 msec
