                         Program Version 5.0.4 -  RELEASE  -
|  1> ! ri-mp2 aug-cc-pvdz aug-cc-pvdz/c tightscf
|  2> %pal nprocs 16 end
|  3> %maxcore 3800
|  4> %base "DZ_S66by10_33_1.1_dimer"
|  5>
|  6> *xyz 0 1
|  7> N    1.38138219   -0.00023348    0.13146374
|  8> C    0.67935079   -1.14023946    0.09207966
|  9> H    1.25871960   -2.05496223    0.12588361
| 10> C   -0.70972232   -1.19311407    0.00666426
| 11> H   -1.21408768   -2.14856163   -0.02530851
| 12> C   -1.42161357    0.00013343   -0.04081690
| 13> H   -2.50069615    0.00025757   -0.10916973
| 14> C   -0.70940120    1.19317538    0.00652198
| 15> H   -1.21351163    2.14874784   -0.02552831
| 16> C    0.67965167    1.13995623    0.09189303
| 17> H    1.25926073    2.05451090    0.12550248
| 18> C    0.02203906    0.66645114    3.75778574
| 19> H    0.93251306    1.22593686    3.59867090
| 20> H   -0.88750844    1.22885537    3.91474624
| 21> C    0.02237175   -0.66623616    3.75791798
| 22> H    0.93310744   -1.22531865    3.59890755
| 23> H   -0.88691635   -1.22906093    3.91500713
| 24> *
| 25>
| 26> $new_job
| 27> ! ri-mp2 aug-cc-pvtz aug-cc-pvtz/c tightscf
| 28> %pal nprocs 16 end
| 29> %maxcore 3800
| 30> %base "TZ_S66by10_33_1.1_dimer"
| 31>
| 32> *xyz 0 1
| 33> N    1.38138219   -0.00023348    0.13146374
| 34> C    0.67935079   -1.14023946    0.09207966
| 35> H    1.25871960   -2.05496223    0.12588361
| 36> C   -0.70972232   -1.19311407    0.00666426
| 37> H   -1.21408768   -2.14856163   -0.02530851
| 38> C   -1.42161357    0.00013343   -0.04081690
| 39> H   -2.50069615    0.00025757   -0.10916973
| 40> C   -0.70940120    1.19317538    0.00652198
| 41> H   -1.21351163    2.14874784   -0.02552831
| 42> C    0.67965167    1.13995623    0.09189303
| 43> H    1.25926073    2.05451090    0.12550248
| 44> C    0.02203906    0.66645114    3.75778574
| 45> H    0.93251306    1.22593686    3.59867090
| 46> H   -0.88750844    1.22885537    3.91474624
| 47> C    0.02237175   -0.66623616    3.75791798
| 48> H    0.93310744   -1.22531865    3.59890755
| 49> H   -0.88691635   -1.22906093    3.91500713
| 50> *
| 51>
| 52> $new_job
| 53> ! ri-mp2 aug-cc-pvqz aug-cc-pvqz/c tightscf
| 54> %pal nprocs 16 end
| 55> %maxcore 3800
| 56> %base "QZ_S66by10_33_1.1_dimer"
| 57>
| 58> *xyz 0 1
| 59> N    1.38138219   -0.00023348    0.13146374
| 60> C    0.67935079   -1.14023946    0.09207966
| 61> H    1.25871960   -2.05496223    0.12588361
| 62> C   -0.70972232   -1.19311407    0.00666426
| 63> H   -1.21408768   -2.14856163   -0.02530851
| 64> C   -1.42161357    0.00013343   -0.04081690
| 65> H   -2.50069615    0.00025757   -0.10916973
| 66> C   -0.70940120    1.19317538    0.00652198
| 67> H   -1.21351163    2.14874784   -0.02552831
| 68> C    0.67965167    1.13995623    0.09189303
| 69> H    1.25926073    2.05451090    0.12550248
| 70> C    0.02203906    0.66645114    3.75778574
| 71> H    0.93251306    1.22593686    3.59867090
| 72> H   -0.88750844    1.22885537    3.91474624
| 73> C    0.02237175   -0.66623616    3.75791798
| 74> H    0.93310744   -1.22531865    3.59890755
| 75> H   -0.88691635   -1.22906093    3.91500713
| 76> *
| 77>
| 78>
| 79>
| 80>
| 81>                          ****END OF INPUT****
 Total Charge           Charge          ....    0
 Multiplicity           Mult            ....    1
 Number of Electrons    NEL             ....   58
MP2 TOTAL ENERGY:     -325.895956387 Eh
FINAL SINGLE POINT ENERGY      -325.895956386615
MP2 TOTAL ENERGY:     -326.186285132 Eh
FINAL SINGLE POINT ENERGY      -326.186285132032

CARTESIAN COORDINATES (ANGSTROEM)
---------------------------------
  N      1.381382   -0.000233    0.131464
  C      0.679351   -1.140239    0.092080
  H      1.258720   -2.054962    0.125884
  C     -0.709722   -1.193114    0.006664
  H     -1.214088   -2.148562   -0.025309
  C     -1.421614    0.000133   -0.040817
  H     -2.500696    0.000258   -0.109170
  C     -0.709401    1.193175    0.006522
  H     -1.213512    2.148748   -0.025528
  C      0.679652    1.139956    0.091893
  H      1.259261    2.054511    0.125502
  C      0.022039    0.666451    3.757786
  H      0.932513    1.225937    3.598671
  H     -0.887508    1.228855    3.914746
  C      0.022372   -0.666236    3.757918
  H      0.933107   -1.225319    3.598908
  H     -0.886916   -1.229061    3.915007

 Multiplicity           Mult            ....    1
 Number of Electrons    NEL             ....   58
 Basis Dimension        Dim             .... 1054

ORBITAL ENERGIES
----------------

  NO   OCC          E(Eh)            E(eV)
   0   2.0000     -15.562501      -423.4772
   1   2.0000     -11.271984      -306.7263
   2   2.0000     -11.271967      -306.7258
   3   2.0000     -11.256575      -306.3070
   4   2.0000     -11.238768      -305.8224
   5   2.0000     -11.238714      -305.8210
   6   2.0000     -11.223172      -305.3980
   7   2.0000     -11.221449      -305.3511
   8   2.0000      -1.254218       -34.1290
   9   2.0000      -1.087443       -29.5908
  10   2.0000      -1.031055       -28.0564
  11   2.0000      -1.027703       -27.9652
  12   2.0000      -0.857164       -23.3246
  13   2.0000      -0.853779       -23.2325
  14   2.0000      -0.787147       -21.4194
  15   2.0000      -0.720093       -19.5947
  16   2.0000      -0.658585       -17.9210
  17   2.0000      -0.652426       -17.7534
  18   2.0000      -0.638759       -17.3815
  19   2.0000      -0.596104       -16.2208
  20   2.0000      -0.581244       -15.8164
  21   2.0000      -0.575364       -15.6565
  22   2.0000      -0.539577       -14.6826
  23   2.0000      -0.518104       -14.0983
  24   2.0000      -0.502755       -13.6807
  25   2.0000      -0.418003       -11.3744
  26   2.0000      -0.382344       -10.4041
  27   2.0000      -0.369142       -10.0449
  28   2.0000      -0.345353        -9.3975
  29   0.0000       0.022980         0.6253
  30   0.0000       0.027685         0.7533
  31   0.0000       0.032615         0.8875
  32   0.0000       0.039105         1.0641
  33   0.0000       0.042005         1.1430

MULLIKEN ATOMIC CHARGES
-----------------------
   0 N :   -0.633000
   1 C :   -0.171867
   2 H :    0.445323
   3 C :   -0.326072
   4 H :    0.325136
   5 C :   -0.286449
   6 H :    0.356923
   7 C :   -0.326148
   8 H :    0.325023
   9 C :   -0.171817
  10 H :    0.445420
  11 C :   -0.830209
  12 H :    0.415593
  13 H :    0.423389
  14 C :   -0.830145
  15 H :    0.415498
  16 H :    0.423402
Sum of atomic charges:    0.0000000

LOEWDIN ATOMIC CHARGES
----------------------
   0 N :    0.588984
   1 C :    0.051959
   2 H :   -0.352692
   3 C :    0.316099
   4 H :   -0.328128
   5 C :    0.319176
   6 H :   -0.312734
   7 C :    0.316083
   8 H :   -0.328134
   9 C :    0.051974
  10 H :   -0.352711
  11 C :    0.743759
  12 H :   -0.364551
  13 H :   -0.364154
  14 C :    0.743758
  15 H :   -0.364553
  16 H :   -0.364135

  Mayer bond orders larger than 0.100000
B(  0-N ,  1-C ) :   1.1939 B(  0-N ,  2-H ) :  -0.1165 B(  0-N ,  9-C ) :   1.1939
B(  0-N , 10-H ) :  -0.1166 B(  1-C ,  2-H ) :   0.9102 B(  1-C ,  3-C ) :   1.1941
B(  3-C ,  4-H ) :   1.0035 B(  3-C ,  5-C ) :   1.2094 B(  5-C ,  6-H ) :   0.9701
B(  5-C ,  7-C ) :   1.2094 B(  7-C ,  8-H ) :   1.0036 B(  7-C ,  9-C ) :   1.1941
B(  9-C , 10-H ) :   0.9102 B( 11-C , 12-H ) :   0.8198 B( 11-C , 13-H ) :   0.8119
B( 11-C , 14-C ) :   2.0123 B( 14-C , 15-H ) :   0.8199 B( 14-C , 16-H ) :   0.8118

MP2 TOTAL ENERGY:     -326.277677753 Eh
FINAL SINGLE POINT ENERGY      -326.277677752787

DIPOLE MOMENT
-------------
                                X             Y             Z
Electronic contribution:      1.24334      -0.00037      -5.64666
Nuclear contribution   :     -2.14824       0.00048       5.57211
                        -----------------------------------------
Total Dipole Moment    :     -0.90490       0.00011      -0.07455
                        -----------------------------------------
Magnitude (a.u.)       :      0.90797
Magnitude (Debye)      :      2.30787

Rotational constants in cm-1:     0.088857     0.044905     0.043712
Rotational constants in MHz :  2663.865299  1346.205389  1310.448817

                             ****ORCA TERMINATED NORMALLY****
TOTAL RUN TIME: 0 days 0 hours 30 minutes 19 seconds 252 msec
