                         Program Version 5.0.4 -  RELEASE  -
|  1> ! ri-mp2 aug-cc-pvdz aug-cc-pvdz/c tightscf
|  2> %pal nprocs 16 end
|  3> %maxcore 3800
|  4> %base "DZ_S66by10_22_0.9_dimer"
|  5> %scf STABPerform true end
|  6>
|  7> *xyz 0 1
|  8> C   -1.11362611    1.32702009    0.27516705
|  9> O   -0.46708264    2.34938778    0.46153746
| 10> O   -0.57808939    0.13692049    0.04961747
| 11> H    0.41332036    0.20325661    0.05548711
| 12> C   -2.61142469    1.28618957    0.27736131
| 13> H   -3.00664872    2.27688545    0.46578983
| 14> H   -2.96425623    0.91525868   -0.68200123
| 15> H   -2.95311421    0.59179821    1.04124041
| 16> N    4.02653640    1.08386197    0.18349315
| 17> H    4.41974152    0.16847174    0.01177372
| 18> C    4.94806431    2.13197759    0.36494626
| 19> O    6.14521070    1.91368178    0.31206629
| 20> C    4.30899824    3.41143997    0.60555341
| 21> H    4.92853301    4.27836485    0.75703068
| 22> C    2.96191404    3.49143012    0.63493464
| 23> H    2.43907385    4.41987713    0.81023285
| 24> N    2.15818329    2.40074814    0.44452861
| 25> H    1.13413146    2.47069583    0.46831888
| 26> C    2.65811577    1.15052535    0.21035639
| 27> O    1.94608333    0.16102047    0.03688621
| 28> *
| 29>
| 30> $new_job
| 31> ! ri-mp2 aug-cc-pvtz aug-cc-pvtz/c tightscf
| 32> %pal nprocs 16 end
| 33> %maxcore 3800
| 34> %base "TZ_S66by10_22_0.9_dimer"
| 35>
| 36> *xyz 0 1
| 37> C   -1.11362611    1.32702009    0.27516705
| 38> O   -0.46708264    2.34938778    0.46153746
| 39> O   -0.57808939    0.13692049    0.04961747
| 40> H    0.41332036    0.20325661    0.05548711
| 41> C   -2.61142469    1.28618957    0.27736131
| 42> H   -3.00664872    2.27688545    0.46578983
| 43> H   -2.96425623    0.91525868   -0.68200123
| 44> H   -2.95311421    0.59179821    1.04124041
| 45> N    4.02653640    1.08386197    0.18349315
| 46> H    4.41974152    0.16847174    0.01177372
| 47> C    4.94806431    2.13197759    0.36494626
| 48> O    6.14521070    1.91368178    0.31206629
| 49> C    4.30899824    3.41143997    0.60555341
| 50> H    4.92853301    4.27836485    0.75703068
| 51> C    2.96191404    3.49143012    0.63493464
| 52> H    2.43907385    4.41987713    0.81023285
| 53> N    2.15818329    2.40074814    0.44452861
| 54> H    1.13413146    2.47069583    0.46831888
| 55> C    2.65811577    1.15052535    0.21035639
| 56> O    1.94608333    0.16102047    0.03688621
| 57> *
| 58>
| 59> $new_job
| 60> ! ri-mp2 aug-cc-pvqz aug-cc-pvqz/c tightscf
| 61> %pal nprocs 16 end
| 62> %maxcore 3800
| 63> %base "QZ_S66by10_22_0.9_dimer"
| 64>
| 65> *xyz 0 1
| 66> C   -1.11362611    1.32702009    0.27516705
| 67> O   -0.46708264    2.34938778    0.46153746
| 68> O   -0.57808939    0.13692049    0.04961747
| 69> H    0.41332036    0.20325661    0.05548711
| 70> C   -2.61142469    1.28618957    0.27736131
| 71> H   -3.00664872    2.27688545    0.46578983
| 72> H   -2.96425623    0.91525868   -0.68200123
| 73> H   -2.95311421    0.59179821    1.04124041
| 74> N    4.02653640    1.08386197    0.18349315
| 75> H    4.41974152    0.16847174    0.01177372
| 76> C    4.94806431    2.13197759    0.36494626
| 77> O    6.14521070    1.91368178    0.31206629
| 78> C    4.30899824    3.41143997    0.60555341
| 79> H    4.92853301    4.27836485    0.75703068
| 80> C    2.96191404    3.49143012    0.63493464
| 81> H    2.43907385    4.41987713    0.81023285
| 82> N    2.15818329    2.40074814    0.44452861
| 83> H    1.13413146    2.47069583    0.46831888
| 84> C    2.65811577    1.15052535    0.21035639
| 85> O    1.94608333    0.16102047    0.03688621
| 86> *
| 87>
| 88>
| 89>
| 90>
| 91>                          ****END OF INPUT****
 Total Charge           Charge          ....    0
 Multiplicity           Mult            ....    1
 Number of Electrons    NEL             ....   90
MP2 TOTAL ENERGY:     -642.328288226 Eh
FINAL SINGLE POINT ENERGY      -642.328288226405
MP2 TOTAL ENERGY:     -642.875354129 Eh
FINAL SINGLE POINT ENERGY      -642.875354128679

CARTESIAN COORDINATES (ANGSTROEM)
---------------------------------
  C     -1.113626    1.327020    0.275167
  O     -0.467083    2.349388    0.461537
  O     -0.578089    0.136920    0.049617
  H      0.413320    0.203257    0.055487
  C     -2.611425    1.286190    0.277361
  H     -3.006649    2.276885    0.465790
  H     -2.964256    0.915259   -0.682001
  H     -2.953114    0.591798    1.041240
  N      4.026536    1.083862    0.183493
  H      4.419742    0.168472    0.011774
  C      4.948064    2.131978    0.364946
  O      6.145211    1.913682    0.312066
  C      4.308998    3.411440    0.605553
  H      4.928533    4.278365    0.757031
  C      2.961914    3.491430    0.634935
  H      2.439074    4.419877    0.810233
  N      2.158183    2.400748    0.444529
  H      1.134131    2.470696    0.468319
  C      2.658116    1.150525    0.210356
  O      1.946083    0.161020    0.036886

 Multiplicity           Mult            ....    1
 Number of Electrons    NEL             ....   90
 Basis Dimension        Dim             .... 1328

ORBITAL ENERGIES
----------------

  NO   OCC          E(Eh)            E(eV)
   0   2.0000     -20.591358      -560.3193
   1   2.0000     -20.559709      -559.4581
   2   2.0000     -20.559269      -559.4461
   3   2.0000     -20.538500      -558.8810
   4   2.0000     -15.630314      -425.3225
   5   2.0000     -15.622024      -425.0969
   6   2.0000     -11.426777      -310.9384
   7   2.0000     -11.400326      -310.2186
   8   2.0000     -11.379341      -309.6476
   9   2.0000     -11.332251      -308.3662
  10   2.0000     -11.249391      -306.1115
  11   2.0000     -11.245964      -306.0182
  12   2.0000      -1.469119       -39.9768
  13   2.0000      -1.444162       -39.2977
  14   2.0000      -1.399370       -38.0788
  15   2.0000      -1.367611       -37.2146
  16   2.0000      -1.311869       -35.6978
  17   2.0000      -1.245931       -33.9035
  18   2.0000      -1.084488       -29.5104
  19   2.0000      -1.033507       -28.1232
  20   2.0000      -0.931314       -25.3423
  21   2.0000      -0.906364       -24.6634
  22   2.0000      -0.830243       -22.5920
  23   2.0000      -0.813365       -22.1328
  24   2.0000      -0.768107       -20.9013
  25   2.0000      -0.736385       -20.0380
  26   2.0000      -0.702488       -19.1157
  27   2.0000      -0.696370       -18.9492
  28   2.0000      -0.677215       -18.4280
  29   2.0000      -0.673445       -18.3254
  30   2.0000      -0.654394       -17.8070
  31   2.0000      -0.652135       -17.7455
  32   2.0000      -0.610333       -16.6080
  33   2.0000      -0.603743       -16.4287
  34   2.0000      -0.584242       -15.8980
  35   2.0000      -0.573632       -15.6093
  36   2.0000      -0.570317       -15.5191
  37   2.0000      -0.560975       -15.2649
  38   2.0000      -0.524993       -14.2858
  39   2.0000      -0.497651       -13.5418
  40   2.0000      -0.491096       -13.3634
  41   2.0000      -0.467026       -12.7084
  42   2.0000      -0.450781       -12.2664
  43   2.0000      -0.447060       -12.1651
  44   2.0000      -0.364703        -9.9241
  45   0.0000       0.019051         0.5184
  46   0.0000       0.025994         0.7073
  47   0.0000       0.033181         0.9029
  48   0.0000       0.038291         1.0420
  49   0.0000       0.039452         1.0735

MULLIKEN ATOMIC CHARGES
-----------------------
   0 C :    0.964035
   1 O :   -0.707626
   2 O :   -0.690327
   3 H :    0.262004
   4 C :   -0.714086
   5 H :    0.336311
   6 H :    0.292127
   7 H :    0.291147
   8 N :   -0.657544
   9 H :    0.129744
  10 C :    1.113039
  11 O :   -0.825072
  12 C :   -0.369083
  13 H :    0.285277
  14 C :   -0.345758
  15 H :    0.317193
  16 N :   -0.545171
  17 H :    0.186264
  18 C :    1.387157
  19 O :   -0.709632
Sum of atomic charges:   -0.0000000

LOEWDIN ATOMIC CHARGES
----------------------
   0 C :   -0.902050
   1 O :    0.895194
   2 O :    1.271453
   3 H :   -1.269790
   4 C :    0.884305
   5 H :   -0.323635
   6 H :   -0.301619
   7 H :   -0.301645
   8 N :    0.797486
   9 H :   -0.513206
  10 C :   -0.858949
  11 O :    0.681812
  12 C :    0.338137
  13 H :   -0.354977
  14 C :    0.254208
  15 H :   -0.291134
  16 N :    0.817651
  17 H :   -0.921402
  18 C :   -0.830692
  19 O :    0.928852

  Mayer bond orders larger than 0.100000
B(  0-C ,  1-O ) :   1.5142 B(  0-C ,  2-O ) :   0.9568 B(  0-C ,  4-C ) :   0.6528
B(  0-C ,  5-H ) :  -0.1009 B(  2-O ,  3-H ) :   0.9105 B(  2-O , 19-O ) :  -0.1202
B(  4-C ,  5-H ) :   0.9655 B(  4-C ,  6-H ) :   0.9423 B(  4-C ,  7-H ) :   0.9435
B(  8-N ,  9-H ) :   1.1879 B(  8-N , 10-C ) :   1.0301 B(  8-N , 11-O ) :   0.1588
B(  8-N , 18-C ) :   1.0203 B(  9-H , 18-C ) :  -0.1028 B( 10-C , 11-O ) :   1.0328
B( 10-C , 12-C ) :   1.1525 B( 11-O , 12-C ) :   0.2716 B( 12-C , 13-H ) :   1.0100
B( 12-C , 14-C ) :   1.4569 B( 13-H , 14-C ) :  -0.1141 B( 14-C , 15-H ) :   1.0040
B( 14-C , 16-N ) :   1.0538 B( 16-N , 17-H ) :   0.9576 B( 16-N , 18-C ) :   1.1892
B( 16-N , 19-O ) :   0.2089 B( 18-C , 19-O ) :   1.2475

MP2 TOTAL ENERGY:     -643.054971120 Eh
FINAL SINGLE POINT ENERGY      -643.054971120231

DIPOLE MOMENT
-------------
                                X             Y             Z
Electronic contribution:      8.98861      -0.86250      -0.22953
Nuclear contribution   :    -10.58759       1.65956       0.38859
                        -----------------------------------------
Total Dipole Moment    :     -1.59898       0.79706       0.15905
                        -----------------------------------------
Magnitude (a.u.)       :      1.79370
Magnitude (Debye)      :      4.55922

Rotational constants in cm-1:     0.093116     0.013867     0.012097
Rotational constants in MHz :  2791.542306   415.736222   362.652739

                             ****ORCA TERMINATED NORMALLY****
TOTAL RUN TIME: 0 days 5 hours 48 minutes 14 seconds 900 msec
