                         Program Version 5.0.4 -  RELEASE  -
|  1> ! ri-mp2 aug-cc-pvdz aug-cc-pvdz/c tightscf
|  2> %pal nprocs 16 end
|  3> %maxcore 3800
|  4> %base "DZ_S66by10_17_0.8_dimer"
|  5> %scf STABPerform true end
|  6>
|  7> *xyz 0 1
|  8> N   -0.72999913    0.02276763    0.00091465
|  9> H    0.29842255    0.07400447    0.00162304
| 10> C   -1.29682453   -1.24042682    0.00150234
| 11> O   -0.59409886   -2.25351751    0.00263371
| 12> C   -2.74362229   -1.26233170    0.00047938
| 13> H   -3.24959045   -2.21183517    0.00083311
| 14> C   -3.42201997   -0.09590921   -0.00092259
| 15> H   -4.50089709   -0.04921603   -0.00174546
| 16> N   -2.77483684    1.10540895   -0.00141807
| 17> H   -3.28383807    1.97387739   -0.00248574
| 18> C   -1.39147866    1.23701978   -0.00052538
| 19> O   -0.83984371    2.31703528   -0.00100125
| 20> N    3.79817647   -1.06769152    0.00049750
| 21> H    4.24542025   -0.16111832    0.00088432
| 22> C    4.65422424   -2.18230931   -0.00100237
| 23> O    5.86367626   -2.03060490   -0.00175157
| 24> C    3.94000580   -3.44448285   -0.00150677
| 25> H    4.50659035   -4.35951360   -0.00264540
| 26> C    2.58983683   -3.44830072   -0.00054667
| 27> H    2.01287359   -4.36126549   -0.00086535
| 28> N    1.85184542   -2.29741988    0.00090374
| 29> H    0.82550916   -2.31886268    0.00158081
| 30> C    2.42461636   -1.05275484    0.00145439
| 31> O    1.77429547   -0.01153654    0.00269078
| 32> *
| 33>
| 34> $new_job
| 35> ! ri-mp2 aug-cc-pvtz aug-cc-pvtz/c tightscf
| 36> %pal nprocs 16 end
| 37> %maxcore 3800
| 38> %base "TZ_S66by10_17_0.8_dimer"
| 39>
| 40> *xyz 0 1
| 41> N   -0.72999913    0.02276763    0.00091465
| 42> H    0.29842255    0.07400447    0.00162304
| 43> C   -1.29682453   -1.24042682    0.00150234
| 44> O   -0.59409886   -2.25351751    0.00263371
| 45> C   -2.74362229   -1.26233170    0.00047938
| 46> H   -3.24959045   -2.21183517    0.00083311
| 47> C   -3.42201997   -0.09590921   -0.00092259
| 48> H   -4.50089709   -0.04921603   -0.00174546
| 49> N   -2.77483684    1.10540895   -0.00141807
| 50> H   -3.28383807    1.97387739   -0.00248574
| 51> C   -1.39147866    1.23701978   -0.00052538
| 52> O   -0.83984371    2.31703528   -0.00100125
| 53> N    3.79817647   -1.06769152    0.00049750
| 54> H    4.24542025   -0.16111832    0.00088432
| 55> C    4.65422424   -2.18230931   -0.00100237
| 56> O    5.86367626   -2.03060490   -0.00175157
| 57> C    3.94000580   -3.44448285   -0.00150677
| 58> H    4.50659035   -4.35951360   -0.00264540
| 59> C    2.58983683   -3.44830072   -0.00054667
| 60> H    2.01287359   -4.36126549   -0.00086535
| 61> N    1.85184542   -2.29741988    0.00090374
| 62> H    0.82550916   -2.31886268    0.00158081
| 63> C    2.42461636   -1.05275484    0.00145439
| 64> O    1.77429547   -0.01153654    0.00269078
| 65> *
| 66>
| 67> $new_job
| 68> ! ri-mp2 aug-cc-pvqz aug-cc-pvqz/c tightscf
| 69> %pal nprocs 16 end
| 70> %maxcore 3800
| 71> %base "QZ_S66by10_17_0.8_dimer"
| 72>
| 73> *xyz 0 1
| 74> N   -0.72999913    0.02276763    0.00091465
| 75> H    0.29842255    0.07400447    0.00162304
| 76> C   -1.29682453   -1.24042682    0.00150234
| 77> O   -0.59409886   -2.25351751    0.00263371
| 78> C   -2.74362229   -1.26233170    0.00047938
| 79> H   -3.24959045   -2.21183517    0.00083311
| 80> C   -3.42201997   -0.09590921   -0.00092259
| 81> H   -4.50089709   -0.04921603   -0.00174546
| 82> N   -2.77483684    1.10540895   -0.00141807
| 83> H   -3.28383807    1.97387739   -0.00248574
| 84> C   -1.39147866    1.23701978   -0.00052538
| 85> O   -0.83984371    2.31703528   -0.00100125
| 86> N    3.79817647   -1.06769152    0.00049750
| 87> H    4.24542025   -0.16111832    0.00088432
| 88> C    4.65422424   -2.18230931   -0.00100237
| 89> O    5.86367626   -2.03060490   -0.00175157
| 90> C    3.94000580   -3.44448285   -0.00150677
| 91> H    4.50659035   -4.35951360   -0.00264540
| 92> C    2.58983683   -3.44830072   -0.00054667
| 93> H    2.01287359   -4.36126549   -0.00086535
| 94> N    1.85184542   -2.29741988    0.00090374
| 95> H    0.82550916   -2.31886268    0.00158081
| 96> C    2.42461636   -1.05275484    0.00145439
| 97> O    1.77429547   -0.01153654    0.00269078
| 98> *
| 99>
|100>
|101>
|102>
|103>                          ****END OF INPUT****
 Total Charge           Charge          ....    0
 Multiplicity           Mult            ....    1
 Number of Electrons    NEL             ....  116
MP2 TOTAL ENERGY:     -827.570303402 Eh
FINAL SINGLE POINT ENERGY      -827.570303401718
MP2 TOTAL ENERGY:     -828.266220870 Eh
FINAL SINGLE POINT ENERGY      -828.266220869821

CARTESIAN COORDINATES (ANGSTROEM)
---------------------------------
  N     -0.729999    0.022768    0.000915
  H      0.298423    0.074004    0.001623
  C     -1.296825   -1.240427    0.001502
  O     -0.594099   -2.253518    0.002634
  C     -2.743622   -1.262332    0.000479
  H     -3.249590   -2.211835    0.000833
  C     -3.422020   -0.095909   -0.000923
  H     -4.500897   -0.049216   -0.001745
  N     -2.774837    1.105409   -0.001418
  H     -3.283838    1.973877   -0.002486
  C     -1.391479    1.237020   -0.000525
  O     -0.839844    2.317035   -0.001001
  N      3.798176   -1.067692    0.000498
  H      4.245420   -0.161118    0.000884
  C      4.654224   -2.182309   -0.001002
  O      5.863676   -2.030605   -0.001752
  C      3.940006   -3.444483   -0.001507
  H      4.506590   -4.359514   -0.002645
  C      2.589837   -3.448301   -0.000547
  H      2.012874   -4.361265   -0.000865
  N      1.851845   -2.297420    0.000904
  H      0.825509   -2.318863    0.001581
  C      2.424616   -1.052755    0.001454
  O      1.774295   -0.011537    0.002691

 Multiplicity           Mult            ....    1
 Number of Electrons    NEL             ....  116
 Basis Dimension        Dim             .... 1648

ORBITAL ENERGIES
----------------

  NO   OCC          E(Eh)            E(eV)
   0   2.0000     -20.557060      -559.3860
   1   2.0000     -20.547169      -559.1169
   2   2.0000     -20.539759      -558.9152
   3   2.0000     -20.528180      -558.6002
   4   2.0000     -15.644847      -425.7179
   5   2.0000     -15.619601      -425.0309
   6   2.0000     -15.605384      -424.6441
   7   2.0000     -15.600101      -424.5003
   8   2.0000     -11.415257      -310.6249
   9   2.0000     -11.412470      -310.5491
  10   2.0000     -11.396970      -310.1273
  11   2.0000     -11.369162      -309.3706
  12   2.0000     -11.347772      -308.7886
  13   2.0000     -11.320712      -308.0522
  14   2.0000     -11.258477      -306.3587
  15   2.0000     -11.237983      -305.8011
  16   2.0000      -1.443515       -39.2800
  17   2.0000      -1.432532       -38.9812
  18   2.0000      -1.416171       -38.5360
  19   2.0000      -1.389426       -37.8082
  20   2.0000      -1.315122       -35.7863
  21   2.0000      -1.300897       -35.3992
  22   2.0000      -1.243602       -33.8401
  23   2.0000      -1.233693       -33.5705
  24   2.0000      -1.093873       -29.7658
  25   2.0000      -1.072824       -29.1930
  26   2.0000      -0.943126       -25.6638
  27   2.0000      -0.918787       -25.0015
  28   2.0000      -0.906857       -24.6768
  29   2.0000      -0.891765       -24.2662
  30   2.0000      -0.818840       -22.2818
  31   2.0000      -0.803908       -21.8754
  32   2.0000      -0.767377       -20.8814
  33   2.0000      -0.756243       -20.5784
  34   2.0000      -0.737431       -20.0665
  35   2.0000      -0.719842       -19.5879
  36   2.0000      -0.685029       -18.6406
  37   2.0000      -0.669663       -18.2225
  38   2.0000      -0.666770       -18.1437
  39   2.0000      -0.659910       -17.9571
  40   2.0000      -0.651715       -17.7341
  41   2.0000      -0.642104       -17.4725
  42   2.0000      -0.624482       -16.9930
  43   2.0000      -0.608562       -16.5598
  44   2.0000      -0.590917       -16.0797
  45   2.0000      -0.588859       -16.0237
  46   2.0000      -0.583211       -15.8700
  47   2.0000      -0.562899       -15.3173
  48   2.0000      -0.525340       -14.2952
  49   2.0000      -0.511341       -13.9143
  50   2.0000      -0.501255       -13.6398
  51   2.0000      -0.470738       -12.8094
  52   2.0000      -0.460537       -12.5319
  53   2.0000      -0.442397       -12.0382
  54   2.0000      -0.440513       -11.9870
  55   2.0000      -0.435503       -11.8506
  56   2.0000      -0.375433       -10.2161
  57   2.0000      -0.352082        -9.5806
  58   0.0000       0.008572         0.2333
  59   0.0000       0.021231         0.5777
  60   0.0000       0.029158         0.7934
  61   0.0000       0.036289         0.9875
  62   0.0000       0.040286         1.0962

MULLIKEN ATOMIC CHARGES
-----------------------
   0 N :   -0.791798
   1 H :    0.426414
   2 C :    1.036081
   3 O :   -0.706554
   4 C :   -0.395462
   5 H :    0.237022
   6 C :   -0.093580
   7 H :    0.421975
   8 N :   -0.722831
   9 H :    0.058267
  10 C :    1.366929
  11 O :   -0.771458
  12 N :   -0.687913
  13 H :    0.121296
  14 C :    1.101103
  15 O :   -0.848081
  16 C :   -0.357800
  17 H :    0.271650
  18 C :   -0.383587
  19 H :    0.290238
  20 N :   -0.599386
  21 H :    0.291841
  22 C :    1.447856
  23 O :   -0.712224
Sum of atomic charges:    0.0000000

LOEWDIN ATOMIC CHARGES
----------------------
   0 N :    0.789919
   1 H :   -1.060480
   2 C :   -0.664497
   3 O :    0.985882
   4 C :    0.357881
   5 H :   -0.352651
   6 C :    0.241631
   7 H :   -0.293767
   8 N :    0.816065
   9 H :   -0.492585
  10 C :   -0.958299
  11 O :    0.704646
  12 N :    0.799829
  13 H :   -0.514210
  14 C :   -0.864186
  15 O :    0.677270
  16 C :    0.335026
  17 H :   -0.357669
  18 C :    0.254116
  19 H :   -0.291339
  20 N :    0.809011
  21 H :   -1.096256
  22 C :   -0.797877
  23 O :    0.972540

  Mayer bond orders larger than 0.100000
B(  0-N ,  1-H ) :   0.7918 B(  0-N ,  2-C ) :   1.1107 B(  0-N ,  3-O ) :   0.2536
B(  0-N , 10-C ) :   1.3788 B(  0-N , 11-O ) :   0.3101 B(  2-C ,  3-O ) :   1.2381
B(  2-C ,  4-C ) :   0.8994 B(  2-C ,  6-C ) :  -0.2553 B(  3-O , 20-N ) :  -0.1306
B(  4-C ,  5-H ) :   1.0499 B(  4-C ,  6-C ) :   1.4358 B(  4-C ,  7-H ) :  -0.1510
B(  5-H ,  6-C ) :  -0.1098 B(  6-C ,  7-H ) :   0.9542 B(  6-C ,  8-N ) :   0.9318
B(  8-N ,  9-H ) :   1.2501 B(  8-N , 10-C ) :   1.0634 B(  8-N , 11-O ) :   0.1962
B(  9-H , 10-C ) :  -0.1100 B( 10-C , 11-O ) :   1.0017 B( 12-N , 13-H ) :   1.1922
B( 12-N , 14-C ) :   1.0662 B( 12-N , 15-O ) :   0.1464 B( 12-N , 22-C ) :   0.9998
B( 12-N , 23-O ) :   0.1003 B( 13-H , 22-C ) :  -0.1092 B( 14-C , 15-O ) :   0.9809
B( 14-C , 16-C ) :   1.1576 B( 15-O , 16-C ) :   0.2856 B( 16-C , 17-H ) :   1.0230
B( 16-C , 18-C ) :   1.4583 B( 16-C , 20-N ) :  -0.1106 B( 17-H , 18-C ) :  -0.1086
B( 18-C , 19-H ) :   1.0050 B( 18-C , 20-N ) :   1.1733 B( 20-N , 21-H ) :   0.8609
B( 20-N , 22-C ) :   1.2293 B( 20-N , 23-O ) :   0.1969 B( 22-C , 23-O ) :   1.2167

MP2 TOTAL ENERGY:     -828.495652387 Eh
FINAL SINGLE POINT ENERGY      -828.495652387378

DIPOLE MOMENT
-------------
                                X             Y             Z
Electronic contribution:      1.97376       2.76774       0.00240
Nuclear contribution   :     -5.43260      -3.55860      -0.00389
                        -----------------------------------------
Total Dipole Moment    :     -3.45884      -0.79086      -0.00149
                        -----------------------------------------
Magnitude (a.u.)       :      3.54810
Magnitude (Debye)      :      9.01856

Rotational constants in cm-1:     0.047107     0.008306     0.007061
Rotational constants in MHz :  1412.223723   249.009860   211.684719

                             ****ORCA TERMINATED NORMALLY****
TOTAL RUN TIME: 0 days 13 hours 7 minutes 7 seconds 922 msec
