                         Program Version 5.0.4 -  RELEASE  -
|  1> ! ri-mp2 aug-cc-pvdz aug-cc-pvdz/c tightscf
|  2> %pal nprocs 16 end
|  3> %maxcore 3800
|  4> %base "DZ_S66by10_51_0.7_dimer"
|  5> %scf STABPerform true end
|  6>
|  7> *xyz 0 1
|  8> C   -0.60172996   -0.02857012    0.38493492
|  9> H   -1.66373543   -0.02852657    0.37901431
| 10> C    0.61010917   -0.02866364    0.38816379
| 11> H    1.67213544   -0.02879308    0.38796752
| 12> C   -0.00482812    0.07077573    3.30675654
| 13> H   -0.00143374    0.03704067    2.24345965
| 14> C   -0.00876454    0.10906575    4.51822192
| 15> H   -0.01203078    0.14244163    5.57913334
| 16> *
| 17>
| 18> $new_job
| 19> ! ri-mp2 aug-cc-pvtz aug-cc-pvtz/c tightscf
| 20> %pal nprocs 16 end
| 21> %maxcore 3800
| 22> %base "TZ_S66by10_51_0.7_dimer"
| 23>
| 24> *xyz 0 1
| 25> C   -0.60172996   -0.02857012    0.38493492
| 26> H   -1.66373543   -0.02852657    0.37901431
| 27> C    0.61010917   -0.02866364    0.38816379
| 28> H    1.67213544   -0.02879308    0.38796752
| 29> C   -0.00482812    0.07077573    3.30675654
| 30> H   -0.00143374    0.03704067    2.24345965
| 31> C   -0.00876454    0.10906575    4.51822192
| 32> H   -0.01203078    0.14244163    5.57913334
| 33> *
| 34>
| 35> $new_job
| 36> ! ri-mp2 aug-cc-pvqz aug-cc-pvqz/c tightscf
| 37> %pal nprocs 16 end
| 38> %maxcore 3800
| 39> %base "QZ_S66by10_51_0.7_dimer"
| 40>
| 41> *xyz 0 1
| 42> C   -0.60172996   -0.02857012    0.38493492
| 43> H   -1.66373543   -0.02852657    0.37901431
| 44> C    0.61010917   -0.02866364    0.38816379
| 45> H    1.67213544   -0.02879308    0.38796752
| 46> C   -0.00482812    0.07077573    3.30675654
| 47> H   -0.00143374    0.03704067    2.24345965
| 48> C   -0.00876454    0.10906575    4.51822192
| 49> H   -0.01203078    0.14244163    5.57913334
| 50> *
| 51>
| 52>
| 53>
| 54>
| 55>                          ****END OF INPUT****
 Total Charge           Charge          ....    0
 Multiplicity           Mult            ....    1
 Number of Electrons    NEL             ....   28
MP2 TOTAL ENERGY:     -154.175669009 Eh
FINAL SINGLE POINT ENERGY      -154.175669009280
MP2 TOTAL ENERGY:     -154.319665386 Eh
FINAL SINGLE POINT ENERGY      -154.319665386007

CARTESIAN COORDINATES (ANGSTROEM)
---------------------------------
  C     -0.601730   -0.028570    0.384935
  H     -1.663735   -0.028527    0.379014
  C      0.610109   -0.028664    0.388164
  H      1.672135   -0.028793    0.387968
  C     -0.004828    0.070776    3.306757
  H     -0.001434    0.037041    2.243460
  C     -0.008765    0.109066    4.518222
  H     -0.012031    0.142442    5.579133

 Multiplicity           Mult            ....    1
 Number of Electrons    NEL             ....   28
 Basis Dimension        Dim             ....  504

ORBITAL ENERGIES
----------------

  NO   OCC          E(Eh)            E(eV)
   0   2.0000     -11.261011      -306.4277
   1   2.0000     -11.257381      -306.3289
   2   2.0000     -11.225522      -305.4620
   3   2.0000     -11.216531      -305.2173
   4   2.0000      -1.054939       -28.7064
   5   2.0000      -1.010103       -27.4863
   6   2.0000      -0.786345       -21.3975
   7   2.0000      -0.756183       -20.5768
   8   2.0000      -0.697865       -18.9899
   9   2.0000      -0.670617       -18.2484
  10   2.0000      -0.429831       -11.6963
  11   2.0000      -0.420985       -11.4556
  12   2.0000      -0.392658       -10.6848
  13   2.0000      -0.391198       -10.6450
  14   0.0000       0.025543         0.6951
  15   0.0000       0.028752         0.7824
  16   0.0000       0.031939         0.8691
  17   0.0000       0.056285         1.5316
  18   0.0000       0.070000         1.9048

MULLIKEN ATOMIC CHARGES
-----------------------
   0 C :   -0.642155
   1 H :    0.553071
   2 C :   -0.641990
   3 H :    0.553102
   4 C :   -0.549054
   5 H :    1.391174
   6 C :   -1.082032
   7 H :    0.417884
Sum of atomic charges:    0.0000000

LOEWDIN ATOMIC CHARGES
----------------------
   0 C :    0.538330
   1 H :   -0.399709
   2 C :    0.538458
   3 H :   -0.399753
   4 C :    0.480122
   5 H :   -0.796192
   6 C :    0.524012
   7 H :   -0.485269

  Mayer bond orders larger than 0.100000
B(  0-C ,  1-H ) :   0.6922 B(  0-C ,  2-C ) :   2.8285 B(  0-C ,  5-H ) :  -0.2045
B(  2-C ,  3-H ) :   0.6921 B(  2-C ,  5-H ) :  -0.2045 B(  4-C ,  6-C ) :   2.2181
B(  5-H ,  6-C ) :  -0.2653 B(  5-H ,  7-H ) :  -0.1324 B(  6-C ,  7-H ) :   1.0374

MP2 TOTAL ENERGY:     -154.362565895 Eh
FINAL SINGLE POINT ENERGY      -154.362565894890

DIPOLE MOMENT
-------------
                                X             Y             Z
Electronic contribution:      0.00088      -0.00995      -0.29026
Nuclear contribution   :      0.00013      -0.00039      -0.00736
                        -----------------------------------------
Total Dipole Moment    :      0.00101      -0.01034      -0.29762
                        -----------------------------------------
Magnitude (a.u.)       :      0.29780
Magnitude (Debye)      :      0.75695

Rotational constants in cm-1:     1.168391     0.095516     0.088298
Rotational constants in MHz : 35027.482744  2863.508134  2647.107813

                             ****ORCA TERMINATED NORMALLY****
TOTAL RUN TIME: 0 days 0 hours 9 minutes 39 seconds 817 msec
