                         Program Version 5.0.4 -  RELEASE  -
|  1> ! ri-mp2 aug-cc-pvdz aug-cc-pvdz/c tightscf
|  2> %pal nprocs 16 end
|  3> %maxcore 3800
|  4> %base "DZ_S66by10_33_1.25_dimer"
|  5>
|  6> *xyz 0 1
|  7> N    1.38138219   -0.00023348    0.13146374
|  8> C    0.67935079   -1.14023946    0.09207966
|  9> H    1.25871960   -2.05496223    0.12588361
| 10> C   -0.70972232   -1.19311407    0.00666426
| 11> H   -1.21408768   -2.14856163   -0.02530851
| 12> C   -1.42161357    0.00013343   -0.04081690
| 13> H   -2.50069615    0.00025757   -0.10916973
| 14> C   -0.70940120    1.19317538    0.00652198
| 15> H   -1.21351163    2.14874784   -0.02552831
| 16> C    0.67965167    1.13995623    0.09189303
| 17> H    1.25926073    2.05451090    0.12550248
| 18> C    0.02636343    0.66647209    4.23829861
| 19> H    0.93683743    1.22595781    4.07918377
| 20> H   -0.88318407    1.22887632    4.39525912
| 21> C    0.02669611   -0.66621521    4.23843085
| 22> H    0.93743180   -1.22529770    4.07942042
| 23> H   -0.88259198   -1.22903998    4.39552000
| 24> *
| 25>
| 26> $new_job
| 27> ! ri-mp2 aug-cc-pvtz aug-cc-pvtz/c tightscf
| 28> %pal nprocs 16 end
| 29> %maxcore 3800
| 30> %base "TZ_S66by10_33_1.25_dimer"
| 31>
| 32> *xyz 0 1
| 33> N    1.38138219   -0.00023348    0.13146374
| 34> C    0.67935079   -1.14023946    0.09207966
| 35> H    1.25871960   -2.05496223    0.12588361
| 36> C   -0.70972232   -1.19311407    0.00666426
| 37> H   -1.21408768   -2.14856163   -0.02530851
| 38> C   -1.42161357    0.00013343   -0.04081690
| 39> H   -2.50069615    0.00025757   -0.10916973
| 40> C   -0.70940120    1.19317538    0.00652198
| 41> H   -1.21351163    2.14874784   -0.02552831
| 42> C    0.67965167    1.13995623    0.09189303
| 43> H    1.25926073    2.05451090    0.12550248
| 44> C    0.02636343    0.66647209    4.23829861
| 45> H    0.93683743    1.22595781    4.07918377
| 46> H   -0.88318407    1.22887632    4.39525912
| 47> C    0.02669611   -0.66621521    4.23843085
| 48> H    0.93743180   -1.22529770    4.07942042
| 49> H   -0.88259198   -1.22903998    4.39552000
| 50> *
| 51>
| 52> $new_job
| 53> ! ri-mp2 aug-cc-pvqz aug-cc-pvqz/c tightscf
| 54> %pal nprocs 16 end
| 55> %maxcore 3800
| 56> %base "QZ_S66by10_33_1.25_dimer"
| 57>
| 58> *xyz 0 1
| 59> N    1.38138219   -0.00023348    0.13146374
| 60> C    0.67935079   -1.14023946    0.09207966
| 61> H    1.25871960   -2.05496223    0.12588361
| 62> C   -0.70972232   -1.19311407    0.00666426
| 63> H   -1.21408768   -2.14856163   -0.02530851
| 64> C   -1.42161357    0.00013343   -0.04081690
| 65> H   -2.50069615    0.00025757   -0.10916973
| 66> C   -0.70940120    1.19317538    0.00652198
| 67> H   -1.21351163    2.14874784   -0.02552831
| 68> C    0.67965167    1.13995623    0.09189303
| 69> H    1.25926073    2.05451090    0.12550248
| 70> C    0.02636343    0.66647209    4.23829861
| 71> H    0.93683743    1.22595781    4.07918377
| 72> H   -0.88318407    1.22887632    4.39525912
| 73> C    0.02669611   -0.66621521    4.23843085
| 74> H    0.93743180   -1.22529770    4.07942042
| 75> H   -0.88259198   -1.22903998    4.39552000
| 76> *
| 77>
| 78>
| 79>
| 80>
| 81>                          ****END OF INPUT****
 Total Charge           Charge          ....    0
 Multiplicity           Mult            ....    1
 Number of Electrons    NEL             ....   58
MP2 TOTAL ENERGY:     -325.893873626 Eh
FINAL SINGLE POINT ENERGY      -325.893873625978
MP2 TOTAL ENERGY:     -326.184524984 Eh
FINAL SINGLE POINT ENERGY      -326.184524983605

CARTESIAN COORDINATES (ANGSTROEM)
---------------------------------
  N      1.381382   -0.000233    0.131464
  C      0.679351   -1.140239    0.092080
  H      1.258720   -2.054962    0.125884
  C     -0.709722   -1.193114    0.006664
  H     -1.214088   -2.148562   -0.025309
  C     -1.421614    0.000133   -0.040817
  H     -2.500696    0.000258   -0.109170
  C     -0.709401    1.193175    0.006522
  H     -1.213512    2.148748   -0.025528
  C      0.679652    1.139956    0.091893
  H      1.259261    2.054511    0.125502
  C      0.026363    0.666472    4.238299
  H      0.936837    1.225958    4.079184
  H     -0.883184    1.228876    4.395259
  C      0.026696   -0.666215    4.238431
  H      0.937432   -1.225298    4.079420
  H     -0.882592   -1.229040    4.395520

 Multiplicity           Mult            ....    1
 Number of Electrons    NEL             ....   58
 Basis Dimension        Dim             .... 1054

ORBITAL ENERGIES
----------------

  NO   OCC          E(Eh)            E(eV)
   0   2.0000     -15.562897      -423.4880
   1   2.0000     -11.272163      -306.7312
   2   2.0000     -11.272147      -306.7307
   3   2.0000     -11.257039      -306.3196
   4   2.0000     -11.239046      -305.8300
   5   2.0000     -11.238993      -305.8285
   6   2.0000     -11.224951      -305.4464
   7   2.0000     -11.223228      -305.3996
   8   2.0000      -1.254527       -34.1374
   9   2.0000      -1.087797       -29.6005
  10   2.0000      -1.031266       -28.0622
  11   2.0000      -1.029224       -28.0066
  12   2.0000      -0.857375       -23.3304
  13   2.0000      -0.853978       -23.2379
  14   2.0000      -0.788442       -21.4546
  15   2.0000      -0.720288       -19.6000
  16   2.0000      -0.658840       -17.9279
  17   2.0000      -0.652506       -17.7556
  18   2.0000      -0.640179       -17.4202
  19   2.0000      -0.596263       -16.2251
  20   2.0000      -0.582611       -15.8536
  21   2.0000      -0.575655       -15.6644
  22   2.0000      -0.539417       -14.6783
  23   2.0000      -0.518255       -14.1024
  24   2.0000      -0.504107       -13.7175
  25   2.0000      -0.418184       -11.3794
  26   2.0000      -0.382324       -10.4036
  27   2.0000      -0.371551       -10.1104
  28   2.0000      -0.345582        -9.4038
  29   0.0000       0.022936         0.6241
  30   0.0000       0.027641         0.7521
  31   0.0000       0.032497         0.8843
  32   0.0000       0.038413         1.0453
  33   0.0000       0.041973         1.1421

MULLIKEN ATOMIC CHARGES
-----------------------
   0 N :   -0.550430
   1 C :   -0.229299
   2 H :    0.432020
   3 C :   -0.291523
   4 H :    0.346352
   5 C :   -0.304835
   6 H :    0.336899
   7 C :   -0.291553
   8 H :    0.346306
   9 C :   -0.229261
  10 H :    0.432096
  11 C :   -0.896349
  12 H :    0.446306
  13 H :    0.451674
  14 C :   -0.896325
  15 H :    0.446245
  16 H :    0.451679
Sum of atomic charges:   -0.0000000

LOEWDIN ATOMIC CHARGES
----------------------
   0 N :    0.588593
   1 C :    0.058721
   2 H :   -0.355091
   3 C :    0.319852
   4 H :   -0.330224
   5 C :    0.320900
   6 H :   -0.314316
   7 C :    0.319838
   8 H :   -0.330231
   9 C :    0.058734
  10 H :   -0.355110
  11 C :    0.748981
  12 H :   -0.369578
  13 H :   -0.370243
  14 C :    0.748979
  15 H :   -0.369580
  16 H :   -0.370224

  Mayer bond orders larger than 0.100000
B(  0-N ,  1-C ) :   1.2198 B(  0-N ,  2-H ) :  -0.1011 B(  0-N ,  9-C ) :   1.2198
B(  0-N , 10-H ) :  -0.1011 B(  1-C ,  2-H ) :   0.9188 B(  1-C ,  3-C ) :   1.2091
B(  1-C ,  7-C ) :   0.1166 B(  3-C ,  4-H ) :   0.9792 B(  3-C ,  5-C ) :   1.2059
B(  3-C ,  9-C ) :   0.1166 B(  5-C ,  6-H ) :   0.9871 B(  5-C ,  7-C ) :   1.2059
B(  7-C ,  8-H ) :   0.9793 B(  7-C ,  9-C ) :   1.2090 B(  9-C , 10-H ) :   0.9187
B( 11-C , 12-H ) :   0.7981 B( 11-C , 13-H ) :   0.7812 B( 11-C , 14-C ) :   2.0135
B( 14-C , 15-H ) :   0.7982 B( 14-C , 16-H ) :   0.7812

MP2 TOTAL ENERGY:     -326.276063243 Eh
FINAL SINGLE POINT ENERGY      -326.276063242926

DIPOLE MOMENT
-------------
                                X             Y             Z
Electronic contribution:      1.23688      -0.00040      -6.37513
Nuclear contribution   :     -2.14158       0.00052       6.31244
                        -----------------------------------------
Total Dipole Moment    :     -0.90470       0.00011      -0.06269
                        -----------------------------------------
Magnitude (a.u.)       :      0.90687
Magnitude (Debye)      :      2.30507

Rotational constants in cm-1:     0.088836     0.037129     0.036314
Rotational constants in MHz :  2663.231900  1113.106940  1088.653837

                             ****ORCA TERMINATED NORMALLY****
TOTAL RUN TIME: 0 days 0 hours 29 minutes 16 seconds 301 msec
