                         Program Version 5.0.4 -  RELEASE  -
|  1> ! ri-mp2 aug-cc-pvdz aug-cc-pvdz/c tightscf
|  2> %pal nprocs 16 end
|  3> %maxcore 3800
|  4> %base "DZ_S66by10_41_0.7_dimer"
|  5> %scf STABPerform true end
|  6>
|  7> *xyz 0 1
|  8> N   -0.20890478   -0.96458262    0.53476104
|  9> H   -0.22415099   -1.97310940    0.60508386
| 10> C   -1.44634208   -0.34458112    0.30665858
| 11> O   -2.46123675   -1.01079161    0.19789196
| 12> C   -1.35778219    1.10318559    0.22814378
| 13> H   -2.25657214    1.66773071    0.04984731
| 14> C   -0.16300320    1.70989257    0.38112632
| 15> H   -0.04629046    2.78244591    0.33334968
| 16> N    0.98545210    1.00082412    0.61120636
| 17> H    1.86755978    1.46692777    0.74478430
| 18> C    1.02702092   -0.37917011    0.71264723
| 19> O    2.04919670   -0.99739548    0.93725979
| 20> C    1.07034553    2.34780880    3.21161009
| 21> H    0.63949691    2.65885750    2.25882752
| 22> H    0.43611162    2.75324193    3.99985774
| 23> H    2.05322555    2.80825622    3.30473158
| 24> C    1.14336199    0.82893785    3.30112843
| 25> H    1.57374563    0.53937500    4.26241939
| 26> H    1.81795158    0.43777730    2.53601027
| 27> C   -0.22142320    0.17077120    3.14631167
| 28> H   -0.89266746    0.53964701    3.92793091
| 29> H   -0.66889407    0.48103622    2.19641145
| 30> C   -0.16513426   -1.34991535    3.20594717
| 31> H    0.25847123   -1.65234576    4.16658336
| 32> H    0.52638748   -1.71179429    2.44144474
| 33> C   -1.53441718   -1.99178856    3.02217352
| 34> H   -1.97279618   -1.71833087    2.06198801
| 35> H   -1.47747839   -3.07855695    3.06623070
| 36> H   -2.22237996   -1.66344257    3.80140656
| 37> *
| 38>
| 39> $new_job
| 40> ! ri-mp2 aug-cc-pvtz aug-cc-pvtz/c tightscf
| 41> %pal nprocs 16 end
| 42> %maxcore 3800
| 43> %base "TZ_S66by10_41_0.7_dimer"
| 44>
| 45> *xyz 0 1
| 46> N   -0.20890478   -0.96458262    0.53476104
| 47> H   -0.22415099   -1.97310940    0.60508386
| 48> C   -1.44634208   -0.34458112    0.30665858
| 49> O   -2.46123675   -1.01079161    0.19789196
| 50> C   -1.35778219    1.10318559    0.22814378
| 51> H   -2.25657214    1.66773071    0.04984731
| 52> C   -0.16300320    1.70989257    0.38112632
| 53> H   -0.04629046    2.78244591    0.33334968
| 54> N    0.98545210    1.00082412    0.61120636
| 55> H    1.86755978    1.46692777    0.74478430
| 56> C    1.02702092   -0.37917011    0.71264723
| 57> O    2.04919670   -0.99739548    0.93725979
| 58> C    1.07034553    2.34780880    3.21161009
| 59> H    0.63949691    2.65885750    2.25882752
| 60> H    0.43611162    2.75324193    3.99985774
| 61> H    2.05322555    2.80825622    3.30473158
| 62> C    1.14336199    0.82893785    3.30112843
| 63> H    1.57374563    0.53937500    4.26241939
| 64> H    1.81795158    0.43777730    2.53601027
| 65> C   -0.22142320    0.17077120    3.14631167
| 66> H   -0.89266746    0.53964701    3.92793091
| 67> H   -0.66889407    0.48103622    2.19641145
| 68> C   -0.16513426   -1.34991535    3.20594717
| 69> H    0.25847123   -1.65234576    4.16658336
| 70> H    0.52638748   -1.71179429    2.44144474
| 71> C   -1.53441718   -1.99178856    3.02217352
| 72> H   -1.97279618   -1.71833087    2.06198801
| 73> H   -1.47747839   -3.07855695    3.06623070
| 74> H   -2.22237996   -1.66344257    3.80140656
| 75> *
| 76>
| 77> $new_job
| 78> ! ri-mp2 aug-cc-pvqz aug-cc-pvqz/c tightscf
| 79> %pal nprocs 16 end
| 80> %maxcore 3800
| 81> %base "QZ_S66by10_41_0.7_dimer"
| 82>
| 83> *xyz 0 1
| 84> N   -0.20890478   -0.96458262    0.53476104
| 85> H   -0.22415099   -1.97310940    0.60508386
| 86> C   -1.44634208   -0.34458112    0.30665858
| 87> O   -2.46123675   -1.01079161    0.19789196
| 88> C   -1.35778219    1.10318559    0.22814378
| 89> H   -2.25657214    1.66773071    0.04984731
| 90> C   -0.16300320    1.70989257    0.38112632
| 91> H   -0.04629046    2.78244591    0.33334968
| 92> N    0.98545210    1.00082412    0.61120636
| 93> H    1.86755978    1.46692777    0.74478430
| 94> C    1.02702092   -0.37917011    0.71264723
| 95> O    2.04919670   -0.99739548    0.93725979
| 96> C    1.07034553    2.34780880    3.21161009
| 97> H    0.63949691    2.65885750    2.25882752
| 98> H    0.43611162    2.75324193    3.99985774
| 99> H    2.05322555    2.80825622    3.30473158
|100> C    1.14336199    0.82893785    3.30112843
|101> H    1.57374563    0.53937500    4.26241939
|102> H    1.81795158    0.43777730    2.53601027
|103> C   -0.22142320    0.17077120    3.14631167
|104> H   -0.89266746    0.53964701    3.92793091
|105> H   -0.66889407    0.48103622    2.19641145
|106> C   -0.16513426   -1.34991535    3.20594717
|107> H    0.25847123   -1.65234576    4.16658336
|108> H    0.52638748   -1.71179429    2.44144474
|109> C   -1.53441718   -1.99178856    3.02217352
|110> H   -1.97279618   -1.71833087    2.06198801
|111> H   -1.47747839   -3.07855695    3.06623070
|112> H   -2.22237996   -1.66344257    3.80140656
|113> *
|114>
|115>
|116>
|117>
|118>                          ****END OF INPUT****
 Total Charge           Charge          ....    0
 Multiplicity           Mult            ....    1
 Number of Electrons    NEL             ....  100
MP2 TOTAL ENERGY:     -610.866878878 Eh
FINAL SINGLE POINT ENERGY      -610.866878878497
MP2 TOTAL ENERGY:     -611.409170206 Eh
FINAL SINGLE POINT ENERGY      -611.409170205624

CARTESIAN COORDINATES (ANGSTROEM)
---------------------------------
  N     -0.208905   -0.964583    0.534761
  H     -0.224151   -1.973109    0.605084
  C     -1.446342   -0.344581    0.306659
  O     -2.461237   -1.010792    0.197892
  C     -1.357782    1.103186    0.228144
  H     -2.256572    1.667731    0.049847
  C     -0.163003    1.709893    0.381126
  H     -0.046290    2.782446    0.333350
  N      0.985452    1.000824    0.611206
  H      1.867560    1.466928    0.744784
  C      1.027021   -0.379170    0.712647
  O      2.049197   -0.997395    0.937260
  C      1.070346    2.347809    3.211610
  H      0.639497    2.658857    2.258828
  H      0.436112    2.753242    3.999858
  H      2.053226    2.808256    3.304732
  C      1.143362    0.828938    3.301128
  H      1.573746    0.539375    4.262419
  H      1.817952    0.437777    2.536010
  C     -0.221423    0.170771    3.146312
  H     -0.892667    0.539647    3.927931
  H     -0.668894    0.481036    2.196411
  C     -0.165134   -1.349915    3.205947
  H      0.258471   -1.652346    4.166583
  H      0.526387   -1.711794    2.441445
  C     -1.534417   -1.991789    3.022174
  H     -1.972796   -1.718331    2.061988
  H     -1.477478   -3.078557    3.066231
  H     -2.222380   -1.663443    3.801407

 Multiplicity           Mult            ....    1
 Number of Electrons    NEL             ....  100
 Basis Dimension        Dim             .... 1776

ORBITAL ENERGIES
----------------

  NO   OCC          E(Eh)            E(eV)
   0   2.0000     -20.548180      -559.1444
   1   2.0000     -20.541288      -558.9569
   2   2.0000     -15.640025      -425.5867
   3   2.0000     -15.622661      -425.1142
   4   2.0000     -11.419544      -310.7416
   5   2.0000     -11.381832      -309.7154
   6   2.0000     -11.339633      -308.5671
   7   2.0000     -11.254765      -306.2577
   8   2.0000     -11.221054      -305.3404
   9   2.0000     -11.212961      -305.1202
  10   2.0000     -11.207896      -304.9824
  11   2.0000     -11.203743      -304.8693
  12   2.0000     -11.192216      -304.5557
  13   2.0000      -1.442523       -39.2530
  14   2.0000      -1.403336       -38.1867
  15   2.0000      -1.317919       -35.8624
  16   2.0000      -1.249962       -34.0132
  17   2.0000      -1.092559       -29.7300
  18   2.0000      -1.087237       -29.5852
  19   2.0000      -1.019600       -27.7447
  20   2.0000      -0.944161       -25.6919
  21   2.0000      -0.920720       -25.0541
  22   2.0000      -0.903696       -24.5908
  23   2.0000      -0.825502       -22.4630
  24   2.0000      -0.814800       -22.1718
  25   2.0000      -0.787794       -21.4370
  26   2.0000      -0.767732       -20.8911
  27   2.0000      -0.719788       -19.5864
  28   2.0000      -0.718781       -19.5590
  29   2.0000      -0.682148       -18.5622
  30   2.0000      -0.657523       -17.8921
  31   2.0000      -0.625336       -17.0162
  32   2.0000      -0.619174       -16.8486
  33   2.0000      -0.606481       -16.5032
  34   2.0000      -0.603514       -16.4224
  35   2.0000      -0.600031       -16.3277
  36   2.0000      -0.575517       -15.6606
  37   2.0000      -0.560599       -15.2547
  38   2.0000      -0.548613       -14.9285
  39   2.0000      -0.532004       -14.4766
  40   2.0000      -0.523382       -14.2419
  41   2.0000      -0.501793       -13.6545
  42   2.0000      -0.491474       -13.3737
  43   2.0000      -0.480698       -13.0805
  44   2.0000      -0.463717       -12.6184
  45   2.0000      -0.454432       -12.3657
  46   2.0000      -0.448404       -12.2017
  47   2.0000      -0.443639       -12.0720
  48   2.0000      -0.430989       -11.7278
  49   2.0000      -0.366813        -9.9815
  50   0.0000       0.013687         0.3724
  51   0.0000       0.027291         0.7426
  52   0.0000       0.027549         0.7497
  53   0.0000       0.031826         0.8660
  54   0.0000       0.040139         1.0922

MULLIKEN ATOMIC CHARGES
-----------------------
   0 N :   -0.690670
   1 H :   -0.069797
   2 C :    1.458692
   3 O :   -1.017649
   4 C :   -0.739392
   5 H :    0.227207
   6 C :   -0.120795
   7 H :    0.321326
   8 N :   -0.595455
   9 H :   -0.007374
  10 C :    2.427901
  11 O :   -1.109674
  12 C :   -0.968448
  13 H :    0.254256
  14 H :    0.185085
  15 H :    0.214962
  16 C :   -0.479459
  17 H :    0.200607
  18 H :    0.261829
  19 C :    0.215795
  20 H :    0.194736
  21 H :    0.209954
  22 C :   -0.537777
  23 H :    0.188476
  24 H :    0.287020
  25 C :   -0.906961
  26 H :    0.201768
  27 H :    0.214042
  28 H :    0.179795
Sum of atomic charges:    0.0000000

LOEWDIN ATOMIC CHARGES
----------------------
   0 N :    0.820914
   1 H :   -0.501373
   2 C :   -0.802796
   3 O :    0.787309
   4 C :    0.391390
   5 H :   -0.321957
   6 C :    0.259472
   7 H :   -0.269652
   8 N :    0.851816
   9 H :   -0.470224
  10 C :   -0.960355
  11 O :    0.839458
  12 C :    0.954496
  13 H :   -0.399269
  14 H :   -0.260799
  15 H :   -0.255070
  16 C :    0.525062
  17 H :   -0.242762
  18 H :   -0.475749
  19 C :    0.506149
  20 H :   -0.231795
  21 H :   -0.516001
  22 C :    0.523031
  23 H :   -0.246269
  24 H :   -0.444631
  25 C :    0.948969
  26 H :   -0.487338
  27 H :   -0.258072
  28 H :   -0.263953

  Mayer bond orders larger than 0.100000
B(  0-N ,  1-H ) :   1.2956 B(  0-N ,  2-C ) :   1.0748 B(  0-N ,  3-O ) :   0.2064
B(  0-N ,  8-N ) :   0.1063 B(  0-N , 10-C ) :   1.0041 B(  0-N , 11-O ) :   0.3628
B(  0-N , 21-H ) :  -0.1293 B(  1-H , 10-C ) :  -0.1231 B(  2-C ,  3-O ) :   0.4687
B(  2-C ,  4-C ) :   1.2365 B(  3-O ,  4-C ) :   0.3086 B(  3-O , 21-H ) :   0.1126
B(  4-C ,  5-H ) :   1.0821 B(  4-C ,  6-C ) :   1.6102 B(  6-C ,  7-H ) :   1.0097
B(  6-C ,  8-N ) :   0.9571 B(  6-C ,  9-H ) :  -0.1013 B(  8-N ,  9-H ) :   1.2669
B(  8-N , 10-C ) :   0.9768 B(  8-N , 11-O ) :   0.3313 B(  8-N , 21-H ) :  -0.1146
B(  9-H , 10-C ) :  -0.1179 B(  9-H , 11-O ) :   0.1063 B( 12-C , 13-H ) :   0.8923
B( 12-C , 14-H ) :   1.0731 B( 12-C , 15-H ) :   1.0764 B( 12-C , 16-C ) :   0.9318
B( 12-C , 19-C ) :  -0.1099 B( 16-C , 17-H ) :   1.0113 B( 16-C , 18-H ) :   0.8933
B( 16-C , 19-C ) :   0.7011 B( 19-C , 20-H ) :   1.0403 B( 19-C , 21-H ) :   1.0282
B( 19-C , 22-C ) :   0.7014 B( 19-C , 25-C ) :  -0.1046 B( 22-C , 23-H ) :   1.0209
B( 22-C , 24-H ) :   0.9021 B( 22-C , 25-C ) :   0.9378 B( 25-C , 26-H ) :   0.8852
B( 25-C , 27-H ) :   1.0677 B( 25-C , 28-H ) :   1.0817

MP2 TOTAL ENERGY:     -611.580324707 Eh
FINAL SINGLE POINT ENERGY      -611.580324707306

DIPOLE MOMENT
-------------
                                X             Y             Z
Electronic contribution:     -0.22046      -2.40974     -14.12877
Nuclear contribution   :      0.76113       4.21031      14.06601
                        -----------------------------------------
Total Dipole Moment    :      0.54067       1.80057      -0.06277
                        -----------------------------------------
Magnitude (a.u.)       :      1.88105
Magnitude (Debye)      :      4.78124

Rotational constants in cm-1:     0.032148     0.025861     0.021687
Rotational constants in MHz :   963.769055   775.302766   650.159652

                             ****ORCA TERMINATED NORMALLY****
TOTAL RUN TIME: 0 days 17 hours 8 minutes 21 seconds 61 msec
