                         Program Version 5.0.4 -  RELEASE  -
|  1> ! ri-mp2 aug-cc-pvdz aug-cc-pvdz/c tightscf
|  2> %pal nprocs 16 end
|  3> %maxcore 3800
|  4> %base "DZ_S66by10_31_0.7_dimer"
|  5> %scf STABPerform true end
|  6>
|  7> *xyz 0 1
|  8> N   -0.05087365   -0.98008127    0.03396219
|  9> H   -0.05322205   -1.99069374    0.04982167
| 10> C   -1.30881316   -0.36187638    0.00402596
| 11> O   -2.32722000   -1.03255492   -0.00582886
| 12> C   -1.23681849    1.08804829   -0.01222440
| 13> H   -2.15273897    1.65146044   -0.05477443
| 14> C   -0.03519433    1.69783584    0.03370483
| 15> H    0.07036636    2.77247575    0.03188224
| 16> N    1.13452913    0.99028251    0.09184461
| 17> H    2.02372032    1.45677218    0.15569277
| 18> C    1.19318599   -0.39183287    0.11577512
| 19> O    2.23639797   -1.01118826    0.19418562
| 20> C    0.70224346   -0.00519021    2.51137095
| 21> H    1.21936120   -0.87617811    2.13414436
| 22> H    1.30785447    0.78180383    2.93868529
| 23> C   -0.62653304    0.09540024    2.46212402
| 24> H   -1.23853592   -0.69207935    2.04522330
| 25> H   -1.13835803    0.96646983    2.84612379
| 26> *
| 27>
| 28> $new_job
| 29> ! ri-mp2 aug-cc-pvtz aug-cc-pvtz/c tightscf
| 30> %pal nprocs 16 end
| 31> %maxcore 3800
| 32> %base "TZ_S66by10_31_0.7_dimer"
| 33>
| 34> *xyz 0 1
| 35> N   -0.05087365   -0.98008127    0.03396219
| 36> H   -0.05322205   -1.99069374    0.04982167
| 37> C   -1.30881316   -0.36187638    0.00402596
| 38> O   -2.32722000   -1.03255492   -0.00582886
| 39> C   -1.23681849    1.08804829   -0.01222440
| 40> H   -2.15273897    1.65146044   -0.05477443
| 41> C   -0.03519433    1.69783584    0.03370483
| 42> H    0.07036636    2.77247575    0.03188224
| 43> N    1.13452913    0.99028251    0.09184461
| 44> H    2.02372032    1.45677218    0.15569277
| 45> C    1.19318599   -0.39183287    0.11577512
| 46> O    2.23639797   -1.01118826    0.19418562
| 47> C    0.70224346   -0.00519021    2.51137095
| 48> H    1.21936120   -0.87617811    2.13414436
| 49> H    1.30785447    0.78180383    2.93868529
| 50> C   -0.62653304    0.09540024    2.46212402
| 51> H   -1.23853592   -0.69207935    2.04522330
| 52> H   -1.13835803    0.96646983    2.84612379
| 53> *
| 54>
| 55> $new_job
| 56> ! ri-mp2 aug-cc-pvqz aug-cc-pvqz/c tightscf
| 57> %pal nprocs 16 end
| 58> %maxcore 3800
| 59> %base "QZ_S66by10_31_0.7_dimer"
| 60>
| 61> *xyz 0 1
| 62> N   -0.05087365   -0.98008127    0.03396219
| 63> H   -0.05322205   -1.99069374    0.04982167
| 64> C   -1.30881316   -0.36187638    0.00402596
| 65> O   -2.32722000   -1.03255492   -0.00582886
| 66> C   -1.23681849    1.08804829   -0.01222440
| 67> H   -2.15273897    1.65146044   -0.05477443
| 68> C   -0.03519433    1.69783584    0.03370483
| 69> H    0.07036636    2.77247575    0.03188224
| 70> N    1.13452913    0.99028251    0.09184461
| 71> H    2.02372032    1.45677218    0.15569277
| 72> C    1.19318599   -0.39183287    0.11577512
| 73> O    2.23639797   -1.01118826    0.19418562
| 74> C    0.70224346   -0.00519021    2.51137095
| 75> H    1.21936120   -0.87617811    2.13414436
| 76> H    1.30785447    0.78180383    2.93868529
| 77> C   -0.62653304    0.09540024    2.46212402
| 78> H   -1.23853592   -0.69207935    2.04522330
| 79> H   -1.13835803    0.96646983    2.84612379
| 80> *
| 81>
| 82>
| 83>
| 84>
| 85>                          ****END OF INPUT****
 Total Charge           Charge          ....    0
 Multiplicity           Mult            ....    1
 Number of Electrons    NEL             ....   74
MP2 TOTAL ENERGY:     -492.086521984 Eh
FINAL SINGLE POINT ENERGY      -492.086521983676
MP2 TOTAL ENERGY:     -492.509441989 Eh
FINAL SINGLE POINT ENERGY      -492.509441989107

CARTESIAN COORDINATES (ANGSTROEM)
---------------------------------
  N     -0.050874   -0.980081    0.033962
  H     -0.053222   -1.990694    0.049822
  C     -1.308813   -0.361876    0.004026
  O     -2.327220   -1.032555   -0.005829
  C     -1.236818    1.088048   -0.012224
  H     -2.152739    1.651460   -0.054774
  C     -0.035194    1.697836    0.033705
  H      0.070366    2.772476    0.031882
  N      1.134529    0.990283    0.091845
  H      2.023720    1.456772    0.155693
  C      1.193186   -0.391833    0.115775
  O      2.236398   -1.011188    0.194186
  C      0.702243   -0.005190    2.511371
  H      1.219361   -0.876178    2.134144
  H      1.307854    0.781804    2.938685
  C     -0.626533    0.095400    2.462124
  H     -1.238536   -0.692079    2.045223
  H     -1.138358    0.966470    2.846124

 Multiplicity           Mult            ....    1
 Number of Electrons    NEL             ....   74
 Basis Dimension        Dim             .... 1168

ORBITAL ENERGIES
----------------

  NO   OCC          E(Eh)            E(eV)
   0   2.0000     -20.541325      -558.9579
   1   2.0000     -20.538662      -558.8854
   2   2.0000     -15.640928      -425.6113
   3   2.0000     -15.618132      -424.9910
   4   2.0000     -11.417912      -310.6972
   5   2.0000     -11.380563      -309.6809
   6   2.0000     -11.335064      -308.4428
   7   2.0000     -11.253531      -306.2241
   8   2.0000     -11.226453      -305.4873
   9   2.0000     -11.223100      -305.3961
  10   2.0000      -1.437339       -39.1120
  11   2.0000      -1.399647       -38.0863
  12   2.0000      -1.313088       -35.7309
  13   2.0000      -1.245151       -33.8823
  14   2.0000      -1.088942       -29.6316
  15   2.0000      -1.043443       -28.3935
  16   2.0000      -0.932953       -25.3869
  17   2.0000      -0.902945       -24.5704
  18   2.0000      -0.808172       -21.9915
  19   2.0000      -0.804001       -21.8780
  20   2.0000      -0.765179       -20.8216
  21   2.0000      -0.713284       -19.4094
  22   2.0000      -0.697566       -18.9817
  23   2.0000      -0.677590       -18.4381
  24   2.0000      -0.652761       -17.7625
  25   2.0000      -0.635572       -17.2948
  26   2.0000      -0.614974       -16.7343
  27   2.0000      -0.602125       -16.3847
  28   2.0000      -0.591461       -16.0945
  29   2.0000      -0.576058       -15.6753
  30   2.0000      -0.526595       -14.3294
  31   2.0000      -0.495818       -13.4919
  32   2.0000      -0.483486       -13.1563
  33   2.0000      -0.449976       -12.2445
  34   2.0000      -0.441610       -12.0168
  35   2.0000      -0.379767       -10.3340
  36   2.0000      -0.358788        -9.7631
  37   0.0000       0.011957         0.3254
  38   0.0000       0.028228         0.7681
  39   0.0000       0.033330         0.9069
  40   0.0000       0.036190         0.9848
  41   0.0000       0.044695         1.2162

MULLIKEN ATOMIC CHARGES
-----------------------
   0 N :   -0.621777
   1 H :    0.012776
   2 C :    1.468112
   3 O :   -0.942438
   4 C :   -0.491083
   5 H :    0.217430
   6 C :   -0.180918
   7 H :    0.376946
   8 N :   -0.593122
   9 H :    0.038704
  10 C :    1.833549
  11 O :   -0.959288
  12 C :   -0.739611
  13 H :    0.355980
  14 H :    0.265556
  15 C :   -0.698838
  16 H :    0.370676
  17 H :    0.287346
Sum of atomic charges:   -0.0000000

LOEWDIN ATOMIC CHARGES
----------------------
   0 N :    0.787598
   1 H :   -0.479654
   2 C :   -0.927647
   3 O :    0.744368
   4 C :    0.319930
   5 H :   -0.327804
   6 C :    0.234044
   7 H :   -0.281522
   8 N :    0.820321
   9 H :   -0.468726
  10 C :   -1.071530
  11 O :    0.765769
  12 C :    0.712874
  13 H :   -0.473672
  14 H :   -0.306348
  15 C :    0.717861
  16 H :   -0.459029
  17 H :   -0.306832

  Mayer bond orders larger than 0.100000
B(  0-N ,  1-H ) :   1.2186 B(  0-N ,  2-C ) :   0.9679 B(  0-N ,  3-O ) :   0.2472
B(  0-N , 10-C ) :   1.0516 B(  0-N , 11-O ) :   0.2486 B(  2-C ,  3-O ) :   0.8104
B(  2-C ,  4-C ) :   1.0590 B(  3-O ,  4-C ) :   0.2490 B(  4-C ,  5-H ) :   1.0801
B(  4-C ,  6-C ) :   1.4825 B(  6-C ,  7-H ) :   0.9933 B(  6-C ,  8-N ) :   0.9423
B(  8-N ,  9-H ) :   1.1963 B(  8-N , 10-C ) :   1.0235 B(  8-N , 11-O ) :   0.2554
B( 10-C , 11-O ) :   0.6969 B( 12-C , 13-H ) :   0.8361 B( 12-C , 14-H ) :   0.9711
B( 12-C , 15-C ) :   1.9710 B( 15-C , 16-H ) :   0.8331 B( 15-C , 17-H ) :   0.9636

MP2 TOTAL ENERGY:     -492.646808315 Eh
FINAL SINGLE POINT ENERGY      -492.646808314940

DIPOLE MOMENT
-------------
                                X             Y             Z
Electronic contribution:      0.34474      -1.99267      -5.42792
Nuclear contribution   :      0.14802       3.94764       5.40717
                        -----------------------------------------
Total Dipole Moment    :      0.49276       1.95497      -0.02075
                        -----------------------------------------
Magnitude (a.u.)       :      2.01622
Magnitude (Debye)      :      5.12482

Rotational constants in cm-1:     0.063824     0.042544     0.041735
Rotational constants in MHz :  1913.388404  1275.437610  1251.176990

                             ****ORCA TERMINATED NORMALLY****
TOTAL RUN TIME: 0 days 4 hours 30 minutes 5 seconds 579 msec
