                         Program Version 5.0.4 -  RELEASE  -
|  1> ! ri-mp2 aug-cc-pvdz aug-cc-pvdz/c tightscf
|  2> %pal nprocs 16 end
|  3> %maxcore 3800
|  4> %base "DZ_S66by10_47_1.0_dimer"
|  5>
|  6> *xyz 0 1
|  7> C    0.72918867    1.11310122    0.32672825
|  8> H    1.30321590    2.01422234    0.15916027
|  9> C    1.37508737   -0.11936635    0.41277695
| 10> H    2.45051474   -0.17462400    0.31330720
| 11> C    0.63503981   -1.28055339    0.62938541
| 12> H    1.13633448   -2.23601747    0.70021716
| 13> C   -0.75098563   -1.20965430    0.75789034
| 14> H   -1.32452590   -2.11141283    0.92419891
| 15> C   -1.39703443    0.02267081    0.67308963
| 16> H   -2.47242537    0.07848826    0.77399799
| 17> C   -0.65689731    1.18429622    0.45833859
| 18> H   -1.15782845    2.14058713    0.39509608
| 19> C    0.15320404    0.14570743    4.04391981
| 20> H    0.27533045    0.37119089    2.99349337
| 21> C   -0.93787753   -0.60919118    4.47125608
| 22> H   -1.65838205   -0.96570544    3.74756166
| 23> C   -1.09857751   -0.90331650    5.82420614
| 24> H   -1.94568509   -1.48928507    6.15445368
| 25> C   -0.16669495   -0.44226312    6.75270022
| 26> H   -0.29058844   -0.67022928    7.80270772
| 27> C    0.92489015    0.31283893    6.32745994
| 28> H    1.64800924    0.67067211    7.04784259
| 29> C    1.08369405    0.60632395    4.97396862
| 30> H    1.93095196    1.19239875    4.64392130
| 31> *
| 32>
| 33> $new_job
| 34> ! ri-mp2 aug-cc-pvtz aug-cc-pvtz/c tightscf
| 35> %pal nprocs 16 end
| 36> %maxcore 3800
| 37> %base "TZ_S66by10_47_1.0_dimer"
| 38>
| 39> *xyz 0 1
| 40> C    0.72918867    1.11310122    0.32672825
| 41> H    1.30321590    2.01422234    0.15916027
| 42> C    1.37508737   -0.11936635    0.41277695
| 43> H    2.45051474   -0.17462400    0.31330720
| 44> C    0.63503981   -1.28055339    0.62938541
| 45> H    1.13633448   -2.23601747    0.70021716
| 46> C   -0.75098563   -1.20965430    0.75789034
| 47> H   -1.32452590   -2.11141283    0.92419891
| 48> C   -1.39703443    0.02267081    0.67308963
| 49> H   -2.47242537    0.07848826    0.77399799
| 50> C   -0.65689731    1.18429622    0.45833859
| 51> H   -1.15782845    2.14058713    0.39509608
| 52> C    0.15320404    0.14570743    4.04391981
| 53> H    0.27533045    0.37119089    2.99349337
| 54> C   -0.93787753   -0.60919118    4.47125608
| 55> H   -1.65838205   -0.96570544    3.74756166
| 56> C   -1.09857751   -0.90331650    5.82420614
| 57> H   -1.94568509   -1.48928507    6.15445368
| 58> C   -0.16669495   -0.44226312    6.75270022
| 59> H   -0.29058844   -0.67022928    7.80270772
| 60> C    0.92489015    0.31283893    6.32745994
| 61> H    1.64800924    0.67067211    7.04784259
| 62> C    1.08369405    0.60632395    4.97396862
| 63> H    1.93095196    1.19239875    4.64392130
| 64> *
| 65>
| 66> $new_job
| 67> ! ri-mp2 aug-cc-pvqz aug-cc-pvqz/c tightscf
| 68> %pal nprocs 16 end
| 69> %maxcore 3800
| 70> %base "QZ_S66by10_47_1.0_dimer"
| 71>
| 72> *xyz 0 1
| 73> C    0.72918867    1.11310122    0.32672825
| 74> H    1.30321590    2.01422234    0.15916027
| 75> C    1.37508737   -0.11936635    0.41277695
| 76> H    2.45051474   -0.17462400    0.31330720
| 77> C    0.63503981   -1.28055339    0.62938541
| 78> H    1.13633448   -2.23601747    0.70021716
| 79> C   -0.75098563   -1.20965430    0.75789034
| 80> H   -1.32452590   -2.11141283    0.92419891
| 81> C   -1.39703443    0.02267081    0.67308963
| 82> H   -2.47242537    0.07848826    0.77399799
| 83> C   -0.65689731    1.18429622    0.45833859
| 84> H   -1.15782845    2.14058713    0.39509608
| 85> C    0.15320404    0.14570743    4.04391981
| 86> H    0.27533045    0.37119089    2.99349337
| 87> C   -0.93787753   -0.60919118    4.47125608
| 88> H   -1.65838205   -0.96570544    3.74756166
| 89> C   -1.09857751   -0.90331650    5.82420614
| 90> H   -1.94568509   -1.48928507    6.15445368
| 91> C   -0.16669495   -0.44226312    6.75270022
| 92> H   -0.29058844   -0.67022928    7.80270772
| 93> C    0.92489015    0.31283893    6.32745994
| 94> H    1.64800924    0.67067211    7.04784259
| 95> C    1.08369405    0.60632395    4.97396862
| 96> H    1.93095196    1.19239875    4.64392130
| 97> *
| 98>
| 99>
|100>
|101>
|102>                          ****END OF INPUT****
 Total Charge           Charge          ....    0
 Multiplicity           Mult            ....    1
 Number of Electrons    NEL             ....   84
MP2 TOTAL ENERGY:     -463.087360862 Eh
FINAL SINGLE POINT ENERGY      -463.087360861795
MP2 TOTAL ENERGY:     -463.497093143 Eh
FINAL SINGLE POINT ENERGY      -463.497093142785

CARTESIAN COORDINATES (ANGSTROEM)
---------------------------------
  C      0.729189    1.113101    0.326728
  H      1.303216    2.014222    0.159160
  C      1.375087   -0.119366    0.412777
  H      2.450515   -0.174624    0.313307
  C      0.635040   -1.280553    0.629385
  H      1.136334   -2.236017    0.700217
  C     -0.750986   -1.209654    0.757890
  H     -1.324526   -2.111413    0.924199
  C     -1.397034    0.022671    0.673090
  H     -2.472425    0.078488    0.773998
  C     -0.656897    1.184296    0.458339
  H     -1.157828    2.140587    0.395096
  C      0.153204    0.145707    4.043920
  H      0.275330    0.371191    2.993493
  C     -0.937878   -0.609191    4.471256
  H     -1.658382   -0.965705    3.747562
  C     -1.098578   -0.903316    5.824206
  H     -1.945685   -1.489285    6.154454
  C     -0.166695   -0.442263    6.752700
  H     -0.290588   -0.670229    7.802708
  C      0.924890    0.312839    6.327460
  H      1.648009    0.670672    7.047843
  C      1.083694    0.606324    4.973969
  H      1.930952    1.192399    4.643921

 Multiplicity           Mult            ....    1
 Number of Electrons    NEL             ....   84
 Basis Dimension        Dim             .... 1512

ORBITAL ENERGIES
----------------

  NO   OCC          E(Eh)            E(eV)
   0   2.0000     -11.239449      -305.8410
   1   2.0000     -11.238888      -305.8257
   2   2.0000     -11.238747      -305.8219
   3   2.0000     -11.237626      -305.7913
   4   2.0000     -11.237562      -305.7896
   5   2.0000     -11.236911      -305.7719
   6   2.0000     -11.227932      -305.5276
   7   2.0000     -11.227368      -305.5122
   8   2.0000     -11.226200      -305.4804
   9   2.0000     -11.225356      -305.4575
  10   2.0000     -11.224737      -305.4406
  11   2.0000     -11.221868      -305.3626
  12   2.0000      -1.155168       -31.4337
  13   2.0000      -1.141885       -31.0723
  14   2.0000      -1.019328       -27.7373
  15   2.0000      -1.018971       -27.7276
  16   2.0000      -1.006662       -27.3927
  17   2.0000      -1.006093       -27.3772
  18   2.0000      -0.828382       -22.5414
  19   2.0000      -0.828288       -22.5389
  20   2.0000      -0.816184       -22.2095
  21   2.0000      -0.815711       -22.1966
  22   2.0000      -0.714171       -19.4336
  23   2.0000      -0.702133       -19.1060
  24   2.0000      -0.648222       -17.6390
  25   2.0000      -0.636473       -17.3193
  26   2.0000      -0.623449       -16.9649
  27   2.0000      -0.611033       -16.6271
  28   2.0000      -0.592680       -16.1276
  29   2.0000      -0.592275       -16.1166
  30   2.0000      -0.582053       -15.8385
  31   2.0000      -0.580486       -15.7958
  32   2.0000      -0.508942       -13.8490
  33   2.0000      -0.499227       -13.5847
  34   2.0000      -0.499053       -13.5799
  35   2.0000      -0.494717       -13.4619
  36   2.0000      -0.486932       -13.2501
  37   2.0000      -0.481702       -13.1078
  38   2.0000      -0.344576        -9.3764
  39   2.0000      -0.342578        -9.3220
  40   2.0000      -0.329698        -8.9715
  41   2.0000      -0.325712        -8.8631
  42   0.0000       0.022408         0.6098
  43   0.0000       0.026683         0.7261
  44   0.0000       0.029875         0.8129
  45   0.0000       0.031062         0.8452
  46   0.0000       0.037740         1.0270

MULLIKEN ATOMIC CHARGES
-----------------------
   0 C :   -0.239091
   1 H :    0.326933
   2 C :   -0.337841
   3 H :    0.306465
   4 C :   -0.329400
   5 H :    0.300857
   6 C :   -0.322376
   7 H :    0.293386
   8 C :   -0.289927
   9 H :    0.333889
  10 C :   -0.397162
  11 H :    0.297793
  12 C :   -0.399391
  13 H :    0.902206
  14 C :   -0.508665
  15 H :    0.262527
  16 C :   -0.250891
  17 H :    0.302086
  18 C :   -0.341449
  19 H :    0.340643
  20 C :   -0.313340
  21 H :    0.338765
  22 C :   -0.506783
  23 H :    0.230766
Sum of atomic charges:   -0.0000000

LOEWDIN ATOMIC CHARGES
----------------------
   0 C :    0.328884
   1 H :   -0.320313
   2 C :    0.329437
   3 H :   -0.320012
   4 C :    0.329776
   5 H :   -0.317929
   6 C :    0.316648
   7 H :   -0.317721
   8 C :    0.320966
   9 H :   -0.317535
  10 C :    0.329452
  11 H :   -0.318918
  12 C :    0.326924
  13 H :   -0.398696
  14 C :    0.336081
  15 H :   -0.333702
  16 C :    0.335309
  17 H :   -0.327941
  18 C :    0.327135
  19 H :   -0.329453
  20 C :    0.329741
  21 H :   -0.328751
  22 C :    0.344755
  23 H :   -0.324136

  Mayer bond orders larger than 0.100000
B(  0-C ,  1-H ) :   1.0528 B(  0-C ,  2-C ) :   1.1250 B(  0-C ,  6-C ) :   0.1253
B(  0-C , 10-C ) :   1.2290 B(  2-C ,  3-H ) :   1.0713 B(  2-C ,  4-C ) :   1.2484
B(  2-C ,  8-C ) :   0.1510 B(  4-C ,  5-H ) :   1.0460 B(  4-C ,  6-C ) :   1.2323
B(  4-C , 10-C ) :   0.2146 B(  6-C ,  7-H ) :   1.0565 B(  6-C ,  8-C ) :   1.1760
B(  8-C ,  9-H ) :   1.0202 B(  8-C , 10-C ) :   1.2460 B( 10-C , 11-H ) :   1.0660
B( 12-C , 13-H ) :   0.3511 B( 12-C , 14-C ) :   1.0820 B( 12-C , 16-C ) :  -0.2152
B( 12-C , 20-C ) :  -0.1790 B( 12-C , 22-C ) :   1.1168 B( 13-H , 14-C ) :  -0.1848
B( 13-H , 22-C ) :  -0.1687 B( 14-C , 15-H ) :   1.0112 B( 14-C , 16-C ) :   1.2293
B( 14-C , 17-H ) :  -0.1008 B( 14-C , 20-C ) :   0.1124 B( 16-C , 17-H ) :   1.0465
B( 16-C , 18-C ) :   1.2077 B( 16-C , 22-C ) :   0.1833 B( 18-C , 19-H ) :   0.9991
B( 18-C , 20-C ) :   1.1002 B( 18-C , 21-H ) :  -0.1024 B( 20-C , 21-H ) :   1.0206
B( 20-C , 22-C ) :   1.3412 B( 21-H , 22-C ) :  -0.1190 B( 22-C , 23-H ) :   1.0760

MP2 TOTAL ENERGY:     -463.626343066 Eh
FINAL SINGLE POINT ENERGY      -463.626343066074

DIPOLE MOMENT
-------------
                                X             Y             Z
Electronic contribution:      0.01274      -0.00497      -0.20642
Nuclear contribution   :      0.00163      -0.00027       0.00367
                        -----------------------------------------
Total Dipole Moment    :      0.01437      -0.00524      -0.20276
                        -----------------------------------------
Magnitude (a.u.)       :      0.20333
Magnitude (Debye)      :      0.51683

Rotational constants in cm-1:     0.064006     0.015312     0.014206
Rotational constants in MHz :  1918.852130   459.050349   425.892641

                             ****ORCA TERMINATED NORMALLY****
TOTAL RUN TIME: 0 days 1 hours 18 minutes 12 seconds 410 msec
