                         Program Version 5.0.4 -  RELEASE  -
|  1> ! ri-mp2 aug-cc-pvdz aug-cc-pvdz/c tightscf
|  2> %pal nprocs 16 end
|  3> %maxcore 3800
|  4> %base "DZ_S66by10_56_0.8_dimer"
|  5>
|  6> *xyz 0 1
|  7> C    0.69231523    1.08829204    0.32484124
|  8> H    1.28194880    1.99194678    0.25251578
|  9> C    1.31818722   -0.15687008    0.28689607
| 10> H    2.39314337   -0.21947636    0.18840681
| 11> C    0.55801841   -1.32195045    0.38139986
| 12> H    1.04391922   -2.28757380    0.35761542
| 13> C   -0.82755236   -1.24142187    0.51168501
| 14> H   -1.41670095   -2.14525152    0.58533927
| 15> C   -1.45341138    0.00367145    0.54838107
| 16> H   -2.52823255    0.06570272    0.64984254
| 17> C   -0.69346094    1.16840108    0.45622907
| 18> H   -1.17873534    2.13440989    0.48572685
| 19> N    0.32972388   -0.17213436    3.30218803
| 20> H    0.46434223   -0.12809386    2.29911668
| 21> H    0.47121645    0.77301237    3.63466031
| 22> C   -1.04637560   -0.57851777    3.57962383
| 23> H   -1.20425217   -0.60706478    4.65617936
| 24> H   -1.81767779    0.06186302    3.13950483
| 25> H   -1.20106758   -1.58808557    3.20400213
| 26> *
| 27>
| 28> $new_job
| 29> ! ri-mp2 aug-cc-pvtz aug-cc-pvtz/c tightscf
| 30> %pal nprocs 16 end
| 31> %maxcore 3800
| 32> %base "TZ_S66by10_56_0.8_dimer"
| 33>
| 34> *xyz 0 1
| 35> C    0.69231523    1.08829204    0.32484124
| 36> H    1.28194880    1.99194678    0.25251578
| 37> C    1.31818722   -0.15687008    0.28689607
| 38> H    2.39314337   -0.21947636    0.18840681
| 39> C    0.55801841   -1.32195045    0.38139986
| 40> H    1.04391922   -2.28757380    0.35761542
| 41> C   -0.82755236   -1.24142187    0.51168501
| 42> H   -1.41670095   -2.14525152    0.58533927
| 43> C   -1.45341138    0.00367145    0.54838107
| 44> H   -2.52823255    0.06570272    0.64984254
| 45> C   -0.69346094    1.16840108    0.45622907
| 46> H   -1.17873534    2.13440989    0.48572685
| 47> N    0.32972388   -0.17213436    3.30218803
| 48> H    0.46434223   -0.12809386    2.29911668
| 49> H    0.47121645    0.77301237    3.63466031
| 50> C   -1.04637560   -0.57851777    3.57962383
| 51> H   -1.20425217   -0.60706478    4.65617936
| 52> H   -1.81767779    0.06186302    3.13950483
| 53> H   -1.20106758   -1.58808557    3.20400213
| 54> *
| 55>
| 56> $new_job
| 57> ! ri-mp2 aug-cc-pvqz aug-cc-pvqz/c tightscf
| 58> %pal nprocs 16 end
| 59> %maxcore 3800
| 60> %base "QZ_S66by10_56_0.8_dimer"
| 61>
| 62> *xyz 0 1
| 63> C    0.69231523    1.08829204    0.32484124
| 64> H    1.28194880    1.99194678    0.25251578
| 65> C    1.31818722   -0.15687008    0.28689607
| 66> H    2.39314337   -0.21947636    0.18840681
| 67> C    0.55801841   -1.32195045    0.38139986
| 68> H    1.04391922   -2.28757380    0.35761542
| 69> C   -0.82755236   -1.24142187    0.51168501
| 70> H   -1.41670095   -2.14525152    0.58533927
| 71> C   -1.45341138    0.00367145    0.54838107
| 72> H   -2.52823255    0.06570272    0.64984254
| 73> C   -0.69346094    1.16840108    0.45622907
| 74> H   -1.17873534    2.13440989    0.48572685
| 75> N    0.32972388   -0.17213436    3.30218803
| 76> H    0.46434223   -0.12809386    2.29911668
| 77> H    0.47121645    0.77301237    3.63466031
| 78> C   -1.04637560   -0.57851777    3.57962383
| 79> H   -1.20425217   -0.60706478    4.65617936
| 80> H   -1.81767779    0.06186302    3.13950483
| 81> H   -1.20106758   -1.58808557    3.20400213
| 82> *
| 83>
| 84>
| 85>
| 86>
| 87>                          ****END OF INPUT****
 Total Charge           Charge          ....    0
 Multiplicity           Mult            ....    1
 Number of Electrons    NEL             ....   60
MP2 TOTAL ENERGY:     -327.116341562 Eh
FINAL SINGLE POINT ENERGY      -327.116341561826
MP2 TOTAL ENERGY:     -327.414351085 Eh
FINAL SINGLE POINT ENERGY      -327.414351085194

CARTESIAN COORDINATES (ANGSTROEM)
---------------------------------
  C      0.692315    1.088292    0.324841
  H      1.281949    1.991947    0.252516
  C      1.318187   -0.156870    0.286896
  H      2.393143   -0.219476    0.188407
  C      0.558018   -1.321950    0.381400
  H      1.043919   -2.287574    0.357615
  C     -0.827552   -1.241422    0.511685
  H     -1.416701   -2.145252    0.585339
  C     -1.453411    0.003671    0.548381
  H     -2.528233    0.065703    0.649843
  C     -0.693461    1.168401    0.456229
  H     -1.178735    2.134410    0.485727
  N      0.329724   -0.172134    3.302188
  H      0.464342   -0.128094    2.299117
  H      0.471216    0.773012    3.634660
  C     -1.046376   -0.578518    3.579624
  H     -1.204252   -0.607065    4.656179
  H     -1.817678    0.061863    3.139505
  H     -1.201068   -1.588086    3.204002

 Multiplicity           Mult            ....    1
 Number of Electrons    NEL             ....   60
 Basis Dimension        Dim             .... 1146

ORBITAL ENERGIES
----------------

  NO   OCC          E(Eh)            E(eV)
   0   2.0000     -15.513512      -422.1441
   1   2.0000     -11.242026      -305.9111
   2   2.0000     -11.241260      -305.8902
   3   2.0000     -11.240898      -305.8804
   4   2.0000     -11.240163      -305.8604
   5   2.0000     -11.239469      -305.8415
   6   2.0000     -11.238863      -305.8250
   7   2.0000     -11.223857      -305.4167
   8   2.0000      -1.166729       -31.7483
   9   2.0000      -1.145971       -31.1835
  10   2.0000      -1.023417       -27.8486
  11   2.0000      -1.022721       -27.8297
  12   2.0000      -0.880967       -23.9723
  13   2.0000      -0.831460       -22.6252
  14   2.0000      -0.831166       -22.6172
  15   2.0000      -0.718046       -19.5390
  16   2.0000      -0.652049       -17.7432
  17   2.0000      -0.650647       -17.7050
  18   2.0000      -0.626180       -17.0392
  19   2.0000      -0.597787       -16.2666
  20   2.0000      -0.595714       -16.2102
  21   2.0000      -0.591224       -16.0880
  22   2.0000      -0.540795       -14.7158
  23   2.0000      -0.510057       -13.8793
  24   2.0000      -0.501866       -13.6565
  25   2.0000      -0.501755       -13.6535
  26   2.0000      -0.490422       -13.3451
  27   2.0000      -0.376569       -10.2470
  28   2.0000      -0.344746        -9.3810
  29   2.0000      -0.343086        -9.3358
  30   0.0000       0.023569         0.6414
  31   0.0000       0.028755         0.7825
  32   0.0000       0.029983         0.8159
  33   0.0000       0.038132         1.0376
  34   0.0000       0.041368         1.1257

MULLIKEN ATOMIC CHARGES
-----------------------
   0 C :   -0.306298
   1 H :    0.270964
   2 C :   -0.320914
   3 H :    0.283791
   4 C :   -0.377021
   5 H :    0.269135
   6 C :   -0.296035
   7 H :    0.310648
   8 C :   -0.176113
   9 H :    0.298684
  10 C :   -0.434614
  11 H :    0.264753
  12 N :   -0.779278
  13 H :    0.681309
  14 H :    0.219191
  15 C :   -0.840917
  16 H :    0.396523
  17 H :    0.259707
  18 H :    0.276484
Sum of atomic charges:    0.0000000

LOEWDIN ATOMIC CHARGES
----------------------
   0 C :    0.343128
   1 H :   -0.309472
   2 C :    0.338181
   3 H :   -0.304309
   4 C :    0.343390
   5 H :   -0.301826
   6 C :    0.323027
   7 H :   -0.304205
   8 C :    0.313253
   9 H :   -0.306303
  10 C :    0.346617
  11 H :   -0.309919
  12 N :    1.285998
  13 H :   -0.778756
  14 H :   -0.493542
  15 C :    0.744290
  16 H :   -0.299307
  17 H :   -0.310797
  18 H :   -0.319447

  Mayer bond orders larger than 0.100000
B(  0-C ,  1-H ) :   1.0879 B(  0-C ,  2-C ) :   1.1759 B(  0-C ,  6-C ) :   0.1297
B(  0-C , 10-C ) :   1.2666 B(  0-C , 13-H ) :  -0.1012 B(  2-C ,  3-H ) :   1.0753
B(  2-C ,  4-C ) :   1.2621 B(  2-C ,  8-C ) :   0.1265 B(  2-C , 13-H ) :  -0.1014
B(  4-C ,  5-H ) :   1.0924 B(  4-C ,  6-C ) :   1.2641 B(  4-C , 10-C ) :   0.1772
B(  4-C , 13-H ) :  -0.1031 B(  6-C ,  7-H ) :   1.0376 B(  6-C ,  8-C ) :   1.1305
B(  8-C ,  9-H ) :   1.0534 B(  8-C , 10-C ) :   1.2245 B( 10-C , 11-H ) :   1.0938
B( 12-N , 13-H ) :   0.6517 B( 12-N , 14-H ) :   0.9706 B( 12-N , 15-C ) :   0.9924
B( 15-C , 16-H ) :   0.8472 B( 15-C , 17-H ) :   0.9260 B( 15-C , 18-H ) :   0.9399

MP2 TOTAL ENERGY:     -327.506982647 Eh
FINAL SINGLE POINT ENERGY      -327.506982646621

DIPOLE MOMENT
-------------
                                X             Y             Z
Electronic contribution:      1.56495       0.57882      -5.53065
Nuclear contribution   :     -1.89706      -0.23566       5.12207
                        -----------------------------------------
Total Dipole Moment    :     -0.33211       0.34315      -0.40857
                        -----------------------------------------
Magnitude (a.u.)       :      0.62848
Magnitude (Debye)      :      1.59746

Rotational constants in cm-1:     0.089620     0.054631     0.053364
Rotational constants in MHz :  2686.728715  1637.783950  1599.812988

                             ****ORCA TERMINATED NORMALLY****
TOTAL RUN TIME: 0 days 0 hours 37 minutes 18 seconds 464 msec
