                         Program Version 5.0.4 -  RELEASE  -
|  1> ! ri-mp2 aug-cc-pvdz aug-cc-pvdz/c tightscf
|  2> %pal nprocs 16 end
|  3> %maxcore 3800
|  4> %base "DZ_S66by10_18_0.9_dimer"
|  5>
|  6> *xyz 0 1
|  7> O   -0.55283102   -0.10169749   -0.00049879
|  8> H   -0.87175963    0.80179220    0.00014440
|  9> H    0.41265950   -0.00183225   -0.00025181
| 10> N    2.20644565    0.08867230    0.00011461
| 11> C    2.90235229    0.05470151    1.14486246
| 12> H    2.31767974    0.07831245    2.05573049
| 13> C    4.29137588   -0.01048092    1.19485852
| 14> H    4.79728226   -0.03533508    2.14918765
| 15> C    5.00253902   -0.04360672   -0.00005262
| 16> H    6.08237898   -0.09538027   -0.00013305
| 17> C    4.29123073   -0.01054758   -1.19485392
| 18> H    4.79702767   -0.03542061   -2.14925252
| 19> C    2.90220071    0.05464741   -1.14470766
| 20> H    2.31743183    0.07824807   -2.05550021
| 21> *
| 22>
| 23> $new_job
| 24> ! ri-mp2 aug-cc-pvtz aug-cc-pvtz/c tightscf
| 25> %pal nprocs 16 end
| 26> %maxcore 3800
| 27> %base "TZ_S66by10_18_0.9_dimer"
| 28>
| 29> *xyz 0 1
| 30> O   -0.55283102   -0.10169749   -0.00049879
| 31> H   -0.87175963    0.80179220    0.00014440
| 32> H    0.41265950   -0.00183225   -0.00025181
| 33> N    2.20644565    0.08867230    0.00011461
| 34> C    2.90235229    0.05470151    1.14486246
| 35> H    2.31767974    0.07831245    2.05573049
| 36> C    4.29137588   -0.01048092    1.19485852
| 37> H    4.79728226   -0.03533508    2.14918765
| 38> C    5.00253902   -0.04360672   -0.00005262
| 39> H    6.08237898   -0.09538027   -0.00013305
| 40> C    4.29123073   -0.01054758   -1.19485392
| 41> H    4.79702767   -0.03542061   -2.14925252
| 42> C    2.90220071    0.05464741   -1.14470766
| 43> H    2.31743183    0.07824807   -2.05550021
| 44> *
| 45>
| 46> $new_job
| 47> ! ri-mp2 aug-cc-pvqz aug-cc-pvqz/c tightscf
| 48> %pal nprocs 16 end
| 49> %maxcore 3800
| 50> %base "QZ_S66by10_18_0.9_dimer"
| 51>
| 52> *xyz 0 1
| 53> O   -0.55283102   -0.10169749   -0.00049879
| 54> H   -0.87175963    0.80179220    0.00014440
| 55> H    0.41265950   -0.00183225   -0.00025181
| 56> N    2.20644565    0.08867230    0.00011461
| 57> C    2.90235229    0.05470151    1.14486246
| 58> H    2.31767974    0.07831245    2.05573049
| 59> C    4.29137588   -0.01048092    1.19485852
| 60> H    4.79728226   -0.03533508    2.14918765
| 61> C    5.00253902   -0.04360672   -0.00005262
| 62> H    6.08237898   -0.09538027   -0.00013305
| 63> C    4.29123073   -0.01054758   -1.19485392
| 64> H    4.79702767   -0.03542061   -2.14925252
| 65> C    2.90220071    0.05464741   -1.14470766
| 66> H    2.31743183    0.07824807   -2.05550021
| 67> *
| 68>
| 69>
| 70>
| 71>
| 72>                          ****END OF INPUT****
 Total Charge           Charge          ....    0
 Multiplicity           Mult            ....    1
 Number of Electrons    NEL             ....   52
MP2 TOTAL ENERGY:     -323.835165627 Eh
FINAL SINGLE POINT ENERGY      -323.835165627264
MP2 TOTAL ENERGY:     -324.117752278 Eh
FINAL SINGLE POINT ENERGY      -324.117752278101

CARTESIAN COORDINATES (ANGSTROEM)
---------------------------------
  O     -0.552831   -0.101697   -0.000499
  H     -0.871760    0.801792    0.000144
  H      0.412659   -0.001832   -0.000252
  N      2.206446    0.088672    0.000115
  C      2.902352    0.054702    1.144862
  H      2.317680    0.078312    2.055730
  C      4.291376   -0.010481    1.194859
  H      4.797282   -0.035335    2.149188
  C      5.002539   -0.043607   -0.000053
  H      6.082379   -0.095380   -0.000133
  C      4.291231   -0.010548   -1.194854
  H      4.797028   -0.035421   -2.149253
  C      2.902201    0.054647   -1.144708
  H      2.317432    0.078248   -2.055500

 Multiplicity           Mult            ....    1
 Number of Electrons    NEL             ....   52
 Basis Dimension        Dim             ....  882

ORBITAL ENERGIES
----------------

  NO   OCC          E(Eh)            E(eV)
   0   2.0000     -20.510833      -558.1281
   1   2.0000     -15.583034      -424.0359
   2   2.0000     -11.290221      -307.2225
   3   2.0000     -11.290203      -307.2220
   4   2.0000     -11.273277      -306.7615
   5   2.0000     -11.253905      -306.2343
   6   2.0000     -11.253855      -306.2330
   7   2.0000      -1.303009       -35.4567
   8   2.0000      -1.274371       -34.6774
   9   2.0000      -1.104380       -30.0517
  10   2.0000      -1.048757       -28.5381
  11   2.0000      -0.874355       -23.7924
  12   2.0000      -0.871898       -23.7256
  13   2.0000      -0.740241       -20.1430
  14   2.0000      -0.676576       -18.4106
  15   2.0000      -0.675325       -18.3765
  16   2.0000      -0.665158       -18.0999
  17   2.0000      -0.613063       -16.6823
  18   2.0000      -0.592697       -16.1281
  19   2.0000      -0.558679       -15.2024
  20   2.0000      -0.541742       -14.7415
  21   2.0000      -0.534641       -14.5483
  22   2.0000      -0.461218       -12.5504
  23   2.0000      -0.437581       -11.9072
  24   2.0000      -0.400853       -10.9078
  25   2.0000      -0.361674        -9.8416
  26   0.0000       0.018918         0.5148
  27   0.0000       0.026316         0.7161
  28   0.0000       0.030925         0.8415
  29   0.0000       0.042643         1.1604
  30   0.0000       0.043478         1.1831

MULLIKEN ATOMIC CHARGES
-----------------------
   0 O :   -0.682883
   1 H :    0.307108
   2 H :    0.229381
   3 N :   -0.417622
   4 C :   -0.319629
   5 H :    0.400151
   6 C :   -0.179405
   7 H :    0.304926
   8 C :   -0.180872
   9 H :    0.332796
  10 C :   -0.179383
  11 H :    0.304934
  12 C :   -0.319630
  13 H :    0.400127
Sum of atomic charges:   -0.0000000

LOEWDIN ATOMIC CHARGES
----------------------
   0 O :    1.603589
   1 H :   -0.795207
   2 H :   -1.084077
   3 N :    0.620651
   4 C :    0.133283
   5 H :   -0.334331
   6 C :    0.343858
   7 H :   -0.328162
   8 C :    0.337364
   9 H :   -0.311631
  10 C :    0.343854
  11 H :   -0.328149
  12 C :    0.133292
  13 H :   -0.334334

  Mayer bond orders larger than 0.100000
B(  0-O ,  1-H ) :   0.9367 B(  0-O ,  2-H ) :   0.9236 B(  2-H ,  3-N ) :   0.1214
B(  3-N ,  4-C ) :   1.4201 B(  3-N , 12-C ) :   1.4202 B(  4-C ,  5-H ) :   0.9294
B(  4-C ,  6-C ) :   1.2163 B(  4-C , 10-C ) :   0.1160 B(  6-C ,  7-H ) :   1.0036
B(  6-C ,  8-C ) :   1.1693 B(  6-C , 10-C ) :  -0.1149 B(  6-C , 12-C ) :   0.1160
B(  8-C ,  9-H ) :   0.9858 B(  8-C , 10-C ) :   1.1693 B( 10-C , 11-H ) :   1.0036
B( 10-C , 12-C ) :   1.2162 B( 12-C , 13-H ) :   0.9294

MP2 TOTAL ENERGY:     -324.208992929 Eh
FINAL SINGLE POINT ENERGY      -324.208992929405

DIPOLE MOMENT
-------------
                                X             Y             Z
Electronic contribution:      1.85311      -0.09394       0.00027
Nuclear contribution   :     -0.02161       0.67615       0.00027
                        -----------------------------------------
Total Dipole Moment    :      1.83150       0.58221       0.00054
                        -----------------------------------------
Magnitude (a.u.)       :      1.92181
Magnitude (Debye)      :      4.88485

Rotational constants in cm-1:     0.199160     0.050115     0.040238
Rotational constants in MHz :  5970.656099  1502.421837  1206.302303

                             ****ORCA TERMINATED NORMALLY****
TOTAL RUN TIME: 0 days 0 hours 14 minutes 49 seconds 688 msec
