                         Program Version 5.0.4 -  RELEASE  -
|  1> ! ri-mp2 aug-cc-pvdz aug-cc-pvdz/c tightscf
|  2> %pal nprocs 16 end
|  3> %maxcore 3800
|  4> %base "DZ_S66by10_44_0.9_dimer"
|  5> %scf STABPerform true end
|  6>
|  7> *xyz 0 1
|  8> C    0.66640038    0.18381078    0.41973683
|  9> H    1.22888182   -0.32988301    1.18625971
| 10> H    1.22803556    0.69720813   -0.34760989
| 11> C   -0.66597358    0.18297343    0.41961191
| 12> H   -1.22792171   -0.33149890    1.18610334
| 13> H   -1.22818427    0.69564575   -0.34774808
| 14> C   -2.53274200   -0.37807382    3.90560026
| 15> H   -2.56223545   -0.99109460    3.00441038
| 16> H   -2.56887595   -1.05229444    4.76121728
| 17> H   -3.43391336    0.23294261    3.92284621
| 18> C   -1.27130552    0.47460159    3.94141820
| 19> H   -1.27171138    1.09469517    4.84081214
| 20> H   -1.26291717    1.16150991    3.09235779
| 21> C   -0.00003126   -0.36295598    3.91447499
| 22> H   -0.00018531   -1.04962868    4.76630701
| 23> H    0.00010981   -0.99053381    3.01783250
| 24> C    1.27118915    0.47463045    3.94187953
| 25> H    1.27146215    1.09444120    4.84136494
| 26> H    1.26299433    1.16170510    3.09297190
| 27> C    2.53264053   -0.37809406    3.90605535
| 28> H    2.56226400   -0.99095056    3.00474617
| 29> H    3.43381864    0.23284211    3.92363339
| 30> H    2.56855889   -1.05255014    4.76156106
| 31> *
| 32>
| 33> $new_job
| 34> ! ri-mp2 aug-cc-pvtz aug-cc-pvtz/c tightscf
| 35> %pal nprocs 16 end
| 36> %maxcore 3800
| 37> %base "TZ_S66by10_44_0.9_dimer"
| 38>
| 39> *xyz 0 1
| 40> C    0.66640038    0.18381078    0.41973683
| 41> H    1.22888182   -0.32988301    1.18625971
| 42> H    1.22803556    0.69720813   -0.34760989
| 43> C   -0.66597358    0.18297343    0.41961191
| 44> H   -1.22792171   -0.33149890    1.18610334
| 45> H   -1.22818427    0.69564575   -0.34774808
| 46> C   -2.53274200   -0.37807382    3.90560026
| 47> H   -2.56223545   -0.99109460    3.00441038
| 48> H   -2.56887595   -1.05229444    4.76121728
| 49> H   -3.43391336    0.23294261    3.92284621
| 50> C   -1.27130552    0.47460159    3.94141820
| 51> H   -1.27171138    1.09469517    4.84081214
| 52> H   -1.26291717    1.16150991    3.09235779
| 53> C   -0.00003126   -0.36295598    3.91447499
| 54> H   -0.00018531   -1.04962868    4.76630701
| 55> H    0.00010981   -0.99053381    3.01783250
| 56> C    1.27118915    0.47463045    3.94187953
| 57> H    1.27146215    1.09444120    4.84136494
| 58> H    1.26299433    1.16170510    3.09297190
| 59> C    2.53264053   -0.37809406    3.90605535
| 60> H    2.56226400   -0.99095056    3.00474617
| 61> H    3.43381864    0.23284211    3.92363339
| 62> H    2.56855889   -1.05255014    4.76156106
| 63> *
| 64>
| 65> $new_job
| 66> ! ri-mp2 aug-cc-pvqz aug-cc-pvqz/c tightscf
| 67> %pal nprocs 16 end
| 68> %maxcore 3800
| 69> %base "QZ_S66by10_44_0.9_dimer"
| 70>
| 71> *xyz 0 1
| 72> C    0.66640038    0.18381078    0.41973683
| 73> H    1.22888182   -0.32988301    1.18625971
| 74> H    1.22803556    0.69720813   -0.34760989
| 75> C   -0.66597358    0.18297343    0.41961191
| 76> H   -1.22792171   -0.33149890    1.18610334
| 77> H   -1.22818427    0.69564575   -0.34774808
| 78> C   -2.53274200   -0.37807382    3.90560026
| 79> H   -2.56223545   -0.99109460    3.00441038
| 80> H   -2.56887595   -1.05229444    4.76121728
| 81> H   -3.43391336    0.23294261    3.92284621
| 82> C   -1.27130552    0.47460159    3.94141820
| 83> H   -1.27171138    1.09469517    4.84081214
| 84> H   -1.26291717    1.16150991    3.09235779
| 85> C   -0.00003126   -0.36295598    3.91447499
| 86> H   -0.00018531   -1.04962868    4.76630701
| 87> H    0.00010981   -0.99053381    3.01783250
| 88> C    1.27118915    0.47463045    3.94187953
| 89> H    1.27146215    1.09444120    4.84136494
| 90> H    1.26299433    1.16170510    3.09297190
| 91> C    2.53264053   -0.37809406    3.90605535
| 92> H    2.56226400   -0.99095056    3.00474617
| 93> H    3.43381864    0.23284211    3.92363339
| 94> H    2.56855889   -1.05255014    4.76156106
| 95> *
| 96>
| 97>
| 98>
| 99>
|100>                          ****END OF INPUT****
 Total Charge           Charge          ....    0
 Multiplicity           Mult            ....    1
 Number of Electrons    NEL             ....   58
MP2 TOTAL ENERGY:     -275.445949918 Eh
FINAL SINGLE POINT ENERGY      -275.445949918172
MP2 TOTAL ENERGY:     -275.718774249 Eh
FINAL SINGLE POINT ENERGY      -275.718774249198

CARTESIAN COORDINATES (ANGSTROEM)
---------------------------------
  C      0.666400    0.183811    0.419737
  H      1.228882   -0.329883    1.186260
  H      1.228036    0.697208   -0.347610
  C     -0.665974    0.182973    0.419612
  H     -1.227922   -0.331499    1.186103
  H     -1.228184    0.695646   -0.347748
  C     -2.532742   -0.378074    3.905600
  H     -2.562235   -0.991095    3.004410
  H     -2.568876   -1.052294    4.761217
  H     -3.433913    0.232943    3.922846
  C     -1.271306    0.474602    3.941418
  H     -1.271711    1.094695    4.840812
  H     -1.262917    1.161510    3.092358
  C     -0.000031   -0.362956    3.914475
  H     -0.000185   -1.049629    4.766307
  H      0.000110   -0.990534    3.017832
  C      1.271189    0.474630    3.941880
  H      1.271462    1.094441    4.841365
  H      1.262994    1.161705    3.092972
  C      2.532641   -0.378094    3.906055
  H      2.562264   -0.990951    3.004746
  H      3.433819    0.232842    3.923633
  H      2.568559   -1.052550    4.761561

 Multiplicity           Mult            ....    1
 Number of Electrons    NEL             ....   58
 Basis Dimension        Dim             .... 1296

ORBITAL ENERGIES
----------------

  NO   OCC          E(Eh)            E(eV)
   0   2.0000     -11.228916      -305.5543
   1   2.0000     -11.227189      -305.5073
   2   2.0000     -11.210525      -305.0539
   3   2.0000     -11.210364      -305.0495
   4   2.0000     -11.209210      -305.0181
   5   2.0000     -11.207520      -304.9721
   6   2.0000     -11.207513      -304.9719
   7   2.0000      -1.082013       -29.4431
   8   2.0000      -1.034483       -28.1497
   9   2.0000      -1.016184       -27.6518
  10   2.0000      -0.920054       -25.0359
  11   2.0000      -0.820556       -22.3285
  12   2.0000      -0.794103       -21.6086
  13   2.0000      -0.785546       -21.3758
  14   2.0000      -0.663977       -18.0677
  15   2.0000      -0.631146       -17.1744
  16   2.0000      -0.599471       -16.3124
  17   2.0000      -0.595450       -16.2030
  18   2.0000      -0.586642       -15.9633
  19   2.0000      -0.554796       -15.0968
  20   2.0000      -0.548943       -14.9375
  21   2.0000      -0.527445       -14.3525
  22   2.0000      -0.508326       -13.8323
  23   2.0000      -0.494420       -13.4539
  24   2.0000      -0.476865       -12.9761
  25   2.0000      -0.461965       -12.5707
  26   2.0000      -0.460491       -12.5306
  27   2.0000      -0.447257       -12.1705
  28   2.0000      -0.376325       -10.2403
  29   0.0000       0.026218         0.7134
  30   0.0000       0.028621         0.7788
  31   0.0000       0.031551         0.8585
  32   0.0000       0.034261         0.9323
  33   0.0000       0.043346         1.1795

MULLIKEN ATOMIC CHARGES
-----------------------
   0 C :   -1.011465
   1 H :    0.593684
   2 H :    0.380587
   3 C :   -1.011437
   4 H :    0.593751
   5 H :    0.380742
   6 C :   -0.966281
   7 H :    0.254430
   8 H :    0.220330
   9 H :    0.251703
  10 C :   -0.498943
  11 H :    0.292229
  12 H :    0.251401
  13 C :   -0.166227
  14 H :    0.291243
  15 H :    0.339386
  16 C :   -0.498940
  17 H :    0.292306
  18 H :    0.251392
  19 C :   -0.966334
  20 H :    0.254475
  21 H :    0.251714
  22 H :    0.220253
Sum of atomic charges:    0.0000000

LOEWDIN ATOMIC CHARGES
----------------------
   0 C :    0.782302
   1 H :   -0.404341
   2 H :   -0.349144
   3 C :    0.782283
   4 H :   -0.404270
   5 H :   -0.349173
   6 C :    0.932049
   7 H :   -0.295298
   8 H :   -0.281491
   9 H :   -0.277389
  10 C :    0.500935
  11 H :   -0.266236
  12 H :   -0.295810
  13 C :    0.483423
  14 H :   -0.260483
  15 H :   -0.314111
  16 C :    0.500978
  17 H :   -0.266315
  18 H :   -0.295823
  19 C :    0.932066
  20 H :   -0.295284
  21 H :   -0.277425
  22 H :   -0.281441

  Mayer bond orders larger than 0.100000
B(  0-C ,  1-H ) :   0.5011 B(  0-C ,  2-H ) :   0.9418 B(  0-C ,  3-C ) :   2.1132
B(  3-C ,  4-H ) :   0.5010 B(  3-C ,  5-H ) :   0.9416 B(  6-C ,  7-H ) :   0.9193
B(  6-C ,  8-H ) :   0.9996 B(  6-C ,  9-H ) :   1.0366 B(  6-C , 10-C ) :   0.9776
B(  6-C , 13-C ) :  -0.1191 B( 10-C , 11-H ) :   0.8817 B( 10-C , 12-H ) :   0.8884
B( 10-C , 13-C ) :   0.7976 B( 13-C , 14-H ) :   0.8838 B( 13-C , 15-H ) :   0.8394
B( 13-C , 16-C ) :   0.7976 B( 13-C , 19-C ) :  -0.1191 B( 16-C , 17-H ) :   0.8817
B( 16-C , 18-H ) :   0.8884 B( 16-C , 19-C ) :   0.9775 B( 19-C , 20-H ) :   0.9193
B( 19-C , 21-H ) :   1.0366 B( 19-C , 22-H ) :   0.9997

MP2 TOTAL ENERGY:     -275.799732150 Eh
FINAL SINGLE POINT ENERGY      -275.799732150073

DIPOLE MOMENT
-------------
                                X             Y             Z
Electronic contribution:      0.00016       0.76689      -1.51729
Nuclear contribution   :     -0.00018      -0.68286       1.54838
                        -----------------------------------------
Total Dipole Moment    :     -0.00002       0.08402       0.03109
                        -----------------------------------------
Magnitude (a.u.)       :      0.08959
Magnitude (Debye)      :      0.22772

Rotational constants in cm-1:     0.059822     0.058302     0.032077
Rotational constants in MHz :  1793.427796  1747.854443   961.655257

                             ****ORCA TERMINATED NORMALLY****
TOTAL RUN TIME: 0 days 2 hours 57 minutes 25 seconds 537 msec
