                         Program Version 5.0.4 -  RELEASE  -
|  1> ! ri-mp2 aug-cc-pvdz aug-cc-pvdz/c tightscf
|  2> %pal nprocs 16 end
|  3> %maxcore 3800
|  4> %base "DZ_S66by10_38_1.0_dimer"
|  5> %scf STABPerform true end
|  6>
|  7> *xyz 0 1
|  8> C    0.95688019   -0.89184563    1.14195000
|  9> H    1.50456597   -1.27835762    0.28342019
| 10> H    1.42138447   -1.31477793    2.03102546
| 11> C    0.99094943    0.65850830    1.14550384
| 12> H    1.51059446    1.02309646    0.25994788
| 13> H    1.51625823    1.05981813    2.01053703
| 14> C   -0.47945194    1.10231879    1.10387910
| 15> H   -0.61626861    2.06487722    0.61356737
| 16> H   -0.87474223    1.18907144    2.11806960
| 17> C   -1.18210650   -0.05279656    0.39334575
| 18> H   -0.94888216   -0.02683030   -0.67380459
| 19> H   -2.26566452   -0.03356474    0.50127403
| 20> C   -0.53065958   -1.27488954    1.03930959
| 21> H   -0.69039061   -2.19702093    0.48299221
| 22> H   -0.95084939   -1.41541197    2.03674782
| 23> C   -1.13177996   -0.38350606    5.06533541
| 24> H   -1.46491446   -0.14680745    4.05275105
| 25> H   -1.93656836   -0.92660453    5.55832192
| 26> C    0.18182649   -1.17905098    5.01757422
| 27> H    0.23177143   -1.83679367    4.15144039
| 28> H    0.26211411   -1.81040861    5.90195951
| 29> C    1.31114171   -0.11634515    5.01817031
| 30> H    1.93240667   -0.17702400    4.12629669
| 31> H    1.96855120   -0.26622819    5.87357548
| 32> C    0.60096834    1.24532360    5.12603714
| 33> H    0.42110517    1.65381538    4.13003802
| 34> H    1.18135230    1.97972710    5.68201041
| 35> C   -0.74108412    0.91085116    5.77584900
| 36> H   -1.48075268    1.70336293    5.67096770
| 37> H   -0.60104419    0.71921111    6.84239796
| 38> *
| 39>
| 40> $new_job
| 41> ! ri-mp2 aug-cc-pvtz aug-cc-pvtz/c tightscf
| 42> %pal nprocs 16 end
| 43> %maxcore 3800
| 44> %base "TZ_S66by10_38_1.0_dimer"
| 45>
| 46> *xyz 0 1
| 47> C    0.95688019   -0.89184563    1.14195000
| 48> H    1.50456597   -1.27835762    0.28342019
| 49> H    1.42138447   -1.31477793    2.03102546
| 50> C    0.99094943    0.65850830    1.14550384
| 51> H    1.51059446    1.02309646    0.25994788
| 52> H    1.51625823    1.05981813    2.01053703
| 53> C   -0.47945194    1.10231879    1.10387910
| 54> H   -0.61626861    2.06487722    0.61356737
| 55> H   -0.87474223    1.18907144    2.11806960
| 56> C   -1.18210650   -0.05279656    0.39334575
| 57> H   -0.94888216   -0.02683030   -0.67380459
| 58> H   -2.26566452   -0.03356474    0.50127403
| 59> C   -0.53065958   -1.27488954    1.03930959
| 60> H   -0.69039061   -2.19702093    0.48299221
| 61> H   -0.95084939   -1.41541197    2.03674782
| 62> C   -1.13177996   -0.38350606    5.06533541
| 63> H   -1.46491446   -0.14680745    4.05275105
| 64> H   -1.93656836   -0.92660453    5.55832192
| 65> C    0.18182649   -1.17905098    5.01757422
| 66> H    0.23177143   -1.83679367    4.15144039
| 67> H    0.26211411   -1.81040861    5.90195951
| 68> C    1.31114171   -0.11634515    5.01817031
| 69> H    1.93240667   -0.17702400    4.12629669
| 70> H    1.96855120   -0.26622819    5.87357548
| 71> C    0.60096834    1.24532360    5.12603714
| 72> H    0.42110517    1.65381538    4.13003802
| 73> H    1.18135230    1.97972710    5.68201041
| 74> C   -0.74108412    0.91085116    5.77584900
| 75> H   -1.48075268    1.70336293    5.67096770
| 76> H   -0.60104419    0.71921111    6.84239796
| 77> *
| 78>
| 79> $new_job
| 80> ! ri-mp2 aug-cc-pvqz aug-cc-pvqz/c tightscf
| 81> %pal nprocs 16 end
| 82> %maxcore 3800
| 83> %base "QZ_S66by10_38_1.0_dimer"
| 84>
| 85> *xyz 0 1
| 86> C    0.95688019   -0.89184563    1.14195000
| 87> H    1.50456597   -1.27835762    0.28342019
| 88> H    1.42138447   -1.31477793    2.03102546
| 89> C    0.99094943    0.65850830    1.14550384
| 90> H    1.51059446    1.02309646    0.25994788
| 91> H    1.51625823    1.05981813    2.01053703
| 92> C   -0.47945194    1.10231879    1.10387910
| 93> H   -0.61626861    2.06487722    0.61356737
| 94> H   -0.87474223    1.18907144    2.11806960
| 95> C   -1.18210650   -0.05279656    0.39334575
| 96> H   -0.94888216   -0.02683030   -0.67380459
| 97> H   -2.26566452   -0.03356474    0.50127403
| 98> C   -0.53065958   -1.27488954    1.03930959
| 99> H   -0.69039061   -2.19702093    0.48299221
|100> H   -0.95084939   -1.41541197    2.03674782
|101> C   -1.13177996   -0.38350606    5.06533541
|102> H   -1.46491446   -0.14680745    4.05275105
|103> H   -1.93656836   -0.92660453    5.55832192
|104> C    0.18182649   -1.17905098    5.01757422
|105> H    0.23177143   -1.83679367    4.15144039
|106> H    0.26211411   -1.81040861    5.90195951
|107> C    1.31114171   -0.11634515    5.01817031
|108> H    1.93240667   -0.17702400    4.12629669
|109> H    1.96855120   -0.26622819    5.87357548
|110> C    0.60096834    1.24532360    5.12603714
|111> H    0.42110517    1.65381538    4.13003802
|112> H    1.18135230    1.97972710    5.68201041
|113> C   -0.74108412    0.91085116    5.77584900
|114> H   -1.48075268    1.70336293    5.67096770
|115> H   -0.60104419    0.71921111    6.84239796
|116> *
|117>
|118>
|119>
|120>
|121>                          ****END OF INPUT****
 Total Charge           Charge          ....    0
 Multiplicity           Mult            ....    1
 Number of Electrons    NEL             ....   80
MP2 TOTAL ENERGY:     -391.851945930 Eh
FINAL SINGLE POINT ENERGY      -391.851945930328
MP2 TOTAL ENERGY:     -392.228271290 Eh
FINAL SINGLE POINT ENERGY      -392.228271289681

CARTESIAN COORDINATES (ANGSTROEM)
---------------------------------
  C      0.956880   -0.891846    1.141950
  H      1.504566   -1.278358    0.283420
  H      1.421384   -1.314778    2.031025
  C      0.990949    0.658508    1.145504
  H      1.510594    1.023096    0.259948
  H      1.516258    1.059818    2.010537
  C     -0.479452    1.102319    1.103879
  H     -0.616269    2.064877    0.613567
  H     -0.874742    1.189071    2.118070
  C     -1.182106   -0.052797    0.393346
  H     -0.948882   -0.026830   -0.673805
  H     -2.265665   -0.033565    0.501274
  C     -0.530660   -1.274890    1.039310
  H     -0.690391   -2.197021    0.482992
  H     -0.950849   -1.415412    2.036748
  C     -1.131780   -0.383506    5.065335
  H     -1.464914   -0.146807    4.052751
  H     -1.936568   -0.926605    5.558322
  C      0.181826   -1.179051    5.017574
  H      0.231771   -1.836794    4.151440
  H      0.262114   -1.810409    5.901960
  C      1.311142   -0.116345    5.018170
  H      1.932407   -0.177024    4.126297
  H      1.968551   -0.266228    5.873575
  C      0.600968    1.245324    5.126037
  H      0.421105    1.653815    4.130038
  H      1.181352    1.979727    5.682010
  C     -0.741084    0.910851    5.775849
  H     -1.480753    1.703363    5.670968
  H     -0.601044    0.719211    6.842398

 Multiplicity           Mult            ....    1
 Number of Electrons    NEL             ....   80
 Basis Dimension        Dim             .... 1720

ORBITAL ENERGIES
----------------

  NO   OCC          E(Eh)            E(eV)
   0   2.0000     -11.209769      -305.0333
   1   2.0000     -11.209766      -305.0332
   2   2.0000     -11.209400      -305.0233
   3   2.0000     -11.209397      -305.0232
   4   2.0000     -11.209258      -305.0194
   5   2.0000     -11.209254      -305.0193
   6   2.0000     -11.208757      -305.0058
   7   2.0000     -11.208754      -305.0057
   8   2.0000     -11.208453      -304.9975
   9   2.0000     -11.208450      -304.9974
  10   2.0000      -1.118092       -30.4248
  11   2.0000      -1.115508       -30.3545
  12   2.0000      -0.958996       -26.0956
  13   2.0000      -0.958184       -26.0735
  14   2.0000      -0.955475       -25.9998
  15   2.0000      -0.954780       -25.9809
  16   2.0000      -0.780560       -21.2401
  17   2.0000      -0.775429       -21.1005
  18   2.0000      -0.767905       -20.8957
  19   2.0000      -0.767728       -20.8909
  20   2.0000      -0.660529       -17.9739
  21   2.0000      -0.646710       -17.5979
  22   2.0000      -0.646523       -17.5928
  23   2.0000      -0.639151       -17.3922
  24   2.0000      -0.578669       -15.7464
  25   2.0000      -0.577040       -15.7021
  26   2.0000      -0.564082       -15.3495
  27   2.0000      -0.560435       -15.2502
  28   2.0000      -0.477718       -12.9994
  29   2.0000      -0.477341       -12.9891
  30   2.0000      -0.475730       -12.9453
  31   2.0000      -0.472609       -12.8604
  32   2.0000      -0.467997       -12.7349
  33   2.0000      -0.464621       -12.6430
  34   2.0000      -0.464370       -12.6362
  35   2.0000      -0.459831       -12.5126
  36   2.0000      -0.459533       -12.5045
  37   2.0000      -0.453424       -12.3383
  38   2.0000      -0.449810       -12.2400
  39   2.0000      -0.448494       -12.2041
  40   0.0000       0.024111         0.6561
  41   0.0000       0.028377         0.7722
  42   0.0000       0.029263         0.7963
  43   0.0000       0.030433         0.8281
  44   0.0000       0.039329         1.0702

MULLIKEN ATOMIC CHARGES
-----------------------
   0 C :   -0.591936
   1 H :    0.288302
   2 H :    0.325466
   3 C :   -0.613858
   4 H :    0.274991
   5 H :    0.379522
   6 C :   -0.721388
   7 H :    0.336254
   8 H :    0.354620
   9 C :   -0.519011
  10 H :    0.228576
  11 H :    0.321123
  12 C :   -0.737786
  13 H :    0.333613
  14 H :    0.341478
  15 C :   -0.721451
  16 H :    0.354703
  17 H :    0.336400
  18 C :   -0.613813
  19 H :    0.379044
  20 H :    0.275074
  21 C :   -0.591807
  22 H :    0.325540
  23 H :    0.288313
  24 C :   -0.738007
  25 H :    0.341508
  26 H :    0.333806
  27 C :   -0.519115
  28 H :    0.321104
  29 H :    0.228738
Sum of atomic charges:    0.0000000

LOEWDIN ATOMIC CHARGES
----------------------
   0 C :    0.554184
   1 H :   -0.264131
   2 H :   -0.286999
   3 C :    0.551532
   4 H :   -0.264548
   5 H :   -0.283663
   6 C :    0.530020
   7 H :   -0.250060
   8 H :   -0.291728
   9 C :    0.533018
  10 H :   -0.260652
  11 H :   -0.252456
  12 C :    0.532900
  13 H :   -0.251404
  14 H :   -0.296017
  15 C :    0.530025
  16 H :   -0.291744
  17 H :   -0.250079
  18 C :    0.551522
  19 H :   -0.283604
  20 H :   -0.264545
  21 C :    0.554214
  22 H :   -0.287076
  23 H :   -0.264150
  24 C :    0.532961
  25 H :   -0.295951
  26 H :   -0.251467
  27 C :    0.533018
  28 H :   -0.252472
  29 H :   -0.260647

  Mayer bond orders larger than 0.100000
B(  0-C ,  1-H ) :   0.9291 B(  0-C ,  2-H ) :   0.8611 B(  0-C ,  3-C ) :   0.9911
B(  0-C ,  9-C ) :  -0.1201 B(  0-C , 12-C ) :   0.9653 B(  3-C ,  4-H ) :   0.9512
B(  3-C ,  5-H ) :   0.7992 B(  3-C ,  6-C ) :   0.9546 B(  3-C ,  9-C ) :  -0.1285
B(  6-C ,  7-H ) :   0.8792 B(  6-C ,  8-H ) :   0.8407 B(  6-C ,  9-C ) :   1.0047
B(  9-C , 10-H ) :   0.9581 B(  9-C , 11-H ) :   0.8316 B(  9-C , 12-C ) :   1.0039
B( 12-C , 13-H ) :   0.8785 B( 12-C , 14-H ) :   0.8348 B( 15-C , 16-H ) :   0.8405
B( 15-C , 17-H ) :   0.8791 B( 15-C , 18-C ) :   0.9545 B( 15-C , 27-C ) :   1.0046
B( 18-C , 19-H ) :   0.7997 B( 18-C , 20-H ) :   0.9511 B( 18-C , 21-C ) :   0.9912
B( 18-C , 27-C ) :  -0.1285 B( 21-C , 22-H ) :   0.8609 B( 21-C , 23-H ) :   0.9291
B( 21-C , 24-C ) :   0.9653 B( 21-C , 27-C ) :  -0.1200 B( 24-C , 25-H ) :   0.8346
B( 24-C , 26-H ) :   0.8783 B( 24-C , 27-C ) :   1.0039 B( 27-C , 28-H ) :   0.8316
B( 27-C , 29-H ) :   0.9580

MP2 TOTAL ENERGY:     -392.341409854 Eh
FINAL SINGLE POINT ENERGY      -392.341409854015

DIPOLE MOMENT
-------------
                                X             Y             Z
Electronic contribution:     -0.14176       0.06294       0.00033
Nuclear contribution   :      0.13388      -0.05944      -0.00030
                        -----------------------------------------
Total Dipole Moment    :     -0.00788       0.00351       0.00003
                        -----------------------------------------
Magnitude (a.u.)       :      0.00863
Magnitude (Debye)      :      0.02193

Rotational constants in cm-1:     0.065538     0.021389     0.021332
Rotational constants in MHz :  1964.777875   641.225862   639.505878

                             ****ORCA TERMINATED NORMALLY****
TOTAL RUN TIME: 0 days 14 hours 4 minutes 26 seconds 617 msec
