                         Program Version 5.0.4 -  RELEASE  -
|  1> ! ri-mp2 aug-cc-pvdz aug-cc-pvdz/c tightscf
|  2> %pal nprocs 16 end
|  3> %maxcore 3800
|  4> %base "DZ_S66by10_50_1.0_dimer"
|  5>
|  6> *xyz 0 1
|  7> C    0.83661195    1.11485600    0.23100790
|  8> H    1.48545250    1.97968049    0.21470491
|  9> C    1.38418781   -0.16696533    0.26005688
| 10> H    2.45768419   -0.29628753    0.26605977
| 11> C    0.54747934   -1.28184652    0.28693051
| 12> H    0.97191784   -2.27597918    0.31387670
| 13> C   -0.83666710   -1.11500365    0.28456279
| 14> H   -1.48555353   -1.97956851    0.30969784
| 15> C   -1.38416274    0.16685015    0.25560540
| 16> H   -2.45764469    0.29645927    0.25854055
| 17> C   -0.54749833    1.28174826    0.22897743
| 18> H   -0.97214124    2.27600137    0.21116093
| 19> C    0.00582825    0.07461717    3.75673221
| 20> H    0.00281911    0.05706162    2.69265671
| 21> C    0.00948869    0.09419802    4.96910839
| 22> H    0.01260110    0.11137095    6.03030540
| 23> *
| 24>
| 25> $new_job
| 26> ! ri-mp2 aug-cc-pvtz aug-cc-pvtz/c tightscf
| 27> %pal nprocs 16 end
| 28> %maxcore 3800
| 29> %base "TZ_S66by10_50_1.0_dimer"
| 30>
| 31> *xyz 0 1
| 32> C    0.83661195    1.11485600    0.23100790
| 33> H    1.48545250    1.97968049    0.21470491
| 34> C    1.38418781   -0.16696533    0.26005688
| 35> H    2.45768419   -0.29628753    0.26605977
| 36> C    0.54747934   -1.28184652    0.28693051
| 37> H    0.97191784   -2.27597918    0.31387670
| 38> C   -0.83666710   -1.11500365    0.28456279
| 39> H   -1.48555353   -1.97956851    0.30969784
| 40> C   -1.38416274    0.16685015    0.25560540
| 41> H   -2.45764469    0.29645927    0.25854055
| 42> C   -0.54749833    1.28174826    0.22897743
| 43> H   -0.97214124    2.27600137    0.21116093
| 44> C    0.00582825    0.07461717    3.75673221
| 45> H    0.00281911    0.05706162    2.69265671
| 46> C    0.00948869    0.09419802    4.96910839
| 47> H    0.01260110    0.11137095    6.03030540
| 48> *
| 49>
| 50> $new_job
| 51> ! ri-mp2 aug-cc-pvqz aug-cc-pvqz/c tightscf
| 52> %pal nprocs 16 end
| 53> %maxcore 3800
| 54> %base "QZ_S66by10_50_1.0_dimer"
| 55>
| 56> *xyz 0 1
| 57> C    0.83661195    1.11485600    0.23100790
| 58> H    1.48545250    1.97968049    0.21470491
| 59> C    1.38418781   -0.16696533    0.26005688
| 60> H    2.45768419   -0.29628753    0.26605977
| 61> C    0.54747934   -1.28184652    0.28693051
| 62> H    0.97191784   -2.27597918    0.31387670
| 63> C   -0.83666710   -1.11500365    0.28456279
| 64> H   -1.48555353   -1.97956851    0.30969784
| 65> C   -1.38416274    0.16685015    0.25560540
| 66> H   -2.45764469    0.29645927    0.25854055
| 67> C   -0.54749833    1.28174826    0.22897743
| 68> H   -0.97214124    2.27600137    0.21116093
| 69> C    0.00582825    0.07461717    3.75673221
| 70> H    0.00281911    0.05706162    2.69265671
| 71> C    0.00948869    0.09419802    4.96910839
| 72> H    0.01260110    0.11137095    6.03030540
| 73> *
| 74>
| 75>
| 76>
| 77>
| 78>                          ****END OF INPUT****
 Total Charge           Charge          ....    0
 Multiplicity           Mult            ....    1
 Number of Electrons    NEL             ....   56
MP2 TOTAL ENERGY:     -308.639560907 Eh
FINAL SINGLE POINT ENERGY      -308.639560906539
MP2 TOTAL ENERGY:     -308.915524724 Eh
FINAL SINGLE POINT ENERGY      -308.915524723530

CARTESIAN COORDINATES (ANGSTROEM)
---------------------------------
  C      0.836612    1.114856    0.231008
  H      1.485452    1.979680    0.214705
  C      1.384188   -0.166965    0.260057
  H      2.457684   -0.296288    0.266060
  C      0.547479   -1.281847    0.286931
  H      0.971918   -2.275979    0.313877
  C     -0.836667   -1.115004    0.284563
  H     -1.485554   -1.979569    0.309698
  C     -1.384163    0.166850    0.255605
  H     -2.457645    0.296459    0.258541
  C     -0.547498    1.281748    0.228977
  H     -0.972141    2.276001    0.211161
  C      0.005828    0.074617    3.756732
  H      0.002819    0.057062    2.692657
  C      0.009489    0.094198    4.969108
  H      0.012601    0.111371    6.030305

 Multiplicity           Mult            ....    1
 Number of Electrons    NEL             ....   56
 Basis Dimension        Dim             .... 1008

ORBITAL ENERGIES
----------------

  NO   OCC          E(Eh)            E(eV)
   0   2.0000     -11.242698      -305.9294
   1   2.0000     -11.242123      -305.9137
   2   2.0000     -11.242119      -305.9136
   3   2.0000     -11.240880      -305.8799
   4   2.0000     -11.240875      -305.8798
   5   2.0000     -11.240268      -305.8632
   6   2.0000     -11.230868      -305.6075
   7   2.0000     -11.227196      -305.5075
   8   2.0000      -1.158799       -31.5325
   9   2.0000      -1.022446       -27.8222
  10   2.0000      -1.022436       -27.8219
  11   2.0000      -1.014036       -27.5933
  12   2.0000      -0.831323       -22.6214
  13   2.0000      -0.831306       -22.6210
  14   2.0000      -0.755221       -20.5506
  15   2.0000      -0.717155       -19.5148
  16   2.0000      -0.667757       -18.1706
  17   2.0000      -0.650861       -17.7108
  18   2.0000      -0.626573       -17.0499
  19   2.0000      -0.595478       -16.2038
  20   2.0000      -0.595462       -16.2033
  21   2.0000      -0.509259       -13.8576
  22   2.0000      -0.502039       -13.6612
  23   2.0000      -0.502011       -13.6604
  24   2.0000      -0.396274       -10.7832
  25   2.0000      -0.396274       -10.7832
  26   2.0000      -0.345492        -9.4013
  27   2.0000      -0.345486        -9.4012
  28   0.0000       0.023828         0.6484
  29   0.0000       0.030108         0.8193
  30   0.0000       0.030109         0.8193
  31   0.0000       0.031114         0.8466
  32   0.0000       0.042294         1.1509

MULLIKEN ATOMIC CHARGES
-----------------------
   0 C :   -0.308442
   1 H :    0.297726
   2 C :   -0.308017
   3 H :    0.297449
   4 C :   -0.307796
   5 H :    0.296564
   6 C :   -0.307919
   7 H :    0.297146
   8 C :   -0.308260
   9 H :    0.297655
  10 C :   -0.308369
  11 H :    0.297956
  12 C :   -0.738463
  13 H :    1.429930
  14 C :   -0.981572
  15 H :    0.354412
Sum of atomic charges:    0.0000000

LOEWDIN ATOMIC CHARGES
----------------------
   0 C :    0.322571
   1 H :   -0.319581
   2 C :    0.322595
   3 H :   -0.319565
   4 C :    0.322476
   5 H :   -0.319567
   6 C :    0.322550
   7 H :   -0.319557
   8 C :    0.322595
   9 H :   -0.319576
  10 C :    0.322573
  11 H :   -0.319592
  12 C :    0.502104
  13 H :   -0.544894
  14 C :    0.509307
  15 H :   -0.484439

  Mayer bond orders larger than 0.100000
B(  0-C ,  1-H ) :   1.0752 B(  0-C ,  2-C ) :   1.1802 B(  0-C ,  6-C ) :   0.1342
B(  0-C , 10-C ) :   1.1802 B(  2-C ,  3-H ) :   1.0752 B(  2-C ,  4-C ) :   1.1805
B(  2-C ,  8-C ) :   0.1342 B(  4-C ,  5-H ) :   1.0762 B(  4-C ,  6-C ) :   1.1804
B(  4-C , 10-C ) :   0.1343 B(  6-C ,  7-H ) :   1.0755 B(  6-C ,  8-C ) :   1.1803
B(  8-C ,  9-H ) :   1.0752 B(  8-C , 10-C ) :   1.1803 B( 10-C , 11-H ) :   1.0750
B( 12-C , 13-H ) :  -0.4800 B( 12-C , 14-C ) :   2.3605 B( 12-C , 15-H ) :  -0.1423
B( 13-H , 14-C ) :  -0.2705 B( 13-H , 15-H ) :  -0.1770 B( 14-C , 15-H ) :   1.1833

MP2 TOTAL ENERGY:     -309.001561020 Eh
FINAL SINGLE POINT ENERGY      -309.001561020462

DIPOLE MOMENT
-------------
                                X             Y             Z
Electronic contribution:     -0.00008      -0.00571      -0.24032
Nuclear contribution   :     -0.00011       0.00025       0.02079
                        -----------------------------------------
Total Dipole Moment    :     -0.00020      -0.00547      -0.21953
                        -----------------------------------------
Magnitude (a.u.)       :      0.21960
Magnitude (Debye)      :      0.55817

Rotational constants in cm-1:     0.095168     0.039008     0.039007
Rotational constants in MHz :  2853.056885  1169.417464  1169.399287

                             ****ORCA TERMINATED NORMALLY****
TOTAL RUN TIME: 0 days 0 hours 32 minutes 27 seconds 669 msec
