                         Program Version 5.0.4 -  RELEASE  -
|  1> ! ri-mp2 aug-cc-pvdz aug-cc-pvdz/c tightscf
|  2> %pal nprocs 16 end
|  3> %maxcore 3800
|  4> %base "DZ_S66by10_65_0.9_dimer"
|  5>
|  6> *xyz 0 1
|  7> N   -0.08303249    0.00071459    1.05519999
|  8> C   -0.20285376   -1.14172585    0.36493369
|  9> H   -0.09848563   -2.05509795    0.93743262
| 10> C   -0.44678144   -1.19176367   -1.00451226
| 11> H   -0.53364921   -2.14585511   -1.50417155
| 12> C   -0.57468209    0.00343953   -1.70430948
| 13> H   -0.76368391    0.00448010   -2.76872670
| 14> C   -0.45345675    1.19724254   -1.00091647
| 15> H   -0.54563080    2.15227264   -1.49779508
| 16> C   -0.20931111    1.14450759    0.36836730
| 17> H   -0.11016707    2.05669726    0.94357396
| 18> C    0.44338823   -0.00539893    5.33481420
| 19> H    0.55879827   -0.00482474    6.38982802
| 20> C    0.31131846   -0.00594866    4.12856690
| 21> H    0.19317035   -0.00568623    3.06406143
| 22> *
| 23>
| 24> $new_job
| 25> ! ri-mp2 aug-cc-pvtz aug-cc-pvtz/c tightscf
| 26> %pal nprocs 16 end
| 27> %maxcore 3800
| 28> %base "TZ_S66by10_65_0.9_dimer"
| 29>
| 30> *xyz 0 1
| 31> N   -0.08303249    0.00071459    1.05519999
| 32> C   -0.20285376   -1.14172585    0.36493369
| 33> H   -0.09848563   -2.05509795    0.93743262
| 34> C   -0.44678144   -1.19176367   -1.00451226
| 35> H   -0.53364921   -2.14585511   -1.50417155
| 36> C   -0.57468209    0.00343953   -1.70430948
| 37> H   -0.76368391    0.00448010   -2.76872670
| 38> C   -0.45345675    1.19724254   -1.00091647
| 39> H   -0.54563080    2.15227264   -1.49779508
| 40> C   -0.20931111    1.14450759    0.36836730
| 41> H   -0.11016707    2.05669726    0.94357396
| 42> C    0.44338823   -0.00539893    5.33481420
| 43> H    0.55879827   -0.00482474    6.38982802
| 44> C    0.31131846   -0.00594866    4.12856690
| 45> H    0.19317035   -0.00568623    3.06406143
| 46> *
| 47>
| 48> $new_job
| 49> ! ri-mp2 aug-cc-pvqz aug-cc-pvqz/c tightscf
| 50> %pal nprocs 16 end
| 51> %maxcore 3800
| 52> %base "QZ_S66by10_65_0.9_dimer"
| 53>
| 54> *xyz 0 1
| 55> N   -0.08303249    0.00071459    1.05519999
| 56> C   -0.20285376   -1.14172585    0.36493369
| 57> H   -0.09848563   -2.05509795    0.93743262
| 58> C   -0.44678144   -1.19176367   -1.00451226
| 59> H   -0.53364921   -2.14585511   -1.50417155
| 60> C   -0.57468209    0.00343953   -1.70430948
| 61> H   -0.76368391    0.00448010   -2.76872670
| 62> C   -0.45345675    1.19724254   -1.00091647
| 63> H   -0.54563080    2.15227264   -1.49779508
| 64> C   -0.20931111    1.14450759    0.36836730
| 65> H   -0.11016707    2.05669726    0.94357396
| 66> C    0.44338823   -0.00539893    5.33481420
| 67> H    0.55879827   -0.00482474    6.38982802
| 68> C    0.31131846   -0.00594866    4.12856690
| 69> H    0.19317035   -0.00568623    3.06406143
| 70> *
| 71>
| 72>
| 73>
| 74>
| 75>                          ****END OF INPUT****
 Total Charge           Charge          ....    0
 Multiplicity           Mult            ....    1
 Number of Electrons    NEL             ....   56
MP2 TOTAL ENERGY:     -324.663030161 Eh
FINAL SINGLE POINT ENERGY      -324.663030161331
MP2 TOTAL ENERGY:     -324.948567658 Eh
FINAL SINGLE POINT ENERGY      -324.948567658215

CARTESIAN COORDINATES (ANGSTROEM)
---------------------------------
  N     -0.083032    0.000715    1.055200
  C     -0.202854   -1.141726    0.364934
  H     -0.098486   -2.055098    0.937433
  C     -0.446781   -1.191764   -1.004512
  H     -0.533649   -2.145855   -1.504172
  C     -0.574682    0.003440   -1.704309
  H     -0.763684    0.004480   -2.768727
  C     -0.453457    1.197243   -1.000916
  H     -0.545631    2.152273   -1.497795
  C     -0.209311    1.144508    0.368367
  H     -0.110167    2.056697    0.943574
  C      0.443388   -0.005399    5.334814
  H      0.558798   -0.004825    6.389828
  C      0.311318   -0.005949    4.128567
  H      0.193170   -0.005686    3.064061

 Multiplicity           Mult            ....    1
 Number of Electrons    NEL             ....   56
 Basis Dimension        Dim             ....  962

ORBITAL ENERGIES
----------------

  NO   OCC          E(Eh)            E(eV)
   0   2.0000     -15.576894      -423.8688
   1   2.0000     -11.285578      -307.0962
   2   2.0000     -11.285556      -307.0956
   3   2.0000     -11.269134      -306.6487
   4   2.0000     -11.250310      -306.1365
   5   2.0000     -11.250258      -306.1351
   6   2.0000     -11.216859      -305.2262
   7   2.0000     -11.212095      -305.0966
   8   2.0000      -1.269466       -34.5439
   9   2.0000      -1.100118       -29.9357
  10   2.0000      -1.044224       -28.4148
  11   2.0000      -1.001511       -27.2525
  12   2.0000      -0.869989       -23.6736
  13   2.0000      -0.867149       -23.5963
  14   2.0000      -0.746575       -20.3153
  15   2.0000      -0.729451       -19.8494
  16   2.0000      -0.671860       -18.2822
  17   2.0000      -0.664586       -18.0843
  18   2.0000      -0.654751       -17.8167
  19   2.0000      -0.608766       -16.5654
  20   2.0000      -0.585220       -15.9247
  21   2.0000      -0.553431       -15.0596
  22   2.0000      -0.530404       -14.4330
  23   2.0000      -0.434724       -11.8295
  24   2.0000      -0.396221       -10.7817
  25   2.0000      -0.383364       -10.4319
  26   2.0000      -0.382762       -10.4155
  27   2.0000      -0.357740        -9.7346
  28   0.0000       0.019824         0.5394
  29   0.0000       0.027306         0.7430
  30   0.0000       0.029817         0.8114
  31   0.0000       0.036065         0.9814
  32   0.0000       0.044153         1.2015

MULLIKEN ATOMIC CHARGES
-----------------------
   0 N :   -0.477290
   1 C :   -0.282391
   2 H :    0.409510
   3 C :   -0.202204
   4 H :    0.323658
   5 C :   -0.194701
   6 H :    0.354287
   7 C :   -0.202488
   8 H :    0.323523
   9 C :   -0.284159
  10 H :    0.409674
  11 C :   -1.137105
  12 H :    0.326535
  13 C :   -0.805207
  14 H :    1.438357
Sum of atomic charges:   -0.0000000

LOEWDIN ATOMIC CHARGES
----------------------
   0 N :    0.583635
   1 C :    0.105539
   2 H :   -0.341408
   3 C :    0.339096
   4 H :   -0.328912
   5 C :    0.334475
   6 H :   -0.312748
   7 C :    0.339079
   8 H :   -0.328929
   9 C :    0.105577
  10 H :   -0.341463
  11 C :    0.492483
  12 H :   -0.493089
  13 C :    0.484677
  14 H :   -0.638012

  Mayer bond orders larger than 0.100000
B(  0-N ,  1-C ) :   1.4016 B(  0-N ,  9-C ) :   1.4017 B(  0-N , 14-H ) :   0.1494
B(  1-C ,  2-H ) :   0.9153 B(  1-C ,  3-C ) :   1.1794 B(  1-C ,  5-C ) :  -0.1088
B(  1-C ,  7-C ) :   0.1235 B(  3-C ,  4-H ) :   0.9861 B(  3-C ,  5-C ) :   1.2042
B(  3-C ,  9-C ) :   0.1237 B(  5-C ,  6-H ) :   0.9505 B(  5-C ,  7-C ) :   1.2042
B(  5-C ,  9-C ) :  -0.1088 B(  7-C ,  8-H ) :   0.9863 B(  7-C ,  9-C ) :   1.1799
B(  9-C , 10-H ) :   0.9157 B( 11-C , 12-H ) :   1.3143 B( 11-C , 13-C ) :   2.2159
B( 11-C , 14-H ) :  -0.4494 B( 12-H , 13-C ) :  -0.1226 B( 12-H , 14-H ) :  -0.2650
B( 13-C , 14-H ) :  -0.5914

MP2 TOTAL ENERGY:     -325.038261006 Eh
FINAL SINGLE POINT ENERGY      -325.038261005507

DIPOLE MOMENT
-------------
                                X             Y             Z
Electronic contribution:     -0.00861       0.00138      -0.43464
Nuclear contribution   :     -0.21490       0.00085      -0.91935
                        -----------------------------------------
Total Dipole Moment    :     -0.22351       0.00223      -1.35399
                        -----------------------------------------
Magnitude (a.u.)       :      1.37232
Magnitude (Debye)      :      3.48816

Rotational constants in cm-1:     0.201598     0.027646     0.024321
Rotational constants in MHz :  6043.753168   828.817076   729.119918

                             ****ORCA TERMINATED NORMALLY****
TOTAL RUN TIME: 0 days 0 hours 24 minutes 40 seconds 847 msec
