                         Program Version 5.0.4 -  RELEASE  -
|  1> ! ri-mp2 aug-cc-pvdz aug-cc-pvdz/c tightscf
|  2> %pal nprocs 16 end
|  3> %maxcore 3800
|  4> %base "DZ_S66by10_41_1.25_dimer"
|  5> %scf STABPerform true end
|  6>
|  7> *xyz 0 1
|  8> N   -0.20890478   -0.96458262    0.53476104
|  9> H   -0.22415099   -1.97310940    0.60508386
| 10> C   -1.44634208   -0.34458112    0.30665858
| 11> O   -2.46123675   -1.01079161    0.19789196
| 12> C   -1.35778219    1.10318559    0.22814378
| 13> H   -2.25657214    1.66773071    0.04984731
| 14> C   -0.16300320    1.70989257    0.38112632
| 15> H   -0.04629046    2.78244591    0.33334968
| 16> N    0.98545210    1.00082412    0.61120636
| 17> H    1.86755978    1.46692777    0.74478430
| 18> C    1.02702092   -0.37917011    0.71264723
| 19> O    2.04919670   -0.99739548    0.93725979
| 20> C    1.21396951    2.36644762    4.92027373
| 21> H    0.78312090    2.67749632    3.96749116
| 22> H    0.57973560    2.77188074    5.70852138
| 23> H    2.19684954    2.82689503    5.01339521
| 24> C    1.28698598    0.84757667    5.00979207
| 25> H    1.71736962    0.55801382    5.97108302
| 26> H    1.96157557    0.45641612    4.24467390
| 27> C   -0.07779921    0.18941002    4.85497531
| 28> H   -0.74904347    0.55828583    5.63659455
| 29> H   -0.52527008    0.49967504    3.90507508
| 30> C   -0.02151027   -1.33127653    4.91461081
| 31> H    0.40209522   -1.63370695    5.87524699
| 32> H    0.67001147   -1.69315547    4.15010838
| 33> C   -1.39079320   -1.97314974    4.73083715
| 34> H   -1.82917219   -1.69969206    3.77065165
| 35> H   -1.33385440   -3.05991813    4.77489434
| 36> H   -2.07875597   -1.64480376    5.51007020
| 37> *
| 38>
| 39> $new_job
| 40> ! ri-mp2 aug-cc-pvtz aug-cc-pvtz/c tightscf
| 41> %pal nprocs 16 end
| 42> %maxcore 3800
| 43> %base "TZ_S66by10_41_1.25_dimer"
| 44>
| 45> *xyz 0 1
| 46> N   -0.20890478   -0.96458262    0.53476104
| 47> H   -0.22415099   -1.97310940    0.60508386
| 48> C   -1.44634208   -0.34458112    0.30665858
| 49> O   -2.46123675   -1.01079161    0.19789196
| 50> C   -1.35778219    1.10318559    0.22814378
| 51> H   -2.25657214    1.66773071    0.04984731
| 52> C   -0.16300320    1.70989257    0.38112632
| 53> H   -0.04629046    2.78244591    0.33334968
| 54> N    0.98545210    1.00082412    0.61120636
| 55> H    1.86755978    1.46692777    0.74478430
| 56> C    1.02702092   -0.37917011    0.71264723
| 57> O    2.04919670   -0.99739548    0.93725979
| 58> C    1.21396951    2.36644762    4.92027373
| 59> H    0.78312090    2.67749632    3.96749116
| 60> H    0.57973560    2.77188074    5.70852138
| 61> H    2.19684954    2.82689503    5.01339521
| 62> C    1.28698598    0.84757667    5.00979207
| 63> H    1.71736962    0.55801382    5.97108302
| 64> H    1.96157557    0.45641612    4.24467390
| 65> C   -0.07779921    0.18941002    4.85497531
| 66> H   -0.74904347    0.55828583    5.63659455
| 67> H   -0.52527008    0.49967504    3.90507508
| 68> C   -0.02151027   -1.33127653    4.91461081
| 69> H    0.40209522   -1.63370695    5.87524699
| 70> H    0.67001147   -1.69315547    4.15010838
| 71> C   -1.39079320   -1.97314974    4.73083715
| 72> H   -1.82917219   -1.69969206    3.77065165
| 73> H   -1.33385440   -3.05991813    4.77489434
| 74> H   -2.07875597   -1.64480376    5.51007020
| 75> *
| 76>
| 77> $new_job
| 78> ! ri-mp2 aug-cc-pvqz aug-cc-pvqz/c tightscf
| 79> %pal nprocs 16 end
| 80> %maxcore 3800
| 81> %base "QZ_S66by10_41_1.25_dimer"
| 82>
| 83> *xyz 0 1
| 84> N   -0.20890478   -0.96458262    0.53476104
| 85> H   -0.22415099   -1.97310940    0.60508386
| 86> C   -1.44634208   -0.34458112    0.30665858
| 87> O   -2.46123675   -1.01079161    0.19789196
| 88> C   -1.35778219    1.10318559    0.22814378
| 89> H   -2.25657214    1.66773071    0.04984731
| 90> C   -0.16300320    1.70989257    0.38112632
| 91> H   -0.04629046    2.78244591    0.33334968
| 92> N    0.98545210    1.00082412    0.61120636
| 93> H    1.86755978    1.46692777    0.74478430
| 94> C    1.02702092   -0.37917011    0.71264723
| 95> O    2.04919670   -0.99739548    0.93725979
| 96> C    1.21396951    2.36644762    4.92027373
| 97> H    0.78312090    2.67749632    3.96749116
| 98> H    0.57973560    2.77188074    5.70852138
| 99> H    2.19684954    2.82689503    5.01339521
|100> C    1.28698598    0.84757667    5.00979207
|101> H    1.71736962    0.55801382    5.97108302
|102> H    1.96157557    0.45641612    4.24467390
|103> C   -0.07779921    0.18941002    4.85497531
|104> H   -0.74904347    0.55828583    5.63659455
|105> H   -0.52527008    0.49967504    3.90507508
|106> C   -0.02151027   -1.33127653    4.91461081
|107> H    0.40209522   -1.63370695    5.87524699
|108> H    0.67001147   -1.69315547    4.15010838
|109> C   -1.39079320   -1.97314974    4.73083715
|110> H   -1.82917219   -1.69969206    3.77065165
|111> H   -1.33385440   -3.05991813    4.77489434
|112> H   -2.07875597   -1.64480376    5.51007020
|113> *
|114>
|115>
|116>
|117>
|118>                          ****END OF INPUT****
 Total Charge           Charge          ....    0
 Multiplicity           Mult            ....    1
 Number of Electrons    NEL             ....  100
MP2 TOTAL ENERGY:     -610.897327980 Eh
FINAL SINGLE POINT ENERGY      -610.897327980259
MP2 TOTAL ENERGY:     -611.440951367 Eh
FINAL SINGLE POINT ENERGY      -611.440951366674

CARTESIAN COORDINATES (ANGSTROEM)
---------------------------------
  N     -0.208905   -0.964583    0.534761
  H     -0.224151   -1.973109    0.605084
  C     -1.446342   -0.344581    0.306659
  O     -2.461237   -1.010792    0.197892
  C     -1.357782    1.103186    0.228144
  H     -2.256572    1.667731    0.049847
  C     -0.163003    1.709893    0.381126
  H     -0.046290    2.782446    0.333350
  N      0.985452    1.000824    0.611206
  H      1.867560    1.466928    0.744784
  C      1.027021   -0.379170    0.712647
  O      2.049197   -0.997395    0.937260
  C      1.213970    2.366448    4.920274
  H      0.783121    2.677496    3.967491
  H      0.579736    2.771881    5.708521
  H      2.196850    2.826895    5.013395
  C      1.286986    0.847577    5.009792
  H      1.717370    0.558014    5.971083
  H      1.961576    0.456416    4.244674
  C     -0.077799    0.189410    4.854975
  H     -0.749043    0.558286    5.636595
  H     -0.525270    0.499675    3.905075
  C     -0.021510   -1.331277    4.914611
  H      0.402095   -1.633707    5.875247
  H      0.670011   -1.693155    4.150108
  C     -1.390793   -1.973150    4.730837
  H     -1.829172   -1.699692    3.770652
  H     -1.333854   -3.059918    4.774894
  H     -2.078756   -1.644804    5.510070

 Multiplicity           Mult            ....    1
 Number of Electrons    NEL             ....  100
 Basis Dimension        Dim             .... 1776

ORBITAL ENERGIES
----------------

  NO   OCC          E(Eh)            E(eV)
   0   2.0000     -20.545887      -559.0820
   1   2.0000     -20.540285      -558.9296
   2   2.0000     -15.643395      -425.6784
   3   2.0000     -15.626577      -425.2208
   4   2.0000     -11.419044      -310.7280
   5   2.0000     -11.380916      -309.6905
   6   2.0000     -11.340628      -308.5942
   7   2.0000     -11.255262      -306.2713
   8   2.0000     -11.215097      -305.1783
   9   2.0000     -11.213844      -305.1442
  10   2.0000     -11.212086      -305.0964
  11   2.0000     -11.210554      -305.0547
  12   2.0000     -11.203806      -304.8711
  13   2.0000      -1.436902       -39.1001
  14   2.0000      -1.398703       -38.0606
  15   2.0000      -1.314177       -35.7606
  16   2.0000      -1.246534       -33.9199
  17   2.0000      -1.089066       -29.6350
  18   2.0000      -1.083102       -29.4727
  19   2.0000      -1.017135       -27.6777
  20   2.0000      -0.934491       -25.4288
  21   2.0000      -0.921225       -25.0678
  22   2.0000      -0.902530       -24.5591
  23   2.0000      -0.822044       -22.3690
  24   2.0000      -0.808077       -21.9889
  25   2.0000      -0.787223       -21.4214
  26   2.0000      -0.766302       -20.8521
  27   2.0000      -0.715503       -19.4698
  28   2.0000      -0.678751       -18.4697
  29   2.0000      -0.671182       -18.2638
  30   2.0000      -0.654237       -17.8027
  31   2.0000      -0.648498       -17.6465
  32   2.0000      -0.616196       -16.7676
  33   2.0000      -0.602836       -16.4040
  34   2.0000      -0.601014       -16.3544
  35   2.0000      -0.594893       -16.1879
  36   2.0000      -0.572122       -15.5682
  37   2.0000      -0.556665       -15.1476
  38   2.0000      -0.549936       -14.9645
  39   2.0000      -0.528161       -14.3720
  40   2.0000      -0.527317       -14.3490
  41   2.0000      -0.497420       -13.5355
  42   2.0000      -0.485340       -13.2068
  43   2.0000      -0.477806       -13.0018
  44   2.0000      -0.464466       -12.6388
  45   2.0000      -0.460659       -12.5352
  46   2.0000      -0.450778       -12.2663
  47   2.0000      -0.448679       -12.2092
  48   2.0000      -0.438504       -11.9323
  49   2.0000      -0.370198       -10.0736
  50   0.0000       0.013015         0.3542
  51   0.0000       0.027485         0.7479
  52   0.0000       0.028386         0.7724
  53   0.0000       0.031409         0.8547
  54   0.0000       0.038608         1.0506

MULLIKEN ATOMIC CHARGES
-----------------------
   0 N :   -0.785497
   1 H :    0.071726
   2 C :    1.214955
   3 O :   -0.857933
   4 C :   -0.401970
   5 H :    0.285169
   6 C :   -0.177432
   7 H :    0.406722
   8 N :   -0.690559
   9 H :    0.113448
  10 C :    1.702215
  11 O :   -0.875645
  12 C :   -0.986201
  13 H :    0.299420
  14 H :    0.240580
  15 H :    0.262354
  16 C :   -0.538859
  17 H :    0.317741
  18 H :    0.262638
  19 C :   -0.394792
  20 H :    0.323366
  21 H :    0.359686
  22 C :   -0.555128
  23 H :    0.322071
  24 H :    0.264679
  25 C :   -0.994736
  26 H :    0.312251
  27 H :    0.257289
  28 H :    0.242441
Sum of atomic charges:   -0.0000000

LOEWDIN ATOMIC CHARGES
----------------------
   0 N :    0.776890
   1 H :   -0.518606
   2 C :   -0.871004
   3 O :    0.687540
   4 C :    0.331512
   5 H :   -0.353105
   6 C :    0.230568
   7 H :   -0.296524
   8 N :    0.809575
   9 H :   -0.491293
  10 C :   -0.999668
  11 O :    0.697438
  12 C :    0.924690
  13 H :   -0.292537
  14 H :   -0.284440
  15 H :   -0.282418
  16 C :    0.503555
  17 H :   -0.269550
  18 H :   -0.276411
  19 C :    0.486505
  20 H :   -0.265519
  21 H :   -0.279655
  22 C :    0.504274
  23 H :   -0.269900
  24 H :   -0.276462
  25 C :    0.928969
  26 H :   -0.288248
  27 H :   -0.281689
  28 H :   -0.284486

  Mayer bond orders larger than 0.100000
B(  0-N ,  1-H ) :   1.2266 B(  0-N ,  2-C ) :   0.9732 B(  0-N ,  3-O ) :   0.1940
B(  0-N , 10-C ) :   1.0011 B(  0-N , 11-O ) :   0.2401 B(  2-C ,  3-O ) :   0.8814
B(  2-C ,  4-C ) :   1.1834 B(  3-O ,  4-C ) :   0.2514 B(  4-C ,  5-H ) :   1.0030
B(  4-C ,  6-C ) :   1.5181 B(  6-C ,  7-H ) :   0.9324 B(  6-C ,  8-N ) :   0.8787
B(  8-N ,  9-H ) :   1.1608 B(  8-N , 10-C ) :   1.0717 B(  8-N , 11-O ) :   0.2213
B( 10-C , 11-O ) :   0.8266 B( 12-C , 13-H ) :   0.8698 B( 12-C , 14-H ) :   0.9800
B( 12-C , 15-H ) :   1.0317 B( 12-C , 16-C ) :   1.0168 B( 16-C , 17-H ) :   0.8472
B( 16-C , 18-H ) :   0.8736 B( 16-C , 19-C ) :   0.8038 B( 19-C , 20-H ) :   0.8893
B( 19-C , 21-H ) :   0.8055 B( 19-C , 22-C ) :   0.8057 B( 22-C , 23-H ) :   0.8442
B( 22-C , 24-H ) :   0.8733 B( 22-C , 25-C ) :   1.0188 B( 25-C , 26-H ) :   0.8574
B( 25-C , 27-H ) :   1.0333 B( 25-C , 28-H ) :   0.9813

MP2 TOTAL ENERGY:     -611.613836718 Eh
FINAL SINGLE POINT ENERGY      -611.613836717864

DIPOLE MOMENT
-------------
                                X             Y             Z
Electronic contribution:     -0.96902      -2.50697     -23.23347
Nuclear contribution   :      1.53149       4.31028      23.23083
                        -----------------------------------------
Total Dipole Moment    :      0.56247       1.80332      -0.00264
                        -----------------------------------------
Magnitude (a.u.)       :      1.88900
Magnitude (Debye)      :      4.80146

Rotational constants in cm-1:     0.027041     0.015336     0.012977
Rotational constants in MHz :   810.675321   459.770998   389.027647

                             ****ORCA TERMINATED NORMALLY****
TOTAL RUN TIME: 0 days 12 hours 0 minutes 5 seconds 580 msec
