                         Program Version 5.0.4 -  RELEASE  -
|  1> ! ri-mp2 aug-cc-pvdz aug-cc-pvdz/c tightscf
|  2> %pal nprocs 16 end
|  3> %maxcore 3800
|  4> %base "DZ_S66by10_57_1.1_dimer"
|  5>
|  6> *xyz 0 1
|  7> C    0.40877989    1.05102502    0.37553605
|  8> H    1.01193875    1.94854570    0.36807788
|  9> C    1.01916788   -0.19976963    0.28905343
| 10> H    2.09557130   -0.27183333    0.21719099
| 11> C    0.24172263   -1.35688270    0.29668995
| 12> H    0.71521633   -2.32658869    0.22807218
| 13> C   -1.14617971   -1.26425757    0.39390198
| 14> H   -1.74918186   -2.16192663    0.39940980
| 15> C   -1.75727780   -0.01396023    0.48295173
| 16> H   -2.83351378    0.05824368    0.55903918
| 17> C   -0.97968602    1.14420653    0.47228370
| 18> H   -1.45405142    2.11400088    0.53713589
| 19> C    0.25100500    1.96924617    4.54692988
| 20> H   -0.10714010    2.13497701    3.53363711
| 21> H    1.27558856    2.32595574    4.62837139
| 22> H   -0.35309187    2.54288200    5.24528260
| 23> C    0.21415866    0.51608306    4.96263870
| 24> O    0.49878707    0.16372164    6.10117677
| 25> N   -0.15823661   -0.34963369    3.98339761
| 26> H   -0.31936451    0.00835706    3.05732927
| 27> C   -0.19502948   -1.77651291    4.20148467
| 28> H   -0.11694191   -1.94342045    5.27148090
| 29> H   -1.13027002   -2.19486349    3.83474656
| 30> H    0.63409700   -2.28038568    3.70414724
| 31> *
| 32>
| 33> $new_job
| 34> ! ri-mp2 aug-cc-pvtz aug-cc-pvtz/c tightscf
| 35> %pal nprocs 16 end
| 36> %maxcore 3800
| 37> %base "TZ_S66by10_57_1.1_dimer"
| 38>
| 39> *xyz 0 1
| 40> C    0.40877989    1.05102502    0.37553605
| 41> H    1.01193875    1.94854570    0.36807788
| 42> C    1.01916788   -0.19976963    0.28905343
| 43> H    2.09557130   -0.27183333    0.21719099
| 44> C    0.24172263   -1.35688270    0.29668995
| 45> H    0.71521633   -2.32658869    0.22807218
| 46> C   -1.14617971   -1.26425757    0.39390198
| 47> H   -1.74918186   -2.16192663    0.39940980
| 48> C   -1.75727780   -0.01396023    0.48295173
| 49> H   -2.83351378    0.05824368    0.55903918
| 50> C   -0.97968602    1.14420653    0.47228370
| 51> H   -1.45405142    2.11400088    0.53713589
| 52> C    0.25100500    1.96924617    4.54692988
| 53> H   -0.10714010    2.13497701    3.53363711
| 54> H    1.27558856    2.32595574    4.62837139
| 55> H   -0.35309187    2.54288200    5.24528260
| 56> C    0.21415866    0.51608306    4.96263870
| 57> O    0.49878707    0.16372164    6.10117677
| 58> N   -0.15823661   -0.34963369    3.98339761
| 59> H   -0.31936451    0.00835706    3.05732927
| 60> C   -0.19502948   -1.77651291    4.20148467
| 61> H   -0.11694191   -1.94342045    5.27148090
| 62> H   -1.13027002   -2.19486349    3.83474656
| 63> H    0.63409700   -2.28038568    3.70414724
| 64> *
| 65>
| 66> $new_job
| 67> ! ri-mp2 aug-cc-pvqz aug-cc-pvqz/c tightscf
| 68> %pal nprocs 16 end
| 69> %maxcore 3800
| 70> %base "QZ_S66by10_57_1.1_dimer"
| 71>
| 72> *xyz 0 1
| 73> C    0.40877989    1.05102502    0.37553605
| 74> H    1.01193875    1.94854570    0.36807788
| 75> C    1.01916788   -0.19976963    0.28905343
| 76> H    2.09557130   -0.27183333    0.21719099
| 77> C    0.24172263   -1.35688270    0.29668995
| 78> H    0.71521633   -2.32658869    0.22807218
| 79> C   -1.14617971   -1.26425757    0.39390198
| 80> H   -1.74918186   -2.16192663    0.39940980
| 81> C   -1.75727780   -0.01396023    0.48295173
| 82> H   -2.83351378    0.05824368    0.55903918
| 83> C   -0.97968602    1.14420653    0.47228370
| 84> H   -1.45405142    2.11400088    0.53713589
| 85> C    0.25100500    1.96924617    4.54692988
| 86> H   -0.10714010    2.13497701    3.53363711
| 87> H    1.27558856    2.32595574    4.62837139
| 88> H   -0.35309187    2.54288200    5.24528260
| 89> C    0.21415866    0.51608306    4.96263870
| 90> O    0.49878707    0.16372164    6.10117677
| 91> N   -0.15823661   -0.34963369    3.98339761
| 92> H   -0.31936451    0.00835706    3.05732927
| 93> C   -0.19502948   -1.77651291    4.20148467
| 94> H   -0.11694191   -1.94342045    5.27148090
| 95> H   -1.13027002   -2.19486349    3.83474656
| 96> H    0.63409700   -2.28038568    3.70414724
| 97> *
| 98>
| 99>
|100>
|101>
|102>                          ****END OF INPUT****
 Total Charge           Charge          ....    0
 Multiplicity           Mult            ....    1
 Number of Electrons    NEL             ....   82
MP2 TOTAL ENERGY:     -479.397364734 Eh
FINAL SINGLE POINT ENERGY      -479.397364733717
MP2 TOTAL ENERGY:     -479.825306898 Eh
FINAL SINGLE POINT ENERGY      -479.825306897568

CARTESIAN COORDINATES (ANGSTROEM)
---------------------------------
  C      0.408780    1.051025    0.375536
  H      1.011939    1.948546    0.368078
  C      1.019168   -0.199770    0.289053
  H      2.095571   -0.271833    0.217191
  C      0.241723   -1.356883    0.296690
  H      0.715216   -2.326589    0.228072
  C     -1.146180   -1.264258    0.393902
  H     -1.749182   -2.161927    0.399410
  C     -1.757278   -0.013960    0.482952
  H     -2.833514    0.058244    0.559039
  C     -0.979686    1.144207    0.472284
  H     -1.454051    2.114001    0.537136
  C      0.251005    1.969246    4.546930
  H     -0.107140    2.134977    3.533637
  H      1.275589    2.325956    4.628371
  H     -0.353092    2.542882    5.245283
  C      0.214159    0.516083    4.962639
  O      0.498787    0.163722    6.101177
  N     -0.158237   -0.349634    3.983398
  H     -0.319365    0.008357    3.057329
  C     -0.195029   -1.776513    4.201485
  H     -0.116942   -1.943420    5.271481
  H     -1.130270   -2.194863    3.834747
  H      0.634097   -2.280386    3.704147

 Multiplicity           Mult            ....    1
 Number of Electrons    NEL             ....   82
 Basis Dimension        Dim             .... 1478

ORBITAL ENERGIES
----------------

  NO   OCC          E(Eh)            E(eV)
   0   2.0000     -20.498649      -557.7966
   1   2.0000     -15.571984      -423.7352
   2   2.0000     -11.336563      -308.4836
   3   2.0000     -11.252324      -306.1913
   4   2.0000     -11.251601      -306.1716
   5   2.0000     -11.251404      -306.1663
   6   2.0000     -11.250453      -306.1404
   7   2.0000     -11.250215      -306.1339
   8   2.0000     -11.249498      -306.1144
   9   2.0000     -11.245708      -306.0113
  10   2.0000     -11.225407      -305.4589
  11   2.0000      -1.363008       -37.0893
  12   2.0000      -1.219234       -33.1770
  13   2.0000      -1.167496       -31.7692
  14   2.0000      -1.031694       -28.0738
  15   2.0000      -1.031481       -28.0680
  16   2.0000      -1.009279       -27.4639
  17   2.0000      -0.922290       -25.0968
  18   2.0000      -0.840654       -22.8754
  19   2.0000      -0.840542       -22.8723
  20   2.0000      -0.778437       -21.1823
  21   2.0000      -0.726219       -19.7614
  22   2.0000      -0.681166       -18.5355
  23   2.0000      -0.660299       -17.9677
  24   2.0000      -0.642991       -17.4967
  25   2.0000      -0.635758       -17.2999
  26   2.0000      -0.623875       -16.9765
  27   2.0000      -0.604713       -16.4551
  28   2.0000      -0.604535       -16.4502
  29   2.0000      -0.578583       -15.7440
  30   2.0000      -0.572190       -15.5701
  31   2.0000      -0.545844       -14.8532
  32   2.0000      -0.536458       -14.5978
  33   2.0000      -0.518996       -14.1226
  34   2.0000      -0.511357       -13.9147
  35   2.0000      -0.511226       -13.9112
  36   2.0000      -0.495251       -13.4765
  37   2.0000      -0.411454       -11.1962
  38   2.0000      -0.381445       -10.3796
  39   2.0000      -0.355148        -9.6641
  40   2.0000      -0.354281        -9.6405
  41   0.0000       0.019277         0.5246
  42   0.0000       0.024736         0.6731
  43   0.0000       0.025494         0.6937
  44   0.0000       0.037265         1.0140
  45   0.0000       0.037570         1.0223

MULLIKEN ATOMIC CHARGES
-----------------------
   0 C :   -0.313191
   1 H :    0.335281
   2 C :   -0.322199
   3 H :    0.309298
   4 C :   -0.344967
   5 H :    0.298085
   6 C :   -0.301051
   7 H :    0.354764
   8 C :   -0.359052
   9 H :    0.314315
  10 C :   -0.317707
  11 H :    0.311934
  12 C :   -0.900827
  13 H :    0.281110
  14 H :    0.263185
  15 H :    0.295917
  16 C :    0.922287
  17 O :   -0.900932
  18 N :   -0.644458
  19 H :    0.659921
  20 C :   -0.956044
  21 H :    0.367795
  22 H :    0.306341
  23 H :    0.340195
Sum of atomic charges:   -0.0000000

LOEWDIN ATOMIC CHARGES
----------------------
   0 C :    0.325931
   1 H :   -0.319918
   2 C :    0.333269
   3 H :   -0.319641
   4 C :    0.326969
   5 H :   -0.319464
   6 C :    0.326466
   7 H :   -0.319598
   8 C :    0.331386
   9 H :   -0.319624
  10 C :    0.324542
  11 H :   -0.320243
  12 C :    0.890908
  13 H :   -0.325491
  14 H :   -0.295135
  15 H :   -0.300173
  16 C :   -0.828251
  17 O :    0.696870
  18 N :    0.826850
  19 H :   -0.569944
  20 C :    0.779386
  21 H :   -0.357027
  22 H :   -0.287192
  23 H :   -0.280876

  Mayer bond orders larger than 0.100000
B(  0-C ,  1-H ) :   1.0159 B(  0-C ,  2-C ) :   1.2719 B(  0-C ,  6-C ) :   0.1178
B(  0-C , 10-C ) :   1.1331 B(  2-C ,  3-H ) :   1.0310 B(  2-C ,  4-C ) :   1.2864
B(  2-C ,  8-C ) :   0.2723 B(  4-C ,  5-H ) :   1.0520 B(  4-C ,  6-C ) :   1.1447
B(  4-C , 10-C ) :   0.1059 B(  6-C ,  7-H ) :   0.9844 B(  6-C ,  8-C ) :   1.2909
B(  8-C ,  9-H ) :   1.0306 B(  8-C , 10-C ) :   1.2976 B( 10-C , 11-H ) :   1.0501
B( 12-C , 13-H ) :   0.9422 B( 12-C , 14-H ) :   0.9427 B( 12-C , 15-H ) :   0.9563
B( 12-C , 16-C ) :   0.9537 B( 12-C , 17-O ) :   0.1530 B( 16-C , 17-O ) :   1.1150
B( 16-C , 18-N ) :   1.2062 B( 17-O , 18-N ) :   0.1991 B( 18-N , 19-H ) :   0.7005
B( 18-N , 20-C ) :   0.8057 B( 20-C , 21-H ) :   0.8833 B( 20-C , 22-H ) :   0.9443
B( 20-C , 23-H ) :   0.9102

MP2 TOTAL ENERGY:     -479.960652910 Eh
FINAL SINGLE POINT ENERGY      -479.960652910049

DIPOLE MOMENT
-------------
                                X             Y             Z
Electronic contribution:      0.18683       0.04293      -1.08037
Nuclear contribution   :     -0.57052       0.07795      -0.77024
                        -----------------------------------------
Total Dipole Moment    :     -0.38369       0.12088      -1.85060
                        -----------------------------------------
Magnitude (a.u.)       :      1.89382
Magnitude (Debye)      :      4.81371

Rotational constants in cm-1:     0.056492     0.019143     0.016967
Rotational constants in MHz :  1693.581568   573.902289   508.653224

                             ****ORCA TERMINATED NORMALLY****
TOTAL RUN TIME: 0 days 1 hours 25 minutes 43 seconds 445 msec
