                         Program Version 5.0.4 -  RELEASE  -
|  1> ! ri-mp2 aug-cc-pvdz aug-cc-pvdz/c tightscf
|  2> %pal nprocs 16 end
|  3> %maxcore 3800
|  4> %base "DZ_S66by10_42_0.95_dimer"
|  5> %scf STABPerform true end
|  6>
|  7> *xyz 0 1
|  8> N    0.19572959   -0.84468925    0.82384642
|  9> H    0.45039753   -1.79675294    1.04976794
| 10> C   -1.17904919   -0.57368440    0.75948349
| 11> O   -1.99364624   -1.45626527    0.96690066
| 12> C   -1.47671471    0.81115567    0.43755952
| 13> H   -2.50635592    1.11565059    0.36389469
| 14> C   -0.46811280    1.68296245    0.23489084
| 15> H   -0.63843522    2.72164296   -0.00616410
| 16> N    0.84562854    1.30599113    0.32683051
| 17> H    1.58969256    1.96887924    0.18595979
| 18> C    1.25426147    0.01946187    0.63624397
| 19> O    2.42230438   -0.30171639    0.73187948
| 20> C    1.05288504   -0.86141900    4.27420098
| 21> H    1.50673755   -0.95347523    3.28621842
| 22> H    1.59738754   -1.52539926    4.94339865
| 23> C    1.10719851    0.60453301    4.70713696
| 24> H    2.06548850    1.07743194    4.49641267
| 25> H    0.91908322    0.68617055    5.78036009
| 26> C   -0.06015307    1.21734748    3.93636576
| 27> H    0.21415120    1.30612909    2.88289413
| 28> H   -0.34456750    2.20848861    4.28799977
| 29> C   -1.17709756    0.17977557    4.10739407
| 30> H   -1.90263684    0.20338943    3.29602216
| 31> H   -1.72118319    0.38447273    5.02964269
| 32> C   -0.45406122   -1.18677226    4.21105096
| 33> H   -0.69672577   -1.83092838    3.36769128
| 34> H   -0.76916745   -1.71417467    5.11013738
| 35> *
| 36>
| 37> $new_job
| 38> ! ri-mp2 aug-cc-pvtz aug-cc-pvtz/c tightscf
| 39> %pal nprocs 16 end
| 40> %maxcore 3800
| 41> %base "TZ_S66by10_42_0.95_dimer"
| 42>
| 43> *xyz 0 1
| 44> N    0.19572959   -0.84468925    0.82384642
| 45> H    0.45039753   -1.79675294    1.04976794
| 46> C   -1.17904919   -0.57368440    0.75948349
| 47> O   -1.99364624   -1.45626527    0.96690066
| 48> C   -1.47671471    0.81115567    0.43755952
| 49> H   -2.50635592    1.11565059    0.36389469
| 50> C   -0.46811280    1.68296245    0.23489084
| 51> H   -0.63843522    2.72164296   -0.00616410
| 52> N    0.84562854    1.30599113    0.32683051
| 53> H    1.58969256    1.96887924    0.18595979
| 54> C    1.25426147    0.01946187    0.63624397
| 55> O    2.42230438   -0.30171639    0.73187948
| 56> C    1.05288504   -0.86141900    4.27420098
| 57> H    1.50673755   -0.95347523    3.28621842
| 58> H    1.59738754   -1.52539926    4.94339865
| 59> C    1.10719851    0.60453301    4.70713696
| 60> H    2.06548850    1.07743194    4.49641267
| 61> H    0.91908322    0.68617055    5.78036009
| 62> C   -0.06015307    1.21734748    3.93636576
| 63> H    0.21415120    1.30612909    2.88289413
| 64> H   -0.34456750    2.20848861    4.28799977
| 65> C   -1.17709756    0.17977557    4.10739407
| 66> H   -1.90263684    0.20338943    3.29602216
| 67> H   -1.72118319    0.38447273    5.02964269
| 68> C   -0.45406122   -1.18677226    4.21105096
| 69> H   -0.69672577   -1.83092838    3.36769128
| 70> H   -0.76916745   -1.71417467    5.11013738
| 71> *
| 72>
| 73> $new_job
| 74> ! ri-mp2 aug-cc-pvqz aug-cc-pvqz/c tightscf
| 75> %pal nprocs 16 end
| 76> %maxcore 3800
| 77> %base "QZ_S66by10_42_0.95_dimer"
| 78>
| 79> *xyz 0 1
| 80> N    0.19572959   -0.84468925    0.82384642
| 81> H    0.45039753   -1.79675294    1.04976794
| 82> C   -1.17904919   -0.57368440    0.75948349
| 83> O   -1.99364624   -1.45626527    0.96690066
| 84> C   -1.47671471    0.81115567    0.43755952
| 85> H   -2.50635592    1.11565059    0.36389469
| 86> C   -0.46811280    1.68296245    0.23489084
| 87> H   -0.63843522    2.72164296   -0.00616410
| 88> N    0.84562854    1.30599113    0.32683051
| 89> H    1.58969256    1.96887924    0.18595979
| 90> C    1.25426147    0.01946187    0.63624397
| 91> O    2.42230438   -0.30171639    0.73187948
| 92> C    1.05288504   -0.86141900    4.27420098
| 93> H    1.50673755   -0.95347523    3.28621842
| 94> H    1.59738754   -1.52539926    4.94339865
| 95> C    1.10719851    0.60453301    4.70713696
| 96> H    2.06548850    1.07743194    4.49641267
| 97> H    0.91908322    0.68617055    5.78036009
| 98> C   -0.06015307    1.21734748    3.93636576
| 99> H    0.21415120    1.30612909    2.88289413
|100> H   -0.34456750    2.20848861    4.28799977
|101> C   -1.17709756    0.17977557    4.10739407
|102> H   -1.90263684    0.20338943    3.29602216
|103> H   -1.72118319    0.38447273    5.02964269
|104> C   -0.45406122   -1.18677226    4.21105096
|105> H   -0.69672577   -1.83092838    3.36769128
|106> H   -0.76916745   -1.71417467    5.11013738
|107> *
|108>
|109>
|110>
|111>
|112>                          ****END OF INPUT****
 Total Charge           Charge          ....    0
 Multiplicity           Mult            ....    1
 Number of Electrons    NEL             ....   98
MP2 TOTAL ENERGY:     -609.712687158 Eh
FINAL SINGLE POINT ENERGY      -609.712687158480
MP2 TOTAL ENERGY:     -610.246489604 Eh
FINAL SINGLE POINT ENERGY      -610.246489603961

CARTESIAN COORDINATES (ANGSTROEM)
---------------------------------
  N      0.195730   -0.844689    0.823846
  H      0.450398   -1.796753    1.049768
  C     -1.179049   -0.573684    0.759483
  O     -1.993646   -1.456265    0.966901
  C     -1.476715    0.811156    0.437560
  H     -2.506356    1.115651    0.363895
  C     -0.468113    1.682962    0.234891
  H     -0.638435    2.721643   -0.006164
  N      0.845629    1.305991    0.326831
  H      1.589693    1.968879    0.185960
  C      1.254261    0.019462    0.636244
  O      2.422304   -0.301716    0.731879
  C      1.052885   -0.861419    4.274201
  H      1.506738   -0.953475    3.286218
  H      1.597388   -1.525399    4.943399
  C      1.107199    0.604533    4.707137
  H      2.065488    1.077432    4.496413
  H      0.919083    0.686171    5.780360
  C     -0.060153    1.217347    3.936366
  H      0.214151    1.306129    2.882894
  H     -0.344568    2.208489    4.288000
  C     -1.177098    0.179776    4.107394
  H     -1.902637    0.203389    3.296022
  H     -1.721183    0.384473    5.029643
  C     -0.454061   -1.186772    4.211051
  H     -0.696726   -1.830928    3.367691
  H     -0.769167   -1.714175    5.110137

 Multiplicity           Mult            ....    1
 Number of Electrons    NEL             ....   98
 Basis Dimension        Dim             .... 1684

ORBITAL ENERGIES
----------------

  NO   OCC          E(Eh)            E(eV)
   0   2.0000     -20.546319      -559.0938
   1   2.0000     -20.540341      -558.9311
   2   2.0000     -15.643187      -425.6728
   3   2.0000     -15.626391      -425.2157
   4   2.0000     -11.419124      -310.7302
   5   2.0000     -11.381065      -309.6945
   6   2.0000     -11.339970      -308.5763
   7   2.0000     -11.254889      -306.2611
   8   2.0000     -11.211329      -305.0758
   9   2.0000     -11.208173      -304.9899
  10   2.0000     -11.206806      -304.9527
  11   2.0000     -11.205075      -304.9056
  12   2.0000     -11.204091      -304.8788
  13   2.0000      -1.437495       -39.1162
  14   2.0000      -1.399471       -38.0815
  15   2.0000      -1.314352       -35.7653
  16   2.0000      -1.246815       -33.9275
  17   2.0000      -1.115158       -30.3450
  18   2.0000      -1.089146       -29.6372
  19   2.0000      -0.955950       -26.0127
  20   2.0000      -0.954390       -25.9703
  21   2.0000      -0.934355       -25.4251
  22   2.0000      -0.902839       -24.5675
  23   2.0000      -0.808266       -21.9940
  24   2.0000      -0.777996       -21.1704
  25   2.0000      -0.768146       -20.9023
  26   2.0000      -0.763472       -20.7751
  27   2.0000      -0.715522       -19.4703
  28   2.0000      -0.679184       -18.4815
  29   2.0000      -0.678500       -18.4629
  30   2.0000      -0.654593       -17.8124
  31   2.0000      -0.645147       -17.5553
  32   2.0000      -0.641381       -17.4529
  33   2.0000      -0.616503       -16.7759
  34   2.0000      -0.602994       -16.4083
  35   2.0000      -0.581915       -15.8347
  36   2.0000      -0.572123       -15.5683
  37   2.0000      -0.558717       -15.2035
  38   2.0000      -0.524641       -14.2762
  39   2.0000      -0.486213       -13.2305
  40   2.0000      -0.474654       -12.9160
  41   2.0000      -0.472795       -12.8654
  42   2.0000      -0.462089       -12.5741
  43   2.0000      -0.461227       -12.5506
  44   2.0000      -0.458843       -12.4858
  45   2.0000      -0.452220       -12.3055
  46   2.0000      -0.445457       -12.1215
  47   2.0000      -0.437188       -11.8965
  48   2.0000      -0.370110       -10.0712
  49   0.0000       0.011700         0.3184
  50   0.0000       0.027716         0.7542
  51   0.0000       0.028707         0.7812
  52   0.0000       0.032304         0.8790
  53   0.0000       0.040359         1.0982

MULLIKEN ATOMIC CHARGES
-----------------------
   0 N :   -0.734515
   1 H :    0.049726
   2 C :    1.664089
   3 O :   -0.978787
   4 C :   -0.532771
   5 H :    0.219150
   6 C :   -0.142546
   7 H :    0.348526
   8 N :   -0.739696
   9 H :    0.065560
  10 C :    1.857574
  11 O :   -0.930509
  12 C :   -0.677311
  13 H :    0.319824
  14 H :    0.305389
  15 C :   -0.575947
  16 H :    0.309466
  17 H :    0.235107
  18 C :   -0.701737
  19 H :    0.376679
  20 H :    0.294451
  21 C :   -0.657316
  22 H :    0.390628
  23 H :    0.271459
  24 C :   -0.572199
  25 H :    0.228666
  26 H :    0.307040
Sum of atomic charges:    0.0000000

LOEWDIN ATOMIC CHARGES
----------------------
   0 N :    0.787837
   1 H :   -0.514465
   2 C :   -0.880449
   3 O :    0.717947
   4 C :    0.334705
   5 H :   -0.341722
   6 C :    0.236090
   7 H :   -0.289079
   8 N :    0.819427
   9 H :   -0.482706
  10 C :   -0.996448
  11 O :    0.715896
  12 C :    0.533445
  13 H :   -0.316533
  14 H :   -0.252699
  15 C :    0.535523
  16 H :   -0.251832
  17 H :   -0.260410
  18 C :    0.519298
  19 H :   -0.335578
  20 H :   -0.246434
  21 C :    0.541403
  22 H :   -0.295897
  23 H :   -0.262397
  24 C :    0.551024
  25 H :   -0.302960
  26 H :   -0.262984

  Mayer bond orders larger than 0.100000
B(  0-N ,  1-H ) :   1.2073 B(  0-N ,  2-C ) :   0.9686 B(  0-N ,  3-O ) :   0.2279
B(  0-N , 10-C ) :   1.0083 B(  0-N , 11-O ) :   0.2660 B(  2-C ,  3-O ) :   0.6981
B(  2-C ,  4-C ) :   0.9586 B(  3-O ,  4-C ) :   0.2384 B(  4-C ,  5-H ) :   1.0872
B(  4-C ,  6-C ) :   1.5856 B(  4-C ,  7-H ) :  -0.1061 B(  6-C ,  7-H ) :   1.0232
B(  6-C ,  8-N ) :   0.9037 B(  8-N ,  9-H ) :   1.2224 B(  8-N , 10-C ) :   0.9638
B(  8-N , 11-O ) :   0.2693 B( 10-C , 11-O ) :   0.7548 B( 12-C , 13-H ) :   0.8521
B( 12-C , 14-H ) :   0.9112 B( 12-C , 15-C ) :   0.9789 B( 12-C , 24-C ) :   0.9766
B( 15-C , 16-H ) :   0.8548 B( 15-C , 17-H ) :   0.9603 B( 15-C , 18-C ) :   1.0327
B( 15-C , 19-H ) :  -0.1069 B( 18-C , 19-H ) :   0.7029 B( 18-C , 20-H ) :   0.9573
B( 18-C , 21-C ) :   0.8876 B( 21-C , 22-H ) :   0.8216 B( 21-C , 23-H ) :   0.9620
B( 21-C , 24-C ) :   0.9471 B( 24-C , 25-H ) :   0.9706 B( 24-C , 26-H ) :   0.9017

MP2 TOTAL ENERGY:     -610.417150468 Eh
FINAL SINGLE POINT ENERGY      -610.417150467955

DIPOLE MOMENT
-------------
                                X             Y             Z
Electronic contribution:      0.52186      -1.38209     -15.24772
Nuclear contribution   :     -0.52620       3.23141      14.80043
                        -----------------------------------------
Total Dipole Moment    :     -0.00435       1.84932      -0.44729
                        -----------------------------------------
Magnitude (a.u.)       :      1.90265
Magnitude (Debye)      :      4.83615

Rotational constants in cm-1:     0.033811     0.021700     0.018588
Rotational constants in MHz :  1013.631488   650.563784   557.257880

                             ****ORCA TERMINATED NORMALLY****
TOTAL RUN TIME: 0 days 14 hours 2 minutes 13 seconds 516 msec
