                         Program Version 5.0.4 -  RELEASE  -
|  1> ! ri-mp2 aug-cc-pvdz aug-cc-pvdz/c tightscf
|  2> %pal nprocs 16 end
|  3> %maxcore 3800
|  4> %base "DZ_S66by10_11_0.8_dimer"
|  5> %scf STABPerform true end
|  6>
|  7> *xyz 0 1
|  8> N   -0.56970824    0.81437245    0.10109775
|  9> H    0.13087774    0.56141065   -0.58761455
| 10> H   -1.46125215    0.52691480   -0.28042996
| 11> C   -0.30551437    0.06571030    1.32879173
| 12> H   -1.05714948    0.31427017    2.07595940
| 13> H   -0.28802353   -1.02229248    1.21484626
| 14> H    0.66045772    0.36850913    1.73024224
| 15> C    1.85107379    2.71895116   -0.09369229
| 16> H    1.97569226    3.13012789   -1.09273662
| 17> H    2.35764516    3.35994371    0.62409223
| 18> H    0.78466203    2.69242163    0.12472914
| 19> C    2.36306548    1.30115348   -0.09139826
| 20> O    1.90308559    0.43541706   -0.83057287
| 21> N    3.34954844    1.02812114    0.80093245
| 22> H    3.74930947    1.78305391    1.32628521
| 23> C    3.93799378   -0.29146941    0.87843202
| 24> H    3.14981717   -1.03279956    0.78541142
| 25> H    4.65925357   -0.46346478    0.07988763
| 26> H    4.43264730   -0.40733760    1.83837155
| 27> *
| 28>
| 29> $new_job
| 30> ! ri-mp2 aug-cc-pvtz aug-cc-pvtz/c tightscf
| 31> %pal nprocs 16 end
| 32> %maxcore 3800
| 33> %base "TZ_S66by10_11_0.8_dimer"
| 34>
| 35> *xyz 0 1
| 36> N   -0.56970824    0.81437245    0.10109775
| 37> H    0.13087774    0.56141065   -0.58761455
| 38> H   -1.46125215    0.52691480   -0.28042996
| 39> C   -0.30551437    0.06571030    1.32879173
| 40> H   -1.05714948    0.31427017    2.07595940
| 41> H   -0.28802353   -1.02229248    1.21484626
| 42> H    0.66045772    0.36850913    1.73024224
| 43> C    1.85107379    2.71895116   -0.09369229
| 44> H    1.97569226    3.13012789   -1.09273662
| 45> H    2.35764516    3.35994371    0.62409223
| 46> H    0.78466203    2.69242163    0.12472914
| 47> C    2.36306548    1.30115348   -0.09139826
| 48> O    1.90308559    0.43541706   -0.83057287
| 49> N    3.34954844    1.02812114    0.80093245
| 50> H    3.74930947    1.78305391    1.32628521
| 51> C    3.93799378   -0.29146941    0.87843202
| 52> H    3.14981717   -1.03279956    0.78541142
| 53> H    4.65925357   -0.46346478    0.07988763
| 54> H    4.43264730   -0.40733760    1.83837155
| 55> *
| 56>
| 57> $new_job
| 58> ! ri-mp2 aug-cc-pvqz aug-cc-pvqz/c tightscf
| 59> %pal nprocs 16 end
| 60> %maxcore 3800
| 61> %base "QZ_S66by10_11_0.8_dimer"
| 62>
| 63> *xyz 0 1
| 64> N   -0.56970824    0.81437245    0.10109775
| 65> H    0.13087774    0.56141065   -0.58761455
| 66> H   -1.46125215    0.52691480   -0.28042996
| 67> C   -0.30551437    0.06571030    1.32879173
| 68> H   -1.05714948    0.31427017    2.07595940
| 69> H   -0.28802353   -1.02229248    1.21484626
| 70> H    0.66045772    0.36850913    1.73024224
| 71> C    1.85107379    2.71895116   -0.09369229
| 72> H    1.97569226    3.13012789   -1.09273662
| 73> H    2.35764516    3.35994371    0.62409223
| 74> H    0.78466203    2.69242163    0.12472914
| 75> C    2.36306548    1.30115348   -0.09139826
| 76> O    1.90308559    0.43541706   -0.83057287
| 77> N    3.34954844    1.02812114    0.80093245
| 78> H    3.74930947    1.78305391    1.32628521
| 79> C    3.93799378   -0.29146941    0.87843202
| 80> H    3.14981717   -1.03279956    0.78541142
| 81> H    4.65925357   -0.46346478    0.07988763
| 82> H    4.43264730   -0.40733760    1.83837155
| 83> *
| 84>
| 85>
| 86>
| 87>
| 88>                          ****END OF INPUT****
 Total Charge           Charge          ....    0
 Multiplicity           Mult            ....    1
 Number of Electrons    NEL             ....   58
MP2 TOTAL ENERGY:     -343.425810189 Eh
FINAL SINGLE POINT ENERGY      -343.425810189205
MP2 TOTAL ENERGY:     -343.742762456 Eh
FINAL SINGLE POINT ENERGY      -343.742762455542

CARTESIAN COORDINATES (ANGSTROEM)
---------------------------------
  N     -0.569708    0.814372    0.101098
  H      0.130878    0.561411   -0.587615
  H     -1.461252    0.526915   -0.280430
  C     -0.305514    0.065710    1.328792
  H     -1.057149    0.314270    2.075959
  H     -0.288024   -1.022292    1.214846
  H      0.660458    0.368509    1.730242
  C      1.851074    2.718951   -0.093692
  H      1.975692    3.130128   -1.092737
  H      2.357645    3.359944    0.624092
  H      0.784662    2.692422    0.124729
  C      2.363065    1.301153   -0.091398
  O      1.903086    0.435417   -0.830573
  N      3.349548    1.028121    0.800932
  H      3.749309    1.783054    1.326285
  C      3.937994   -0.291469    0.878432
  H      3.149817   -1.032800    0.785411
  H      4.659254   -0.463465    0.079888
  H      4.432647   -0.407338    1.838372

 Multiplicity           Mult            ....    1
 Number of Electrons    NEL             ....   58
 Basis Dimension        Dim             .... 1112

ORBITAL ENERGIES
----------------

  NO   OCC          E(Eh)            E(eV)
   0   2.0000     -20.512770      -558.1809
   1   2.0000     -15.588191      -424.1762
   2   2.0000     -15.505211      -421.9182
   3   2.0000     -11.349518      -308.8361
   4   2.0000     -11.259661      -306.3909
   5   2.0000     -11.223989      -305.4203
   6   2.0000     -11.222529      -305.3805
   7   2.0000      -1.382419       -37.6175
   8   2.0000      -1.234515       -33.5929
   9   2.0000      -1.147826       -31.2339
  10   2.0000      -1.015990       -27.6465
  11   2.0000      -0.933008       -25.3885
  12   2.0000      -0.878864       -23.9151
  13   2.0000      -0.795411       -21.6442
  14   2.0000      -0.690423       -18.7874
  15   2.0000      -0.667224       -18.1561
  16   2.0000      -0.656966       -17.8769
  17   2.0000      -0.623784       -16.9740
  18   2.0000      -0.592885       -16.1332
  19   2.0000      -0.577943       -15.7266
  20   2.0000      -0.575937       -15.6721
  21   2.0000      -0.557655       -15.1746
  22   2.0000      -0.546736       -14.8774
  23   2.0000      -0.532843       -14.4994
  24   2.0000      -0.505415       -13.7531
  25   2.0000      -0.498894       -13.5756
  26   2.0000      -0.425912       -11.5897
  27   2.0000      -0.396754       -10.7962
  28   2.0000      -0.370006       -10.0684
  29   0.0000       0.019937         0.5425
  30   0.0000       0.030922         0.8414
  31   0.0000       0.034894         0.9495
  32   0.0000       0.035203         0.9579
  33   0.0000       0.047776         1.3001

MULLIKEN ATOMIC CHARGES
-----------------------
   0 N :   -0.587239
   1 H :    0.352503
   2 H :    0.133482
   3 C :   -0.844716
   4 H :    0.361914
   5 H :    0.262321
   6 H :    0.264567
   7 C :   -0.858263
   8 H :    0.292527
   9 H :    0.248143
  10 H :    0.281014
  11 C :    1.288578
  12 O :   -0.987664
  13 N :   -0.581172
  14 H :    0.276352
  15 C :   -0.884360
  16 H :    0.308358
  17 H :    0.311054
  18 H :    0.362600
Sum of atomic charges:    0.0000000

LOEWDIN ATOMIC CHARGES
----------------------
   0 N :    1.245321
   1 H :   -0.825515
   2 H :   -0.493051
   3 C :    0.754484
   4 H :   -0.303747
   5 H :   -0.278981
   6 H :   -0.340439
   7 C :    0.914452
   8 H :   -0.282489
   9 H :   -0.301885
  10 H :   -0.362831
  11 C :   -0.790679
  12 O :    0.835957
  13 N :    0.838372
  14 H :   -0.499549
  15 C :    0.783426
  16 H :   -0.321823
  17 H :   -0.278798
  18 H :   -0.292225

  Mayer bond orders larger than 0.100000
B(  0-N ,  1-H ) :   0.8227 B(  0-N ,  2-H ) :   1.0430 B(  0-N ,  3-C ) :   0.9700
B(  3-C ,  4-H ) :   0.8896 B(  3-C ,  5-H ) :   0.9346 B(  3-C ,  6-H ) :   0.8954
B(  7-C ,  8-H ) :   0.9246 B(  7-C ,  9-H ) :   1.0075 B(  7-C , 10-H ) :   0.9320
B(  7-C , 11-C ) :   0.7876 B( 11-C , 12-O ) :   1.0443 B( 11-C , 13-N ) :   1.0189
B( 12-O , 13-N ) :   0.1447 B( 13-N , 14-H ) :   0.9521 B( 13-N , 15-C ) :   0.8518
B( 15-C , 16-H ) :   0.9587 B( 15-C , 17-H ) :   0.9414 B( 15-C , 18-H ) :   0.8953

MP2 TOTAL ENERGY:     -343.842288719 Eh
FINAL SINGLE POINT ENERGY      -343.842288718594

DIPOLE MOMENT
-------------
                                X             Y             Z
Electronic contribution:      2.79925       0.72074      -3.09559
Nuclear contribution   :     -1.85594      -0.33879       3.93048
                        -----------------------------------------
Total Dipole Moment    :      0.94331       0.38195       0.83490
                        -----------------------------------------
Magnitude (a.u.)       :      1.31634
Magnitude (Debye)      :      3.34588

Rotational constants in cm-1:     0.108311     0.052952     0.043748
Rotational constants in MHz :  3247.093008  1587.446630  1311.529862

                             ****ORCA TERMINATED NORMALLY****
TOTAL RUN TIME: 0 days 3 hours 12 minutes 33 seconds 553 msec
