                         Program Version 5.0.4 -  RELEASE  -
|  1> ! ri-mp2 aug-cc-pvdz aug-cc-pvdz/c tightscf
|  2> %pal nprocs 16 end
|  3> %maxcore 3800
|  4> %base "DZ_S66by10_29_1.0_dimer"
|  5>
|  6> *xyz 0 1
|  7> N    1.21075533    0.02867578    0.32971111
|  8> C    0.61193497   -1.15844901    0.15345176
|  9> H    1.25147791   -2.02952340    0.21929295
| 10> C   -0.75131399   -1.30864956   -0.08883407
| 11> H   -1.17041577   -2.29686932   -0.21338320
| 12> C   -1.54786767   -0.16994027   -0.15646691
| 13> H   -2.61101275   -0.24595469   -0.33875574
| 14> C   -0.94362237    1.07063612    0.01982310
| 15> H   -1.51881431    1.98450028   -0.01164403
| 16> C    0.42771857    1.11610863    0.25734879
| 17> H    0.92469451    2.06805173    0.39754798
| 18> N   -0.71483468   -0.28490406    3.27883582
| 19> H   -1.60972370   -0.71676755    3.09423234
| 20> C   -0.71457980    1.11290573    3.37184683
| 21> O   -1.75446287    1.74110554    3.25699670
| 22> C    0.60491496    1.67198708    3.59940989
| 23> H    0.70623132    2.73920925    3.69527807
| 24> C    1.67478855    0.85329478    3.67092995
| 25> H    2.67866759    1.22195947    3.81935648
| 26> N    1.55672741   -0.50399849    3.55837528
| 27> H    2.37016340   -1.09618584    3.55020764
| 28> C    0.35628047   -1.15123092    3.33199359
| 29> O    0.26414322   -2.35664899    3.19841431
| 30> *
| 31>
| 32> $new_job
| 33> ! ri-mp2 aug-cc-pvtz aug-cc-pvtz/c tightscf
| 34> %pal nprocs 16 end
| 35> %maxcore 3800
| 36> %base "TZ_S66by10_29_1.0_dimer"
| 37>
| 38> *xyz 0 1
| 39> N    1.21075533    0.02867578    0.32971111
| 40> C    0.61193497   -1.15844901    0.15345176
| 41> H    1.25147791   -2.02952340    0.21929295
| 42> C   -0.75131399   -1.30864956   -0.08883407
| 43> H   -1.17041577   -2.29686932   -0.21338320
| 44> C   -1.54786767   -0.16994027   -0.15646691
| 45> H   -2.61101275   -0.24595469   -0.33875574
| 46> C   -0.94362237    1.07063612    0.01982310
| 47> H   -1.51881431    1.98450028   -0.01164403
| 48> C    0.42771857    1.11610863    0.25734879
| 49> H    0.92469451    2.06805173    0.39754798
| 50> N   -0.71483468   -0.28490406    3.27883582
| 51> H   -1.60972370   -0.71676755    3.09423234
| 52> C   -0.71457980    1.11290573    3.37184683
| 53> O   -1.75446287    1.74110554    3.25699670
| 54> C    0.60491496    1.67198708    3.59940989
| 55> H    0.70623132    2.73920925    3.69527807
| 56> C    1.67478855    0.85329478    3.67092995
| 57> H    2.67866759    1.22195947    3.81935648
| 58> N    1.55672741   -0.50399849    3.55837528
| 59> H    2.37016340   -1.09618584    3.55020764
| 60> C    0.35628047   -1.15123092    3.33199359
| 61> O    0.26414322   -2.35664899    3.19841431
| 62> *
| 63>
| 64> $new_job
| 65> ! ri-mp2 aug-cc-pvqz aug-cc-pvqz/c tightscf
| 66> %pal nprocs 16 end
| 67> %maxcore 3800
| 68> %base "QZ_S66by10_29_1.0_dimer"
| 69>
| 70> *xyz 0 1
| 71> N    1.21075533    0.02867578    0.32971111
| 72> C    0.61193497   -1.15844901    0.15345176
| 73> H    1.25147791   -2.02952340    0.21929295
| 74> C   -0.75131399   -1.30864956   -0.08883407
| 75> H   -1.17041577   -2.29686932   -0.21338320
| 76> C   -1.54786767   -0.16994027   -0.15646691
| 77> H   -2.61101275   -0.24595469   -0.33875574
| 78> C   -0.94362237    1.07063612    0.01982310
| 79> H   -1.51881431    1.98450028   -0.01164403
| 80> C    0.42771857    1.11610863    0.25734879
| 81> H    0.92469451    2.06805173    0.39754798
| 82> N   -0.71483468   -0.28490406    3.27883582
| 83> H   -1.60972370   -0.71676755    3.09423234
| 84> C   -0.71457980    1.11290573    3.37184683
| 85> O   -1.75446287    1.74110554    3.25699670
| 86> C    0.60491496    1.67198708    3.59940989
| 87> H    0.70623132    2.73920925    3.69527807
| 88> C    1.67478855    0.85329478    3.67092995
| 89> H    2.67866759    1.22195947    3.81935648
| 90> N    1.55672741   -0.50399849    3.55837528
| 91> H    2.37016340   -1.09618584    3.55020764
| 92> C    0.35628047   -1.15123092    3.33199359
| 93> O    0.26414322   -2.35664899    3.19841431
| 94> *
| 95>
| 96>
| 97>
| 98>
| 99>                          ****END OF INPUT****
 Total Charge           Charge          ....    0
 Multiplicity           Mult            ....    1
 Number of Electrons    NEL             ....  100
MP2 TOTAL ENERGY:     -661.360311381 Eh
FINAL SINGLE POINT ENERGY      -661.360311381197
MP2 TOTAL ENERGY:     -661.918998290 Eh
FINAL SINGLE POINT ENERGY      -661.918998290396

CARTESIAN COORDINATES (ANGSTROEM)
---------------------------------
  N      1.210755    0.028676    0.329711
  C      0.611935   -1.158449    0.153452
  H      1.251478   -2.029523    0.219293
  C     -0.751314   -1.308650   -0.088834
  H     -1.170416   -2.296869   -0.213383
  C     -1.547868   -0.169940   -0.156467
  H     -2.611013   -0.245955   -0.338756
  C     -0.943622    1.070636    0.019823
  H     -1.518814    1.984500   -0.011644
  C      0.427719    1.116109    0.257349
  H      0.924695    2.068052    0.397548
  N     -0.714835   -0.284904    3.278836
  H     -1.609724   -0.716768    3.094232
  C     -0.714580    1.112906    3.371847
  O     -1.754463    1.741106    3.256997
  C      0.604915    1.671987    3.599410
  H      0.706231    2.739209    3.695278
  C      1.674789    0.853295    3.670930
  H      2.678668    1.221959    3.819356
  N      1.556727   -0.503998    3.558375
  H      2.370163   -1.096186    3.550208
  C      0.356280   -1.151231    3.331994
  O      0.264143   -2.356649    3.198414

 Multiplicity           Mult            ....    1
 Number of Electrons    NEL             ....  100
 Basis Dimension        Dim             .... 1534

ORBITAL ENERGIES
----------------

  NO   OCC          E(Eh)            E(eV)
   0   2.0000     -20.538224      -558.8735
   1   2.0000     -20.532997      -558.7313
   2   2.0000     -15.633720      -425.4152
   3   2.0000     -15.618147      -424.9914
   4   2.0000     -15.568195      -423.6321
   5   2.0000     -11.410961      -310.5080
   6   2.0000     -11.373745      -309.4953
   7   2.0000     -11.332043      -308.3606
   8   2.0000     -11.274833      -306.8038
   9   2.0000     -11.274353      -306.7907
  10   2.0000     -11.258316      -306.3543
  11   2.0000     -11.245961      -306.0181
  12   2.0000     -11.240468      -305.8687
  13   2.0000     -11.239477      -305.8417
  14   2.0000      -1.429338       -38.8943
  15   2.0000      -1.391458       -37.8635
  16   2.0000      -1.306154       -35.5423
  17   2.0000      -1.258521       -34.2461
  18   2.0000      -1.238763       -33.7084
  19   2.0000      -1.089716       -29.6527
  20   2.0000      -1.080882       -29.4123
  21   2.0000      -1.033953       -28.1353
  22   2.0000      -0.926676       -25.2161
  23   2.0000      -0.894971       -24.3534
  24   2.0000      -0.859468       -23.3873
  25   2.0000      -0.856237       -23.2994
  26   2.0000      -0.800061       -21.7708
  27   2.0000      -0.758533       -20.6407
  28   2.0000      -0.722523       -19.6608
  29   2.0000      -0.707317       -19.2471
  30   2.0000      -0.671806       -18.2808
  31   2.0000      -0.665482       -18.1087
  32   2.0000      -0.660772       -17.9805
  33   2.0000      -0.653249       -17.7758
  34   2.0000      -0.646959       -17.6046
  35   2.0000      -0.608679       -16.5630
  36   2.0000      -0.598403       -16.2834
  37   2.0000      -0.595365       -16.2007
  38   2.0000      -0.577889       -15.7252
  39   2.0000      -0.566718       -15.4212
  40   2.0000      -0.540405       -14.7052
  41   2.0000      -0.521354       -14.1868
  42   2.0000      -0.517724       -14.0880
  43   2.0000      -0.478297       -13.0151
  44   2.0000      -0.444307       -12.0902
  45   2.0000      -0.432243       -11.7619
  46   2.0000      -0.423419       -11.5218
  47   2.0000      -0.385973       -10.5028
  48   2.0000      -0.362701        -9.8696
  49   2.0000      -0.345981        -9.4146
  50   0.0000       0.017122         0.4659
  51   0.0000       0.028103         0.7647
  52   0.0000       0.029602         0.8055
  53   0.0000       0.035809         0.9744
  54   0.0000       0.039059         1.0629

MULLIKEN ATOMIC CHARGES
-----------------------
   0 N :   -0.872315
   1 C :   -0.070051
   2 H :    0.513031
   3 C :   -0.215467
   4 H :    0.268263
   5 C :   -0.414481
   6 H :    0.350163
   7 C :   -0.301198
   8 H :    0.353816
   9 C :   -0.053579
  10 H :    0.462840
  11 N :   -0.766446
  12 H :    0.093724
  13 C :    1.363378
  14 O :   -0.946193
  15 C :   -0.467876
  16 H :    0.231700
  17 C :   -0.053993
  18 H :    0.402940
  19 N :   -0.730493
  20 H :    0.093202
  21 C :    1.668019
  22 O :   -0.908984
Sum of atomic charges:   -0.0000000

LOEWDIN ATOMIC CHARGES
----------------------
   0 N :    0.594456
   1 C :    0.042324
   2 H :   -0.346796
   3 C :    0.325170
   4 H :   -0.320424
   5 C :    0.330860
   6 H :   -0.306611
   7 C :    0.316138
   8 H :   -0.318674
   9 C :    0.044053
  10 H :   -0.347382
  11 N :    0.777019
  12 H :   -0.517172
  13 C :   -0.895631
  14 O :    0.697178
  15 C :    0.319394
  16 H :   -0.347150
  17 C :    0.228593
  18 H :   -0.289796
  19 N :    0.814685
  20 H :   -0.484333
  21 C :   -1.024526
  22 O :    0.708626

  Mayer bond orders larger than 0.100000
B(  0-N ,  1-C ) :   1.1295 B(  0-N ,  2-H ) :  -0.1776 B(  0-N ,  7-C ) :   0.1094
B(  0-N ,  9-C ) :   1.0506 B(  0-N , 10-H ) :  -0.1603 B(  1-C ,  2-H ) :   0.8560
B(  1-C ,  3-C ) :   1.1305 B(  1-C ,  5-C ) :   0.1056 B(  3-C ,  4-H ) :   1.0603
B(  3-C ,  5-C ) :   1.2682 B(  5-C ,  6-H ) :   0.9776 B(  5-C ,  7-C ) :   1.2080
B(  7-C ,  8-H ) :   0.9998 B(  7-C ,  9-C ) :   1.1331 B(  7-C , 10-H ) :  -0.1005
B(  9-C , 10-H ) :   0.8735 B( 11-N , 12-H ) :   1.1990 B( 11-N , 13-C ) :   0.9475
B( 11-N , 14-O ) :   0.2249 B( 11-N , 21-C ) :   1.0148 B( 11-N , 22-O ) :   0.2243
B( 13-C , 14-O ) :   0.7843 B( 13-C , 15-C ) :   1.0878 B( 14-O , 15-C ) :   0.2321
B( 15-C , 16-H ) :   1.0656 B( 15-C , 17-C ) :   1.5035 B( 17-C , 18-H ) :   0.9538
B( 17-C , 19-N ) :   0.9016 B( 19-N , 20-H ) :   1.1819 B( 19-N , 21-C ) :   1.0339
B( 19-N , 22-O ) :   0.2160 B( 21-C , 22-O ) :   0.8518

MP2 TOTAL ENERGY:     -662.101398281 Eh
FINAL SINGLE POINT ENERGY      -662.101398280686

DIPOLE MOMENT
-------------
                                X             Y             Z
Electronic contribution:      0.16312      -1.02098       3.78525
Nuclear contribution   :      0.83402       1.26547      -3.76329
                        -----------------------------------------
Total Dipole Moment    :      0.99714       0.24449       0.02196
                        -----------------------------------------
Magnitude (a.u.)       :      1.02691
Magnitude (Debye)      :      2.61019

Rotational constants in cm-1:     0.032092     0.023082     0.019310
Rotational constants in MHz :   962.091618   691.987429   578.912120

                             ****ORCA TERMINATED NORMALLY****
TOTAL RUN TIME: 0 days 1 hours 31 minutes 36 seconds 984 msec
