                         Program Version 5.0.4 -  RELEASE  -
|  1> ! ri-mp2 aug-cc-pvdz aug-cc-pvdz/c tightscf
|  2> %pal nprocs 16 end
|  3> %maxcore 3800
|  4> %base "DZ_S66by10_66_0.8_dimer"
|  5>
|  6> *xyz 0 1
|  7> N   -0.54105920    0.02957620   -0.20899508
|  8> H    0.05555335   -0.78611810   -0.13029335
|  9> H   -1.46966940   -0.27470845    0.05314338
| 10> C   -0.07879927    1.04239036    0.73845886
| 11> H   -0.72015294    1.91941377    0.67198026
| 12> H   -0.05075819    0.72382293    1.78551453
| 13> H    0.92643072    1.35660379    0.46199919
| 14> N    1.89821894   -1.16546933   -0.00097989
| 15> C    2.23665526   -0.35312526   -1.01269236
| 16> H    1.69398804   -0.49766325   -1.93807372
| 17> C    3.20798452    0.63900853   -0.91232536
| 18> H    3.43283696    1.26334882   -1.76517605
| 19> C    3.86882459    0.80854997    0.29993908
| 20> H    4.62667853    1.57078730    0.41632321
| 21> C    3.52869168   -0.02641256    1.35906203
| 22> H    4.01128008    0.06404968    2.32176268
| 23> C    2.54491011   -0.99120156    1.15987865
| 24> H    2.25882578   -1.65494917    1.96648931
| 25> *
| 26>
| 27> $new_job
| 28> ! ri-mp2 aug-cc-pvtz aug-cc-pvtz/c tightscf
| 29> %pal nprocs 16 end
| 30> %maxcore 3800
| 31> %base "TZ_S66by10_66_0.8_dimer"
| 32>
| 33> *xyz 0 1
| 34> N   -0.54105920    0.02957620   -0.20899508
| 35> H    0.05555335   -0.78611810   -0.13029335
| 36> H   -1.46966940   -0.27470845    0.05314338
| 37> C   -0.07879927    1.04239036    0.73845886
| 38> H   -0.72015294    1.91941377    0.67198026
| 39> H   -0.05075819    0.72382293    1.78551453
| 40> H    0.92643072    1.35660379    0.46199919
| 41> N    1.89821894   -1.16546933   -0.00097989
| 42> C    2.23665526   -0.35312526   -1.01269236
| 43> H    1.69398804   -0.49766325   -1.93807372
| 44> C    3.20798452    0.63900853   -0.91232536
| 45> H    3.43283696    1.26334882   -1.76517605
| 46> C    3.86882459    0.80854997    0.29993908
| 47> H    4.62667853    1.57078730    0.41632321
| 48> C    3.52869168   -0.02641256    1.35906203
| 49> H    4.01128008    0.06404968    2.32176268
| 50> C    2.54491011   -0.99120156    1.15987865
| 51> H    2.25882578   -1.65494917    1.96648931
| 52> *
| 53>
| 54> $new_job
| 55> ! ri-mp2 aug-cc-pvqz aug-cc-pvqz/c tightscf
| 56> %pal nprocs 16 end
| 57> %maxcore 3800
| 58> %base "QZ_S66by10_66_0.8_dimer"
| 59>
| 60> *xyz 0 1
| 61> N   -0.54105920    0.02957620   -0.20899508
| 62> H    0.05555335   -0.78611810   -0.13029335
| 63> H   -1.46966940   -0.27470845    0.05314338
| 64> C   -0.07879927    1.04239036    0.73845886
| 65> H   -0.72015294    1.91941377    0.67198026
| 66> H   -0.05075819    0.72382293    1.78551453
| 67> H    0.92643072    1.35660379    0.46199919
| 68> N    1.89821894   -1.16546933   -0.00097989
| 69> C    2.23665526   -0.35312526   -1.01269236
| 70> H    1.69398804   -0.49766325   -1.93807372
| 71> C    3.20798452    0.63900853   -0.91232536
| 72> H    3.43283696    1.26334882   -1.76517605
| 73> C    3.86882459    0.80854997    0.29993908
| 74> H    4.62667853    1.57078730    0.41632321
| 75> C    3.52869168   -0.02641256    1.35906203
| 76> H    4.01128008    0.06404968    2.32176268
| 77> C    2.54491011   -0.99120156    1.15987865
| 78> H    2.25882578   -1.65494917    1.96648931
| 79> *
| 80>
| 81>
| 82>
| 83>
| 84>                          ****END OF INPUT****
 Total Charge           Charge          ....    0
 Multiplicity           Mult            ....    1
 Number of Electrons    NEL             ....   60
MP2 TOTAL ENERGY:     -343.141767349 Eh
FINAL SINGLE POINT ENERGY      -343.141767348709
MP2 TOTAL ENERGY:     -343.449060414 Eh
FINAL SINGLE POINT ENERGY      -343.449060414154

CARTESIAN COORDINATES (ANGSTROEM)
---------------------------------
  N     -0.541059    0.029576   -0.208995
  H      0.055553   -0.786118   -0.130293
  H     -1.469669   -0.274708    0.053143
  C     -0.078799    1.042390    0.738459
  H     -0.720153    1.919414    0.671980
  H     -0.050758    0.723823    1.785515
  H      0.926431    1.356604    0.461999
  N      1.898219   -1.165469   -0.000980
  C      2.236655   -0.353125   -1.012692
  H      1.693988   -0.497663   -1.938074
  C      3.207985    0.639009   -0.912325
  H      3.432837    1.263349   -1.765176
  C      3.868825    0.808550    0.299939
  H      4.626679    1.570787    0.416323
  C      3.528692   -0.026413    1.359062
  H      4.011280    0.064050    2.321763
  C      2.544910   -0.991202    1.159879
  H      2.258826   -1.654949    1.966489

 Multiplicity           Mult            ....    1
 Number of Electrons    NEL             ....   60
 Basis Dimension        Dim             .... 1100

ORBITAL ENERGIES
----------------

  NO   OCC          E(Eh)            E(eV)
   0   2.0000     -15.568091      -423.6293
   1   2.0000     -15.510487      -422.0618
   2   2.0000     -11.280173      -306.9491
   3   2.0000     -11.276817      -306.8578
   4   2.0000     -11.263498      -306.4954
   5   2.0000     -11.244664      -305.9829
   6   2.0000     -11.243237      -305.9440
   7   2.0000     -11.222548      -305.3811
   8   2.0000      -1.264408       -34.4063
   9   2.0000      -1.150489       -31.3064
  10   2.0000      -1.094225       -29.7754
  11   2.0000      -1.037895       -28.2426
  12   2.0000      -0.880132       -23.9496
  13   2.0000      -0.863250       -23.4902
  14   2.0000      -0.860533       -23.4163
  15   2.0000      -0.727951       -19.8085
  16   2.0000      -0.666840       -18.1456
  17   2.0000      -0.657970       -17.9043
  18   2.0000      -0.653848       -17.7921
  19   2.0000      -0.602303       -16.3895
  20   2.0000      -0.590102       -16.0575
  21   2.0000      -0.579891       -15.7796
  22   2.0000      -0.546294       -14.8654
  23   2.0000      -0.529271       -14.4022
  24   2.0000      -0.523731       -14.2514
  25   2.0000      -0.500833       -13.6284
  26   2.0000      -0.426920       -11.6171
  27   2.0000      -0.388494       -10.5715
  28   2.0000      -0.371379       -10.1057
  29   2.0000      -0.351160        -9.5555
  30   0.0000       0.021622         0.5884
  31   0.0000       0.028449         0.7741
  32   0.0000       0.031849         0.8666
  33   0.0000       0.038349         1.0435
  34   0.0000       0.043210         1.1758

MULLIKEN ATOMIC CHARGES
-----------------------
   0 N :   -0.689112
   1 H :    0.272327
   2 H :    0.189558
   3 C :   -0.749159
   4 H :    0.344631
   5 H :    0.239629
   6 H :    0.331504
   7 N :   -0.537243
   8 C :    0.065323
   9 H :    0.450093
  10 C :   -0.432235
  11 H :    0.304019
  12 C :   -0.307235
  13 H :    0.388246
  14 C :   -0.457649
  15 H :    0.322117
  16 C :   -0.201051
  17 H :    0.466237
Sum of atomic charges:   -0.0000000

LOEWDIN ATOMIC CHARGES
----------------------
   0 N :    1.263949
   1 H :   -0.760695
   2 H :   -0.501341
   3 C :    0.738534
   4 H :   -0.298211
   5 H :   -0.277896
   6 H :   -0.370307
   7 N :    0.610565
   8 C :    0.076842
   9 H :   -0.322573
  10 C :    0.347708
  11 H :   -0.319154
  12 C :    0.338304
  13 H :   -0.309201
  14 C :    0.339424
  15 H :   -0.325536
  16 C :    0.103249
  17 H :   -0.333661

  Mayer bond orders larger than 0.100000
B(  0-N ,  1-H ) :   0.8570 B(  0-N ,  2-H ) :   0.9841 B(  0-N ,  3-C ) :   0.9536
B(  3-C ,  4-H ) :   0.8960 B(  3-C ,  5-H ) :   0.9429 B(  3-C ,  6-H ) :   0.8607
B(  7-N ,  8-C ) :   1.0770 B(  7-N ,  9-H ) :  -0.1426 B(  7-N , 16-C ) :   1.2155
B(  7-N , 17-H ) :  -0.1186 B(  8-C ,  9-H ) :   0.8997 B(  8-C , 10-C ) :   1.1658
B(  8-C , 14-C ) :   0.1359 B( 10-C , 11-H ) :   1.0325 B( 10-C , 12-C ) :   1.2376
B( 10-C , 16-C ) :   0.1035 B( 12-C , 13-H ) :   0.9544 B( 12-C , 14-C ) :   1.2702
B( 14-C , 15-H ) :   1.0115 B( 14-C , 16-C ) :   1.2186 B( 16-C , 17-H ) :   0.9006

MP2 TOTAL ENERGY:     -343.545713552 Eh
FINAL SINGLE POINT ENERGY      -343.545713552207

DIPOLE MOMENT
-------------
                                X             Y             Z
Electronic contribution:      5.49045      -2.98756      -1.31318
Nuclear contribution   :     -4.70766       3.34426       1.85362
                        -----------------------------------------
Total Dipole Moment    :      0.78279       0.35670       0.54044
                        -----------------------------------------
Magnitude (a.u.)       :      1.01591
Magnitude (Debye)      :      2.58224

Rotational constants in cm-1:     0.107626     0.048560     0.046352
Rotational constants in MHz :  3226.545286  1455.781591  1389.583987

                             ****ORCA TERMINATED NORMALLY****
TOTAL RUN TIME: 0 days 0 hours 37 minutes 34 seconds 967 msec
