                         Program Version 5.0.4 -  RELEASE  -
|  1> ! ri-mp2 aug-cc-pvdz aug-cc-pvdz/c tightscf
|  2> %pal nprocs 16 end
|  3> %maxcore 3800
|  4> %base "DZ_S66by10_59_0.7_dimer"
|  5> %scf STABPerform true end
|  6>
|  7> *xyz 0 1
|  8> C   -1.00686722   -0.03056821   -0.02477285
|  9> H    0.05900333   -0.06093974   -0.04936562
| 10> C   -2.21874380    0.00317347    0.00259920
| 11> H   -3.27927730    0.03352491    0.02720048
| 12> O    1.62000175   -0.12085525   -0.09616595
| 13> H    2.19035817   -0.71062463    0.40086098
| 14> H    2.19199759    0.23013277   -0.78153810
| 15> *
| 16>
| 17> $new_job
| 18> ! ri-mp2 aug-cc-pvtz aug-cc-pvtz/c tightscf
| 19> %pal nprocs 16 end
| 20> %maxcore 3800
| 21> %base "TZ_S66by10_59_0.7_dimer"
| 22>
| 23> *xyz 0 1
| 24> C   -1.00686722   -0.03056821   -0.02477285
| 25> H    0.05900333   -0.06093974   -0.04936562
| 26> C   -2.21874380    0.00317347    0.00259920
| 27> H   -3.27927730    0.03352491    0.02720048
| 28> O    1.62000175   -0.12085525   -0.09616595
| 29> H    2.19035817   -0.71062463    0.40086098
| 30> H    2.19199759    0.23013277   -0.78153810
| 31> *
| 32>
| 33> $new_job
| 34> ! ri-mp2 aug-cc-pvqz aug-cc-pvqz/c tightscf
| 35> %pal nprocs 16 end
| 36> %maxcore 3800
| 37> %base "QZ_S66by10_59_0.7_dimer"
| 38>
| 39> *xyz 0 1
| 40> C   -1.00686722   -0.03056821   -0.02477285
| 41> H    0.05900333   -0.06093974   -0.04936562
| 42> C   -2.21874380    0.00317347    0.00259920
| 43> H   -3.27927730    0.03352491    0.02720048
| 44> O    1.62000175   -0.12085525   -0.09616595
| 45> H    2.19035817   -0.71062463    0.40086098
| 46> H    2.19199759    0.23013277   -0.78153810
| 47> *
| 48>
| 49>
| 50>
| 51>
| 52>                          ****END OF INPUT****
 Total Charge           Charge          ....    0
 Multiplicity           Mult            ....    1
 Number of Electrons    NEL             ....   24
MP2 TOTAL ENERGY:     -153.346075119 Eh
FINAL SINGLE POINT ENERGY      -153.346075118630
MP2 TOTAL ENERGY:     -153.486090718 Eh
FINAL SINGLE POINT ENERGY      -153.486090718278

CARTESIAN COORDINATES (ANGSTROEM)
---------------------------------
  C     -1.006867   -0.030568   -0.024773
  H      0.059003   -0.060940   -0.049366
  C     -2.218744    0.003173    0.002599
  H     -3.279277    0.033525    0.027200
  O      1.620002   -0.120855   -0.096166
  H      2.190358   -0.710625    0.400861
  H      2.191998    0.230133   -0.781538

 Multiplicity           Mult            ....    1
 Number of Electrons    NEL             ....   24
 Basis Dimension        Dim             ....  424

ORBITAL ENERGIES
----------------

  NO   OCC          E(Eh)            E(eV)
   0   2.0000     -20.596123      -560.4490
   1   2.0000     -11.208260      -304.9922
   2   2.0000     -11.198629      -304.7302
   3   2.0000      -1.393333       -37.9145
   4   2.0000      -0.995348       -27.0848
   5   2.0000      -0.760426       -20.6922
   6   2.0000      -0.751861       -20.4592
   7   2.0000      -0.683900       -18.6099
   8   2.0000      -0.573201       -15.5976
   9   2.0000      -0.546472       -14.8703
  10   2.0000      -0.376619       -10.2483
  11   2.0000      -0.376213       -10.2373
  12   0.0000       0.016634         0.4526
  13   0.0000       0.033710         0.9173
  14   0.0000       0.038939         1.0596
  15   0.0000       0.052598         1.4313
  16   0.0000       0.081750         2.2245

MULLIKEN ATOMIC CHARGES
-----------------------
   0 C :   -0.451816
   1 H :    1.318855
   2 C :   -1.294430
   3 H :    0.335481
   4 O :   -0.505658
   5 H :    0.298879
   6 H :    0.298690
Sum of atomic charges:   -0.0000000

LOEWDIN ATOMIC CHARGES
----------------------
   0 C :    0.474846
   1 H :   -0.858384
   2 C :    0.497386
   3 H :   -0.497303
   4 O :    1.716288
   5 H :   -0.666377
   6 H :   -0.666457

  Mayer bond orders larger than 0.100000
B(  0-C ,  1-H ) :  -0.1990 B(  0-C ,  2-C ) :   2.2816 B(  0-C ,  3-H ) :  -0.1318
B(  0-C ,  4-O ) :   0.1544 B(  1-H ,  2-C ) :  -0.4117 B(  1-H ,  3-H ) :  -0.1995
B(  2-C ,  3-H ) :   1.2424 B(  4-O ,  5-H ) :   0.9679 B(  4-O ,  6-H ) :   0.9681

MP2 TOTAL ENERGY:     -153.530466834 Eh
FINAL SINGLE POINT ENERGY      -153.530466834008

DIPOLE MOMENT
-------------
                                X             Y             Z
Electronic contribution:     -0.83457       0.06290       0.04961
Nuclear contribution   :      2.11079      -0.24101      -0.19027
                        -----------------------------------------
Total Dipole Moment    :      1.27621      -0.17811      -0.14066
                        -----------------------------------------
Magnitude (a.u.)       :      1.29624
Magnitude (Debye)      :      3.29477

Rotational constants in cm-1:    14.281418     0.128640     0.127549
Rotational constants in MHz : 428146.144155  3856.543333  3823.833785

                             ****ORCA TERMINATED NORMALLY****
TOTAL RUN TIME: 0 days 0 hours 5 minutes 36 seconds 988 msec
