                         Program Version 5.0.4 -  RELEASE  -
|  1> ! ri-mp2 aug-cc-pvdz aug-cc-pvdz/c tightscf
|  2> %pal nprocs 16 end
|  3> %maxcore 3800
|  4> %base "DZ_S66by10_47_0.7_dimer"
|  5>
|  6> *xyz 0 1
|  7> C    0.72918867    1.11310122    0.32672825
|  8> H    1.30321590    2.01422234    0.15916027
|  9> C    1.37508737   -0.11936635    0.41277695
| 10> H    2.45051474   -0.17462400    0.31330720
| 11> C    0.63503981   -1.28055339    0.62938541
| 12> H    1.13633448   -2.23601747    0.70021716
| 13> C   -0.75098563   -1.20965430    0.75789034
| 14> H   -1.32452590   -2.11141283    0.92419891
| 15> C   -1.39703443    0.02267081    0.67308963
| 16> H   -2.47242537    0.07848826    0.77399799
| 17> C   -0.65689731    1.18429622    0.45833859
| 18> H   -1.15782845    2.14058713    0.39509608
| 19> C    0.04023332   -0.01982314    3.07687619
| 20> H    0.16235973    0.20566031    2.02644976
| 21> C   -1.05084825   -0.77472176    3.50421246
| 22> H   -1.77135278   -1.13123601    2.78051804
| 23> C   -1.21154823   -1.06884708    4.85716253
| 24> H   -2.05865582   -1.65481564    5.18741007
| 25> C   -0.27966567   -0.60779370    5.78565661
| 26> H   -0.40355916   -0.83575986    6.83566411
| 27> C    0.81191943    0.14730835    5.36041632
| 28> H    1.53503852    0.50514153    6.08079898
| 29> C    0.97072333    0.44079337    4.00692501
| 30> H    1.81798124    1.02686817    3.67687768
| 31> *
| 32>
| 33> $new_job
| 34> ! ri-mp2 aug-cc-pvtz aug-cc-pvtz/c tightscf
| 35> %pal nprocs 16 end
| 36> %maxcore 3800
| 37> %base "TZ_S66by10_47_0.7_dimer"
| 38>
| 39> *xyz 0 1
| 40> C    0.72918867    1.11310122    0.32672825
| 41> H    1.30321590    2.01422234    0.15916027
| 42> C    1.37508737   -0.11936635    0.41277695
| 43> H    2.45051474   -0.17462400    0.31330720
| 44> C    0.63503981   -1.28055339    0.62938541
| 45> H    1.13633448   -2.23601747    0.70021716
| 46> C   -0.75098563   -1.20965430    0.75789034
| 47> H   -1.32452590   -2.11141283    0.92419891
| 48> C   -1.39703443    0.02267081    0.67308963
| 49> H   -2.47242537    0.07848826    0.77399799
| 50> C   -0.65689731    1.18429622    0.45833859
| 51> H   -1.15782845    2.14058713    0.39509608
| 52> C    0.04023332   -0.01982314    3.07687619
| 53> H    0.16235973    0.20566031    2.02644976
| 54> C   -1.05084825   -0.77472176    3.50421246
| 55> H   -1.77135278   -1.13123601    2.78051804
| 56> C   -1.21154823   -1.06884708    4.85716253
| 57> H   -2.05865582   -1.65481564    5.18741007
| 58> C   -0.27966567   -0.60779370    5.78565661
| 59> H   -0.40355916   -0.83575986    6.83566411
| 60> C    0.81191943    0.14730835    5.36041632
| 61> H    1.53503852    0.50514153    6.08079898
| 62> C    0.97072333    0.44079337    4.00692501
| 63> H    1.81798124    1.02686817    3.67687768
| 64> *
| 65>
| 66> $new_job
| 67> ! ri-mp2 aug-cc-pvqz aug-cc-pvqz/c tightscf
| 68> %pal nprocs 16 end
| 69> %maxcore 3800
| 70> %base "QZ_S66by10_47_0.7_dimer"
| 71>
| 72> *xyz 0 1
| 73> C    0.72918867    1.11310122    0.32672825
| 74> H    1.30321590    2.01422234    0.15916027
| 75> C    1.37508737   -0.11936635    0.41277695
| 76> H    2.45051474   -0.17462400    0.31330720
| 77> C    0.63503981   -1.28055339    0.62938541
| 78> H    1.13633448   -2.23601747    0.70021716
| 79> C   -0.75098563   -1.20965430    0.75789034
| 80> H   -1.32452590   -2.11141283    0.92419891
| 81> C   -1.39703443    0.02267081    0.67308963
| 82> H   -2.47242537    0.07848826    0.77399799
| 83> C   -0.65689731    1.18429622    0.45833859
| 84> H   -1.15782845    2.14058713    0.39509608
| 85> C    0.04023332   -0.01982314    3.07687619
| 86> H    0.16235973    0.20566031    2.02644976
| 87> C   -1.05084825   -0.77472176    3.50421246
| 88> H   -1.77135278   -1.13123601    2.78051804
| 89> C   -1.21154823   -1.06884708    4.85716253
| 90> H   -2.05865582   -1.65481564    5.18741007
| 91> C   -0.27966567   -0.60779370    5.78565661
| 92> H   -0.40355916   -0.83575986    6.83566411
| 93> C    0.81191943    0.14730835    5.36041632
| 94> H    1.53503852    0.50514153    6.08079898
| 95> C    0.97072333    0.44079337    4.00692501
| 96> H    1.81798124    1.02686817    3.67687768
| 97> *
| 98>
| 99>
|100>
|101>
|102>                          ****END OF INPUT****
 Total Charge           Charge          ....    0
 Multiplicity           Mult            ....    1
 Number of Electrons    NEL             ....   84
MP2 TOTAL ENERGY:     -463.054937472 Eh
FINAL SINGLE POINT ENERGY      -463.054937471565
MP2 TOTAL ENERGY:     -463.464696077 Eh
FINAL SINGLE POINT ENERGY      -463.464696077183

CARTESIAN COORDINATES (ANGSTROEM)
---------------------------------
  C      0.729189    1.113101    0.326728
  H      1.303216    2.014222    0.159160
  C      1.375087   -0.119366    0.412777
  H      2.450515   -0.174624    0.313307
  C      0.635040   -1.280553    0.629385
  H      1.136334   -2.236017    0.700217
  C     -0.750986   -1.209654    0.757890
  H     -1.324526   -2.111413    0.924199
  C     -1.397034    0.022671    0.673090
  H     -2.472425    0.078488    0.773998
  C     -0.656897    1.184296    0.458339
  H     -1.157828    2.140587    0.395096
  C      0.040233   -0.019823    3.076876
  H      0.162360    0.205660    2.026450
  C     -1.050848   -0.774722    3.504212
  H     -1.771353   -1.131236    2.780518
  C     -1.211548   -1.068847    4.857163
  H     -2.058656   -1.654816    5.187410
  C     -0.279666   -0.607794    5.785657
  H     -0.403559   -0.835760    6.835664
  C      0.811919    0.147308    5.360416
  H      1.535039    0.505142    6.080799
  C      0.970723    0.440793    4.006925
  H      1.817981    1.026868    3.676878

 Multiplicity           Mult            ....    1
 Number of Electrons    NEL             ....   84
 Basis Dimension        Dim             .... 1512

ORBITAL ENERGIES
----------------

  NO   OCC          E(Eh)            E(eV)
   0   2.0000     -11.241669      -305.9014
   1   2.0000     -11.240737      -305.8760
   2   2.0000     -11.240615      -305.8727
   3   2.0000     -11.239441      -305.8408
   4   2.0000     -11.239276      -305.8362
   5   2.0000     -11.238562      -305.8168
   6   2.0000     -11.222545      -305.3810
   7   2.0000     -11.222359      -305.3759
   8   2.0000     -11.218444      -305.2694
   9   2.0000     -11.215724      -305.1954
  10   2.0000     -11.213816      -305.1435
  11   2.0000     -11.204668      -304.8945
  12   2.0000      -1.169986       -31.8369
  13   2.0000      -1.133487       -30.8437
  14   2.0000      -1.028341       -27.9826
  15   2.0000      -1.024634       -27.8817
  16   2.0000      -0.999750       -27.2046
  17   2.0000      -0.998587       -27.1729
  18   2.0000      -0.834697       -22.7133
  19   2.0000      -0.832412       -22.6511
  20   2.0000      -0.813562       -22.1381
  21   2.0000      -0.809650       -22.0317
  22   2.0000      -0.725480       -19.7413
  23   2.0000      -0.701014       -19.0756
  24   2.0000      -0.651969       -17.7410
  25   2.0000      -0.635413       -17.2905
  26   2.0000      -0.626311       -17.0428
  27   2.0000      -0.605893       -16.4872
  28   2.0000      -0.600691       -16.3456
  29   2.0000      -0.597298       -16.2533
  30   2.0000      -0.590445       -16.0668
  31   2.0000      -0.574170       -15.6240
  32   2.0000      -0.504969       -13.7409
  33   2.0000      -0.502845       -13.6831
  34   2.0000      -0.502506       -13.6739
  35   2.0000      -0.490028       -13.3343
  36   2.0000      -0.480333       -13.0705
  37   2.0000      -0.441361       -12.0101
  38   2.0000      -0.363759        -9.8984
  39   2.0000      -0.346320        -9.4239
  40   2.0000      -0.324400        -8.8274
  41   2.0000      -0.305297        -8.3076
  42   0.0000       0.021594         0.5876
  43   0.0000       0.026470         0.7203
  44   0.0000       0.029642         0.8066
  45   0.0000       0.031339         0.8528
  46   0.0000       0.038907         1.0587

MULLIKEN ATOMIC CHARGES
-----------------------
   0 C :   -0.318214
   1 H :    0.252187
   2 C :   -0.453851
   3 H :    0.251916
   4 C :   -0.495209
   5 H :    0.256014
   6 C :   -0.140901
   7 H :    0.313827
   8 C :   -0.321322
   9 H :    0.291558
  10 C :   -0.532995
  11 H :    0.222011
  12 C :    0.168616
  13 H :    1.500815
  14 C :   -0.224977
  15 H :    0.205372
  16 C :   -0.541248
  17 H :    0.224291
  18 C :   -0.381093
  19 H :    0.342573
  20 C :   -0.369547
  21 H :    0.274067
  22 C :   -0.733425
  23 H :    0.209534
Sum of atomic charges:    0.0000000

LOEWDIN ATOMIC CHARGES
----------------------
   0 C :    0.367144
   1 H :   -0.295734
   2 C :    0.363238
   3 H :   -0.294629
   4 C :    0.368503
   5 H :   -0.287424
   6 C :    0.302081
   7 H :   -0.286497
   8 C :    0.335735
   9 H :   -0.280416
  10 C :    0.375548
  11 H :   -0.290821
  12 C :    0.298522
  13 H :   -0.761296
  14 C :    0.365952
  15 H :   -0.402942
  16 C :    0.362181
  17 H :   -0.323875
  18 C :    0.330824
  19 H :   -0.332246
  20 C :    0.338744
  21 H :   -0.328250
  22 C :    0.388978
  23 H :   -0.313320

  Mayer bond orders larger than 0.100000
B(  0-C ,  1-H ) :   1.1210 B(  0-C ,  2-C ) :   1.2273 B(  0-C ,  6-C ) :   0.1694
B(  0-C , 10-C ) :   1.3585 B(  0-C , 13-H ) :  -0.2456 B(  0-C , 14-C ) :  -0.1104
B(  2-C ,  3-H ) :   1.1275 B(  2-C ,  4-C ) :   1.3516 B(  2-C ,  8-C ) :   0.1205
B(  2-C , 10-C ) :   0.1434 B(  2-C , 13-H ) :  -0.2276 B(  4-C ,  5-H ) :   1.0947
B(  4-C ,  6-C ) :   1.2649 B(  4-C , 10-C ) :   0.2108 B(  4-C , 13-H ) :  -0.3232
B(  6-C ,  7-H ) :   1.0241 B(  6-C ,  8-C ) :   1.2251 B(  6-C , 13-H ) :  -0.2726
B(  8-C ,  9-H ) :   1.0500 B(  8-C , 10-C ) :   1.2983 B(  8-C , 13-H ) :  -0.3337
B( 10-C , 11-H ) :   1.1464 B( 10-C , 13-H ) :  -0.3602 B( 12-C , 13-H ) :   0.1939
B( 12-C , 14-C ) :   1.0310 B( 12-C , 15-H ) :  -0.1329 B( 12-C , 16-C ) :  -0.2585
B( 12-C , 18-C ) :  -0.1091 B( 12-C , 20-C ) :  -0.3556 B( 12-C , 22-C ) :   0.6859
B( 13-H , 14-C ) :  -0.2803 B( 13-H , 18-C ) :   0.1025 B( 13-H , 22-C ) :  -0.1005
B( 14-C , 15-H ) :   1.0792 B( 14-C , 16-C ) :   1.1884 B( 14-C , 17-H ) :  -0.1166
B( 14-C , 20-C ) :   0.1248 B( 16-C , 17-H ) :   1.1542 B( 16-C , 18-C ) :   1.2446
B( 16-C , 22-C ) :   0.1901 B( 18-C , 19-H ) :   1.0077 B( 18-C , 20-C ) :   1.1055
B( 18-C , 21-H ) :  -0.1082 B( 18-C , 22-C ) :   0.1216 B( 20-C , 21-H ) :   1.1129
B( 20-C , 22-C ) :   1.4698 B( 21-H , 22-C ) :  -0.1344 B( 22-C , 23-H ) :   1.1295

MP2 TOTAL ENERGY:     -463.592929108 Eh
FINAL SINGLE POINT ENERGY      -463.592929107550

DIPOLE MOMENT
-------------
                                X             Y             Z
Electronic contribution:      0.01096       0.00806      -0.33782
Nuclear contribution   :      0.00163      -0.00027       0.00367
                        -----------------------------------------
Total Dipole Moment    :      0.01259       0.00779      -0.33415
                        -----------------------------------------
Magnitude (a.u.)       :      0.33448
Magnitude (Debye)      :      0.85017

Rotational constants in cm-1:     0.064698     0.021741     0.019600
Rotational constants in MHz :  1939.595017   651.774388   587.589630

                             ****ORCA TERMINATED NORMALLY****
TOTAL RUN TIME: 0 days 1 hours 54 minutes 6 seconds 494 msec
