                         Program Version 5.0.4 -  RELEASE  -
|  1> ! ri-mp2 aug-cc-pvdz aug-cc-pvdz/c tightscf
|  2> %pal nprocs 16 end
|  3> %maxcore 3800
|  4> %base "DZ_S66by10_26_1.25_dimer"
|  5> %scf STABPerform true end
|  6>
|  7> *xyz 0 1
|  8> N    1.37690111    0.83974747    0.73462494
|  9> H    1.05181240    1.38622385    1.52335563
| 10> C    1.30898271    1.45752981   -0.52065500
| 11> O    0.92056136    2.61107777   -0.62597673
| 12> N    2.01142293   -1.21320830   -0.09807182
| 13> H    1.72728551    0.99084268   -2.61199556
| 14> C    2.02573687   -0.69717123   -1.36439740
| 15> H    2.29751698   -1.39106004   -2.14564531
| 16> C    1.71451235    0.59193780   -1.61248722
| 17> H    2.12945422   -2.20152091    0.05682913
| 18> C    1.64594503   -0.48520598    1.01871830
| 19> O    1.56111602   -0.97181638    2.12980905
| 20> N   -2.05948384   -0.95759145    0.73462494
| 21> H   -1.73439513   -1.50406783    1.52335563
| 22> C   -1.99156544   -1.57537380   -0.52065500
| 23> O   -1.60314409   -2.72892175   -0.62597673
| 24> N   -2.69400566    1.09536432   -0.09807182
| 25> H   -2.40986824   -1.10868667   -2.61199556
| 26> C   -2.70831960    0.57932724   -1.36439740
| 27> H   -2.98009971    1.27321605   -2.14564531
| 28> C   -2.39709508   -0.70978178   -1.61248722
| 29> H   -2.81203694    2.08367692    0.05682913
| 30> C   -2.32852776    0.36736199    1.01871830
| 31> O   -2.24369875    0.85397239    2.12980905
| 32> *
| 33>
| 34> $new_job
| 35> ! ri-mp2 aug-cc-pvtz aug-cc-pvtz/c tightscf
| 36> %pal nprocs 16 end
| 37> %maxcore 3800
| 38> %base "TZ_S66by10_26_1.25_dimer"
| 39>
| 40> *xyz 0 1
| 41> N    1.37690111    0.83974747    0.73462494
| 42> H    1.05181240    1.38622385    1.52335563
| 43> C    1.30898271    1.45752981   -0.52065500
| 44> O    0.92056136    2.61107777   -0.62597673
| 45> N    2.01142293   -1.21320830   -0.09807182
| 46> H    1.72728551    0.99084268   -2.61199556
| 47> C    2.02573687   -0.69717123   -1.36439740
| 48> H    2.29751698   -1.39106004   -2.14564531
| 49> C    1.71451235    0.59193780   -1.61248722
| 50> H    2.12945422   -2.20152091    0.05682913
| 51> C    1.64594503   -0.48520598    1.01871830
| 52> O    1.56111602   -0.97181638    2.12980905
| 53> N   -2.05948384   -0.95759145    0.73462494
| 54> H   -1.73439513   -1.50406783    1.52335563
| 55> C   -1.99156544   -1.57537380   -0.52065500
| 56> O   -1.60314409   -2.72892175   -0.62597673
| 57> N   -2.69400566    1.09536432   -0.09807182
| 58> H   -2.40986824   -1.10868667   -2.61199556
| 59> C   -2.70831960    0.57932724   -1.36439740
| 60> H   -2.98009971    1.27321605   -2.14564531
| 61> C   -2.39709508   -0.70978178   -1.61248722
| 62> H   -2.81203694    2.08367692    0.05682913
| 63> C   -2.32852776    0.36736199    1.01871830
| 64> O   -2.24369875    0.85397239    2.12980905
| 65> *
| 66>
| 67> $new_job
| 68> ! ri-mp2 aug-cc-pvqz aug-cc-pvqz/c tightscf
| 69> %pal nprocs 16 end
| 70> %maxcore 3800
| 71> %base "QZ_S66by10_26_1.25_dimer"
| 72>
| 73> *xyz 0 1
| 74> N    1.37690111    0.83974747    0.73462494
| 75> H    1.05181240    1.38622385    1.52335563
| 76> C    1.30898271    1.45752981   -0.52065500
| 77> O    0.92056136    2.61107777   -0.62597673
| 78> N    2.01142293   -1.21320830   -0.09807182
| 79> H    1.72728551    0.99084268   -2.61199556
| 80> C    2.02573687   -0.69717123   -1.36439740
| 81> H    2.29751698   -1.39106004   -2.14564531
| 82> C    1.71451235    0.59193780   -1.61248722
| 83> H    2.12945422   -2.20152091    0.05682913
| 84> C    1.64594503   -0.48520598    1.01871830
| 85> O    1.56111602   -0.97181638    2.12980905
| 86> N   -2.05948384   -0.95759145    0.73462494
| 87> H   -1.73439513   -1.50406783    1.52335563
| 88> C   -1.99156544   -1.57537380   -0.52065500
| 89> O   -1.60314409   -2.72892175   -0.62597673
| 90> N   -2.69400566    1.09536432   -0.09807182
| 91> H   -2.40986824   -1.10868667   -2.61199556
| 92> C   -2.70831960    0.57932724   -1.36439740
| 93> H   -2.98009971    1.27321605   -2.14564531
| 94> C   -2.39709508   -0.70978178   -1.61248722
| 95> H   -2.81203694    2.08367692    0.05682913
| 96> C   -2.32852776    0.36736199    1.01871830
| 97> O   -2.24369875    0.85397239    2.12980905
| 98> *
| 99>
|100>
|101>
|102>
|103>                          ****END OF INPUT****
 Total Charge           Charge          ....    0
 Multiplicity           Mult            ....    1
 Number of Electrons    NEL             ....  116
MP2 TOTAL ENERGY:     -827.568440069 Eh
FINAL SINGLE POINT ENERGY      -827.568440069263
MP2 TOTAL ENERGY:     -828.261949511 Eh
FINAL SINGLE POINT ENERGY      -828.261949511281

CARTESIAN COORDINATES (ANGSTROEM)
---------------------------------
  N      1.376901    0.839747    0.734625
  H      1.051812    1.386224    1.523356
  C      1.308983    1.457530   -0.520655
  O      0.920561    2.611078   -0.625977
  N      2.011423   -1.213208   -0.098072
  H      1.727286    0.990843   -2.611996
  C      2.025737   -0.697171   -1.364397
  H      2.297517   -1.391060   -2.145645
  C      1.714512    0.591938   -1.612487
  H      2.129454   -2.201521    0.056829
  C      1.645945   -0.485206    1.018718
  O      1.561116   -0.971816    2.129809
  N     -2.059484   -0.957591    0.734625
  H     -1.734395   -1.504068    1.523356
  C     -1.991565   -1.575374   -0.520655
  O     -1.603144   -2.728922   -0.625977
  N     -2.694006    1.095364   -0.098072
  H     -2.409868   -1.108687   -2.611996
  C     -2.708320    0.579327   -1.364397
  H     -2.980100    1.273216   -2.145645
  C     -2.397095   -0.709782   -1.612487
  H     -2.812037    2.083677    0.056829
  C     -2.328528    0.367362    1.018718
  O     -2.243699    0.853972    2.129809

 Multiplicity           Mult            ....    1
 Number of Electrons    NEL             ....  116
 Basis Dimension        Dim             .... 1648

ORBITAL ENERGIES
----------------

  NO   OCC          E(Eh)            E(eV)
   0   2.0000     -20.544873      -559.0544
   1   2.0000     -20.544873      -559.0544
   2   2.0000     -20.542998      -559.0034
   3   2.0000     -20.542998      -559.0034
   4   2.0000     -15.641863      -425.6367
   5   2.0000     -15.641863      -425.6367
   6   2.0000     -15.627382      -425.2427
   7   2.0000     -15.627381      -425.2427
   8   2.0000     -11.418072      -310.7015
   9   2.0000     -11.418071      -310.7015
  10   2.0000     -11.383593      -309.7633
  11   2.0000     -11.383593      -309.7633
  12   2.0000     -11.341046      -308.6055
  13   2.0000     -11.341046      -308.6055
  14   2.0000     -11.255197      -306.2695
  15   2.0000     -11.255197      -306.2695
  16   2.0000      -1.436776       -39.0967
  17   2.0000      -1.436023       -39.0762
  18   2.0000      -1.400015       -38.0963
  19   2.0000      -1.399867       -38.0923
  20   2.0000      -1.313857       -35.7519
  21   2.0000      -1.313854       -35.7518
  22   2.0000      -1.247226       -33.9387
  23   2.0000      -1.246886       -33.9295
  24   2.0000      -1.089580       -29.6490
  25   2.0000      -1.089073       -29.6352
  26   2.0000      -0.934806       -25.4374
  27   2.0000      -0.934764       -25.4362
  28   2.0000      -0.902410       -24.5558
  29   2.0000      -0.902273       -24.5521
  30   2.0000      -0.807379       -21.9699
  31   2.0000      -0.807243       -21.9662
  32   2.0000      -0.766692       -20.8628
  33   2.0000      -0.766536       -20.8585
  34   2.0000      -0.715018       -19.4566
  35   2.0000      -0.714935       -19.4544
  36   2.0000      -0.679765       -18.4973
  37   2.0000      -0.679477       -18.4895
  38   2.0000      -0.676986       -18.4217
  39   2.0000      -0.665206       -18.1012
  40   2.0000      -0.653437       -17.7809
  41   2.0000      -0.652886       -17.7659
  42   2.0000      -0.616734       -16.7822
  43   2.0000      -0.616730       -16.7821
  44   2.0000      -0.603794       -16.4301
  45   2.0000      -0.603587       -16.4244
  46   2.0000      -0.577527       -15.7153
  47   2.0000      -0.571048       -15.5390
  48   2.0000      -0.529309       -14.4032
  49   2.0000      -0.522887       -14.2285
  50   2.0000      -0.485007       -13.1977
  51   2.0000      -0.484560       -13.1855
  52   2.0000      -0.453340       -12.3360
  53   2.0000      -0.452866       -12.3231
  54   2.0000      -0.440159       -11.9773
  55   2.0000      -0.439793       -11.9674
  56   2.0000      -0.374724       -10.1967
  57   2.0000      -0.366605        -9.9758
  58   0.0000       0.014046         0.3822
  59   0.0000       0.019525         0.5313
  60   0.0000       0.030748         0.8367
  61   0.0000       0.032148         0.8748
  62   0.0000       0.040982         1.1152

MULLIKEN ATOMIC CHARGES
-----------------------
   0 N :   -0.721142
   1 H :    0.117979
   2 C :    1.268489
   3 O :   -0.912208
   4 N :   -0.699896
   5 H :    0.271894
   6 C :   -0.151289
   7 H :    0.423977
   8 C :   -0.398098
   9 H :    0.116997
  10 C :    1.544032
  11 O :   -0.860734
  12 N :   -0.721143
  13 H :    0.117979
  14 C :    1.268491
  15 O :   -0.912208
  16 N :   -0.699896
  17 H :    0.271893
  18 C :   -0.151286
  19 H :    0.423979
  20 C :   -0.398101
  21 H :    0.116995
  22 C :    1.544032
  23 O :   -0.860734
Sum of atomic charges:    0.0000000

LOEWDIN ATOMIC CHARGES
----------------------
   0 N :    0.778105
   1 H :   -0.518294
   2 C :   -0.881414
   3 O :    0.683007
   4 N :    0.814478
   5 H :   -0.354091
   6 C :    0.233137
   7 H :   -0.292877
   8 C :    0.325670
   9 H :   -0.487869
  10 C :   -1.000572
  11 O :    0.700718
  12 N :    0.778105
  13 H :   -0.518294
  14 C :   -0.881414
  15 O :    0.683007
  16 N :    0.814478
  17 H :   -0.354091
  18 C :    0.233137
  19 H :   -0.292877
  20 C :    0.325670
  21 H :   -0.487869
  22 C :   -1.000572
  23 O :    0.700718

  Mayer bond orders larger than 0.100000
B(  0-N ,  1-H ) :   1.1421 B(  0-N ,  2-C ) :   0.9458 B(  0-N ,  3-O ) :   0.2055
B(  0-N , 10-C ) :   1.0755 B(  0-N , 11-O ) :   0.2080 B(  2-C ,  3-O ) :   0.8867
B(  2-C ,  8-C ) :   1.1709 B(  3-O ,  8-C ) :   0.2262 B(  4-N ,  6-C ) :   0.9229
B(  4-N ,  9-H ) :   1.1547 B(  4-N , 10-C ) :   1.0636 B(  4-N , 11-O ) :   0.2114
B(  5-H ,  8-C ) :   1.0129 B(  6-C ,  7-H ) :   0.9180 B(  6-C ,  8-C ) :   1.4751
B( 10-C , 11-O ) :   0.9771 B( 12-N , 13-H ) :   1.1421 B( 12-N , 14-C ) :   0.9458
B( 12-N , 15-O ) :   0.2055 B( 12-N , 22-C ) :   1.0755 B( 12-N , 23-O ) :   0.2080
B( 14-C , 15-O ) :   0.8867 B( 14-C , 20-C ) :   1.1709 B( 15-O , 20-C ) :   0.2262
B( 16-N , 18-C ) :   0.9229 B( 16-N , 21-H ) :   1.1547 B( 16-N , 22-C ) :   1.0636
B( 16-N , 23-O ) :   0.2114 B( 17-H , 20-C ) :   1.0129 B( 18-C , 19-H ) :   0.9180
B( 18-C , 20-C ) :   1.4751 B( 22-C , 23-O ) :   0.9771

MP2 TOTAL ENERGY:     -828.491357966 Eh
FINAL SINGLE POINT ENERGY      -828.491357965571

DIPOLE MOMENT
-------------
                                X             Y             Z
Electronic contribution:      0.00000      -0.00000       3.66477
Nuclear contribution   :      0.00000      -0.00000      -5.91054
                        -----------------------------------------
Total Dipole Moment    :      0.00000      -0.00000      -2.24577
                        -----------------------------------------
Magnitude (a.u.)       :      2.24577
Magnitude (Debye)      :      5.70830

Rotational constants in cm-1:     0.022533     0.014237     0.013450
Rotational constants in MHz :   675.527477   426.816038   403.216838

                             ****ORCA TERMINATED NORMALLY****
TOTAL RUN TIME: 0 days 12 hours 21 minutes 6 seconds 162 msec
