                         Program Version 5.0.4 -  RELEASE  -
|  1> ! ri-mp2 aug-cc-pvdz aug-cc-pvdz/c tightscf
|  2> %pal nprocs 16 end
|  3> %maxcore 3800
|  4> %base "DZ_S66by10_58_1.0_dimer"
|  5>
|  6> *xyz 0 1
|  7> N   -0.94121124    0.79004136    0.01171891
|  8> C   -0.92275524   -0.55237814    0.03537875
|  9> H    0.05724051   -1.01558800    0.05135491
| 10> C   -2.07651907   -1.33301813    0.03929035
| 11> H   -1.99652895   -2.41058573    0.05887720
| 12> C   -3.31631294   -0.70333955    0.01759905
| 13> H   -4.23157489   -1.27908429    0.01979377
| 14> C   -3.34889528    0.68701881   -0.00708596
| 15> H   -4.28544414    1.22610455   -0.02465899
| 16> C   -2.14310382    1.38263356   -0.00889005
| 17> H   -2.13809974    2.46565258   -0.02778297
| 18> N    2.53598291   -0.94995570    0.04251417
| 19> C    3.73776173   -1.54313193    0.04459401
| 20> H    3.73253788   -2.62609439    0.06648317
| 21> C    4.94369797   -0.84817338    0.02059263
| 22> H    5.88013629   -1.38770855    0.02368664
| 23> C    4.91138036    0.54213108   -0.00715408
| 24> H    5.82675530    1.11738213   -0.02633559
| 25> C    3.67170003    1.17241721   -0.00963119
| 26> H    3.59192730    2.24997579   -0.03071975
| 27> C    2.51778646    0.39240759    0.01556248
| 28> H    1.53787606    0.85607017    0.01389964
| 29> *
| 30>
| 31> $new_job
| 32> ! ri-mp2 aug-cc-pvtz aug-cc-pvtz/c tightscf
| 33> %pal nprocs 16 end
| 34> %maxcore 3800
| 35> %base "TZ_S66by10_58_1.0_dimer"
| 36>
| 37> *xyz 0 1
| 38> N   -0.94121124    0.79004136    0.01171891
| 39> C   -0.92275524   -0.55237814    0.03537875
| 40> H    0.05724051   -1.01558800    0.05135491
| 41> C   -2.07651907   -1.33301813    0.03929035
| 42> H   -1.99652895   -2.41058573    0.05887720
| 43> C   -3.31631294   -0.70333955    0.01759905
| 44> H   -4.23157489   -1.27908429    0.01979377
| 45> C   -3.34889528    0.68701881   -0.00708596
| 46> H   -4.28544414    1.22610455   -0.02465899
| 47> C   -2.14310382    1.38263356   -0.00889005
| 48> H   -2.13809974    2.46565258   -0.02778297
| 49> N    2.53598291   -0.94995570    0.04251417
| 50> C    3.73776173   -1.54313193    0.04459401
| 51> H    3.73253788   -2.62609439    0.06648317
| 52> C    4.94369797   -0.84817338    0.02059263
| 53> H    5.88013629   -1.38770855    0.02368664
| 54> C    4.91138036    0.54213108   -0.00715408
| 55> H    5.82675530    1.11738213   -0.02633559
| 56> C    3.67170003    1.17241721   -0.00963119
| 57> H    3.59192730    2.24997579   -0.03071975
| 58> C    2.51778646    0.39240759    0.01556248
| 59> H    1.53787606    0.85607017    0.01389964
| 60> *
| 61>
| 62> $new_job
| 63> ! ri-mp2 aug-cc-pvqz aug-cc-pvqz/c tightscf
| 64> %pal nprocs 16 end
| 65> %maxcore 3800
| 66> %base "QZ_S66by10_58_1.0_dimer"
| 67>
| 68> *xyz 0 1
| 69> N   -0.94121124    0.79004136    0.01171891
| 70> C   -0.92275524   -0.55237814    0.03537875
| 71> H    0.05724051   -1.01558800    0.05135491
| 72> C   -2.07651907   -1.33301813    0.03929035
| 73> H   -1.99652895   -2.41058573    0.05887720
| 74> C   -3.31631294   -0.70333955    0.01759905
| 75> H   -4.23157489   -1.27908429    0.01979377
| 76> C   -3.34889528    0.68701881   -0.00708596
| 77> H   -4.28544414    1.22610455   -0.02465899
| 78> C   -2.14310382    1.38263356   -0.00889005
| 79> H   -2.13809974    2.46565258   -0.02778297
| 80> N    2.53598291   -0.94995570    0.04251417
| 81> C    3.73776173   -1.54313193    0.04459401
| 82> H    3.73253788   -2.62609439    0.06648317
| 83> C    4.94369797   -0.84817338    0.02059263
| 84> H    5.88013629   -1.38770855    0.02368664
| 85> C    4.91138036    0.54213108   -0.00715408
| 86> H    5.82675530    1.11738213   -0.02633559
| 87> C    3.67170003    1.17241721   -0.00963119
| 88> H    3.59192730    2.24997579   -0.03071975
| 89> C    2.51778646    0.39240759    0.01556248
| 90> H    1.53787606    0.85607017    0.01389964
| 91> *
| 92>
| 93>
| 94>
| 95>
| 96>                          ****END OF INPUT****
 Total Charge           Charge          ....    0
 Multiplicity           Mult            ....    1
 Number of Electrons    NEL             ....   84
MP2 TOTAL ENERGY:     -495.134888579 Eh
FINAL SINGLE POINT ENERGY      -495.134888579441
MP2 TOTAL ENERGY:     -495.562796609 Eh
FINAL SINGLE POINT ENERGY      -495.562796609439

CARTESIAN COORDINATES (ANGSTROEM)
---------------------------------
  N     -0.941211    0.790041    0.011719
  C     -0.922755   -0.552378    0.035379
  H      0.057241   -1.015588    0.051355
  C     -2.076519   -1.333018    0.039290
  H     -1.996529   -2.410586    0.058877
  C     -3.316313   -0.703340    0.017599
  H     -4.231575   -1.279084    0.019794
  C     -3.348895    0.687019   -0.007086
  H     -4.285444    1.226105   -0.024659
  C     -2.143104    1.382634   -0.008890
  H     -2.138100    2.465653   -0.027783
  N      2.535983   -0.949956    0.042514
  C      3.737762   -1.543132    0.044594
  H      3.732538   -2.626094    0.066483
  C      4.943698   -0.848173    0.020593
  H      5.880136   -1.387709    0.023687
  C      4.911380    0.542131   -0.007154
  H      5.826755    1.117382   -0.026336
  C      3.671700    1.172417   -0.009631
  H      3.591927    2.249976   -0.030720
  C      2.517786    0.392408    0.015562
  H      1.537876    0.856070    0.013900

 Multiplicity           Mult            ....    1
 Number of Electrons    NEL             ....   84
 Basis Dimension        Dim             .... 1420

ORBITAL ENERGIES
----------------

  NO   OCC          E(Eh)            E(eV)
   0   2.0000     -15.560269      -423.4165
   1   2.0000     -15.560264      -423.4163
   2   2.0000     -11.270428      -306.6839
   3   2.0000     -11.270422      -306.6838
   4   2.0000     -11.264362      -306.5189
   5   2.0000     -11.264354      -306.5187
   6   2.0000     -11.254614      -306.2536
   7   2.0000     -11.254609      -306.2535
   8   2.0000     -11.236230      -305.7534
   9   2.0000     -11.236225      -305.7532
  10   2.0000     -11.234190      -305.6978
  11   2.0000     -11.234183      -305.6977
  12   2.0000      -1.251405       -34.0525
  13   2.0000      -1.250019       -34.0147
  14   2.0000      -1.084581       -29.5130
  15   2.0000      -1.084232       -29.5034
  16   2.0000      -1.028382       -27.9837
  17   2.0000      -1.026794       -27.9405
  18   2.0000      -0.854521       -23.2527
  19   2.0000      -0.852974       -23.2106
  20   2.0000      -0.852645       -23.2017
  21   2.0000      -0.847939       -23.0736
  22   2.0000      -0.721895       -19.6438
  23   2.0000      -0.711636       -19.3646
  24   2.0000      -0.655604       -17.8399
  25   2.0000      -0.655350       -17.8330
  26   2.0000      -0.648149       -17.6370
  27   2.0000      -0.647679       -17.6242
  28   2.0000      -0.595262       -16.1979
  29   2.0000      -0.591533       -16.0964
  30   2.0000      -0.576895       -15.6981
  31   2.0000      -0.566503       -15.4153
  32   2.0000      -0.537038       -14.6135
  33   2.0000      -0.535323       -14.5669
  34   2.0000      -0.514164       -13.9911
  35   2.0000      -0.513545       -13.9743
  36   2.0000      -0.425296       -11.5729
  37   2.0000      -0.406830       -11.0704
  38   2.0000      -0.380719       -10.3599
  39   2.0000      -0.379167       -10.3177
  40   2.0000      -0.342493        -9.3197
  41   2.0000      -0.341216        -9.2850
  42   0.0000       0.022753         0.6191
  43   0.0000       0.024146         0.6571
  44   0.0000       0.027842         0.7576
  45   0.0000       0.034184         0.9302
  46   0.0000       0.034646         0.9428

MULLIKEN ATOMIC CHARGES
-----------------------
   0 N :   -0.555801
   1 C :   -0.318578
   2 H :    0.814498
   3 C :   -0.285006
   4 H :    0.310550
   5 C :   -0.283526
   6 H :    0.315578
   7 C :   -0.183867
   8 H :    0.355609
   9 C :   -0.593537
  10 H :    0.424053
  11 N :   -0.555757
  12 C :   -0.593710
  13 H :    0.424083
  14 C :   -0.183742
  15 H :    0.355645
  16 C :   -0.283613
  17 H :    0.315551
  18 C :   -0.284937
  19 H :    0.310593
  20 C :   -0.318630
  21 H :    0.814544
Sum of atomic charges:   -0.0000000

LOEWDIN ATOMIC CHARGES
----------------------
   0 N :    0.596813
   1 C :    0.080452
   2 H :   -0.420777
   3 C :    0.342027
   4 H :   -0.328848
   5 C :    0.327599
   6 H :   -0.315772
   7 C :    0.326434
   8 H :   -0.332756
   9 C :    0.079844
  10 H :   -0.355074
  11 N :    0.596815
  12 C :    0.079860
  13 H :   -0.355069
  14 C :    0.326445
  15 H :   -0.332765
  16 C :    0.327604
  17 H :   -0.315770
  18 C :    0.342027
  19 H :   -0.328845
  20 C :    0.080465
  21 H :   -0.420708

  Mayer bond orders larger than 0.100000
B(  0-N ,  1-C ) :   1.2337 B(  0-N ,  2-H ) :  -0.1032 B(  0-N ,  9-C ) :   1.3503
B(  1-C ,  2-H ) :   0.2887 B(  1-C ,  3-C ) :   1.0794 B(  1-C ,  5-C ) :  -0.2719
B(  2-H ,  3-C ) :  -0.1365 B(  3-C ,  4-H ) :   0.9548 B(  3-C ,  5-C ) :   1.3564
B(  3-C ,  9-C ) :   0.1378 B(  5-C ,  6-H ) :   1.0039 B(  5-C ,  7-C ) :   1.1822
B(  7-C ,  8-H ) :   0.9601 B(  7-C ,  9-C ) :   1.2787 B(  8-H ,  9-C ) :  -0.1284
B(  9-C , 10-H ) :   0.9169 B( 11-N , 12-C ) :   1.3505 B( 11-N , 20-C ) :   1.2339
B( 11-N , 21-H ) :  -0.1032 B( 12-C , 13-H ) :   0.9168 B( 12-C , 14-C ) :   1.2786
B( 12-C , 15-H ) :  -0.1284 B( 12-C , 18-C ) :   0.1378 B( 14-C , 15-H ) :   0.9600
B( 14-C , 16-C ) :   1.1822 B( 16-C , 17-H ) :   1.0039 B( 16-C , 18-C ) :   1.3565
B( 16-C , 20-C ) :  -0.2719 B( 18-C , 19-H ) :   0.9547 B( 18-C , 20-C ) :   1.0794
B( 18-C , 21-H ) :  -0.1365 B( 20-C , 21-H ) :   0.2887

MP2 TOTAL ENERGY:     -495.699448776 Eh
FINAL SINGLE POINT ENERGY      -495.699448776401

DIPOLE MOMENT
-------------
                                X             Y             Z
Electronic contribution:      0.00001       0.00060       0.02151
Nuclear contribution   :      0.00022      -0.00103      -0.03538
                        -----------------------------------------
Total Dipole Moment    :      0.00023      -0.00043      -0.01387
                        -----------------------------------------
Magnitude (a.u.)       :      0.01388
Magnitude (Debye)      :      0.03528

Rotational constants in cm-1:     0.099765     0.011083     0.009975
Rotational constants in MHz :  2990.886653   332.250731   299.036377

                             ****ORCA TERMINATED NORMALLY****
TOTAL RUN TIME: 0 days 1 hours 3 minutes 51 seconds 261 msec
