                         Program Version 5.0.4 -  RELEASE  -
|  1> ! ri-mp2 aug-cc-pvdz aug-cc-pvdz/c tightscf
|  2> %pal nprocs 16 end
|  3> %maxcore 3800
|  4> %base "DZ_S66by10_54_1.05_dimer"
|  5>
|  6> *xyz 0 1
|  7> C    0.78014717   -0.60991473   -1.20755689
|  8> H    0.89619160   -1.13763959   -2.14414463
|  9> C    0.47794275    0.75099363   -1.20789541
| 10> H    0.35696423    1.27816780   -2.14405407
| 11> C    0.32728928    1.43186787   -0.00000000
| 12> H    0.09146503    2.48713922    0.00000000
| 13> C    0.47794275    0.75099363    1.20789541
| 14> H    0.35696423    1.27816780    2.14405407
| 15> C    0.78014717   -0.60991473    1.20755689
| 16> H    0.89619160   -1.13763959    2.14414463
| 17> C    0.93164831   -1.28998134    0.00000000
| 18> H    1.16848573   -2.34521369   -0.00000000
| 19> O   -2.92771125   -0.28990245   -0.00000000
| 20> H   -2.76290725   -1.23462398   -0.00000000
| 21> H   -2.04041030    0.08168787   -0.00000000
| 22> *
| 23>
| 24> $new_job
| 25> ! ri-mp2 aug-cc-pvtz aug-cc-pvtz/c tightscf
| 26> %pal nprocs 16 end
| 27> %maxcore 3800
| 28> %base "TZ_S66by10_54_1.05_dimer"
| 29>
| 30> *xyz 0 1
| 31> C    0.78014717   -0.60991473   -1.20755689
| 32> H    0.89619160   -1.13763959   -2.14414463
| 33> C    0.47794275    0.75099363   -1.20789541
| 34> H    0.35696423    1.27816780   -2.14405407
| 35> C    0.32728928    1.43186787   -0.00000000
| 36> H    0.09146503    2.48713922    0.00000000
| 37> C    0.47794275    0.75099363    1.20789541
| 38> H    0.35696423    1.27816780    2.14405407
| 39> C    0.78014717   -0.60991473    1.20755689
| 40> H    0.89619160   -1.13763959    2.14414463
| 41> C    0.93164831   -1.28998134    0.00000000
| 42> H    1.16848573   -2.34521369   -0.00000000
| 43> O   -2.92771125   -0.28990245   -0.00000000
| 44> H   -2.76290725   -1.23462398   -0.00000000
| 45> H   -2.04041030    0.08168787   -0.00000000
| 46> *
| 47>
| 48> $new_job
| 49> ! ri-mp2 aug-cc-pvqz aug-cc-pvqz/c tightscf
| 50> %pal nprocs 16 end
| 51> %maxcore 3800
| 52> %base "QZ_S66by10_54_1.05_dimer"
| 53>
| 54> *xyz 0 1
| 55> C    0.78014717   -0.60991473   -1.20755689
| 56> H    0.89619160   -1.13763959   -2.14414463
| 57> C    0.47794275    0.75099363   -1.20789541
| 58> H    0.35696423    1.27816780   -2.14405407
| 59> C    0.32728928    1.43186787   -0.00000000
| 60> H    0.09146503    2.48713922    0.00000000
| 61> C    0.47794275    0.75099363    1.20789541
| 62> H    0.35696423    1.27816780    2.14405407
| 63> C    0.78014717   -0.60991473    1.20755689
| 64> H    0.89619160   -1.13763959    2.14414463
| 65> C    0.93164831   -1.28998134    0.00000000
| 66> H    1.16848573   -2.34521369   -0.00000000
| 67> O   -2.92771125   -0.28990245   -0.00000000
| 68> H   -2.76290725   -1.23462398   -0.00000000
| 69> H   -2.04041030    0.08168787   -0.00000000
| 70> *
| 71>
| 72>
| 73>
| 74>
| 75>                          ****END OF INPUT****
 Total Charge           Charge          ....    0
 Multiplicity           Mult            ....    1
 Number of Electrons    NEL             ....   52
MP2 TOTAL ENERGY:     -307.806178116 Eh
FINAL SINGLE POINT ENERGY      -307.806178115998
MP2 TOTAL ENERGY:     -308.079721969 Eh
FINAL SINGLE POINT ENERGY      -308.079721969280

CARTESIAN COORDINATES (ANGSTROEM)
---------------------------------
  C      0.780147   -0.609915   -1.207557
  H      0.896192   -1.137640   -2.144145
  C      0.477943    0.750994   -1.207895
  H      0.356964    1.278168   -2.144054
  C      0.327289    1.431868   -0.000000
  H      0.091465    2.487139    0.000000
  C      0.477943    0.750994    1.207895
  H      0.356964    1.278168    2.144054
  C      0.780147   -0.609915    1.207557
  H      0.896192   -1.137640    2.144145
  C      0.931648   -1.289981    0.000000
  H      1.168486   -2.345214   -0.000000
  O     -2.927711   -0.289902   -0.000000
  H     -2.762907   -1.234624   -0.000000
  H     -2.040410    0.081688   -0.000000

 Multiplicity           Mult            ....    1
 Number of Electrons    NEL             ....   52
 Basis Dimension        Dim             ....  928

ORBITAL ENERGIES
----------------

  NO   OCC          E(Eh)            E(eV)
   0   2.0000     -20.546239      -559.0916
   1   2.0000     -11.246308      -306.0276
   2   2.0000     -11.245746      -306.0123
   3   2.0000     -11.245636      -306.0093
   4   2.0000     -11.244496      -305.9783
   5   2.0000     -11.244392      -305.9755
   6   2.0000     -11.243818      -305.9598
   7   2.0000      -1.333740       -36.2929
   8   2.0000      -1.161852       -31.6156
   9   2.0000      -1.025925       -27.9169
  10   2.0000      -1.025726       -27.9114
  11   2.0000      -0.834864       -22.7178
  12   2.0000      -0.834742       -22.7145
  13   2.0000      -0.720490       -19.6055
  14   2.0000      -0.694989       -18.9116
  15   2.0000      -0.654396       -17.8070
  16   2.0000      -0.630047       -17.1444
  17   2.0000      -0.598883       -16.2964
  18   2.0000      -0.598800       -16.2942
  19   2.0000      -0.571890       -15.5619
  20   2.0000      -0.513179       -13.9643
  21   2.0000      -0.505552       -13.7568
  22   2.0000      -0.505429       -13.7534
  23   2.0000      -0.492660       -13.4060
  24   2.0000      -0.349739        -9.5169
  25   2.0000      -0.348593        -9.4857
  26   0.0000       0.022755         0.6192
  27   0.0000       0.028755         0.7825
  28   0.0000       0.028866         0.7855
  29   0.0000       0.040869         1.1121
  30   0.0000       0.040975         1.1150

MULLIKEN ATOMIC CHARGES
-----------------------
   0 C :   -0.329664
   1 H :    0.333923
   2 C :   -0.364984
   3 H :    0.315963
   4 C :   -0.189889
   5 H :    0.301038
   6 C :   -0.364984
   7 H :    0.315963
   8 C :   -0.329664
   9 H :    0.333923
  10 C :   -0.350521
  11 H :    0.312706
  12 O :   -0.656928
  13 H :    0.324700
  14 H :    0.348419
Sum of atomic charges:   -0.0000000

LOEWDIN ATOMIC CHARGES
----------------------
   0 C :    0.328292
   1 H :   -0.323036
   2 C :    0.327069
   3 H :   -0.320318
   4 C :    0.324069
   5 H :   -0.319537
   6 C :    0.327069
   7 H :   -0.320318
   8 C :    0.328292
   9 H :   -0.323036
  10 C :    0.327313
  11 H :   -0.324433
  12 O :    1.624241
  13 H :   -0.790160
  14 H :   -0.865508

  Mayer bond orders larger than 0.100000
B(  0-C ,  1-H ) :   1.0214 B(  0-C ,  2-C ) :   1.2000 B(  0-C ,  6-C ) :   0.1404
B(  0-C , 10-C ) :   1.1881 B(  2-C ,  3-H ) :   1.0467 B(  2-C ,  4-C ) :   1.2031
B(  2-C ,  8-C ) :   0.1404 B(  4-C ,  5-H ) :   1.0720 B(  4-C ,  6-C ) :   1.2031
B(  4-C , 10-C ) :   0.1443 B(  6-C ,  7-H ) :   1.0467 B(  6-C ,  8-C ) :   1.2000
B(  8-C ,  9-H ) :   1.0214 B(  8-C , 10-C ) :   1.1881 B( 10-C , 11-H ) :   1.0344
B( 12-O , 13-H ) :   0.9256 B( 12-O , 14-H ) :   0.9160

MP2 TOTAL ENERGY:     -308.167343188 Eh
FINAL SINGLE POINT ENERGY      -308.167343188170

DIPOLE MOMENT
-------------
                                X             Y             Z
Electronic contribution:      1.67994       0.33752      -0.00000
Nuclear contribution   :     -0.81731      -0.66715      -0.00000
                        -----------------------------------------
Total Dipole Moment    :      0.86263      -0.32963      -0.00000
                        -----------------------------------------
Magnitude (a.u.)       :      0.92346
Magnitude (Debye)      :      2.34726

Rotational constants in cm-1:     0.095644     0.062044     0.061823
Rotational constants in MHz :  2867.345234  1860.026365  1853.394232

                             ****ORCA TERMINATED NORMALLY****
TOTAL RUN TIME: 0 days 0 hours 20 minutes 25 seconds 354 msec
