                         Program Version 5.0.4 -  RELEASE  -
|  1> ! ri-mp2 aug-cc-pvdz aug-cc-pvdz/c tightscf
|  2> %pal nprocs 16 end
|  3> %maxcore 3800
|  4> %base "DZ_S66by10_5_1.5_dimer"
|  5> %scf STABPerform true end
|  6>
|  7> *xyz 0 1
|  8> O   -0.63613493   -0.02328241    0.28059932
|  9> H    0.30809737   -0.04707875    0.07646369
| 10> C   -1.15206541   -1.31128778    0.01525955
| 11> H   -2.20994502   -1.29626539    0.26395586
| 12> H   -1.05661024   -1.59267086   -1.03619061
| 13> H   -0.67483575   -2.08627276    0.62051145
| 14> O    3.20791714   -0.16147119   -0.05854321
| 15> H    3.67670645    0.45291334   -0.62820916
| 16> C    3.71675107   -0.00445225    1.26317412
| 17> H    3.16318199   -0.69264868    1.89330500
| 18> H    4.77574717   -0.25489115    1.31989726
| 19> H    3.56431143    1.00624180    1.64106667
| 20> *
| 21>
| 22> $new_job
| 23> ! ri-mp2 aug-cc-pvtz aug-cc-pvtz/c tightscf
| 24> %pal nprocs 16 end
| 25> %maxcore 3800
| 26> %base "TZ_S66by10_5_1.5_dimer"
| 27>
| 28> *xyz 0 1
| 29> O   -0.63613493   -0.02328241    0.28059932
| 30> H    0.30809737   -0.04707875    0.07646369
| 31> C   -1.15206541   -1.31128778    0.01525955
| 32> H   -2.20994502   -1.29626539    0.26395586
| 33> H   -1.05661024   -1.59267086   -1.03619061
| 34> H   -0.67483575   -2.08627276    0.62051145
| 35> O    3.20791714   -0.16147119   -0.05854321
| 36> H    3.67670645    0.45291334   -0.62820916
| 37> C    3.71675107   -0.00445225    1.26317412
| 38> H    3.16318199   -0.69264868    1.89330500
| 39> H    4.77574717   -0.25489115    1.31989726
| 40> H    3.56431143    1.00624180    1.64106667
| 41> *
| 42>
| 43> $new_job
| 44> ! ri-mp2 aug-cc-pvqz aug-cc-pvqz/c tightscf
| 45> %pal nprocs 16 end
| 46> %maxcore 3800
| 47> %base "QZ_S66by10_5_1.5_dimer"
| 48>
| 49> *xyz 0 1
| 50> O   -0.63613493   -0.02328241    0.28059932
| 51> H    0.30809737   -0.04707875    0.07646369
| 52> C   -1.15206541   -1.31128778    0.01525955
| 53> H   -2.20994502   -1.29626539    0.26395586
| 54> H   -1.05661024   -1.59267086   -1.03619061
| 55> H   -0.67483575   -2.08627276    0.62051145
| 56> O    3.20791714   -0.16147119   -0.05854321
| 57> H    3.67670645    0.45291334   -0.62820916
| 58> C    3.71675107   -0.00445225    1.26317412
| 59> H    3.16318199   -0.69264868    1.89330500
| 60> H    4.77574717   -0.25489115    1.31989726
| 61> H    3.56431143    1.00624180    1.64106667
| 62> *
| 63>
| 64>
| 65>
| 66>
| 67>                          ****END OF INPUT****
 Total Charge           Charge          ....    0
 Multiplicity           Mult            ....    1
 Number of Electrons    NEL             ....   36
MP2 TOTAL ENERGY:     -230.847253009 Eh
FINAL SINGLE POINT ENERGY      -230.847253008781
MP2 TOTAL ENERGY:     -231.062052607 Eh
FINAL SINGLE POINT ENERGY      -231.062052606921

CARTESIAN COORDINATES (ANGSTROEM)
---------------------------------
  O     -0.636135   -0.023282    0.280599
  H      0.308097   -0.047079    0.076464
  C     -1.152065   -1.311288    0.015260
  H     -2.209945   -1.296265    0.263956
  H     -1.056610   -1.592671   -1.036191
  H     -0.674836   -2.086273    0.620511
  O      3.207917   -0.161471   -0.058543
  H      3.676706    0.452913   -0.628209
  C      3.716751   -0.004452    1.263174
  H      3.163182   -0.692649    1.893305
  H      4.775747   -0.254891    1.319897
  H      3.564311    1.006242    1.641067

 Multiplicity           Mult            ....    1
 Number of Electrons    NEL             ....   36
 Basis Dimension        Dim             ....  688

ORBITAL ENERGIES
----------------

  NO   OCC          E(Eh)            E(eV)
   0   2.0000     -20.567316      -559.6651
   1   2.0000     -20.545538      -559.0725
   2   2.0000     -11.276782      -306.8568
   3   2.0000     -11.259722      -306.3926
   4   2.0000      -1.366392       -37.1814
   5   2.0000      -1.347238       -36.6602
   6   2.0000      -0.934543       -25.4302
   7   2.0000      -0.914806       -24.8931
   8   2.0000      -0.700530       -19.0624
   9   2.0000      -0.680784       -18.5251
  10   2.0000      -0.629586       -17.1319
  11   2.0000      -0.610493       -16.6124
  12   2.0000      -0.601953       -16.3800
  13   2.0000      -0.584833       -15.9141
  14   2.0000      -0.515056       -14.0154
  15   2.0000      -0.493813       -13.4373
  16   2.0000      -0.462654       -12.5895
  17   2.0000      -0.440143       -11.9769
  18   0.0000       0.023015         0.6263
  19   0.0000       0.034841         0.9481
  20   0.0000       0.035944         0.9781
  21   0.0000       0.040489         1.1018
  22   0.0000       0.048994         1.3332

MULLIKEN ATOMIC CHARGES
-----------------------
   0 O :   -0.711682
   1 H :    0.351161
   2 C :   -0.461628
   3 H :    0.343278
   4 H :    0.242445
   5 H :    0.240164
   6 O :   -0.726041
   7 H :    0.351755
   8 C :   -0.493927
   9 H :    0.289119
  10 H :    0.316291
  11 H :    0.259064
Sum of atomic charges:   -0.0000000

LOEWDIN ATOMIC CHARGES
----------------------
   0 O :    1.226102
   1 H :   -0.822431
   2 C :    0.561708
   3 H :   -0.344174
   4 H :   -0.320084
   5 H :   -0.320690
   6 O :    1.228016
   7 H :   -0.810807
   8 C :    0.584801
   9 H :   -0.343360
  10 H :   -0.319684
  11 H :   -0.319395

  Mayer bond orders larger than 0.100000
B(  0-O ,  1-H ) :   0.9077 B(  0-O ,  2-C ) :   0.8439 B(  2-C ,  3-H ) :   0.8736
B(  2-C ,  4-H ) :   0.9329 B(  2-C ,  5-H ) :   0.9249 B(  6-O ,  7-H ) :   0.8883
B(  6-O ,  8-C ) :   0.8263 B(  8-C ,  9-H ) :   0.9011 B(  8-C , 10-H ) :   0.8901
B(  8-C , 11-H ) :   0.9229

MP2 TOTAL ENERGY:     -231.130112260 Eh
FINAL SINGLE POINT ENERGY      -231.130112260261

DIPOLE MOMENT
-------------
                                X             Y             Z
Electronic contribution:     -0.06258       1.40804      -1.18755
Nuclear contribution   :      1.04240      -1.49422       1.18232
                        -----------------------------------------
Total Dipole Moment    :      0.97982      -0.08619      -0.00523
                        -----------------------------------------
Magnitude (a.u.)       :      0.98361
Magnitude (Debye)      :      2.50015

Rotational constants in cm-1:     0.514354     0.050079     0.049415
Rotational constants in MHz : 15419.944297  1501.344132  1481.420622

                             ****ORCA TERMINATED NORMALLY****
TOTAL RUN TIME: 0 days 0 hours 14 minutes 5 seconds 997 msec
