                         Program Version 5.0.4 -  RELEASE  -
|  1> ! ri-mp2 aug-cc-pvdz aug-cc-pvdz/c tightscf
|  2> %pal nprocs 16 end
|  3> %maxcore 3800
|  4> %base "DZ_S66by10_23_1.25_dimer"
|  5> %scf STABPerform true end
|  6>
|  7> *xyz 0 1
|  8> C   -1.23272700    1.21163896   -0.14162406
|  9> O   -0.57127667    2.24201573    0.02561679
| 10> N   -0.67058051    0.00388878   -0.31428147
| 11> H    0.34384695   -0.09056011   -0.30832667
| 12> H   -1.24421373   -0.80632370   -0.44668271
| 13> C   -2.73824495    1.26675766   -0.15588657
| 14> H   -3.07797534    1.64660511    0.80450159
| 15> H   -3.20211503    0.30286549   -0.34621112
| 16> H   -3.04998747    1.97549049   -0.91859737
| 17> N    4.63474639    1.12404339   -0.11400723
| 18> H    5.12477584    0.24808621   -0.23194570
| 19> C    5.43837240    2.26688833    0.03647446
| 20> O    6.65393443    2.17126600    0.02128969
| 21> C    4.66578023    3.48220481    0.19961840
| 22> H    5.18754322    4.41539767    0.32265352
| 23> C    3.31661952    3.42052928    0.19394164
| 24> H    2.69621546    4.29688967    0.31161854
| 25> N    2.63153741    2.24824777    0.03937588
| 26> H    1.59874693    2.23918671    0.03853856
| 27> C    3.26242737    1.04377827   -0.12288416
| 28> O    2.66523864   -0.02013769   -0.26469165
| 29> *
| 30>
| 31> $new_job
| 32> ! ri-mp2 aug-cc-pvtz aug-cc-pvtz/c tightscf
| 33> %pal nprocs 16 end
| 34> %maxcore 3800
| 35> %base "TZ_S66by10_23_1.25_dimer"
| 36>
| 37> *xyz 0 1
| 38> C   -1.23272700    1.21163896   -0.14162406
| 39> O   -0.57127667    2.24201573    0.02561679
| 40> N   -0.67058051    0.00388878   -0.31428147
| 41> H    0.34384695   -0.09056011   -0.30832667
| 42> H   -1.24421373   -0.80632370   -0.44668271
| 43> C   -2.73824495    1.26675766   -0.15588657
| 44> H   -3.07797534    1.64660511    0.80450159
| 45> H   -3.20211503    0.30286549   -0.34621112
| 46> H   -3.04998747    1.97549049   -0.91859737
| 47> N    4.63474639    1.12404339   -0.11400723
| 48> H    5.12477584    0.24808621   -0.23194570
| 49> C    5.43837240    2.26688833    0.03647446
| 50> O    6.65393443    2.17126600    0.02128969
| 51> C    4.66578023    3.48220481    0.19961840
| 52> H    5.18754322    4.41539767    0.32265352
| 53> C    3.31661952    3.42052928    0.19394164
| 54> H    2.69621546    4.29688967    0.31161854
| 55> N    2.63153741    2.24824777    0.03937588
| 56> H    1.59874693    2.23918671    0.03853856
| 57> C    3.26242737    1.04377827   -0.12288416
| 58> O    2.66523864   -0.02013769   -0.26469165
| 59> *
| 60>
| 61> $new_job
| 62> ! ri-mp2 aug-cc-pvqz aug-cc-pvqz/c tightscf
| 63> %pal nprocs 16 end
| 64> %maxcore 3800
| 65> %base "QZ_S66by10_23_1.25_dimer"
| 66>
| 67> *xyz 0 1
| 68> C   -1.23272700    1.21163896   -0.14162406
| 69> O   -0.57127667    2.24201573    0.02561679
| 70> N   -0.67058051    0.00388878   -0.31428147
| 71> H    0.34384695   -0.09056011   -0.30832667
| 72> H   -1.24421373   -0.80632370   -0.44668271
| 73> C   -2.73824495    1.26675766   -0.15588657
| 74> H   -3.07797534    1.64660511    0.80450159
| 75> H   -3.20211503    0.30286549   -0.34621112
| 76> H   -3.04998747    1.97549049   -0.91859737
| 77> N    4.63474639    1.12404339   -0.11400723
| 78> H    5.12477584    0.24808621   -0.23194570
| 79> C    5.43837240    2.26688833    0.03647446
| 80> O    6.65393443    2.17126600    0.02128969
| 81> C    4.66578023    3.48220481    0.19961840
| 82> H    5.18754322    4.41539767    0.32265352
| 83> C    3.31661952    3.42052928    0.19394164
| 84> H    2.69621546    4.29688967    0.31161854
| 85> N    2.63153741    2.24824777    0.03937588
| 86> H    1.59874693    2.23918671    0.03853856
| 87> C    3.26242737    1.04377827   -0.12288416
| 88> O    2.66523864   -0.02013769   -0.26469165
| 89> *
| 90>
| 91>
| 92>
| 93>
| 94>                          ****END OF INPUT****
 Total Charge           Charge          ....    0
 Multiplicity           Mult            ....    1
 Number of Electrons    NEL             ....   90
MP2 TOTAL ENERGY:     -622.470435052 Eh
FINAL SINGLE POINT ENERGY      -622.470435051645
MP2 TOTAL ENERGY:     -623.002614085 Eh
FINAL SINGLE POINT ENERGY      -623.002614085490

CARTESIAN COORDINATES (ANGSTROEM)
---------------------------------
  C     -1.232727    1.211639   -0.141624
  O     -0.571277    2.242016    0.025617
  N     -0.670581    0.003889   -0.314281
  H      0.343847   -0.090560   -0.308327
  H     -1.244214   -0.806324   -0.446683
  C     -2.738245    1.266758   -0.155887
  H     -3.077975    1.646605    0.804502
  H     -3.202115    0.302865   -0.346211
  H     -3.049987    1.975490   -0.918597
  N      4.634746    1.124043   -0.114007
  H      5.124776    0.248086   -0.231946
  C      5.438372    2.266888    0.036474
  O      6.653934    2.171266    0.021290
  C      4.665780    3.482205    0.199618
  H      5.187543    4.415398    0.322654
  C      3.316620    3.420529    0.193942
  H      2.696215    4.296890    0.311619
  N      2.631537    2.248248    0.039376
  H      1.598747    2.239187    0.038539
  C      3.262427    1.043778   -0.122884
  O      2.665239   -0.020138   -0.264692

 Multiplicity           Mult            ....    1
 Number of Electrons    NEL             ....   90
 Basis Dimension        Dim             .... 1374

ORBITAL ENERGIES
----------------

  NO   OCC          E(Eh)            E(eV)
   0   2.0000     -20.539327      -558.9035
   1   2.0000     -20.531684      -558.6955
   2   2.0000     -20.527936      -558.5935
   3   2.0000     -15.628542      -425.2743
   4   2.0000     -15.619655      -425.0324
   5   2.0000     -15.593997      -424.3342
   6   2.0000     -11.412110      -310.5393
   7   2.0000     -11.372135      -309.4515
   8   2.0000     -11.367044      -309.3130
   9   2.0000     -11.328407      -308.2616
  10   2.0000     -11.246169      -306.0238
  11   2.0000     -11.244096      -305.9674
  12   2.0000      -1.427240       -38.8372
  13   2.0000      -1.389470       -37.8094
  14   2.0000      -1.386735       -37.7350
  15   2.0000      -1.302966       -35.4555
  16   2.0000      -1.237144       -33.6644
  17   2.0000      -1.225945       -33.3597
  18   2.0000      -1.077872       -29.3304
  19   2.0000      -1.016850       -27.6699
  20   2.0000      -0.925471       -25.1833
  21   2.0000      -0.891947       -24.2711
  22   2.0000      -0.812875       -22.1195
  23   2.0000      -0.793807       -21.6006
  24   2.0000      -0.757493       -20.6124
  25   2.0000      -0.736851       -20.0507
  26   2.0000      -0.705151       -19.1881
  27   2.0000      -0.681960       -18.5571
  28   2.0000      -0.667470       -18.1628
  29   2.0000      -0.661921       -18.0118
  30   2.0000      -0.645634       -17.5686
  31   2.0000      -0.627826       -17.0840
  32   2.0000      -0.605134       -16.4665
  33   2.0000      -0.596209       -16.2237
  34   2.0000      -0.591952       -16.1078
  35   2.0000      -0.573592       -15.6082
  36   2.0000      -0.563407       -15.3311
  37   2.0000      -0.536260       -14.5924
  38   2.0000      -0.515066       -14.0157
  39   2.0000      -0.480889       -13.0856
  40   2.0000      -0.444700       -12.1009
  41   2.0000      -0.440401       -11.9839
  42   2.0000      -0.432778       -11.7765
  43   2.0000      -0.427322       -11.6280
  44   2.0000      -0.359298        -9.7770
  45   0.0000       0.017743         0.4828
  46   0.0000       0.026203         0.7130
  47   0.0000       0.031404         0.8545
  48   0.0000       0.037604         1.0233
  49   0.0000       0.039112         1.0643

MULLIKEN ATOMIC CHARGES
-----------------------
   0 C :    0.822388
   1 O :   -0.894908
   2 N :   -0.658623
   3 H :    0.349392
   4 H :    0.256430
   5 C :   -0.667649
   6 H :    0.281913
   7 H :    0.264025
   8 H :    0.272955
   9 N :   -0.675859
  10 H :    0.137009
  11 C :    1.134367
  12 O :   -0.819268
  13 C :   -0.426780
  14 H :    0.298722
  15 C :   -0.232222
  16 H :    0.374646
  17 N :   -0.504056
  18 H :    0.182395
  19 C :    1.361683
  20 O :   -0.856558
Sum of atomic charges:   -0.0000000

LOEWDIN ATOMIC CHARGES
----------------------
   0 C :   -0.811692
   1 O :    0.720364
   2 N :    1.249771
   3 H :   -0.567935
   4 H :   -0.499015
   5 C :    0.887889
   6 H :   -0.298185
   7 H :   -0.313535
   8 H :   -0.300526
   9 N :    0.777129
  10 H :   -0.520905
  11 C :   -0.865672
  12 O :    0.678301
  13 C :    0.335020
  14 H :   -0.355726
  15 C :    0.237245
  16 H :   -0.294573
  17 N :    0.805624
  18 H :   -0.599168
  19 C :   -0.978353
  20 O :    0.713943

  Mayer bond orders larger than 0.100000
B(  0-C ,  1-O ) :   1.4539 B(  0-C ,  2-N ) :   1.0770 B(  0-C ,  5-C ) :   0.7248
B(  0-C ,  7-H ) :  -0.1246 B(  1-O ,  2-N ) :   0.1399 B(  2-N ,  3-H ) :   0.8639
B(  2-N ,  4-H ) :   1.0041 B(  5-C ,  6-H ) :   0.9387 B(  5-C ,  7-H ) :   1.0064
B(  5-C ,  8-H ) :   0.9573 B(  9-N , 10-H ) :   1.1706 B(  9-N , 11-C ) :   1.0084
B(  9-N , 12-O ) :   0.1607 B(  9-N , 19-C ) :   1.0151 B(  9-N , 20-O ) :   0.1210
B( 11-C , 12-O ) :   1.0606 B( 11-C , 13-C ) :   1.1837 B( 11-C , 15-C ) :  -0.1415
B( 12-O , 13-C ) :   0.2696 B( 13-C , 14-H ) :   0.9932 B( 13-C , 15-C ) :   1.4344
B( 14-H , 15-C ) :  -0.1194 B( 15-C , 16-H ) :   0.9460 B( 15-C , 17-N ) :   0.9293
B( 17-N , 18-H ) :   1.0928 B( 17-N , 19-C ) :   1.1273 B( 17-N , 20-O ) :   0.1687
B( 19-C , 20-O ) :   1.2786

MP2 TOTAL ENERGY:     -623.177038965 Eh
FINAL SINGLE POINT ENERGY      -623.177038964833

DIPOLE MOMENT
-------------
                                X             Y             Z
Electronic contribution:     12.73130       0.55251       0.20058
Nuclear contribution   :    -15.07883      -0.69774      -0.25509
                        -----------------------------------------
Total Dipole Moment    :     -2.34752      -0.14524      -0.05451
                        -----------------------------------------
Magnitude (a.u.)       :      2.35264
Magnitude (Debye)      :      5.97995

Rotational constants in cm-1:     0.088445     0.011528     0.010218
Rotational constants in MHz :  2651.518309   345.601282   306.336049

                             ****ORCA TERMINATED NORMALLY****
TOTAL RUN TIME: 0 days 6 hours 22 minutes 56 seconds 698 msec
