                         Program Version 5.0.4 -  RELEASE  -
|  1> ! ri-mp2 aug-cc-pvdz aug-cc-pvdz/c tightscf
|  2> %pal nprocs 16 end
|  3> %maxcore 3800
|  4> %base "DZ_S66by10_12_0.8_dimer"
|  5> %scf STABPerform true end
|  6>
|  7> *xyz 0 1
|  8> N   -0.53346397   -0.27959351    0.10699576
|  9> H   -0.62915138   -1.24842455    0.38284867
| 10> H   -1.12260363   -0.16615944   -0.70776410
| 11> C   -1.01690943    0.58848610    1.18737346
| 12> H   -0.91275967    1.62555174    0.87952116
| 13> H   -2.05473726    0.41508213    1.47850360
| 14> H   -0.38502338    0.44880090    2.06061419
| 15> O    1.76014622    0.78830724    0.22462723
| 16> H    0.94262881    0.29203475    0.05147433
| 17> H    2.34204767    0.52980937   -0.49111886
| 18> *
| 19>
| 20> $new_job
| 21> ! ri-mp2 aug-cc-pvtz aug-cc-pvtz/c tightscf
| 22> %pal nprocs 16 end
| 23> %maxcore 3800
| 24> %base "TZ_S66by10_12_0.8_dimer"
| 25>
| 26> *xyz 0 1
| 27> N   -0.53346397   -0.27959351    0.10699576
| 28> H   -0.62915138   -1.24842455    0.38284867
| 29> H   -1.12260363   -0.16615944   -0.70776410
| 30> C   -1.01690943    0.58848610    1.18737346
| 31> H   -0.91275967    1.62555174    0.87952116
| 32> H   -2.05473726    0.41508213    1.47850360
| 33> H   -0.38502338    0.44880090    2.06061419
| 34> O    1.76014622    0.78830724    0.22462723
| 35> H    0.94262881    0.29203475    0.05147433
| 36> H    2.34204767    0.52980937   -0.49111886
| 37> *
| 38>
| 39> $new_job
| 40> ! ri-mp2 aug-cc-pvqz aug-cc-pvqz/c tightscf
| 41> %pal nprocs 16 end
| 42> %maxcore 3800
| 43> %base "QZ_S66by10_12_0.8_dimer"
| 44>
| 45> *xyz 0 1
| 46> N   -0.53346397   -0.27959351    0.10699576
| 47> H   -0.62915138   -1.24842455    0.38284867
| 48> H   -1.12260363   -0.16615944   -0.70776410
| 49> C   -1.01690943    0.58848610    1.18737346
| 50> H   -0.91275967    1.62555174    0.87952116
| 51> H   -2.05473726    0.41508213    1.47850360
| 52> H   -0.38502338    0.44880090    2.06061419
| 53> O    1.76014622    0.78830724    0.22462723
| 54> H    0.94262881    0.29203475    0.05147433
| 55> H    2.34204767    0.52980937   -0.49111886
| 56> *
| 57>
| 58>
| 59>
| 60>
| 61>                          ****END OF INPUT****
 Total Charge           Charge          ....    0
 Multiplicity           Mult            ....    1
 Number of Electrons    NEL             ....   28
MP2 TOTAL ENERGY:     -171.841215029 Eh
FINAL SINGLE POINT ENERGY      -171.841215029282
MP2 TOTAL ENERGY:     -172.003315399 Eh
FINAL SINGLE POINT ENERGY      -172.003315398564

CARTESIAN COORDINATES (ANGSTROEM)
---------------------------------
  N     -0.533464   -0.279594    0.106996
  H     -0.629151   -1.248425    0.382849
  H     -1.122604   -0.166159   -0.707764
  C     -1.016909    0.588486    1.187373
  H     -0.912760    1.625552    0.879521
  H     -2.054737    0.415082    1.478504
  H     -0.385023    0.448801    2.060614
  O      1.760146    0.788307    0.224627
  H      0.942629    0.292035    0.051474
  H      2.342048    0.529809   -0.491119

 Multiplicity           Mult            ....    1
 Number of Electrons    NEL             ....   28
 Basis Dimension        Dim             ....  562

ORBITAL ENERGIES
----------------

  NO   OCC          E(Eh)            E(eV)
   0   2.0000     -20.498701      -557.7980
   1   2.0000     -15.564711      -423.5373
   2   2.0000     -11.251011      -306.1556
   3   2.0000      -1.298095       -35.3229
   4   2.0000      -1.199596       -32.6427
   5   2.0000      -0.913816       -24.8662
   6   2.0000      -0.694629       -18.9018
   7   2.0000      -0.688099       -18.7241
   8   2.0000      -0.609094       -16.5743
   9   2.0000      -0.571082       -15.5399
  10   2.0000      -0.542030       -14.7494
  11   2.0000      -0.532298       -14.4846
  12   2.0000      -0.453393       -12.3375
  13   2.0000      -0.417551       -11.3621
  14   0.0000       0.020540         0.5589
  15   0.0000       0.034560         0.9404
  16   0.0000       0.037534         1.0214
  17   0.0000       0.041515         1.1297
  18   0.0000       0.055711         1.5160

MULLIKEN ATOMIC CHARGES
-----------------------
   0 N :   -0.260334
   1 H :    0.170609
   2 H :    0.168562
   3 C :   -0.802789
   4 H :    0.270572
   5 H :    0.368529
   6 H :    0.273451
   7 O :   -0.724359
   8 H :    0.267467
   9 H :    0.268292
Sum of atomic charges:   -0.0000000

LOEWDIN ATOMIC CHARGES
----------------------
   0 N :    1.277083
   1 H :   -0.442270
   2 H :   -0.442949
   3 C :    0.807135
   4 H :   -0.291697
   5 H :   -0.277901
   6 H :   -0.292178
   7 O :    1.620658
   8 H :   -1.182773
   9 H :   -0.775109

  Mayer bond orders larger than 0.100000
B(  0-N ,  1-H ) :   1.0088 B(  0-N ,  2-H ) :   1.0138 B(  0-N ,  3-C ) :   0.9980
B(  0-N ,  8-H ) :   0.1752 B(  3-C ,  4-H ) :   0.9373 B(  3-C ,  5-H ) :   0.8315
B(  3-C ,  6-H ) :   0.9355 B(  7-O ,  8-H ) :   0.8507 B(  7-O ,  9-H ) :   1.0080

MP2 TOTAL ENERGY:     -172.054788486 Eh
FINAL SINGLE POINT ENERGY      -172.054788486275

DIPOLE MOMENT
-------------
                                X             Y             Z
Electronic contribution:      1.46563      -0.16156      -0.74585
Nuclear contribution   :     -2.57537      -0.58327       0.33956
                        -----------------------------------------
Total Dipole Moment    :     -1.10975      -0.74483      -0.40629
                        -----------------------------------------
Magnitude (a.u.)       :      1.39692
Magnitude (Debye)      :      3.55068

Rotational constants in cm-1:     0.757760     0.191291     0.161119
Rotational constants in MHz : 22717.077725  5734.772982  4830.231352

                             ****ORCA TERMINATED NORMALLY****
TOTAL RUN TIME: 0 days 0 hours 16 minutes 43 seconds 413 msec
