                         Program Version 5.0.4 -  RELEASE  -
|  1> ! ri-mp2 aug-cc-pvdz aug-cc-pvdz/c tightscf
|  2> %pal nprocs 16 end
|  3> %maxcore 3800
|  4> %base "DZ_S66by10_42_1.1_dimer"
|  5> %scf STABPerform true end
|  6>
|  7> *xyz 0 1
|  8> N    0.19572959   -0.84468925    0.82384642
|  9> H    0.45039753   -1.79675294    1.04976794
| 10> C   -1.17904919   -0.57368440    0.75948349
| 11> O   -1.99364624   -1.45626527    0.96690066
| 12> C   -1.47671471    0.81115567    0.43755952
| 13> H   -2.50635592    1.11565059    0.36389469
| 14> C   -0.46811280    1.68296245    0.23489084
| 15> H   -0.63843522    2.72164296   -0.00616410
| 16> N    0.84562854    1.30599113    0.32683051
| 17> H    1.58969256    1.96887924    0.18595979
| 18> C    1.25426147    0.01946187    0.63624397
| 19> O    2.42230438   -0.30171639    0.73187948
| 20> C    1.06687525   -0.86904202    4.72816975
| 21> H    1.52072776   -0.96109826    3.74018720
| 22> H    1.61137775   -1.53302229    5.39736742
| 23> C    1.12118872    0.59690998    5.16110573
| 24> H    2.07947871    1.06980891    4.95038144
| 25> H    0.93307343    0.67854752    6.23432887
| 26> C   -0.04616287    1.20972445    4.39033453
| 27> H    0.22814141    1.29850606    3.33686291
| 28> H   -0.33057729    2.20086558    4.74196855
| 29> C   -1.16310736    0.17215255    4.56136285
| 30> H   -1.88864664    0.19576640    3.74999094
| 31> H   -1.70719299    0.37684970    5.48361146
| 32> C   -0.44007101   -1.19439528    4.66501973
| 33> H   -0.68273556   -1.83855141    3.82166006
| 34> H   -0.75517724   -1.72179770    5.56410615
| 35> *
| 36>
| 37> $new_job
| 38> ! ri-mp2 aug-cc-pvtz aug-cc-pvtz/c tightscf
| 39> %pal nprocs 16 end
| 40> %maxcore 3800
| 41> %base "TZ_S66by10_42_1.1_dimer"
| 42>
| 43> *xyz 0 1
| 44> N    0.19572959   -0.84468925    0.82384642
| 45> H    0.45039753   -1.79675294    1.04976794
| 46> C   -1.17904919   -0.57368440    0.75948349
| 47> O   -1.99364624   -1.45626527    0.96690066
| 48> C   -1.47671471    0.81115567    0.43755952
| 49> H   -2.50635592    1.11565059    0.36389469
| 50> C   -0.46811280    1.68296245    0.23489084
| 51> H   -0.63843522    2.72164296   -0.00616410
| 52> N    0.84562854    1.30599113    0.32683051
| 53> H    1.58969256    1.96887924    0.18595979
| 54> C    1.25426147    0.01946187    0.63624397
| 55> O    2.42230438   -0.30171639    0.73187948
| 56> C    1.06687525   -0.86904202    4.72816975
| 57> H    1.52072776   -0.96109826    3.74018720
| 58> H    1.61137775   -1.53302229    5.39736742
| 59> C    1.12118872    0.59690998    5.16110573
| 60> H    2.07947871    1.06980891    4.95038144
| 61> H    0.93307343    0.67854752    6.23432887
| 62> C   -0.04616287    1.20972445    4.39033453
| 63> H    0.22814141    1.29850606    3.33686291
| 64> H   -0.33057729    2.20086558    4.74196855
| 65> C   -1.16310736    0.17215255    4.56136285
| 66> H   -1.88864664    0.19576640    3.74999094
| 67> H   -1.70719299    0.37684970    5.48361146
| 68> C   -0.44007101   -1.19439528    4.66501973
| 69> H   -0.68273556   -1.83855141    3.82166006
| 70> H   -0.75517724   -1.72179770    5.56410615
| 71> *
| 72>
| 73> $new_job
| 74> ! ri-mp2 aug-cc-pvqz aug-cc-pvqz/c tightscf
| 75> %pal nprocs 16 end
| 76> %maxcore 3800
| 77> %base "QZ_S66by10_42_1.1_dimer"
| 78>
| 79> *xyz 0 1
| 80> N    0.19572959   -0.84468925    0.82384642
| 81> H    0.45039753   -1.79675294    1.04976794
| 82> C   -1.17904919   -0.57368440    0.75948349
| 83> O   -1.99364624   -1.45626527    0.96690066
| 84> C   -1.47671471    0.81115567    0.43755952
| 85> H   -2.50635592    1.11565059    0.36389469
| 86> C   -0.46811280    1.68296245    0.23489084
| 87> H   -0.63843522    2.72164296   -0.00616410
| 88> N    0.84562854    1.30599113    0.32683051
| 89> H    1.58969256    1.96887924    0.18595979
| 90> C    1.25426147    0.01946187    0.63624397
| 91> O    2.42230438   -0.30171639    0.73187948
| 92> C    1.06687525   -0.86904202    4.72816975
| 93> H    1.52072776   -0.96109826    3.74018720
| 94> H    1.61137775   -1.53302229    5.39736742
| 95> C    1.12118872    0.59690998    5.16110573
| 96> H    2.07947871    1.06980891    4.95038144
| 97> H    0.93307343    0.67854752    6.23432887
| 98> C   -0.04616287    1.20972445    4.39033453
| 99> H    0.22814141    1.29850606    3.33686291
|100> H   -0.33057729    2.20086558    4.74196855
|101> C   -1.16310736    0.17215255    4.56136285
|102> H   -1.88864664    0.19576640    3.74999094
|103> H   -1.70719299    0.37684970    5.48361146
|104> C   -0.44007101   -1.19439528    4.66501973
|105> H   -0.68273556   -1.83855141    3.82166006
|106> H   -0.75517724   -1.72179770    5.56410615
|107> *
|108>
|109>
|110>
|111>
|112>                          ****END OF INPUT****
 Total Charge           Charge          ....    0
 Multiplicity           Mult            ....    1
 Number of Electrons    NEL             ....   98
MP2 TOTAL ENERGY:     -609.709565556 Eh
FINAL SINGLE POINT ENERGY      -609.709565555519
MP2 TOTAL ENERGY:     -610.244275589 Eh
FINAL SINGLE POINT ENERGY      -610.244275589044

CARTESIAN COORDINATES (ANGSTROEM)
---------------------------------
  N      0.195730   -0.844689    0.823846
  H      0.450398   -1.796753    1.049768
  C     -1.179049   -0.573684    0.759483
  O     -1.993646   -1.456265    0.966901
  C     -1.476715    0.811156    0.437560
  H     -2.506356    1.115651    0.363895
  C     -0.468113    1.682962    0.234891
  H     -0.638435    2.721643   -0.006164
  N      0.845629    1.305991    0.326831
  H      1.589693    1.968879    0.185960
  C      1.254261    0.019462    0.636244
  O      2.422304   -0.301716    0.731879
  C      1.066875   -0.869042    4.728170
  H      1.520728   -0.961098    3.740187
  H      1.611378   -1.533022    5.397367
  C      1.121189    0.596910    5.161106
  H      2.079479    1.069809    4.950381
  H      0.933073    0.678548    6.234329
  C     -0.046163    1.209724    4.390335
  H      0.228141    1.298506    3.336863
  H     -0.330577    2.200866    4.741969
  C     -1.163107    0.172153    4.561363
  H     -1.888647    0.195766    3.749991
  H     -1.707193    0.376850    5.483611
  C     -0.440071   -1.194395    4.665020
  H     -0.682736   -1.838551    3.821660
  H     -0.755177   -1.721798    5.564106

 Multiplicity           Mult            ....    1
 Number of Electrons    NEL             ....   98
 Basis Dimension        Dim             .... 1684

ORBITAL ENERGIES
----------------

  NO   OCC          E(Eh)            E(eV)
   0   2.0000     -20.546088      -559.0875
   1   2.0000     -20.540519      -558.9359
   2   2.0000     -15.643426      -425.6793
   3   2.0000     -15.626548      -425.2200
   4   2.0000     -11.419083      -310.7291
   5   2.0000     -11.381101      -309.6955
   6   2.0000     -11.340516      -308.5911
   7   2.0000     -11.255124      -306.2675
   8   2.0000     -11.211325      -305.0757
   9   2.0000     -11.208431      -304.9969
  10   2.0000     -11.207268      -304.9653
  11   2.0000     -11.206226      -304.9369
  12   2.0000     -11.205211      -304.9093
  13   2.0000      -1.437112       -39.1058
  14   2.0000      -1.399116       -38.0719
  15   2.0000      -1.314150       -35.7598
  16   2.0000      -1.246557       -33.9206
  17   2.0000      -1.115113       -30.3438
  18   2.0000      -1.089139       -29.6370
  19   2.0000      -0.955692       -26.0057
  20   2.0000      -0.954497       -25.9732
  21   2.0000      -0.934369       -25.4255
  22   2.0000      -0.902678       -24.5631
  23   2.0000      -0.808131       -21.9904
  24   2.0000      -0.777064       -21.1450
  25   2.0000      -0.766767       -20.8648
  26   2.0000      -0.764926       -20.8147
  27   2.0000      -0.715440       -19.4681
  28   2.0000      -0.678990       -18.4763
  29   2.0000      -0.672698       -18.3050
  30   2.0000      -0.654411       -17.8074
  31   2.0000      -0.647573       -17.6214
  32   2.0000      -0.643551       -17.5119
  33   2.0000      -0.616444       -16.7743
  34   2.0000      -0.602909       -16.4060
  35   2.0000      -0.576148       -15.6778
  36   2.0000      -0.568677       -15.4745
  37   2.0000      -0.564558       -15.3624
  38   2.0000      -0.526743       -14.3334
  39   2.0000      -0.485609       -13.2141
  40   2.0000      -0.474749       -12.9186
  41   2.0000      -0.473356       -12.8807
  42   2.0000      -0.461921       -12.5695
  43   2.0000      -0.461016       -12.5449
  44   2.0000      -0.458771       -12.4838
  45   2.0000      -0.451464       -12.2850
  46   2.0000      -0.446475       -12.1492
  47   2.0000      -0.438292       -11.9265
  48   2.0000      -0.370265       -10.0754
  49   0.0000       0.011657         0.3172
  50   0.0000       0.027969         0.7611
  51   0.0000       0.028693         0.7808
  52   0.0000       0.032401         0.8817
  53   0.0000       0.040022         1.0891

MULLIKEN ATOMIC CHARGES
-----------------------
   0 N :   -0.714639
   1 H :    0.083905
   2 C :    1.452666
   3 O :   -0.922344
   4 C :   -0.440906
   5 H :    0.228553
   6 C :   -0.146895
   7 H :    0.397604
   8 N :   -0.717978
   9 H :    0.087492
  10 C :    1.625174
  11 O :   -0.894698
  12 C :   -0.674848
  13 H :    0.329933
  14 H :    0.310214
  15 C :   -0.588106
  16 H :    0.342785
  17 H :    0.237336
  18 C :   -0.756895
  19 H :    0.432558
  20 H :    0.329720
  21 C :   -0.673761
  22 H :    0.397890
  23 H :    0.280747
  24 C :   -0.586195
  25 H :    0.268831
  26 H :    0.311859
Sum of atomic charges:    0.0000000

LOEWDIN ATOMIC CHARGES
----------------------
   0 N :    0.778776
   1 H :   -0.517259
   2 C :   -0.878991
   3 O :    0.698232
   4 C :    0.330083
   5 H :   -0.349127
   6 C :    0.233538
   7 H :   -0.294277
   8 N :    0.813440
   9 H :   -0.488972
  10 C :   -0.999042
  11 O :    0.700949
  12 C :    0.530513
  13 H :   -0.285260
  14 H :   -0.256613
  15 C :    0.527380
  16 H :   -0.254157
  17 H :   -0.261742
  18 C :    0.516434
  19 H :   -0.293358
  20 H :   -0.252511
  21 C :    0.538890
  22 H :   -0.273206
  23 H :   -0.267328
  24 C :    0.549015
  25 H :   -0.278158
  26 H :   -0.267249

  Mayer bond orders larger than 0.100000
B(  0-N ,  1-H ) :   1.1834 B(  0-N ,  2-C ) :   0.9317 B(  0-N ,  3-O ) :   0.2213
B(  0-N , 10-C ) :   1.1112 B(  0-N , 11-O ) :   0.2320 B(  2-C ,  3-O ) :   0.8059
B(  2-C ,  4-C ) :   1.0512 B(  3-O ,  4-C ) :   0.2363 B(  4-C ,  5-H ) :   1.0728
B(  4-C ,  6-C ) :   1.5425 B(  6-C ,  7-H ) :   0.9502 B(  6-C ,  8-N ) :   0.9056
B(  8-N ,  9-H ) :   1.1988 B(  8-N , 10-C ) :   1.0106 B(  8-N , 11-O ) :   0.2406
B( 10-C , 11-O ) :   0.8881 B( 12-C , 13-H ) :   0.8365 B( 12-C , 14-H ) :   0.9064
B( 12-C , 15-C ) :   0.9843 B( 12-C , 24-C ) :   0.9835 B( 15-C , 16-H ) :   0.8116
B( 15-C , 17-H ) :   0.9503 B( 15-C , 18-C ) :   1.0324 B( 18-C , 19-H ) :   0.7249
B( 18-C , 20-H ) :   0.8893 B( 18-C , 21-C ) :   0.9517 B( 21-C , 22-H ) :   0.7841
B( 21-C , 23-H ) :   0.9571 B( 21-C , 24-C ) :   0.9674 B( 24-C , 25-H ) :   0.9268
B( 24-C , 26-H ) :   0.9002

MP2 TOTAL ENERGY:     -610.415446804 Eh
FINAL SINGLE POINT ENERGY      -610.415446804126

DIPOLE MOMENT
-------------
                                X             Y             Z
Electronic contribution:      0.47013      -1.33911     -17.20192
Nuclear contribution   :     -0.46589       3.19854      16.75744
                        -----------------------------------------
Total Dipole Moment    :      0.00424       1.85943      -0.44448
                        -----------------------------------------
Magnitude (a.u.)       :      1.91183
Magnitude (Debye)      :      4.85948

Rotational constants in cm-1:     0.033750     0.018168     0.015947
Rotational constants in MHz :  1011.790136   544.658197   478.086549

                             ****ORCA TERMINATED NORMALLY****
TOTAL RUN TIME: 0 days 14 hours 10 minutes 29 seconds 692 msec
