                         Program Version 5.0.4 -  RELEASE  -
|  1> ! ri-mp2 aug-cc-pvdz aug-cc-pvdz/c tightscf
|  2> %pal nprocs 16 end
|  3> %maxcore 3800
|  4> %base "DZ_S66by10_18_0.7_dimer"
|  5>
|  6> *xyz 0 1
|  7> O   -0.55283102   -0.10169749   -0.00049879
|  8> H   -0.87175963    0.80179220    0.00014440
|  9> H    0.41265950   -0.00183225   -0.00025181
| 10> N    1.80804844    0.06857138    0.00003323
| 11> C    2.50395508    0.03460058    1.14478108
| 12> H    1.91928253    0.05821153    2.05564910
| 13> C    3.89297868   -0.03058185    1.19477714
| 14> H    4.39888506   -0.05543600    2.14910626
| 15> C    4.60414182   -0.06370765   -0.00013401
| 16> H    5.68398177   -0.11548120   -0.00021443
| 17> C    3.89283352   -0.03064850   -1.19493530
| 18> H    4.39863047   -0.05552153   -2.14933390
| 19> C    2.50380351    0.03454649   -1.14478904
| 20> H    1.91903463    0.05814714   -2.05558160
| 21> *
| 22>
| 23> $new_job
| 24> ! ri-mp2 aug-cc-pvtz aug-cc-pvtz/c tightscf
| 25> %pal nprocs 16 end
| 26> %maxcore 3800
| 27> %base "TZ_S66by10_18_0.7_dimer"
| 28>
| 29> *xyz 0 1
| 30> O   -0.55283102   -0.10169749   -0.00049879
| 31> H   -0.87175963    0.80179220    0.00014440
| 32> H    0.41265950   -0.00183225   -0.00025181
| 33> N    1.80804844    0.06857138    0.00003323
| 34> C    2.50395508    0.03460058    1.14478108
| 35> H    1.91928253    0.05821153    2.05564910
| 36> C    3.89297868   -0.03058185    1.19477714
| 37> H    4.39888506   -0.05543600    2.14910626
| 38> C    4.60414182   -0.06370765   -0.00013401
| 39> H    5.68398177   -0.11548120   -0.00021443
| 40> C    3.89283352   -0.03064850   -1.19493530
| 41> H    4.39863047   -0.05552153   -2.14933390
| 42> C    2.50380351    0.03454649   -1.14478904
| 43> H    1.91903463    0.05814714   -2.05558160
| 44> *
| 45>
| 46> $new_job
| 47> ! ri-mp2 aug-cc-pvqz aug-cc-pvqz/c tightscf
| 48> %pal nprocs 16 end
| 49> %maxcore 3800
| 50> %base "QZ_S66by10_18_0.7_dimer"
| 51>
| 52> *xyz 0 1
| 53> O   -0.55283102   -0.10169749   -0.00049879
| 54> H   -0.87175963    0.80179220    0.00014440
| 55> H    0.41265950   -0.00183225   -0.00025181
| 56> N    1.80804844    0.06857138    0.00003323
| 57> C    2.50395508    0.03460058    1.14478108
| 58> H    1.91928253    0.05821153    2.05564910
| 59> C    3.89297868   -0.03058185    1.19477714
| 60> H    4.39888506   -0.05543600    2.14910626
| 61> C    4.60414182   -0.06370765   -0.00013401
| 62> H    5.68398177   -0.11548120   -0.00021443
| 63> C    3.89283352   -0.03064850   -1.19493530
| 64> H    4.39863047   -0.05552153   -2.14933390
| 65> C    2.50380351    0.03454649   -1.14478904
| 66> H    1.91903463    0.05814714   -2.05558160
| 67> *
| 68>
| 69>
| 70>
| 71>
| 72>                          ****END OF INPUT****
 Total Charge           Charge          ....    0
 Multiplicity           Mult            ....    1
 Number of Electrons    NEL             ....   52
MP2 TOTAL ENERGY:     -323.818027112 Eh
FINAL SINGLE POINT ENERGY      -323.818027111715
MP2 TOTAL ENERGY:     -324.100866234 Eh
FINAL SINGLE POINT ENERGY      -324.100866233841

CARTESIAN COORDINATES (ANGSTROEM)
---------------------------------
  O     -0.552831   -0.101697   -0.000499
  H     -0.871760    0.801792    0.000144
  H      0.412659   -0.001832   -0.000252
  N      1.808048    0.068571    0.000033
  C      2.503955    0.034601    1.144781
  H      1.919283    0.058212    2.055649
  C      3.892979   -0.030582    1.194777
  H      4.398885   -0.055436    2.149106
  C      4.604142   -0.063708   -0.000134
  H      5.683982   -0.115481   -0.000214
  C      3.892834   -0.030648   -1.194935
  H      4.398630   -0.055522   -2.149334
  C      2.503804    0.034546   -1.144789
  H      1.919035    0.058147   -2.055582

 Multiplicity           Mult            ....    1
 Number of Electrons    NEL             ....   52
 Basis Dimension        Dim             ....  882

ORBITAL ENERGIES
----------------

  NO   OCC          E(Eh)            E(eV)
   0   2.0000     -20.474817      -557.1481
   1   2.0000     -15.586380      -424.1270
   2   2.0000     -11.297058      -307.4086
   3   2.0000     -11.297040      -307.4081
   4   2.0000     -11.279342      -306.9265
   5   2.0000     -11.258878      -306.3696
   6   2.0000     -11.258830      -306.3683
   7   2.0000      -1.299184       -35.3526
   8   2.0000      -1.268246       -34.5107
   9   2.0000      -1.111588       -30.2479
  10   2.0000      -1.054757       -28.7014
  11   2.0000      -0.882840       -24.0233
  12   2.0000      -0.878789       -23.9131
  13   2.0000      -0.754672       -20.5357
  14   2.0000      -0.686440       -18.6790
  15   2.0000      -0.683655       -18.6032
  16   2.0000      -0.665924       -18.1207
  17   2.0000      -0.618333       -16.8257
  18   2.0000      -0.587698       -15.9921
  19   2.0000      -0.566009       -15.4019
  20   2.0000      -0.540120       -14.6974
  21   2.0000      -0.529316       -14.4034
  22   2.0000      -0.434641       -11.8272
  23   2.0000      -0.422907       -11.5079
  24   2.0000      -0.408450       -11.1145
  25   2.0000      -0.366840        -9.9822
  26   0.0000       0.017489         0.4759
  27   0.0000       0.025420         0.6917
  28   0.0000       0.030989         0.8433
  29   0.0000       0.043652         1.1878
  30   0.0000       0.043683         1.1887

MULLIKEN ATOMIC CHARGES
-----------------------
   0 O :   -0.795705
   1 H :    0.293702
   2 H :    0.364079
   3 N :   -0.354850
   4 C :   -0.340340
   5 H :    0.384931
   6 C :   -0.171447
   7 H :    0.313726
   8 C :   -0.201442
   9 H :    0.320374
  10 C :   -0.171396
  11 H :    0.313725
  12 C :   -0.340256
  13 H :    0.384900
Sum of atomic charges:    0.0000000

LOEWDIN ATOMIC CHARGES
----------------------
   0 O :    1.603239
   1 H :   -0.781153
   2 H :   -1.358446
   3 N :    0.657766
   4 C :    0.200007
   5 H :   -0.311918
   6 C :    0.359591
   7 H :   -0.326317
   8 C :    0.345215
   9 H :   -0.309374
  10 C :    0.359592
  11 H :   -0.326303
  12 C :    0.200015
  13 H :   -0.311914

  Mayer bond orders larger than 0.100000
B(  0-O ,  1-H ) :   0.9468 B(  0-O ,  2-H ) :   0.7306 B(  2-H ,  3-N ) :   0.1321
B(  3-N ,  4-C ) :   1.3736 B(  3-N , 12-C ) :   1.3738 B(  4-C ,  5-H ) :   0.9400
B(  4-C ,  6-C ) :   1.2181 B(  4-C , 10-C ) :   0.1208 B(  6-C ,  7-H ) :   1.0001
B(  6-C ,  8-C ) :   1.1612 B(  6-C , 10-C ) :  -0.1051 B(  6-C , 12-C ) :   0.1208
B(  8-C ,  9-H ) :   1.0117 B(  8-C , 10-C ) :   1.1612 B( 10-C , 11-H ) :   1.0001
B( 10-C , 12-C ) :   1.2180 B( 12-C , 13-H ) :   0.9401

MP2 TOTAL ENERGY:     -324.192225446 Eh
FINAL SINGLE POINT ENERGY      -324.192225445772

DIPOLE MOMENT
-------------
                                X             Y             Z
Electronic contribution:      1.87623      -0.11828       0.00024
Nuclear contribution   :      0.24498       0.68960       0.00033
                        -----------------------------------------
Total Dipole Moment    :      2.12121       0.57132       0.00056
                        -----------------------------------------
Magnitude (a.u.)       :      2.19680
Magnitude (Debye)      :      5.58383

Rotational constants in cm-1:     0.199263     0.058007     0.045167
Rotational constants in MHz :  5973.760650  1739.001412  1354.064470

                             ****ORCA TERMINATED NORMALLY****
TOTAL RUN TIME: 0 days 0 hours 20 minutes 24 seconds 247 msec
