                         Program Version 5.0.4 -  RELEASE  -
|  1> ! ri-mp2 aug-cc-pvdz aug-cc-pvdz/c tightscf
|  2> %pal nprocs 16 end
|  3> %maxcore 3800
|  4> %base "DZ_S66by10_42_1.25_dimer"
|  5> %scf STABPerform true end
|  6>
|  7> *xyz 0 1
|  8> N    0.19572959   -0.84468925    0.82384642
|  9> H    0.45039753   -1.79675294    1.04976794
| 10> C   -1.17904919   -0.57368440    0.75948349
| 11> O   -1.99364624   -1.45626527    0.96690066
| 12> C   -1.47671471    0.81115567    0.43755952
| 13> H   -2.50635592    1.11565059    0.36389469
| 14> C   -0.46811280    1.68296245    0.23489084
| 15> H   -0.63843522    2.72164296   -0.00616410
| 16> N    0.84562854    1.30599113    0.32683051
| 17> H    1.58969256    1.96887924    0.18595979
| 18> C    1.25426147    0.01946187    0.63624397
| 19> O    2.42230438   -0.30171639    0.73187948
| 20> C    1.08048268   -0.87645649    5.16971798
| 21> H    1.53433519   -0.96851273    4.18173542
| 22> H    1.62498518   -1.54043675    5.83891565
| 23> C    1.13479615    0.58949551    5.60265396
| 24> H    2.09308614    1.06239445    5.39192967
| 25> H    0.94668087    0.67113306    6.67587709
| 26> C   -0.03255543    1.20230999    4.83188276
| 27> H    0.24174884    1.29109159    3.77841113
| 28> H   -0.31696986    2.19345112    5.18351677
| 29> C   -1.14949992    0.16473808    5.00291107
| 30> H   -1.87503920    0.18835194    4.19153916
| 31> H   -1.69358555    0.36943524    5.92515969
| 32> C   -0.42646358   -1.20180975    5.10656796
| 33> H   -0.66912812   -1.84596587    4.26320828
| 34> H   -0.74156981   -1.72921216    6.00565438
| 35> *
| 36>
| 37> $new_job
| 38> ! ri-mp2 aug-cc-pvtz aug-cc-pvtz/c tightscf
| 39> %pal nprocs 16 end
| 40> %maxcore 3800
| 41> %base "TZ_S66by10_42_1.25_dimer"
| 42>
| 43> *xyz 0 1
| 44> N    0.19572959   -0.84468925    0.82384642
| 45> H    0.45039753   -1.79675294    1.04976794
| 46> C   -1.17904919   -0.57368440    0.75948349
| 47> O   -1.99364624   -1.45626527    0.96690066
| 48> C   -1.47671471    0.81115567    0.43755952
| 49> H   -2.50635592    1.11565059    0.36389469
| 50> C   -0.46811280    1.68296245    0.23489084
| 51> H   -0.63843522    2.72164296   -0.00616410
| 52> N    0.84562854    1.30599113    0.32683051
| 53> H    1.58969256    1.96887924    0.18595979
| 54> C    1.25426147    0.01946187    0.63624397
| 55> O    2.42230438   -0.30171639    0.73187948
| 56> C    1.08048268   -0.87645649    5.16971798
| 57> H    1.53433519   -0.96851273    4.18173542
| 58> H    1.62498518   -1.54043675    5.83891565
| 59> C    1.13479615    0.58949551    5.60265396
| 60> H    2.09308614    1.06239445    5.39192967
| 61> H    0.94668087    0.67113306    6.67587709
| 62> C   -0.03255543    1.20230999    4.83188276
| 63> H    0.24174884    1.29109159    3.77841113
| 64> H   -0.31696986    2.19345112    5.18351677
| 65> C   -1.14949992    0.16473808    5.00291107
| 66> H   -1.87503920    0.18835194    4.19153916
| 67> H   -1.69358555    0.36943524    5.92515969
| 68> C   -0.42646358   -1.20180975    5.10656796
| 69> H   -0.66912812   -1.84596587    4.26320828
| 70> H   -0.74156981   -1.72921216    6.00565438
| 71> *
| 72>
| 73> $new_job
| 74> ! ri-mp2 aug-cc-pvqz aug-cc-pvqz/c tightscf
| 75> %pal nprocs 16 end
| 76> %maxcore 3800
| 77> %base "QZ_S66by10_42_1.25_dimer"
| 78>
| 79> *xyz 0 1
| 80> N    0.19572959   -0.84468925    0.82384642
| 81> H    0.45039753   -1.79675294    1.04976794
| 82> C   -1.17904919   -0.57368440    0.75948349
| 83> O   -1.99364624   -1.45626527    0.96690066
| 84> C   -1.47671471    0.81115567    0.43755952
| 85> H   -2.50635592    1.11565059    0.36389469
| 86> C   -0.46811280    1.68296245    0.23489084
| 87> H   -0.63843522    2.72164296   -0.00616410
| 88> N    0.84562854    1.30599113    0.32683051
| 89> H    1.58969256    1.96887924    0.18595979
| 90> C    1.25426147    0.01946187    0.63624397
| 91> O    2.42230438   -0.30171639    0.73187948
| 92> C    1.08048268   -0.87645649    5.16971798
| 93> H    1.53433519   -0.96851273    4.18173542
| 94> H    1.62498518   -1.54043675    5.83891565
| 95> C    1.13479615    0.58949551    5.60265396
| 96> H    2.09308614    1.06239445    5.39192967
| 97> H    0.94668087    0.67113306    6.67587709
| 98> C   -0.03255543    1.20230999    4.83188276
| 99> H    0.24174884    1.29109159    3.77841113
|100> H   -0.31696986    2.19345112    5.18351677
|101> C   -1.14949992    0.16473808    5.00291107
|102> H   -1.87503920    0.18835194    4.19153916
|103> H   -1.69358555    0.36943524    5.92515969
|104> C   -0.42646358   -1.20180975    5.10656796
|105> H   -0.66912812   -1.84596587    4.26320828
|106> H   -0.74156981   -1.72921216    6.00565438
|107> *
|108>
|109>
|110>
|111>
|112>                          ****END OF INPUT****
 Total Charge           Charge          ....    0
 Multiplicity           Mult            ....    1
 Number of Electrons    NEL             ....   98
MP2 TOTAL ENERGY:     -609.705901739 Eh
FINAL SINGLE POINT ENERGY      -609.705901738840
MP2 TOTAL ENERGY:     -610.241420649 Eh
FINAL SINGLE POINT ENERGY      -610.241420649127

CARTESIAN COORDINATES (ANGSTROEM)
---------------------------------
  N      0.195730   -0.844689    0.823846
  H      0.450398   -1.796753    1.049768
  C     -1.179049   -0.573684    0.759483
  O     -1.993646   -1.456265    0.966901
  C     -1.476715    0.811156    0.437560
  H     -2.506356    1.115651    0.363895
  C     -0.468113    1.682962    0.234891
  H     -0.638435    2.721643   -0.006164
  N      0.845629    1.305991    0.326831
  H      1.589693    1.968879    0.185960
  C      1.254261    0.019462    0.636244
  O      2.422304   -0.301716    0.731879
  C      1.080483   -0.876456    5.169718
  H      1.534335   -0.968513    4.181735
  H      1.624985   -1.540437    5.838916
  C      1.134796    0.589496    5.602654
  H      2.093086    1.062394    5.391930
  H      0.946681    0.671133    6.675877
  C     -0.032555    1.202310    4.831883
  H      0.241749    1.291092    3.778411
  H     -0.316970    2.193451    5.183517
  C     -1.149500    0.164738    5.002911
  H     -1.875039    0.188352    4.191539
  H     -1.693586    0.369435    5.925160
  C     -0.426464   -1.201810    5.106568
  H     -0.669128   -1.845966    4.263208
  H     -0.741570   -1.729212    6.005654

 Multiplicity           Mult            ....    1
 Number of Electrons    NEL             ....   98
 Basis Dimension        Dim             .... 1684

ORBITAL ENERGIES
----------------

  NO   OCC          E(Eh)            E(eV)
   0   2.0000     -20.546009      -559.0853
   1   2.0000     -20.540519      -558.9359
   2   2.0000     -15.643501      -425.6813
   3   2.0000     -15.626599      -425.2214
   4   2.0000     -11.419081      -310.7290
   5   2.0000     -11.381115      -309.6959
   6   2.0000     -11.340728      -308.5969
   7   2.0000     -11.255298      -306.2722
   8   2.0000     -11.210711      -305.0590
   9   2.0000     -11.208375      -304.9954
  10   2.0000     -11.207373      -304.9681
  11   2.0000     -11.206638      -304.9481
  12   2.0000     -11.205703      -304.9227
  13   2.0000      -1.437009       -39.1030
  14   2.0000      -1.398985       -38.0683
  15   2.0000      -1.314129       -35.7593
  16   2.0000      -1.246506       -33.9192
  17   2.0000      -1.114970       -30.3399
  18   2.0000      -1.089214       -29.6390
  19   2.0000      -0.955483       -26.0000
  20   2.0000      -0.954518       -25.9738
  21   2.0000      -0.934407       -25.4265
  22   2.0000      -0.902654       -24.5625
  23   2.0000      -0.808142       -21.9907
  24   2.0000      -0.776592       -21.1321
  25   2.0000      -0.766393       -20.8546
  26   2.0000      -0.765398       -20.8275
  27   2.0000      -0.715467       -19.4688
  28   2.0000      -0.678924       -18.4745
  29   2.0000      -0.670911       -18.2564
  30   2.0000      -0.654374       -17.8064
  31   2.0000      -0.648601       -17.6493
  32   2.0000      -0.643702       -17.5160
  33   2.0000      -0.616436       -16.7741
  34   2.0000      -0.602929       -16.4065
  35   2.0000      -0.573561       -15.6074
  36   2.0000      -0.567795       -15.4505
  37   2.0000      -0.566844       -15.4246
  38   2.0000      -0.527223       -14.3465
  39   2.0000      -0.485438       -13.2095
  40   2.0000      -0.474628       -12.9153
  41   2.0000      -0.473457       -12.8834
  42   2.0000      -0.462020       -12.5722
  43   2.0000      -0.460438       -12.5292
  44   2.0000      -0.458702       -12.4819
  45   2.0000      -0.451109       -12.2753
  46   2.0000      -0.446812       -12.1584
  47   2.0000      -0.438565       -11.9340
  48   2.0000      -0.370347       -10.0776
  49   0.0000       0.011585         0.3152
  50   0.0000       0.028144         0.7658
  51   0.0000       0.028684         0.7805
  52   0.0000       0.032537         0.8854
  53   0.0000       0.039645         1.0788

MULLIKEN ATOMIC CHARGES
-----------------------
   0 N :   -0.723977
   1 H :    0.089434
   2 C :    1.318058
   3 O :   -0.878041
   4 C :   -0.402418
   5 H :    0.230601
   6 C :   -0.129479
   7 H :    0.423793
   8 N :   -0.692080
   9 H :    0.096047
  10 C :    1.532788
  11 O :   -0.859055
  12 C :   -0.648163
  13 H :    0.313097
  14 H :    0.312476
  15 C :   -0.575857
  16 H :    0.358467
  17 H :    0.230623
  18 C :   -0.753102
  19 H :    0.405708
  20 H :    0.346538
  21 C :   -0.668991
  22 H :    0.392196
  23 H :    0.280512
  24 C :   -0.590606
  25 H :    0.277029
  26 H :    0.314401
Sum of atomic charges:   -0.0000000

LOEWDIN ATOMIC CHARGES
----------------------
   0 N :    0.776017
   1 H :   -0.519101
   2 C :   -0.874995
   3 O :    0.690685
   4 C :    0.329451
   5 H :   -0.352455
   6 C :    0.233536
   7 H :   -0.296597
   8 N :    0.811429
   9 H :   -0.491539
  10 C :   -0.996248
  11 O :    0.695151
  12 C :    0.529821
  13 H :   -0.275452
  14 H :   -0.258443
  15 C :    0.523208
  16 H :   -0.255350
  17 H :   -0.262581
  18 C :    0.516053
  19 H :   -0.278872
  20 H :   -0.255427
  21 C :    0.538391
  22 H :   -0.266170
  23 H :   -0.269783
  24 C :    0.548863
  25 H :   -0.270336
  26 H :   -0.269257

  Mayer bond orders larger than 0.100000
B(  0-N ,  1-H ) :   1.1959 B(  0-N ,  2-C ) :   0.9284 B(  0-N ,  3-O ) :   0.2215
B(  0-N , 10-C ) :   1.1282 B(  0-N , 11-O ) :   0.2233 B(  2-C ,  3-O ) :   0.8545
B(  2-C ,  4-C ) :   1.1329 B(  3-O ,  4-C ) :   0.2444 B(  4-C ,  5-H ) :   1.0639
B(  4-C ,  6-C ) :   1.5062 B(  6-C ,  7-H ) :   0.9072 B(  6-C ,  8-N ) :   0.8915
B(  8-N ,  9-H ) :   1.1901 B(  8-N , 10-C ) :   1.0554 B(  8-N , 11-O ) :   0.2209
B( 10-C , 11-O ) :   0.9454 B( 12-C , 13-H ) :   0.8416 B( 12-C , 14-H ) :   0.9042
B( 12-C , 15-C ) :   0.9776 B( 12-C , 24-C ) :   0.9814 B( 15-C , 16-H ) :   0.7892
B( 15-C , 17-H ) :   0.9482 B( 15-C , 18-C ) :   1.0167 B( 15-C , 21-C ) :  -0.1018
B( 18-C , 19-H ) :   0.7521 B( 18-C , 20-H ) :   0.8618 B( 18-C , 21-C ) :   0.9684
B( 21-C , 22-H ) :   0.7791 B( 21-C , 23-H ) :   0.9516 B( 21-C , 24-C ) :   0.9787
B( 24-C , 25-H ) :   0.9108 B( 24-C , 26-H ) :   0.8946

MP2 TOTAL ENERGY:     -610.412963614 Eh
FINAL SINGLE POINT ENERGY      -610.412963614085

DIPOLE MOMENT
-------------
                                X             Y             Z
Electronic contribution:      0.41687      -1.29887     -19.10929
Nuclear contribution   :     -0.40723       3.16658      18.66089
                        -----------------------------------------
Total Dipole Moment    :      0.00964       1.86771      -0.44840
                        -----------------------------------------
Magnitude (a.u.)       :      1.92081
Magnitude (Debye)      :      4.88230

Rotational constants in cm-1:     0.033712     0.015439     0.013811
Rotational constants in MHz :  1010.668062   462.848155   414.055117

                             ****ORCA TERMINATED NORMALLY****
TOTAL RUN TIME: 0 days 12 hours 46 minutes 37 seconds 510 msec
