                         Program Version 5.0.4 -  RELEASE  -
|  1> ! ri-mp2 aug-cc-pvdz aug-cc-pvdz/c tightscf
|  2> %pal nprocs 16 end
|  3> %maxcore 3800
|  4> %base "DZ_S66by10_34_0.7_dimer"
|  5> %scf STABPerform true end
|  6>
|  7> *xyz 0 1
|  8> C   -2.53330865   -0.29487907    0.71314876
|  9> H   -2.56362682   -0.97708181   -0.13642264
| 10> H   -2.56697835   -0.89587590    1.62173177
| 11> H   -3.43442611    0.31595713    0.68410447
| 12> C   -1.27188487    0.55765547    0.67435468
| 13> H   -1.27102630    1.25656571    1.51431940
| 14> H   -1.26663255    1.16789581   -0.23182653
| 15> C   -0.00013504   -0.27841822    0.71960315
| 16> H   -0.00015938   -0.88722952    1.62863709
| 17> H   -0.00036543   -0.98071418   -0.11940439
| 18> C    1.27189476    0.55738219    0.67406108
| 19> H    1.27097175    1.25663331    1.51370541
| 20> H    1.26663649    1.16718250   -0.23238692
| 21> C    2.53340376   -0.29494176    0.71328015
| 22> H    2.56391919   -0.97777410   -0.13577836
| 23> H    3.43430956    0.31625432    0.68359945
| 24> H    2.56755821   -0.89520887    1.62232865
| 25> C    2.53356015    0.31290225    3.63538277
| 26> H    2.56814464    0.91270894    2.72605722
| 27> H    2.56406346    0.99610882    4.48412759
| 28> H    3.43424084   -0.29859506    3.66559171
| 29> C    1.27173395   -0.53898503    3.67468702
| 30> H    1.26629024   -1.14871274    4.58118398
| 31> H    1.27060344   -1.23833877    2.83510596
| 32> C   -0.00004104    0.29711407    3.62907058
| 33> H   -0.00019596    0.99942405    4.46805505
| 34> H    0.00003586    0.90589049    2.72000095
| 35> C   -1.27180188   -0.53902790    3.67434212
| 36> H   -1.26641964   -1.14913735    4.58059222
| 37> H   -1.27069554   -1.23805080    2.83447847
| 38> C   -2.53352111    0.31301840    3.63536441
| 39> H   -2.56771441    0.91355207    2.72648766
| 40> H   -3.43432308   -0.29827995    3.66487759
| 41> H   -2.56406064    0.99560465    4.48462580
| 42> *
| 43>
| 44> $new_job
| 45> ! ri-mp2 aug-cc-pvtz aug-cc-pvtz/c tightscf
| 46> %pal nprocs 16 end
| 47> %maxcore 3800
| 48> %base "TZ_S66by10_34_0.7_dimer"
| 49>
| 50> *xyz 0 1
| 51> C   -2.53330865   -0.29487907    0.71314876
| 52> H   -2.56362682   -0.97708181   -0.13642264
| 53> H   -2.56697835   -0.89587590    1.62173177
| 54> H   -3.43442611    0.31595713    0.68410447
| 55> C   -1.27188487    0.55765547    0.67435468
| 56> H   -1.27102630    1.25656571    1.51431940
| 57> H   -1.26663255    1.16789581   -0.23182653
| 58> C   -0.00013504   -0.27841822    0.71960315
| 59> H   -0.00015938   -0.88722952    1.62863709
| 60> H   -0.00036543   -0.98071418   -0.11940439
| 61> C    1.27189476    0.55738219    0.67406108
| 62> H    1.27097175    1.25663331    1.51370541
| 63> H    1.26663649    1.16718250   -0.23238692
| 64> C    2.53340376   -0.29494176    0.71328015
| 65> H    2.56391919   -0.97777410   -0.13577836
| 66> H    3.43430956    0.31625432    0.68359945
| 67> H    2.56755821   -0.89520887    1.62232865
| 68> C    2.53356015    0.31290225    3.63538277
| 69> H    2.56814464    0.91270894    2.72605722
| 70> H    2.56406346    0.99610882    4.48412759
| 71> H    3.43424084   -0.29859506    3.66559171
| 72> C    1.27173395   -0.53898503    3.67468702
| 73> H    1.26629024   -1.14871274    4.58118398
| 74> H    1.27060344   -1.23833877    2.83510596
| 75> C   -0.00004104    0.29711407    3.62907058
| 76> H   -0.00019596    0.99942405    4.46805505
| 77> H    0.00003586    0.90589049    2.72000095
| 78> C   -1.27180188   -0.53902790    3.67434212
| 79> H   -1.26641964   -1.14913735    4.58059222
| 80> H   -1.27069554   -1.23805080    2.83447847
| 81> C   -2.53352111    0.31301840    3.63536441
| 82> H   -2.56771441    0.91355207    2.72648766
| 83> H   -3.43432308   -0.29827995    3.66487759
| 84> H   -2.56406064    0.99560465    4.48462580
| 85> *
| 86>
| 87> $new_job
| 88> ! ri-mp2 aug-cc-pvqz aug-cc-pvqz/c tightscf
| 89> %pal nprocs 16 end
| 90> %maxcore 3800
| 91> %base "QZ_S66by10_34_0.7_dimer"
| 92>
| 93> *xyz 0 1
| 94> C   -2.53330865   -0.29487907    0.71314876
| 95> H   -2.56362682   -0.97708181   -0.13642264
| 96> H   -2.56697835   -0.89587590    1.62173177
| 97> H   -3.43442611    0.31595713    0.68410447
| 98> C   -1.27188487    0.55765547    0.67435468
| 99> H   -1.27102630    1.25656571    1.51431940
|100> H   -1.26663255    1.16789581   -0.23182653
|101> C   -0.00013504   -0.27841822    0.71960315
|102> H   -0.00015938   -0.88722952    1.62863709
|103> H   -0.00036543   -0.98071418   -0.11940439
|104> C    1.27189476    0.55738219    0.67406108
|105> H    1.27097175    1.25663331    1.51370541
|106> H    1.26663649    1.16718250   -0.23238692
|107> C    2.53340376   -0.29494176    0.71328015
|108> H    2.56391919   -0.97777410   -0.13577836
|109> H    3.43430956    0.31625432    0.68359945
|110> H    2.56755821   -0.89520887    1.62232865
|111> C    2.53356015    0.31290225    3.63538277
|112> H    2.56814464    0.91270894    2.72605722
|113> H    2.56406346    0.99610882    4.48412759
|114> H    3.43424084   -0.29859506    3.66559171
|115> C    1.27173395   -0.53898503    3.67468702
|116> H    1.26629024   -1.14871274    4.58118398
|117> H    1.27060344   -1.23833877    2.83510596
|118> C   -0.00004104    0.29711407    3.62907058
|119> H   -0.00019596    0.99942405    4.46805505
|120> H    0.00003586    0.90589049    2.72000095
|121> C   -1.27180188   -0.53902790    3.67434212
|122> H   -1.26641964   -1.14913735    4.58059222
|123> H   -1.27069554   -1.23805080    2.83447847
|124> C   -2.53352111    0.31301840    3.63536441
|125> H   -2.56771441    0.91355207    2.72648766
|126> H   -3.43432308   -0.29827995    3.66487759
|127> H   -2.56406064    0.99560465    4.48462580
|128> *
|129>
|130>
|131>
|132>
|133>                          ****END OF INPUT****
 Total Charge           Charge          ....    0
 Multiplicity           Mult            ....    1
 Number of Electrons    NEL             ....   84
MP2 TOTAL ENERGY:     -394.203481521 Eh
FINAL SINGLE POINT ENERGY      -394.203481520662
MP2 TOTAL ENERGY:     -394.595958444 Eh
FINAL SINGLE POINT ENERGY      -394.595958443599

CARTESIAN COORDINATES (ANGSTROEM)
---------------------------------
  C     -2.533309   -0.294879    0.713149
  H     -2.563627   -0.977082   -0.136423
  H     -2.566978   -0.895876    1.621732
  H     -3.434426    0.315957    0.684104
  C     -1.271885    0.557655    0.674355
  H     -1.271026    1.256566    1.514319
  H     -1.266633    1.167896   -0.231827
  C     -0.000135   -0.278418    0.719603
  H     -0.000159   -0.887230    1.628637
  H     -0.000365   -0.980714   -0.119404
  C      1.271895    0.557382    0.674061
  H      1.270972    1.256633    1.513705
  H      1.266636    1.167183   -0.232387
  C      2.533404   -0.294942    0.713280
  H      2.563919   -0.977774   -0.135778
  H      3.434310    0.316254    0.683599
  H      2.567558   -0.895209    1.622329
  C      2.533560    0.312902    3.635383
  H      2.568145    0.912709    2.726057
  H      2.564063    0.996109    4.484128
  H      3.434241   -0.298595    3.665592
  C      1.271734   -0.538985    3.674687
  H      1.266290   -1.148713    4.581184
  H      1.270603   -1.238339    2.835106
  C     -0.000041    0.297114    3.629071
  H     -0.000196    0.999424    4.468055
  H      0.000036    0.905890    2.720001
  C     -1.271802   -0.539028    3.674342
  H     -1.266420   -1.149137    4.580592
  H     -1.270696   -1.238051    2.834478
  C     -2.533521    0.313018    3.635364
  H     -2.567714    0.913552    2.726488
  H     -3.434323   -0.298280    3.664878
  H     -2.564061    0.995605    4.484626

 Multiplicity           Mult            ....    1
 Number of Electrons    NEL             ....   84
 Basis Dimension        Dim             .... 1904

ORBITAL ENERGIES
----------------

  NO   OCC          E(Eh)            E(eV)
   0   2.0000     -11.209421      -305.0239
   1   2.0000     -11.209419      -305.0238
   2   2.0000     -11.209392      -305.0231
   3   2.0000     -11.209389      -305.0230
   4   2.0000     -11.204485      -304.8895
   5   2.0000     -11.204483      -304.8895
   6   2.0000     -11.202257      -304.8289
   7   2.0000     -11.202254      -304.8288
   8   2.0000     -11.202249      -304.8287
   9   2.0000     -11.202248      -304.8287
  10   2.0000      -1.099641       -29.9228
  11   2.0000      -1.068428       -29.0734
  12   2.0000      -1.031878       -28.0788
  13   2.0000      -1.003246       -27.2997
  14   2.0000      -0.934743       -25.4356
  15   2.0000      -0.906399       -24.6644
  16   2.0000      -0.823050       -22.3963
  17   2.0000      -0.820598       -22.3296
  18   2.0000      -0.804869       -21.9016
  19   2.0000      -0.773404       -21.0454
  20   2.0000      -0.697404       -18.9773
  21   2.0000      -0.634682       -17.2706
  22   2.0000      -0.610364       -16.6088
  23   2.0000      -0.599262       -16.3067
  24   2.0000      -0.593160       -16.1407
  25   2.0000      -0.567705       -15.4480
  26   2.0000      -0.558831       -15.2066
  27   2.0000      -0.554097       -15.0777
  28   2.0000      -0.552806       -15.0426
  29   2.0000      -0.547181       -14.8895
  30   2.0000      -0.539656       -14.6848
  31   2.0000      -0.497003       -13.5242
  32   2.0000      -0.495280       -13.4773
  33   2.0000      -0.494004       -13.4425
  34   2.0000      -0.486062       -13.2264
  35   2.0000      -0.483217       -13.1490
  36   2.0000      -0.473565       -12.8864
  37   2.0000      -0.468624       -12.7519
  38   2.0000      -0.450967       -12.2714
  39   2.0000      -0.445492       -12.1224
  40   2.0000      -0.441660       -12.0182
  41   2.0000      -0.424833       -11.5603
  42   0.0000       0.024353         0.6627
  43   0.0000       0.027861         0.7581
  44   0.0000       0.028357         0.7716
  45   0.0000       0.028777         0.7831
  46   0.0000       0.039584         1.0771

MULLIKEN ATOMIC CHARGES
-----------------------
   0 C :   -1.009977
   1 H :    0.126645
   2 H :    0.200603
   3 H :    0.179517
   4 C :   -0.361059
   5 H :    0.443589
   6 H :    0.179836
   7 C :   -0.146418
   8 H :    0.360364
   9 H :    0.268557
  10 C :   -0.361735
  11 H :    0.443506
  12 H :    0.180026
  13 C :   -1.009721
  14 H :    0.126343
  15 H :    0.179498
  16 H :    0.200623
  17 C :   -1.010085
  18 H :    0.200694
  19 H :    0.126535
  20 H :    0.179320
  21 C :   -0.361129
  22 H :    0.179982
  23 H :    0.443604
  24 C :   -0.146996
  25 H :    0.268443
  26 H :    0.360373
  27 C :   -0.360766
  28 H :    0.179915
  29 H :    0.443559
  30 C :   -1.010312
  31 H :    0.200603
  32 H :    0.179326
  33 H :    0.126740
Sum of atomic charges:   -0.0000000

LOEWDIN ATOMIC CHARGES
----------------------
   0 C :    0.956049
   1 H :   -0.253056
   2 H :   -0.391171
   3 H :   -0.248453
   4 C :    0.571043
   5 H :   -0.341516
   6 H :   -0.238771
   7 C :    0.552405
   8 H :   -0.428810
   9 H :   -0.231737
  10 C :    0.571123
  11 H :   -0.341398
  12 H :   -0.238848
  13 C :    0.956038
  14 H :   -0.253021
  15 H :   -0.248419
  16 H :   -0.391325
  17 C :    0.956072
  18 H :   -0.391477
  19 H :   -0.253039
  20 H :   -0.248405
  21 C :    0.571058
  22 H :   -0.238862
  23 H :   -0.341375
  24 C :    0.552449
  25 H :   -0.231722
  26 H :   -0.428756
  27 C :    0.571027
  28 H :   -0.238817
  29 H :   -0.341559
  30 C :    0.956073
  31 H :   -0.391297
  32 H :   -0.248456
  33 H :   -0.253044

  Mayer bond orders larger than 0.100000
B(  0-C ,  1-H ) :   1.1643 B(  0-C ,  2-H ) :   0.9596 B(  0-C ,  3-H ) :   1.0952
B(  0-C ,  4-C ) :   0.7931 B(  3-H ,  4-C ) :  -0.1434 B(  4-C ,  5-H ) :   0.8517
B(  4-C ,  6-H ) :   1.0614 B(  4-C ,  7-C ) :   0.8037 B(  7-C ,  8-H ) :   1.0361
B(  7-C ,  9-H ) :   0.9877 B(  7-C , 10-C ) :   0.8039 B( 10-C , 11-H ) :   0.8517
B( 10-C , 12-H ) :   1.0612 B( 10-C , 13-C ) :   0.7929 B( 10-C , 15-H ) :  -0.1435
B( 13-C , 14-H ) :   1.1646 B( 13-C , 15-H ) :   1.0952 B( 13-C , 16-H ) :   0.9593
B( 17-C , 18-H ) :   0.9594 B( 17-C , 19-H ) :   1.1645 B( 17-C , 20-H ) :   1.0954
B( 17-C , 21-C ) :   0.7923 B( 20-H , 21-C ) :  -0.1436 B( 21-C , 22-H ) :   1.0612
B( 21-C , 23-H ) :   0.8520 B( 21-C , 24-C ) :   0.8039 B( 24-C , 25-H ) :   0.9879
B( 24-C , 26-H ) :   1.0358 B( 24-C , 27-C ) :   0.8039 B( 27-C , 28-H ) :   1.0614
B( 27-C , 29-H ) :   0.8521 B( 27-C , 30-C ) :   0.7924 B( 27-C , 32-H ) :  -0.1436
B( 30-C , 31-H ) :   0.9596 B( 30-C , 32-H ) :   1.0955 B( 30-C , 33-H ) :   1.1643

MP2 TOTAL ENERGY:     -394.711499288 Eh
FINAL SINGLE POINT ENERGY      -394.711499288388

DIPOLE MOMENT
-------------
                                X             Y             Z
Electronic contribution:     -0.00032       0.00124       0.00004
Nuclear contribution   :      0.00030      -0.00124      -0.00009
                        -----------------------------------------
Total Dipole Moment    :     -0.00002      -0.00000      -0.00005
                        -----------------------------------------
Magnitude (a.u.)       :      0.00005
Magnitude (Debye)      :      0.00013

Rotational constants in cm-1:     0.045159     0.031032     0.020324
Rotational constants in MHz :  1353.832863   930.307444   609.292683

                             ****ORCA TERMINATED NORMALLY****
TOTAL RUN TIME: 1 days 1 hours 13 minutes 41 seconds 395 msec
