                         Program Version 5.0.4 -  RELEASE  -
|  1> ! ri-mp2 aug-cc-pvdz aug-cc-pvdz/c tightscf
|  2> %pal nprocs 16 end
|  3> %maxcore 3800
|  4> %base "DZ_S66by10_27_0.9_dimer"
|  5>
|  6> *xyz 0 1
|  7> C    0.81874699    0.86417234    0.18828612
|  8> H    1.46611361    1.71666767    0.34472141
|  9> C    1.36899712   -0.39052394   -0.06669818
| 10> H    2.44303637   -0.51186194   -0.11057444
| 11> C    0.53437860   -1.48849320   -0.27188804
| 12> H    0.96084825   -2.46156422   -0.47550749
| 13> C   -0.84911561   -1.33050735   -0.21989643
| 14> H   -1.49706942   -2.18186028   -0.37955321
| 15> C   -1.39948546   -0.07603020    0.04043417
| 16> H   -2.47268667    0.04490778    0.09338206
| 17> C   -0.56529230    1.02140336    0.24227921
| 18> H   -0.99255667    1.99366131    0.44625817
| 19> N   -2.27590693    0.10216662    3.07472114
| 20> C   -1.66102100    1.25983443    3.35478533
| 21> H   -2.30862506    2.11300588    3.51729742
| 22> C   -0.27880610    1.40068216    3.44495615
| 23> H    0.15304265    2.36433228    3.67617244
| 24> C    0.52214529    0.28370286    3.23074224
| 25> H    1.59971446    0.35408714    3.28557675
| 26> C   -0.09840662   -0.92495218    2.93708266
| 27> H    0.47736789   -1.82057406    2.75300772
| 28> C   -1.48892089   -0.96299006    2.87163324
| 29> H   -1.99777382   -1.89144344    2.64279057
| 30> *
| 31>
| 32> $new_job
| 33> ! ri-mp2 aug-cc-pvtz aug-cc-pvtz/c tightscf
| 34> %pal nprocs 16 end
| 35> %maxcore 3800
| 36> %base "TZ_S66by10_27_0.9_dimer"
| 37>
| 38> *xyz 0 1
| 39> C    0.81874699    0.86417234    0.18828612
| 40> H    1.46611361    1.71666767    0.34472141
| 41> C    1.36899712   -0.39052394   -0.06669818
| 42> H    2.44303637   -0.51186194   -0.11057444
| 43> C    0.53437860   -1.48849320   -0.27188804
| 44> H    0.96084825   -2.46156422   -0.47550749
| 45> C   -0.84911561   -1.33050735   -0.21989643
| 46> H   -1.49706942   -2.18186028   -0.37955321
| 47> C   -1.39948546   -0.07603020    0.04043417
| 48> H   -2.47268667    0.04490778    0.09338206
| 49> C   -0.56529230    1.02140336    0.24227921
| 50> H   -0.99255667    1.99366131    0.44625817
| 51> N   -2.27590693    0.10216662    3.07472114
| 52> C   -1.66102100    1.25983443    3.35478533
| 53> H   -2.30862506    2.11300588    3.51729742
| 54> C   -0.27880610    1.40068216    3.44495615
| 55> H    0.15304265    2.36433228    3.67617244
| 56> C    0.52214529    0.28370286    3.23074224
| 57> H    1.59971446    0.35408714    3.28557675
| 58> C   -0.09840662   -0.92495218    2.93708266
| 59> H    0.47736789   -1.82057406    2.75300772
| 60> C   -1.48892089   -0.96299006    2.87163324
| 61> H   -1.99777382   -1.89144344    2.64279057
| 62> *
| 63>
| 64> $new_job
| 65> ! ri-mp2 aug-cc-pvqz aug-cc-pvqz/c tightscf
| 66> %pal nprocs 16 end
| 67> %maxcore 3800
| 68> %base "QZ_S66by10_27_0.9_dimer"
| 69>
| 70> *xyz 0 1
| 71> C    0.81874699    0.86417234    0.18828612
| 72> H    1.46611361    1.71666767    0.34472141
| 73> C    1.36899712   -0.39052394   -0.06669818
| 74> H    2.44303637   -0.51186194   -0.11057444
| 75> C    0.53437860   -1.48849320   -0.27188804
| 76> H    0.96084825   -2.46156422   -0.47550749
| 77> C   -0.84911561   -1.33050735   -0.21989643
| 78> H   -1.49706942   -2.18186028   -0.37955321
| 79> C   -1.39948546   -0.07603020    0.04043417
| 80> H   -2.47268667    0.04490778    0.09338206
| 81> C   -0.56529230    1.02140336    0.24227921
| 82> H   -0.99255667    1.99366131    0.44625817
| 83> N   -2.27590693    0.10216662    3.07472114
| 84> C   -1.66102100    1.25983443    3.35478533
| 85> H   -2.30862506    2.11300588    3.51729742
| 86> C   -0.27880610    1.40068216    3.44495615
| 87> H    0.15304265    2.36433228    3.67617244
| 88> C    0.52214529    0.28370286    3.23074224
| 89> H    1.59971446    0.35408714    3.28557675
| 90> C   -0.09840662   -0.92495218    2.93708266
| 91> H    0.47736789   -1.82057406    2.75300772
| 92> C   -1.48892089   -0.96299006    2.87163324
| 93> H   -1.99777382   -1.89144344    2.64279057
| 94> *
| 95>
| 96>
| 97>
| 98>
| 99>                          ****END OF INPUT****
 Total Charge           Charge          ....    0
 Multiplicity           Mult            ....    1
 Number of Electrons    NEL             ....   84
MP2 TOTAL ENERGY:     -479.114781498 Eh
FINAL SINGLE POINT ENERGY      -479.114781497516
MP2 TOTAL ENERGY:     -479.531770104 Eh
FINAL SINGLE POINT ENERGY      -479.531770104258

CARTESIAN COORDINATES (ANGSTROEM)
---------------------------------
  C      0.818747    0.864172    0.188286
  H      1.466114    1.716668    0.344721
  C      1.368997   -0.390524   -0.066698
  H      2.443036   -0.511862   -0.110574
  C      0.534379   -1.488493   -0.271888
  H      0.960848   -2.461564   -0.475507
  C     -0.849116   -1.330507   -0.219896
  H     -1.497069   -2.181860   -0.379553
  C     -1.399485   -0.076030    0.040434
  H     -2.472687    0.044908    0.093382
  C     -0.565292    1.021403    0.242279
  H     -0.992557    1.993661    0.446258
  N     -2.275907    0.102167    3.074721
  C     -1.661021    1.259834    3.354785
  H     -2.308625    2.113006    3.517297
  C     -0.278806    1.400682    3.444956
  H      0.153043    2.364332    3.676172
  C      0.522145    0.283703    3.230742
  H      1.599714    0.354087    3.285577
  C     -0.098407   -0.924952    2.937083
  H      0.477368   -1.820574    2.753008
  C     -1.488921   -0.962990    2.871633
  H     -1.997774   -1.891443    2.642791

 Multiplicity           Mult            ....    1
 Number of Electrons    NEL             ....   84
 Basis Dimension        Dim             .... 1466

ORBITAL ENERGIES
----------------

  NO   OCC          E(Eh)            E(eV)
   0   2.0000     -15.555837      -423.2958
   1   2.0000     -11.266987      -306.5903
   2   2.0000     -11.266481      -306.5765
   3   2.0000     -11.251183      -306.1603
   4   2.0000     -11.232742      -305.6584
   5   2.0000     -11.232161      -305.6427
   6   2.0000     -11.232114      -305.6414
   7   2.0000     -11.231185      -305.6161
   8   2.0000     -11.231087      -305.6134
   9   2.0000     -11.230625      -305.6008
  10   2.0000     -11.229930      -305.5819
  11   2.0000     -11.229001      -305.5566
  12   2.0000      -1.249155       -33.9912
  13   2.0000      -1.148568       -31.2541
  14   2.0000      -1.082053       -29.4442
  15   2.0000      -1.026857       -27.9422
  16   2.0000      -1.012697       -27.5569
  17   2.0000      -1.012358       -27.5477
  18   2.0000      -0.852320       -23.1928
  19   2.0000      -0.848705       -23.0944
  20   2.0000      -0.822457       -22.3802
  21   2.0000      -0.822154       -22.3719
  22   2.0000      -0.716190       -19.4885
  23   2.0000      -0.707349       -19.2480
  24   2.0000      -0.652996       -17.7689
  25   2.0000      -0.647685       -17.6244
  26   2.0000      -0.642606       -17.4862
  27   2.0000      -0.616952       -16.7881
  28   2.0000      -0.591797       -16.1036
  29   2.0000      -0.586733       -15.9658
  30   2.0000      -0.586305       -15.9542
  31   2.0000      -0.569973       -15.5098
  32   2.0000      -0.550851       -14.9894
  33   2.0000      -0.513028       -13.9602
  34   2.0000      -0.493309       -13.4236
  35   2.0000      -0.492870       -13.4117
  36   2.0000      -0.487013       -13.2523
  37   2.0000      -0.413101       -11.2411
  38   2.0000      -0.384163       -10.4536
  39   2.0000      -0.349823        -9.5192
  40   2.0000      -0.331958        -9.0330
  41   2.0000      -0.318040        -8.6543
  42   0.0000       0.022308         0.6070
  43   0.0000       0.026494         0.7209
  44   0.0000       0.029984         0.8159
  45   0.0000       0.035834         0.9751
  46   0.0000       0.038762         1.0548

MULLIKEN ATOMIC CHARGES
-----------------------
   0 C :   -0.279695
   1 H :    0.240806
   2 C :   -0.256418
   3 H :    0.279079
   4 C :   -0.360934
   5 H :    0.274951
   6 C :   -0.298692
   7 H :    0.287839
   8 C :   -0.150182
   9 H :    0.250967
  10 C :   -0.257615
  11 H :    0.273176
  12 N :   -0.842028
  13 C :   -0.224950
  14 H :    0.461472
  15 C :   -0.200232
  16 H :    0.285238
  17 C :   -0.251670
  18 H :    0.273666
  19 C :   -0.218082
  20 H :    0.275681
  21 C :    0.015665
  22 H :    0.421959
Sum of atomic charges:   -0.0000000

LOEWDIN ATOMIC CHARGES
----------------------
   0 C :    0.311871
   1 H :   -0.310698
   2 C :    0.325096
   3 H :   -0.318384
   4 C :    0.322957
   5 H :   -0.318595
   6 C :    0.317001
   7 H :   -0.312563
   8 C :    0.298729
   9 H :   -0.309381
  10 C :    0.301848
  11 H :   -0.311900
  12 N :    0.601062
  13 C :    0.060992
  14 H :   -0.347163
  15 C :    0.316660
  16 H :   -0.319550
  17 C :    0.305951
  18 H :   -0.297874
  19 C :    0.298975
  20 H :   -0.314724
  21 C :    0.037473
  22 H :   -0.337784

  Mayer bond orders larger than 0.100000
B(  0-C ,  1-H ) :   1.1182 B(  0-C ,  2-C ) :   1.2341 B(  0-C ,  6-C ) :   0.1842
B(  0-C , 10-C ) :   1.0822 B(  2-C ,  3-H ) :   1.0728 B(  2-C ,  4-C ) :   1.2919
B(  2-C ,  8-C ) :   0.2076 B(  4-C ,  5-H ) :   1.0842 B(  4-C ,  6-C ) :   1.2141
B(  4-C , 10-C ) :   0.1372 B(  6-C ,  7-H ) :   1.0508 B(  6-C ,  8-C ) :   1.1669
B(  8-C ,  9-H ) :   1.1043 B(  8-C , 10-C ) :   1.1191 B( 10-C , 11-H ) :   1.0277
B( 12-N , 13-C ) :   1.1379 B( 12-N , 14-H ) :  -0.1504 B( 12-N , 21-C ) :   1.0098
B( 12-N , 22-H ) :  -0.1626 B( 13-C , 14-H ) :   0.9087 B( 13-C , 15-C ) :   1.2177
B( 15-C , 16-H ) :   1.0455 B( 15-C , 17-C ) :   1.1737 B( 17-C , 18-H ) :   1.0316
B( 17-C , 19-C ) :   1.1295 B( 19-C , 20-H ) :   1.0171 B( 19-C , 21-C ) :   1.0796
B( 19-C , 22-H ) :  -0.1387 B( 21-C , 22-H ) :   0.9666

MP2 TOTAL ENERGY:     -479.664077062 Eh
FINAL SINGLE POINT ENERGY      -479.664077061617

DIPOLE MOMENT
-------------
                                X             Y             Z
Electronic contribution:     -1.77249       0.11171       1.45204
Nuclear contribution   :      2.63308      -0.06701      -1.46568
                        -----------------------------------------
Total Dipole Moment    :      0.86059       0.04470      -0.01364
                        -----------------------------------------
Magnitude (a.u.)       :      0.86185
Magnitude (Debye)      :      2.19066

Rotational constants in cm-1:     0.055165     0.027905     0.026060
Rotational constants in MHz :  1653.812085   836.584712   781.265849

                             ****ORCA TERMINATED NORMALLY****
TOTAL RUN TIME: 0 days 1 hours 51 minutes 30 seconds 184 msec
