                         Program Version 5.0.4 -  RELEASE  -
|  1> ! ri-mp2 aug-cc-pvdz aug-cc-pvdz/c tightscf
|  2> %pal nprocs 16 end
|  3> %maxcore 3800
|  4> %base "DZ_S66by10_10_0.9_dimer"
|  5> %scf STABPerform true end
|  6>
|  7> *xyz 0 1
|  8> N   -0.63864138    0.47091637    0.04456848
|  9> H    0.18995436   -0.11393716   -0.00577361
| 10> H   -1.30046894    0.08125680   -0.61366848
| 11> C   -1.19865882    0.39139858    1.39194660
| 12> H   -2.09273777    1.00924471    1.45316749
| 13> H   -1.46274551   -0.61584367    1.72945219
| 14> H   -0.48027554    0.79867491    2.10108731
| 15> N    2.20664297   -0.42579209    0.17939266
| 16> H    2.50291164   -0.15125435   -0.74859259
| 17> H    2.83019264   -1.17348240    0.45458752
| 18> C    2.36687294    0.70941851    1.09306796
| 19> H    2.09668264    0.39472273    2.09872107
| 20> H    3.37428326    1.13119507    1.13003970
| 21> H    1.67433256    1.49519399    0.80041072
| 22> *
| 23>
| 24> $new_job
| 25> ! ri-mp2 aug-cc-pvtz aug-cc-pvtz/c tightscf
| 26> %pal nprocs 16 end
| 27> %maxcore 3800
| 28> %base "TZ_S66by10_10_0.9_dimer"
| 29>
| 30> *xyz 0 1
| 31> N   -0.63864138    0.47091637    0.04456848
| 32> H    0.18995436   -0.11393716   -0.00577361
| 33> H   -1.30046894    0.08125680   -0.61366848
| 34> C   -1.19865882    0.39139858    1.39194660
| 35> H   -2.09273777    1.00924471    1.45316749
| 36> H   -1.46274551   -0.61584367    1.72945219
| 37> H   -0.48027554    0.79867491    2.10108731
| 38> N    2.20664297   -0.42579209    0.17939266
| 39> H    2.50291164   -0.15125435   -0.74859259
| 40> H    2.83019264   -1.17348240    0.45458752
| 41> C    2.36687294    0.70941851    1.09306796
| 42> H    2.09668264    0.39472273    2.09872107
| 43> H    3.37428326    1.13119507    1.13003970
| 44> H    1.67433256    1.49519399    0.80041072
| 45> *
| 46>
| 47> $new_job
| 48> ! ri-mp2 aug-cc-pvqz aug-cc-pvqz/c tightscf
| 49> %pal nprocs 16 end
| 50> %maxcore 3800
| 51> %base "QZ_S66by10_10_0.9_dimer"
| 52>
| 53> *xyz 0 1
| 54> N   -0.63864138    0.47091637    0.04456848
| 55> H    0.18995436   -0.11393716   -0.00577361
| 56> H   -1.30046894    0.08125680   -0.61366848
| 57> C   -1.19865882    0.39139858    1.39194660
| 58> H   -2.09273777    1.00924471    1.45316749
| 59> H   -1.46274551   -0.61584367    1.72945219
| 60> H   -0.48027554    0.79867491    2.10108731
| 61> N    2.20664297   -0.42579209    0.17939266
| 62> H    2.50291164   -0.15125435   -0.74859259
| 63> H    2.83019264   -1.17348240    0.45458752
| 64> C    2.36687294    0.70941851    1.09306796
| 65> H    2.09668264    0.39472273    2.09872107
| 66> H    3.37428326    1.13119507    1.13003970
| 67> H    1.67433256    1.49519399    0.80041072
| 68> *
| 69>
| 70>
| 71>
| 72>
| 73>                          ****END OF INPUT****
 Total Charge           Charge          ....    0
 Multiplicity           Mult            ....    1
 Number of Electrons    NEL             ....   36
MP2 TOTAL ENERGY:     -191.153795122 Eh
FINAL SINGLE POINT ENERGY      -191.153795121575
MP2 TOTAL ENERGY:     -191.341023654 Eh
FINAL SINGLE POINT ENERGY      -191.341023653601

CARTESIAN COORDINATES (ANGSTROEM)
---------------------------------
  N     -0.638641    0.470916    0.044568
  H      0.189954   -0.113937   -0.005774
  H     -1.300469    0.081257   -0.613668
  C     -1.198659    0.391399    1.391947
  H     -2.092738    1.009245    1.453167
  H     -1.462746   -0.615844    1.729452
  H     -0.480276    0.798675    2.101087
  N      2.206643   -0.425792    0.179393
  H      2.502912   -0.151254   -0.748593
  H      2.830193   -1.173482    0.454588
  C      2.366873    0.709419    1.093068
  H      2.096683    0.394723    2.098721
  H      3.374283    1.131195    1.130040
  H      1.674333    1.495194    0.800411

 Multiplicity           Mult            ....    1
 Number of Electrons    NEL             ....   36
 Basis Dimension        Dim             ....  780

ORBITAL ENERGIES
----------------

  NO   OCC          E(Eh)            E(eV)
   0   2.0000     -15.546781      -423.0494
   1   2.0000     -15.511819      -422.0981
   2   2.0000     -11.240074      -305.8580
   3   2.0000     -11.225177      -305.4526
   4   2.0000      -1.181016       -32.1371
   5   2.0000      -1.149280       -31.2735
   6   2.0000      -0.900638       -24.5076
   7   2.0000      -0.879848       -23.9419
   8   2.0000      -0.673125       -18.3167
   9   2.0000      -0.650542       -17.7022
  10   2.0000      -0.604569       -16.4512
  11   2.0000      -0.587870       -15.9967
  12   2.0000      -0.559631       -15.2283
  13   2.0000      -0.535939       -14.5836
  14   2.0000      -0.520723       -14.1696
  15   2.0000      -0.502437       -13.6720
  16   2.0000      -0.405262       -11.0277
  17   2.0000      -0.371731       -10.1153
  18   0.0000       0.024106         0.6559
  19   0.0000       0.034732         0.9451
  20   0.0000       0.035978         0.9790
  21   0.0000       0.037608         1.0234
  22   0.0000       0.050352         1.3701

MULLIKEN ATOMIC CHARGES
-----------------------
   0 N :   -0.600275
   1 H :    0.297430
   2 H :    0.171625
   3 C :   -0.799200
   4 H :    0.336415
   5 H :    0.266506
   6 H :    0.292844
   7 N :   -0.504147
   8 H :    0.218608
   9 H :    0.197614
  10 C :   -0.733164
  11 H :    0.240522
  12 H :    0.357178
  13 H :    0.258045
Sum of atomic charges:    0.0000000

LOEWDIN ATOMIC CHARGES
----------------------
   0 N :    1.257064
   1 H :   -0.697528
   2 H :   -0.511204
   3 C :    0.746535
   4 H :   -0.311370
   5 H :   -0.287038
   6 H :   -0.331499
   7 N :    1.269805
   8 H :   -0.488736
   9 H :   -0.496101
  10 C :    0.765538
  11 H :   -0.302837
  12 H :   -0.279726
  13 H :   -0.332904

  Mayer bond orders larger than 0.100000
B(  0-N ,  1-H ) :   0.8536 B(  0-N ,  2-H ) :   1.0070 B(  0-N ,  3-C ) :   0.9706
B(  3-C ,  4-H ) :   0.8995 B(  3-C ,  5-H ) :   0.9256 B(  3-C ,  6-H ) :   0.9000
B(  7-N ,  8-H ) :   0.9454 B(  7-N ,  9-H ) :   0.9891 B(  7-N , 10-C ) :   0.9915
B( 10-C , 11-H ) :   0.9519 B( 10-C , 12-H ) :   0.8465 B( 10-C , 13-H ) :   0.9343

MP2 TOTAL ENERGY:     -191.398203252 Eh
FINAL SINGLE POINT ENERGY      -191.398203252009

DIPOLE MOMENT
-------------
                                X             Y             Z
Electronic contribution:      0.29270      -0.56068      -1.55289
Nuclear contribution   :      0.32704       0.14927       1.61341
                        -----------------------------------------
Total Dipole Moment    :      0.61974      -0.41141       0.06051
                        -----------------------------------------
Magnitude (a.u.)       :      0.74632
Magnitude (Debye)      :      1.89700

Rotational constants in cm-1:     0.401611     0.092283     0.083234
Rotational constants in MHz : 12039.992797  2766.565501  2495.296518

                             ****ORCA TERMINATED NORMALLY****
TOTAL RUN TIME: 0 days 0 hours 32 minutes 42 seconds 706 msec
