                         Program Version 5.0.4 -  RELEASE  -
|  1> ! ri-mp2 aug-cc-pvdz aug-cc-pvdz/c tightscf
|  2> %pal nprocs 16 end
|  3> %maxcore 3800
|  4> %base "DZ_S66by10_23_0.95_dimer"
|  5> %scf STABPerform true end
|  6>
|  7> *xyz 0 1
|  8> C   -1.23272700    1.21163896   -0.14162406
|  9> O   -0.57127667    2.24201573    0.02561679
| 10> N   -0.67058051    0.00388878   -0.31428147
| 11> H    0.34384695   -0.09056011   -0.30832667
| 12> H   -1.24421373   -0.80632370   -0.44668271
| 13> C   -2.73824495    1.26675766   -0.15588657
| 14> H   -3.07797534    1.64660511    0.80450159
| 15> H   -3.20211503    0.30286549   -0.34621112
| 16> H   -3.04998747    1.97549049   -0.91859737
| 17> N    4.11394858    1.11620566   -0.12056522
| 18> H    4.60397803    0.24024848   -0.23850369
| 19> C    4.91757459    2.25905060    0.02991647
| 20> O    6.13313662    2.16342827    0.01473170
| 21> C    4.14498242    3.47436708    0.19306041
| 22> H    4.66674541    4.40755994    0.31609553
| 23> C    2.79582170    3.41269155    0.18738366
| 24> H    2.17541765    4.28905194    0.30506055
| 25> N    2.11073960    2.24041004    0.03281789
| 26> H    1.07794912    2.23134898    0.03198057
| 27> C    2.74162956    1.03594055   -0.12944215
| 28> O    2.14444083   -0.02797542   -0.27124964
| 29> *
| 30>
| 31> $new_job
| 32> ! ri-mp2 aug-cc-pvtz aug-cc-pvtz/c tightscf
| 33> %pal nprocs 16 end
| 34> %maxcore 3800
| 35> %base "TZ_S66by10_23_0.95_dimer"
| 36>
| 37> *xyz 0 1
| 38> C   -1.23272700    1.21163896   -0.14162406
| 39> O   -0.57127667    2.24201573    0.02561679
| 40> N   -0.67058051    0.00388878   -0.31428147
| 41> H    0.34384695   -0.09056011   -0.30832667
| 42> H   -1.24421373   -0.80632370   -0.44668271
| 43> C   -2.73824495    1.26675766   -0.15588657
| 44> H   -3.07797534    1.64660511    0.80450159
| 45> H   -3.20211503    0.30286549   -0.34621112
| 46> H   -3.04998747    1.97549049   -0.91859737
| 47> N    4.11394858    1.11620566   -0.12056522
| 48> H    4.60397803    0.24024848   -0.23850369
| 49> C    4.91757459    2.25905060    0.02991647
| 50> O    6.13313662    2.16342827    0.01473170
| 51> C    4.14498242    3.47436708    0.19306041
| 52> H    4.66674541    4.40755994    0.31609553
| 53> C    2.79582170    3.41269155    0.18738366
| 54> H    2.17541765    4.28905194    0.30506055
| 55> N    2.11073960    2.24041004    0.03281789
| 56> H    1.07794912    2.23134898    0.03198057
| 57> C    2.74162956    1.03594055   -0.12944215
| 58> O    2.14444083   -0.02797542   -0.27124964
| 59> *
| 60>
| 61> $new_job
| 62> ! ri-mp2 aug-cc-pvqz aug-cc-pvqz/c tightscf
| 63> %pal nprocs 16 end
| 64> %maxcore 3800
| 65> %base "QZ_S66by10_23_0.95_dimer"
| 66>
| 67> *xyz 0 1
| 68> C   -1.23272700    1.21163896   -0.14162406
| 69> O   -0.57127667    2.24201573    0.02561679
| 70> N   -0.67058051    0.00388878   -0.31428147
| 71> H    0.34384695   -0.09056011   -0.30832667
| 72> H   -1.24421373   -0.80632370   -0.44668271
| 73> C   -2.73824495    1.26675766   -0.15588657
| 74> H   -3.07797534    1.64660511    0.80450159
| 75> H   -3.20211503    0.30286549   -0.34621112
| 76> H   -3.04998747    1.97549049   -0.91859737
| 77> N    4.11394858    1.11620566   -0.12056522
| 78> H    4.60397803    0.24024848   -0.23850369
| 79> C    4.91757459    2.25905060    0.02991647
| 80> O    6.13313662    2.16342827    0.01473170
| 81> C    4.14498242    3.47436708    0.19306041
| 82> H    4.66674541    4.40755994    0.31609553
| 83> C    2.79582170    3.41269155    0.18738366
| 84> H    2.17541765    4.28905194    0.30506055
| 85> N    2.11073960    2.24041004    0.03281789
| 86> H    1.07794912    2.23134898    0.03198057
| 87> C    2.74162956    1.03594055   -0.12944215
| 88> O    2.14444083   -0.02797542   -0.27124964
| 89> *
| 90>
| 91>
| 92>
| 93>
| 94>                          ****END OF INPUT****
 Total Charge           Charge          ....    0
 Multiplicity           Mult            ....    1
 Number of Electrons    NEL             ....   90
MP2 TOTAL ENERGY:     -622.476368247 Eh
FINAL SINGLE POINT ENERGY      -622.476368246766
MP2 TOTAL ENERGY:     -623.009258511 Eh
FINAL SINGLE POINT ENERGY      -623.009258510692

CARTESIAN COORDINATES (ANGSTROEM)
---------------------------------
  C     -1.232727    1.211639   -0.141624
  O     -0.571277    2.242016    0.025617
  N     -0.670581    0.003889   -0.314281
  H      0.343847   -0.090560   -0.308327
  H     -1.244214   -0.806324   -0.446683
  C     -2.738245    1.266758   -0.155887
  H     -3.077975    1.646605    0.804502
  H     -3.202115    0.302865   -0.346211
  H     -3.049987    1.975490   -0.918597
  N      4.113949    1.116206   -0.120565
  H      4.603978    0.240248   -0.238504
  C      4.917575    2.259051    0.029916
  O      6.133137    2.163428    0.014732
  C      4.144982    3.474367    0.193060
  H      4.666745    4.407560    0.316096
  C      2.795822    3.412692    0.187384
  H      2.175418    4.289052    0.305061
  N      2.110740    2.240410    0.032818
  H      1.077949    2.231349    0.031981
  C      2.741630    1.035941   -0.129442
  O      2.144441   -0.027975   -0.271250

 Multiplicity           Mult            ....    1
 Number of Electrons    NEL             ....   90
 Basis Dimension        Dim             .... 1374

ORBITAL ENERGIES
----------------

  NO   OCC          E(Eh)            E(eV)
   0   2.0000     -20.541046      -558.9503
   1   2.0000     -20.535839      -558.8086
   2   2.0000     -20.527863      -558.5916
   3   2.0000     -15.617508      -424.9740
   4   2.0000     -15.610383      -424.7801
   5   2.0000     -15.587004      -424.1440
   6   2.0000     -11.410928      -310.5071
   7   2.0000     -11.373002      -309.4751
   8   2.0000     -11.368544      -309.3538
   9   2.0000     -11.321729      -308.0799
  10   2.0000     -11.248677      -306.0921
  11   2.0000     -11.238200      -305.8070
  12   2.0000      -1.428734       -38.8778
  13   2.0000      -1.399147       -38.0727
  14   2.0000      -1.387169       -37.7468
  15   2.0000      -1.298351       -35.3299
  16   2.0000      -1.232681       -33.5430
  17   2.0000      -1.225544       -33.3488
  18   2.0000      -1.072337       -29.1798
  19   2.0000      -1.020394       -27.7663
  20   2.0000      -0.919218       -25.0132
  21   2.0000      -0.890603       -24.2345
  22   2.0000      -0.815388       -22.1878
  23   2.0000      -0.792650       -21.5691
  24   2.0000      -0.755499       -20.5582
  25   2.0000      -0.739322       -20.1180
  26   2.0000      -0.710935       -19.3455
  27   2.0000      -0.685665       -18.6579
  28   2.0000      -0.664670       -18.0866
  29   2.0000      -0.658547       -17.9200
  30   2.0000      -0.640640       -17.4327
  31   2.0000      -0.632092       -17.2001
  32   2.0000      -0.606186       -16.4951
  33   2.0000      -0.596219       -16.2239
  34   2.0000      -0.587909       -15.9978
  35   2.0000      -0.573308       -15.6005
  36   2.0000      -0.560980       -15.2650
  37   2.0000      -0.541029       -14.7221
  38   2.0000      -0.510137       -13.8815
  39   2.0000      -0.484477       -13.1833
  40   2.0000      -0.449029       -12.2187
  41   2.0000      -0.439091       -11.9483
  42   2.0000      -0.434413       -11.8210
  43   2.0000      -0.429507       -11.6875
  44   2.0000      -0.352914        -9.6033
  45   0.0000       0.016715         0.4548
  46   0.0000       0.026603         0.7239
  47   0.0000       0.031173         0.8483
  48   0.0000       0.036767         1.0005
  49   0.0000       0.039312         1.0697

MULLIKEN ATOMIC CHARGES
-----------------------
   0 C :    0.870794
   1 O :   -0.852742
   2 N :   -0.721731
   3 H :    0.364656
   4 H :    0.235831
   5 C :   -0.648634
   6 H :    0.285645
   7 H :    0.258107
   8 H :    0.277505
   9 N :   -0.647941
  10 H :    0.125348
  11 C :    1.132335
  12 O :   -0.838061
  13 C :   -0.399638
  14 H :    0.281019
  15 C :   -0.297414
  16 H :    0.341783
  17 N :   -0.519155
  18 H :    0.217850
  19 C :    1.340931
  20 O :   -0.806486
Sum of atomic charges:   -0.0000000

LOEWDIN ATOMIC CHARGES
----------------------
   0 C :   -0.707284
   1 O :    0.866455
   2 N :    1.266754
   3 H :   -0.782815
   4 H :   -0.486286
   5 C :    0.902984
   6 H :   -0.296058
   7 H :   -0.311997
   8 H :   -0.298347
   9 N :    0.785154
  10 H :   -0.519874
  11 C :   -0.866721
  12 O :    0.676172
  13 C :    0.334607
  14 H :   -0.357294
  15 C :    0.245062
  16 H :   -0.292051
  17 N :    0.807103
  18 H :   -0.886751
  19 C :   -0.900710
  20 O :    0.821899

  Mayer bond orders larger than 0.100000
B(  0-C ,  1-O ) :   1.3866 B(  0-C ,  2-N ) :   1.1162 B(  0-C ,  5-C ) :   0.6845
B(  0-C ,  7-H ) :  -0.1334 B(  1-O ,  2-N ) :   0.1675 B(  2-N ,  3-H ) :   0.8326
B(  2-N ,  4-H ) :   1.0356 B(  5-C ,  6-H ) :   0.9409 B(  5-C ,  7-H ) :   1.0120
B(  5-C ,  8-H ) :   0.9602 B(  9-N , 10-H ) :   1.1964 B(  9-N , 11-C ) :   1.0325
B(  9-N , 12-O ) :   0.1507 B(  9-N , 19-C ) :   1.0200 B( 10-H , 19-C ) :  -0.1045
B( 11-C , 12-O ) :   1.0171 B( 11-C , 13-C ) :   1.1696 B( 11-C , 15-C ) :  -0.1115
B( 12-O , 13-C ) :   0.2809 B( 13-C , 14-H ) :   1.0088 B( 13-C , 15-C ) :   1.4430
B( 14-H , 15-C ) :  -0.1103 B( 15-C , 16-H ) :   0.9643 B( 15-C , 17-N ) :   1.0516
B( 17-N , 18-H ) :   0.9366 B( 17-N , 19-C ) :   1.2064 B( 17-N , 20-O ) :   0.1968
B( 19-C , 20-O ) :   1.2557

MP2 TOTAL ENERGY:     -623.183666733 Eh
FINAL SINGLE POINT ENERGY      -623.183666733171

DIPOLE MOMENT
-------------
                                X             Y             Z
Electronic contribution:     11.67216       0.49082       0.18295
Nuclear contribution   :    -14.15380      -0.68382      -0.24344
                        -----------------------------------------
Total Dipole Moment    :     -2.48164      -0.19300      -0.06049
                        -----------------------------------------
Magnitude (a.u.)       :      2.48987
Magnitude (Debye)      :      6.32875

Rotational constants in cm-1:     0.088927     0.013447     0.011707
Rotational constants in MHz :  2665.975552   403.142679   350.956949

                             ****ORCA TERMINATED NORMALLY****
TOTAL RUN TIME: 0 days 6 hours 24 minutes 4 seconds 880 msec
