                         Program Version 5.0.4 -  RELEASE  -
|  1> ! ri-mp2 aug-cc-pvdz aug-cc-pvdz/c tightscf
|  2> %pal nprocs 16 end
|  3> %maxcore 3800
|  4> %base "DZ_S66by10_12_0.95_dimer"
|  5> %scf STABPerform true end
|  6>
|  7> *xyz 0 1
|  8> N   -0.53346397   -0.27959351    0.10699576
|  9> H   -0.62915138   -1.24842455    0.38284867
| 10> H   -1.12260363   -0.16615944   -0.70776410
| 11> C   -1.01690943    0.58848610    1.18737346
| 12> H   -0.91275967    1.62555174    0.87952116
| 13> H   -2.05473726    0.41508213    1.47850360
| 14> H   -0.38502338    0.44880090    2.06061419
| 15> O    2.03678547    0.89543791    0.21422179
| 16> H    1.21926807    0.39916542    0.04106888
| 17> H    2.61868692    0.63694004   -0.50152431
| 18> *
| 19>
| 20> $new_job
| 21> ! ri-mp2 aug-cc-pvtz aug-cc-pvtz/c tightscf
| 22> %pal nprocs 16 end
| 23> %maxcore 3800
| 24> %base "TZ_S66by10_12_0.95_dimer"
| 25>
| 26> *xyz 0 1
| 27> N   -0.53346397   -0.27959351    0.10699576
| 28> H   -0.62915138   -1.24842455    0.38284867
| 29> H   -1.12260363   -0.16615944   -0.70776410
| 30> C   -1.01690943    0.58848610    1.18737346
| 31> H   -0.91275967    1.62555174    0.87952116
| 32> H   -2.05473726    0.41508213    1.47850360
| 33> H   -0.38502338    0.44880090    2.06061419
| 34> O    2.03678547    0.89543791    0.21422179
| 35> H    1.21926807    0.39916542    0.04106888
| 36> H    2.61868692    0.63694004   -0.50152431
| 37> *
| 38>
| 39> $new_job
| 40> ! ri-mp2 aug-cc-pvqz aug-cc-pvqz/c tightscf
| 41> %pal nprocs 16 end
| 42> %maxcore 3800
| 43> %base "QZ_S66by10_12_0.95_dimer"
| 44>
| 45> *xyz 0 1
| 46> N   -0.53346397   -0.27959351    0.10699576
| 47> H   -0.62915138   -1.24842455    0.38284867
| 48> H   -1.12260363   -0.16615944   -0.70776410
| 49> C   -1.01690943    0.58848610    1.18737346
| 50> H   -0.91275967    1.62555174    0.87952116
| 51> H   -2.05473726    0.41508213    1.47850360
| 52> H   -0.38502338    0.44880090    2.06061419
| 53> O    2.03678547    0.89543791    0.21422179
| 54> H    1.21926807    0.39916542    0.04106888
| 55> H    2.61868692    0.63694004   -0.50152431
| 56> *
| 57>
| 58>
| 59>
| 60>
| 61>                          ****END OF INPUT****
 Total Charge           Charge          ....    0
 Multiplicity           Mult            ....    1
 Number of Electrons    NEL             ....   28
MP2 TOTAL ENERGY:     -171.846708274 Eh
FINAL SINGLE POINT ENERGY      -171.846708274277
MP2 TOTAL ENERGY:     -172.008386152 Eh
FINAL SINGLE POINT ENERGY      -172.008386151958

CARTESIAN COORDINATES (ANGSTROEM)
---------------------------------
  N     -0.533464   -0.279594    0.106996
  H     -0.629151   -1.248425    0.382849
  H     -1.122604   -0.166159   -0.707764
  C     -1.016909    0.588486    1.187373
  H     -0.912760    1.625552    0.879521
  H     -2.054737    0.415082    1.478504
  H     -0.385023    0.448801    2.060614
  O      2.036785    0.895438    0.214222
  H      1.219268    0.399165    0.041069
  H      2.618687    0.636940   -0.501524

 Multiplicity           Mult            ....    1
 Number of Electrons    NEL             ....   28
 Basis Dimension        Dim             ....  562

ORBITAL ENERGIES
----------------

  NO   OCC          E(Eh)            E(eV)
   0   2.0000     -20.519519      -558.3645
   1   2.0000     -15.559976      -423.4085
   2   2.0000     -11.248917      -306.0986
   3   2.0000      -1.309439       -35.6317
   4   2.0000      -1.191722       -32.4284
   5   2.0000      -0.909824       -24.7576
   6   2.0000      -0.685109       -18.6428
   7   2.0000      -0.681286       -18.5387
   8   2.0000      -0.615126       -16.7384
   9   2.0000      -0.569732       -15.5032
  10   2.0000      -0.549027       -14.9398
  11   2.0000      -0.529299       -14.4030
  12   2.0000      -0.468978       -12.7615
  13   2.0000      -0.417625       -11.3642
  14   0.0000       0.021478         0.5845
  15   0.0000       0.034749         0.9456
  16   0.0000       0.037931         1.0322
  17   0.0000       0.040946         1.1142
  18   0.0000       0.054629         1.4865

MULLIKEN ATOMIC CHARGES
-----------------------
   0 N :   -0.391871
   1 H :    0.186281
   2 H :    0.188107
   3 C :   -0.763175
   4 H :    0.265139
   5 H :    0.359079
   6 H :    0.267148
   7 O :   -0.664750
   8 H :    0.273361
   9 H :    0.280681
Sum of atomic charges:   -0.0000000

LOEWDIN ATOMIC CHARGES
----------------------
   0 N :    1.264022
   1 H :   -0.480018
   2 H :   -0.480689
   3 C :    0.784547
   4 H :   -0.301371
   5 H :   -0.285092
   6 H :   -0.301475
   7 O :    1.611714
   8 H :   -1.021864
   9 H :   -0.789775

  Mayer bond orders larger than 0.100000
B(  0-N ,  1-H ) :   1.0057 B(  0-N ,  2-H ) :   1.0070 B(  0-N ,  3-C ) :   0.9898
B(  0-N ,  8-H ) :   0.1335 B(  3-C ,  4-H ) :   0.9356 B(  3-C ,  5-H ) :   0.8374
B(  3-C ,  6-H ) :   0.9343 B(  7-O ,  8-H ) :   0.9045 B(  7-O ,  9-H ) :   0.9852

MP2 TOTAL ENERGY:     -172.059826375 Eh
FINAL SINGLE POINT ENERGY      -172.059826374779

DIPOLE MOMENT
-------------
                                X             Y             Z
Electronic contribution:      1.72992      -0.06421      -0.76121
Nuclear contribution   :     -2.72121      -0.63974       0.34505
                        -----------------------------------------
Total Dipole Moment    :     -0.99130      -0.70395      -0.41616
                        -----------------------------------------
Magnitude (a.u.)       :      1.28507
Magnitude (Debye)      :      3.26640

Rotational constants in cm-1:     0.748766     0.158248     0.136724
Rotational constants in MHz : 22447.453996  4744.162612  4098.885244

                             ****ORCA TERMINATED NORMALLY****
TOTAL RUN TIME: 0 days 0 hours 13 minutes 8 seconds 834 msec
