                         Program Version 5.0.4 -  RELEASE  -
|  1> ! ri-mp2 aug-cc-pvdz aug-cc-pvdz/c tightscf
|  2> %pal nprocs 16 end
|  3> %maxcore 3800
|  4> %base "DZ_S66by10_46_0.8_dimer"
|  5> %scf STABPerform true end
|  6>
|  7> *xyz 0 1
|  8> C    1.37219093    1.01247736    0.97082468
|  9> H    0.95217623    2.01404955    1.03311725
| 10> H    1.94742170    0.92651560    0.05071776
| 11> H    2.05170208    0.85182517    1.80295247
| 12> C    0.32673706   -0.07764727    0.98819876
| 13> O    0.61882128   -1.25248130    1.17128126
| 14> N   -0.95002884    0.34488680    0.77391491
| 15> H   -1.10467156    1.32202550    0.60611216
| 16> C   -2.05985440   -0.57736895    0.68015349
| 17> H   -1.66935602   -1.56679601    0.89718425
| 18> H   -2.83459176   -0.33138032    1.40366139
| 19> H   -2.49097050   -0.57892483   -0.31993926
| 20> C    2.62179926    0.43554129    4.39805760
| 21> H    2.73863854    1.18995718    3.61931278
| 22> H    2.53568889    0.96042761    5.34971366
| 23> H    3.53389070   -0.15870062    4.42486561
| 24> C    1.39352703   -0.42784622    4.14050605
| 25> H    1.29895768   -1.17330022    4.93355689
| 26> H    1.50994716   -0.98131055    3.20666225
| 27> C    0.11098919    0.39076773    4.07520470
| 28> H   -0.00058113    0.96850261    4.99828835
| 29> H    0.19022334    1.12358263    3.26555205
| 30> C   -1.13336710   -0.45956751    3.85832480
| 31> H   -1.22416907   -1.17405400    4.67974203
| 32> H   -1.00556010   -1.04850524    2.94811035
| 33> C   -2.40020560    0.38072400    3.76821008
| 34> H   -2.33329236    1.08777498    2.94044084
| 35> H   -3.28554781   -0.23529349    3.61437717
| 36> H   -2.55056164    0.95693509    4.68142967
| 37> *
| 38>
| 39> $new_job
| 40> ! ri-mp2 aug-cc-pvtz aug-cc-pvtz/c tightscf
| 41> %pal nprocs 16 end
| 42> %maxcore 3800
| 43> %base "TZ_S66by10_46_0.8_dimer"
| 44>
| 45> *xyz 0 1
| 46> C    1.37219093    1.01247736    0.97082468
| 47> H    0.95217623    2.01404955    1.03311725
| 48> H    1.94742170    0.92651560    0.05071776
| 49> H    2.05170208    0.85182517    1.80295247
| 50> C    0.32673706   -0.07764727    0.98819876
| 51> O    0.61882128   -1.25248130    1.17128126
| 52> N   -0.95002884    0.34488680    0.77391491
| 53> H   -1.10467156    1.32202550    0.60611216
| 54> C   -2.05985440   -0.57736895    0.68015349
| 55> H   -1.66935602   -1.56679601    0.89718425
| 56> H   -2.83459176   -0.33138032    1.40366139
| 57> H   -2.49097050   -0.57892483   -0.31993926
| 58> C    2.62179926    0.43554129    4.39805760
| 59> H    2.73863854    1.18995718    3.61931278
| 60> H    2.53568889    0.96042761    5.34971366
| 61> H    3.53389070   -0.15870062    4.42486561
| 62> C    1.39352703   -0.42784622    4.14050605
| 63> H    1.29895768   -1.17330022    4.93355689
| 64> H    1.50994716   -0.98131055    3.20666225
| 65> C    0.11098919    0.39076773    4.07520470
| 66> H   -0.00058113    0.96850261    4.99828835
| 67> H    0.19022334    1.12358263    3.26555205
| 68> C   -1.13336710   -0.45956751    3.85832480
| 69> H   -1.22416907   -1.17405400    4.67974203
| 70> H   -1.00556010   -1.04850524    2.94811035
| 71> C   -2.40020560    0.38072400    3.76821008
| 72> H   -2.33329236    1.08777498    2.94044084
| 73> H   -3.28554781   -0.23529349    3.61437717
| 74> H   -2.55056164    0.95693509    4.68142967
| 75> *
| 76>
| 77> $new_job
| 78> ! ri-mp2 aug-cc-pvqz aug-cc-pvqz/c tightscf
| 79> %pal nprocs 16 end
| 80> %maxcore 3800
| 81> %base "QZ_S66by10_46_0.8_dimer"
| 82>
| 83> *xyz 0 1
| 84> C    1.37219093    1.01247736    0.97082468
| 85> H    0.95217623    2.01404955    1.03311725
| 86> H    1.94742170    0.92651560    0.05071776
| 87> H    2.05170208    0.85182517    1.80295247
| 88> C    0.32673706   -0.07764727    0.98819876
| 89> O    0.61882128   -1.25248130    1.17128126
| 90> N   -0.95002884    0.34488680    0.77391491
| 91> H   -1.10467156    1.32202550    0.60611216
| 92> C   -2.05985440   -0.57736895    0.68015349
| 93> H   -1.66935602   -1.56679601    0.89718425
| 94> H   -2.83459176   -0.33138032    1.40366139
| 95> H   -2.49097050   -0.57892483   -0.31993926
| 96> C    2.62179926    0.43554129    4.39805760
| 97> H    2.73863854    1.18995718    3.61931278
| 98> H    2.53568889    0.96042761    5.34971366
| 99> H    3.53389070   -0.15870062    4.42486561
|100> C    1.39352703   -0.42784622    4.14050605
|101> H    1.29895768   -1.17330022    4.93355689
|102> H    1.50994716   -0.98131055    3.20666225
|103> C    0.11098919    0.39076773    4.07520470
|104> H   -0.00058113    0.96850261    4.99828835
|105> H    0.19022334    1.12358263    3.26555205
|106> C   -1.13336710   -0.45956751    3.85832480
|107> H   -1.22416907   -1.17405400    4.67974203
|108> H   -1.00556010   -1.04850524    2.94811035
|109> C   -2.40020560    0.38072400    3.76821008
|110> H   -2.33329236    1.08777498    2.94044084
|111> H   -3.28554781   -0.23529349    3.61437717
|112> H   -2.55056164    0.95693509    4.68142967
|113> *
|114>
|115>
|116>
|117>
|118>                          ****END OF INPUT****
 Total Charge           Charge          ....    0
 Multiplicity           Mult            ....    1
 Number of Electrons    NEL             ....   82
MP2 TOTAL ENERGY:     -444.966565213 Eh
FINAL SINGLE POINT ENERGY      -444.966565212633
MP2 TOTAL ENERGY:     -445.384987479 Eh
FINAL SINGLE POINT ENERGY      -445.384987479494

CARTESIAN COORDINATES (ANGSTROEM)
---------------------------------
  C      1.372191    1.012477    0.970825
  H      0.952176    2.014050    1.033117
  H      1.947422    0.926516    0.050718
  H      2.051702    0.851825    1.802952
  C      0.326737   -0.077647    0.988199
  O      0.618821   -1.252481    1.171281
  N     -0.950029    0.344887    0.773915
  H     -1.104672    1.322026    0.606112
  C     -2.059854   -0.577369    0.680153
  H     -1.669356   -1.566796    0.897184
  H     -2.834592   -0.331380    1.403661
  H     -2.490970   -0.578925   -0.319939
  C      2.621799    0.435541    4.398058
  H      2.738639    1.189957    3.619313
  H      2.535689    0.960428    5.349714
  H      3.533891   -0.158701    4.424866
  C      1.393527   -0.427846    4.140506
  H      1.298958   -1.173300    4.933557
  H      1.509947   -0.981311    3.206662
  C      0.110989    0.390768    4.075205
  H     -0.000581    0.968503    4.998288
  H      0.190223    1.123583    3.265552
  C     -1.133367   -0.459568    3.858325
  H     -1.224169   -1.174054    4.679742
  H     -1.005560   -1.048505    2.948110
  C     -2.400206    0.380724    3.768210
  H     -2.333292    1.087775    2.940441
  H     -3.285548   -0.235293    3.614377
  H     -2.550562    0.956935    4.681430

 Multiplicity           Mult            ....    1
 Number of Electrons    NEL             ....   82
 Basis Dimension        Dim             .... 1674

ORBITAL ENERGIES
----------------

  NO   OCC          E(Eh)            E(eV)
   0   2.0000     -20.511109      -558.1357
   1   2.0000     -15.585492      -424.1028
   2   2.0000     -11.349348      -308.8315
   3   2.0000     -11.253520      -306.2238
   4   2.0000     -11.233771      -305.6865
   5   2.0000     -11.205624      -304.9205
   6   2.0000     -11.203957      -304.8752
   7   2.0000     -11.201730      -304.8146
   8   2.0000     -11.201218      -304.8006
   9   2.0000     -11.196209      -304.6643
  10   2.0000      -1.378603       -37.5137
  11   2.0000      -1.232753       -33.5449
  12   2.0000      -1.075431       -29.2640
  13   2.0000      -1.022974       -27.8365
  14   2.0000      -1.008679       -27.4476
  15   2.0000      -0.934304       -25.4237
  16   2.0000      -0.915391       -24.9091
  17   2.0000      -0.815556       -22.1924
  18   2.0000      -0.791942       -21.5498
  19   2.0000      -0.778777       -21.1916
  20   2.0000      -0.693325       -18.8663
  21   2.0000      -0.669278       -18.2120
  22   2.0000      -0.655709       -17.8427
  23   2.0000      -0.618715       -16.8361
  24   2.0000      -0.602408       -16.3924
  25   2.0000      -0.594427       -16.1752
  26   2.0000      -0.585418       -15.9300
  27   2.0000      -0.568970       -15.4824
  28   2.0000      -0.556555       -15.1446
  29   2.0000      -0.550412       -14.9775
  30   2.0000      -0.546611       -14.8740
  31   2.0000      -0.544362       -14.8128
  32   2.0000      -0.526724       -14.3329
  33   2.0000      -0.504724       -13.7342
  34   2.0000      -0.489517       -13.3204
  35   2.0000      -0.470830       -12.8119
  36   2.0000      -0.454803       -12.3758
  37   2.0000      -0.449632       -12.2351
  38   2.0000      -0.440864       -11.9965
  39   2.0000      -0.423592       -11.5265
  40   2.0000      -0.391598       -10.6559
  41   0.0000       0.018850         0.5129
  42   0.0000       0.027522         0.7489
  43   0.0000       0.029246         0.7958
  44   0.0000       0.032378         0.8810
  45   0.0000       0.039441         1.0733

MULLIKEN ATOMIC CHARGES
-----------------------
   0 C :   -1.012892
   1 H :    0.188528
   2 H :    0.305714
   3 H :    0.364009
   4 C :    1.643800
   5 O :   -1.124824
   6 N :   -0.502792
   7 H :    0.218244
   8 C :   -0.876238
   9 H :    0.241350
  10 H :    0.262702
  11 H :    0.306465
  12 C :   -1.008208
  13 H :    0.257416
  14 H :    0.198412
  15 H :    0.235111
  16 C :   -0.501536
  17 H :    0.223873
  18 H :    0.315462
  19 C :   -0.092001
  20 H :    0.266591
  21 H :    0.311455
  22 C :   -0.492937
  23 H :    0.235574
  24 H :    0.350767
  25 C :   -0.985898
  26 H :    0.228916
  27 H :    0.236474
  28 H :    0.206464
Sum of atomic charges:   -0.0000000

LOEWDIN ATOMIC CHARGES
----------------------
   0 C :    0.917106
   1 H :   -0.284672
   2 H :   -0.267259
   3 H :   -0.373244
   4 C :   -0.820533
   5 O :    0.791720
   6 N :    0.855758
   7 H :   -0.484591
   8 C :    0.796084
   9 H :   -0.344170
  10 H :   -0.343980
  11 H :   -0.262279
  12 C :    0.942566
  13 H :   -0.313678
  14 H :   -0.277527
  15 H :   -0.270370
  16 C :    0.513715
  17 H :   -0.259719
  18 H :   -0.374846
  19 C :    0.498207
  20 H :   -0.255647
  21 H :   -0.328217
  22 C :    0.514977
  23 H :   -0.252093
  24 H :   -0.387158
  25 C :    0.927600
  26 H :   -0.316434
  27 H :   -0.271599
  28 H :   -0.269718

  Mayer bond orders larger than 0.100000
B(  0-C ,  1-H ) :   1.0665 B(  0-C ,  2-H ) :   0.9498 B(  0-C ,  3-H ) :   0.8530
B(  0-C ,  4-C ) :   0.7869 B(  0-C ,  5-O ) :   0.1170 B(  1-H ,  4-C ) :  -0.1037
B(  4-C ,  5-O ) :   0.7520 B(  4-C ,  6-N ) :   1.0305 B(  4-C ,  8-C ) :  -0.1407
B(  5-O ,  6-N ) :   0.1602 B(  6-N ,  7-H ) :   1.0366 B(  6-N ,  8-C ) :   0.8614
B(  8-C ,  9-H ) :   1.0316 B(  8-C , 10-H ) :   0.8837 B(  8-C , 11-H ) :   0.9970
B( 12-C , 13-H ) :   0.9415 B( 12-C , 14-H ) :   1.0465 B( 12-C , 15-H ) :   1.0618
B( 12-C , 16-C ) :   0.8935 B( 12-C , 19-C ) :  -0.1269 B( 15-H , 16-C ) :  -0.1029
B( 16-C , 17-H ) :   0.9650 B( 16-C , 18-H ) :   0.8444 B( 16-C , 19-C ) :   0.6642
B( 19-C , 20-H ) :   0.9391 B( 19-C , 21-H ) :   0.8835 B( 19-C , 22-C ) :   0.7929
B( 19-C , 25-C ) :  -0.1367 B( 22-C , 23-H ) :   0.9419 B( 22-C , 24-H ) :   0.8488
B( 22-C , 25-C ) :   0.9349 B( 22-C , 27-H ) :  -0.1133 B( 25-C , 26-H ) :   0.9482
B( 25-C , 27-H ) :   1.0300 B( 25-C , 28-H ) :   1.0344

MP2 TOTAL ENERGY:     -445.513218949 Eh
FINAL SINGLE POINT ENERGY      -445.513218948627

DIPOLE MOMENT
-------------
                                X             Y             Z
Electronic contribution:      0.71372      -3.00888      -7.10651
Nuclear contribution   :     -1.33710       4.23485       6.70770
                        -----------------------------------------
Total Dipole Moment    :     -0.62338       1.22596      -0.39881
                        -----------------------------------------
Magnitude (a.u.)       :      1.43201
Magnitude (Debye)      :      3.63987

Rotational constants in cm-1:     0.045528     0.032423     0.022641
Rotational constants in MHz :  1364.896273   972.013139   678.745802

                             ****ORCA TERMINATED NORMALLY****
TOTAL RUN TIME: 0 days 13 hours 4 minutes 8 seconds 514 msec
