                         Program Version 5.0.4 -  RELEASE  -
|  1> ! ri-mp2 aug-cc-pvdz aug-cc-pvdz/c tightscf
|  2> %pal nprocs 16 end
|  3> %maxcore 3800
|  4> %base "DZ_S66by10_21_1.25_dimer"
|  5> %scf STABPerform true end
|  6>
|  7> *xyz 0 1
|  8> C   -1.30974974    1.18017617   -0.02517034
|  9> O   -0.72530044    2.15514767    0.45271335
| 10> N   -0.66562116    0.09505470   -0.49199449
| 11> H    0.35458266    0.05144817   -0.45930922
| 12> H   -1.18362704   -0.67359969   -0.87075610
| 13> C   -2.81671934    1.15599865   -0.11060597
| 14> H   -3.22062895    1.26254146    0.89308239
| 15> H   -3.20942754    0.24863402   -0.56190009
| 16> H   -3.14315813    2.01659563   -0.68889311
| 17> C    3.25770070    1.07379961    0.16411412
| 18> O    2.67327893    0.09977917   -0.31561684
| 19> N    2.61361313    2.15854283    0.63196068
| 20> H    1.59350777    2.20298062    0.59765936
| 21> H    3.13163720    2.92650403    1.01208133
| 22> C    4.76469988    1.09808399    0.24933921
| 23> H    5.15657094    1.99773351    0.71652322
| 24> H    5.16825607    1.01053895   -0.75644110
| 25> H    5.09247864    0.22750909    0.81151955
| 26> *
| 27>
| 28> $new_job
| 29> ! ri-mp2 aug-cc-pvtz aug-cc-pvtz/c tightscf
| 30> %pal nprocs 16 end
| 31> %maxcore 3800
| 32> %base "TZ_S66by10_21_1.25_dimer"
| 33>
| 34> *xyz 0 1
| 35> C   -1.30974974    1.18017617   -0.02517034
| 36> O   -0.72530044    2.15514767    0.45271335
| 37> N   -0.66562116    0.09505470   -0.49199449
| 38> H    0.35458266    0.05144817   -0.45930922
| 39> H   -1.18362704   -0.67359969   -0.87075610
| 40> C   -2.81671934    1.15599865   -0.11060597
| 41> H   -3.22062895    1.26254146    0.89308239
| 42> H   -3.20942754    0.24863402   -0.56190009
| 43> H   -3.14315813    2.01659563   -0.68889311
| 44> C    3.25770070    1.07379961    0.16411412
| 45> O    2.67327893    0.09977917   -0.31561684
| 46> N    2.61361313    2.15854283    0.63196068
| 47> H    1.59350777    2.20298062    0.59765936
| 48> H    3.13163720    2.92650403    1.01208133
| 49> C    4.76469988    1.09808399    0.24933921
| 50> H    5.15657094    1.99773351    0.71652322
| 51> H    5.16825607    1.01053895   -0.75644110
| 52> H    5.09247864    0.22750909    0.81151955
| 53> *
| 54>
| 55> $new_job
| 56> ! ri-mp2 aug-cc-pvqz aug-cc-pvqz/c tightscf
| 57> %pal nprocs 16 end
| 58> %maxcore 3800
| 59> %base "QZ_S66by10_21_1.25_dimer"
| 60>
| 61> *xyz 0 1
| 62> C   -1.30974974    1.18017617   -0.02517034
| 63> O   -0.72530044    2.15514767    0.45271335
| 64> N   -0.66562116    0.09505470   -0.49199449
| 65> H    0.35458266    0.05144817   -0.45930922
| 66> H   -1.18362704   -0.67359969   -0.87075610
| 67> C   -2.81671934    1.15599865   -0.11060597
| 68> H   -3.22062895    1.26254146    0.89308239
| 69> H   -3.20942754    0.24863402   -0.56190009
| 70> H   -3.14315813    2.01659563   -0.68889311
| 71> C    3.25770070    1.07379961    0.16411412
| 72> O    2.67327893    0.09977917   -0.31561684
| 73> N    2.61361313    2.15854283    0.63196068
| 74> H    1.59350777    2.20298062    0.59765936
| 75> H    3.13163720    2.92650403    1.01208133
| 76> C    4.76469988    1.09808399    0.24933921
| 77> H    5.15657094    1.99773351    0.71652322
| 78> H    5.16825607    1.01053895   -0.75644110
| 79> H    5.09247864    0.22750909    0.81151955
| 80> *
| 81>
| 82>
| 83>
| 84>
| 85>                          ****END OF INPUT****
 Total Charge           Charge          ....    0
 Multiplicity           Mult            ....    1
 Number of Electrons    NEL             ....   64
MP2 TOTAL ENERGY:     -417.357133178 Eh
FINAL SINGLE POINT ENERGY      -417.357133177505
MP2 TOTAL ENERGY:     -417.727285279 Eh
FINAL SINGLE POINT ENERGY      -417.727285279119

CARTESIAN COORDINATES (ANGSTROEM)
---------------------------------
  C     -1.309750    1.180176   -0.025170
  O     -0.725300    2.155148    0.452713
  N     -0.665621    0.095055   -0.491994
  H      0.354583    0.051448   -0.459309
  H     -1.183627   -0.673600   -0.870756
  C     -2.816719    1.155999   -0.110606
  H     -3.220629    1.262541    0.893082
  H     -3.209428    0.248634   -0.561900
  H     -3.143158    2.016596   -0.688893
  C      3.257701    1.073800    0.164114
  O      2.673279    0.099779   -0.315617
  N      2.613613    2.158543    0.631961
  H      1.593508    2.202981    0.597659
  H      3.131637    2.926504    1.012081
  C      4.764700    1.098084    0.249339
  H      5.156571    1.997734    0.716523
  H      5.168256    1.010539   -0.756441
  H      5.092479    0.227509    0.811520

 Multiplicity           Mult            ....    1
 Number of Electrons    NEL             ....   64
 Basis Dimension        Dim             .... 1100

ORBITAL ENERGIES
----------------

  NO   OCC          E(Eh)            E(eV)
   0   2.0000     -20.509604      -558.0947
   1   2.0000     -20.509584      -558.0941
   2   2.0000     -15.576960      -423.8706
   3   2.0000     -15.576950      -423.8703
   4   2.0000     -11.349657      -308.8399
   5   2.0000     -11.349654      -308.8398
   6   2.0000     -11.233399      -305.6763
   7   2.0000     -11.233397      -305.6763
   8   2.0000      -1.369907       -37.2771
   9   2.0000      -1.368461       -37.2377
  10   2.0000      -1.209036       -32.8995
  11   2.0000      -1.207214       -32.8500
  12   2.0000      -1.002884       -27.2899
  13   2.0000      -1.001126       -27.2420
  14   2.0000      -0.798082       -21.7169
  15   2.0000      -0.793117       -21.5818
  16   2.0000      -0.721889       -19.6436
  17   2.0000      -0.717306       -19.5189
  18   2.0000      -0.668711       -18.1966
  19   2.0000      -0.656822       -17.8730
  20   2.0000      -0.613240       -16.6871
  21   2.0000      -0.612319       -16.6621
  22   2.0000      -0.582236       -15.8435
  23   2.0000      -0.576435       -15.6856
  24   2.0000      -0.561109       -15.2686
  25   2.0000      -0.558600       -15.2003
  26   2.0000      -0.521997       -14.2043
  27   2.0000      -0.519590       -14.1388
  28   2.0000      -0.429840       -11.6965
  29   2.0000      -0.418251       -11.3812
  30   2.0000      -0.411262       -11.1910
  31   2.0000      -0.407195       -11.0803
  32   0.0000       0.024350         0.6626
  33   0.0000       0.026620         0.7244
  34   0.0000       0.036628         0.9967
  35   0.0000       0.042454         1.1552
  36   0.0000       0.042743         1.1631

MULLIKEN ATOMIC CHARGES
-----------------------
   0 C :    0.829481
   1 O :   -0.896965
   2 N :   -0.639965
   3 H :    0.350112
   4 H :    0.258555
   5 C :   -0.698260
   6 H :    0.274000
   7 H :    0.253253
   8 H :    0.269792
   9 C :    0.829484
  10 O :   -0.896805
  11 N :   -0.640085
  12 H :    0.350190
  13 H :    0.258374
  14 C :   -0.698351
  15 H :    0.253110
  16 H :    0.276289
  17 H :    0.267791
Sum of atomic charges:   -0.0000000

LOEWDIN ATOMIC CHARGES
----------------------
   0 C :   -0.829449
   1 O :    0.695671
   2 N :    1.242262
   3 H :   -0.567231
   4 H :   -0.504567
   5 C :    0.882409
   6 H :   -0.301237
   7 H :   -0.315855
   8 H :   -0.302046
   9 C :   -0.829445
  10 O :    0.695725
  11 N :    1.242264
  12 H :   -0.567206
  13 H :   -0.504583
  14 C :    0.882421
  15 H :   -0.315848
  16 H :   -0.300709
  17 H :   -0.302576

  Mayer bond orders larger than 0.100000
B(  0-C ,  1-O ) :   1.4130 B(  0-C ,  2-N ) :   1.0910 B(  0-C ,  5-C ) :   0.7819
B(  0-C ,  7-H ) :  -0.1074 B(  1-O ,  2-N ) :   0.1414 B(  2-N ,  3-H ) :   0.8717
B(  2-N ,  4-H ) :   0.9988 B(  5-C ,  6-H ) :   0.9447 B(  5-C ,  7-H ) :   1.0033
B(  5-C ,  8-H ) :   0.9532 B(  9-C , 10-O ) :   1.4131 B(  9-C , 11-N ) :   1.0911
B(  9-C , 14-C ) :   0.7818 B(  9-C , 15-H ) :  -0.1074 B( 10-O , 11-N ) :   0.1414
B( 11-N , 12-H ) :   0.8716 B( 11-N , 13-H ) :   0.9989 B( 14-C , 15-H ) :   1.0035
B( 14-C , 16-H ) :   0.9400 B( 14-C , 17-H ) :   0.9576

MP2 TOTAL ENERGY:     -417.846623954 Eh
FINAL SINGLE POINT ENERGY      -417.846623953772

DIPOLE MOMENT
-------------
                                X             Y             Z
Electronic contribution:     -0.00016      -0.00065       0.00057
Nuclear contribution   :      0.00027      -0.00002       0.00041
                        -----------------------------------------
Total Dipole Moment    :      0.00011      -0.00066       0.00098
                        -----------------------------------------
Magnitude (a.u.)       :      0.00119
Magnitude (Debye)      :      0.00302

Rotational constants in cm-1:     0.178925     0.022235     0.019923
Rotational constants in MHz :  5364.049049   666.598161   597.263359

                             ****ORCA TERMINATED NORMALLY****
TOTAL RUN TIME: 0 days 2 hours 14 minutes 18 seconds 849 msec
