                         Program Version 5.0.4 -  RELEASE  -
|  1> ! ri-mp2 aug-cc-pvdz aug-cc-pvdz/c tightscf
|  2> %pal nprocs 16 end
|  3> %maxcore 3800
|  4> %base "DZ_S66by10_32_0.8_dimer"
|  5> %scf STABPerform true end
|  6>
|  7> *xyz 0 1
|  8> N   -0.05545357   -0.94799090    0.01001028
|  9> H   -0.05731609   -1.95771330    0.05505287
| 10> C   -1.31395971   -0.33514498   -0.06458622
| 11> O   -2.32889664   -1.00790087   -0.12310273
| 12> C   -1.24835877    1.11605191   -0.06650860
| 13> H   -2.16434937    1.67533298   -0.14710244
| 14> C   -0.05308010    1.73142748    0.03419541
| 15> H    0.04811054    2.80642986    0.04341968
| 16> N    1.11592628    1.02759107    0.13516893
| 17> H    1.99665515    1.49727976    0.26162029
| 18> C    1.17534700   -0.35380470    0.17616616
| 19> O    2.21463146   -0.96646542    0.33517250
| 20> C    0.67595644   -0.17674564    2.67996879
| 21> H    1.67177471   -0.53073149    2.56575006
| 22> C   -0.46864764    0.20971205    2.78616063
| 23> H   -1.47353020    0.53841239    2.88652480
| 24> *
| 25>
| 26> $new_job
| 27> ! ri-mp2 aug-cc-pvtz aug-cc-pvtz/c tightscf
| 28> %pal nprocs 16 end
| 29> %maxcore 3800
| 30> %base "TZ_S66by10_32_0.8_dimer"
| 31>
| 32> *xyz 0 1
| 33> N   -0.05545357   -0.94799090    0.01001028
| 34> H   -0.05731609   -1.95771330    0.05505287
| 35> C   -1.31395971   -0.33514498   -0.06458622
| 36> O   -2.32889664   -1.00790087   -0.12310273
| 37> C   -1.24835877    1.11605191   -0.06650860
| 38> H   -2.16434937    1.67533298   -0.14710244
| 39> C   -0.05308010    1.73142748    0.03419541
| 40> H    0.04811054    2.80642986    0.04341968
| 41> N    1.11592628    1.02759107    0.13516893
| 42> H    1.99665515    1.49727976    0.26162029
| 43> C    1.17534700   -0.35380470    0.17616616
| 44> O    2.21463146   -0.96646542    0.33517250
| 45> C    0.67595644   -0.17674564    2.67996879
| 46> H    1.67177471   -0.53073149    2.56575006
| 47> C   -0.46864764    0.20971205    2.78616063
| 48> H   -1.47353020    0.53841239    2.88652480
| 49> *
| 50>
| 51> $new_job
| 52> ! ri-mp2 aug-cc-pvqz aug-cc-pvqz/c tightscf
| 53> %pal nprocs 16 end
| 54> %maxcore 3800
| 55> %base "QZ_S66by10_32_0.8_dimer"
| 56>
| 57> *xyz 0 1
| 58> N   -0.05545357   -0.94799090    0.01001028
| 59> H   -0.05731609   -1.95771330    0.05505287
| 60> C   -1.31395971   -0.33514498   -0.06458622
| 61> O   -2.32889664   -1.00790087   -0.12310273
| 62> C   -1.24835877    1.11605191   -0.06650860
| 63> H   -2.16434937    1.67533298   -0.14710244
| 64> C   -0.05308010    1.73142748    0.03419541
| 65> H    0.04811054    2.80642986    0.04341968
| 66> N    1.11592628    1.02759107    0.13516893
| 67> H    1.99665515    1.49727976    0.26162029
| 68> C    1.17534700   -0.35380470    0.17616616
| 69> O    2.21463146   -0.96646542    0.33517250
| 70> C    0.67595644   -0.17674564    2.67996879
| 71> H    1.67177471   -0.53073149    2.56575006
| 72> C   -0.46864764    0.20971205    2.78616063
| 73> H   -1.47353020    0.53841239    2.88652480
| 74> *
| 75>
| 76>
| 77>
| 78>
| 79>                          ****END OF INPUT****
 Total Charge           Charge          ....    0
 Multiplicity           Mult            ....    1
 Number of Electrons    NEL             ....   72
MP2 TOTAL ENERGY:     -490.871548736 Eh
FINAL SINGLE POINT ENERGY      -490.871548735526
MP2 TOTAL ENERGY:     -491.289786075 Eh
FINAL SINGLE POINT ENERGY      -491.289786075161

CARTESIAN COORDINATES (ANGSTROEM)
---------------------------------
  N     -0.055454   -0.947991    0.010010
  H     -0.057316   -1.957713    0.055053
  C     -1.313960   -0.335145   -0.064586
  O     -2.328897   -1.007901   -0.123103
  C     -1.248359    1.116052   -0.066509
  H     -2.164349    1.675333   -0.147102
  C     -0.053080    1.731427    0.034195
  H      0.048111    2.806430    0.043420
  N      1.115926    1.027591    0.135169
  H      1.996655    1.497280    0.261620
  C      1.175347   -0.353805    0.176166
  O      2.214631   -0.966465    0.335172
  C      0.675956   -0.176746    2.679969
  H      1.671775   -0.530731    2.565750
  C     -0.468648    0.209712    2.786161
  H     -1.473530    0.538412    2.886525

 Multiplicity           Mult            ....    1
 Number of Electrons    NEL             ....   72
 Basis Dimension        Dim             .... 1076

ORBITAL ENERGIES
----------------

  NO   OCC          E(Eh)            E(eV)
   0   2.0000     -20.544034      -559.0316
   1   2.0000     -20.537919      -558.8652
   2   2.0000     -15.638923      -425.5567
   3   2.0000     -15.618206      -424.9930
   4   2.0000     -11.417057      -310.6739
   5   2.0000     -11.376977      -309.5833
   6   2.0000     -11.336062      -308.4699
   7   2.0000     -11.252228      -306.1887
   8   2.0000     -11.244675      -305.9832
   9   2.0000     -11.240572      -305.8715
  10   2.0000      -1.436380       -39.0859
  11   2.0000      -1.396412       -37.9983
  12   2.0000      -1.311606       -35.6906
  13   2.0000      -1.242353       -33.8061
  14   2.0000      -1.086294       -29.5596
  15   2.0000      -1.034906       -28.1612
  16   2.0000      -0.931045       -25.3350
  17   2.0000      -0.898863       -24.4593
  18   2.0000      -0.804767       -21.8988
  19   2.0000      -0.777334       -21.1523
  20   2.0000      -0.763210       -20.7680
  21   2.0000      -0.711298       -19.3554
  22   2.0000      -0.693642       -18.8750
  23   2.0000      -0.676723       -18.4146
  24   2.0000      -0.660556       -17.9746
  25   2.0000      -0.652399       -17.7527
  26   2.0000      -0.613699       -16.6996
  27   2.0000      -0.600370       -16.3369
  28   2.0000      -0.569107       -15.4862
  29   2.0000      -0.527547       -14.3553
  30   2.0000      -0.484647       -13.1879
  31   2.0000      -0.448828       -12.2132
  32   2.0000      -0.441864       -12.0237
  33   2.0000      -0.410198       -11.1620
  34   2.0000      -0.405258       -11.0276
  35   2.0000      -0.367479        -9.9996
  36   0.0000       0.013387         0.3643
  37   0.0000       0.027284         0.7424
  38   0.0000       0.034775         0.9463
  39   0.0000       0.037487         1.0201
  40   0.0000       0.044277         1.2048

MULLIKEN ATOMIC CHARGES
-----------------------
   0 N :   -0.671570
   1 H :    0.061272
   2 C :    1.319090
   3 O :   -0.896191
   4 C :   -0.462347
   5 H :    0.261771
   6 C :   -0.198197
   7 H :    0.417195
   8 N :   -0.602903
   9 H :    0.060115
  10 C :    1.749842
  11 O :   -0.915142
  12 C :   -0.496571
  13 H :    0.491290
  14 C :   -0.605690
  15 H :    0.488037
Sum of atomic charges:   -0.0000000

LOEWDIN ATOMIC CHARGES
----------------------
   0 N :    0.764126
   1 H :   -0.505285
   2 C :   -0.901910
   3 O :    0.695072
   4 C :    0.303769
   5 H :   -0.344713
   6 C :    0.215932
   7 H :   -0.287999
   8 N :    0.802287
   9 H :   -0.478418
  10 C :   -1.102115
  11 O :    0.730758
  12 C :    0.473360
  13 H :   -0.471887
  14 C :    0.524216
  15 H :   -0.417192

  Mayer bond orders larger than 0.100000
B(  0-N ,  1-H ) :   1.1659 B(  0-N ,  2-C ) :   1.0084 B(  0-N ,  3-O ) :   0.2264
B(  0-N , 10-C ) :   1.0058 B(  0-N , 11-O ) :   0.2179 B(  2-C ,  3-O ) :   0.9001
B(  2-C ,  4-C ) :   1.1138 B(  3-O ,  4-C ) :   0.2727 B(  4-C ,  5-H ) :   1.0435
B(  4-C ,  6-C ) :   1.4806 B(  6-C ,  7-H ) :   0.9239 B(  6-C ,  8-N ) :   0.9101
B(  8-N ,  9-H ) :   1.1763 B(  8-N , 10-C ) :   1.0589 B(  8-N , 11-O ) :   0.2051
B( 10-C , 11-O ) :   0.9000 B( 10-C , 12-C ) :  -0.1266 B( 12-C , 13-H ) :   0.7707
B( 12-C , 14-C ) :   2.5961 B( 14-C , 15-H ) :   0.7675

MP2 TOTAL ENERGY:     -491.426019352 Eh
FINAL SINGLE POINT ENERGY      -491.426019351521

DIPOLE MOMENT
-------------
                                X             Y             Z
Electronic contribution:      0.39508      -1.87698      -2.10928
Nuclear contribution   :      0.09638       3.75484       2.12785
                        -----------------------------------------
Total Dipole Moment    :      0.49146       1.87786       0.01857
                        -----------------------------------------
Magnitude (a.u.)       :      1.94120
Magnitude (Debye)      :      4.93413

Rotational constants in cm-1:     0.061064     0.042170     0.040683
Rotational constants in MHz :  1830.646463  1264.210158  1219.641034

                             ****ORCA TERMINATED NORMALLY****
TOTAL RUN TIME: 0 days 3 hours 11 minutes 12 seconds 462 msec
