                         Program Version 5.0.4 -  RELEASE  -
|  1> ! ri-mp2 aug-cc-pvdz aug-cc-pvdz/c tightscf
|  2> %pal nprocs 16 end
|  3> %maxcore 3800
|  4> %base "DZ_S66by10_24_0.7_dimer"
|  5>
|  6> *xyz 0 1
|  7> C    0.71264532    1.12099570    0.06054078
|  8> H    1.35784165    1.98639917    0.12773717
|  9> C    1.25823573   -0.15925190    0.12423352
| 10> H    2.32495428   -0.28709988    0.24674303
| 11> C    0.42688496   -1.27452666    0.04265043
| 12> H    0.85044465   -2.26843268    0.09474995
| 13> C   -0.94957784   -1.11007406   -0.10031360
| 14> H   -1.59445570   -1.97627370   -0.16371348
| 15> C   -1.49552564    0.17105056   -0.16154602
| 16> H   -2.56378279    0.29922115   -0.27370311
| 17> C   -0.66382760    1.28664289   -0.08340143
| 18> H   -1.08690070    2.28100020   -0.13288613
| 19> C    1.58354623    1.11354979    2.55397736
| 20> H    2.22839135    1.97973353    2.61772808
| 21> C    2.12949936   -0.16760131    2.61549709
| 22> H    3.19770624   -0.29574836    2.72824131
| 23> C    1.29784988   -1.28320141    2.53684667
| 24> H    1.72093158   -2.27755385    2.58650033
| 25> C   -0.07855168   -1.11756638    2.39212992
| 26> H   -0.72365428   -1.98297663    2.32449729
| 27> C   -0.62411156    0.16266636    2.32816409
| 28> H   -1.69073959    0.29049558    2.20498533
| 29> C    0.20716539    1.27794713    2.41023503
| 30> H   -0.21635949    2.27185216    2.35786610
| 31> *
| 32>
| 33> $new_job
| 34> ! ri-mp2 aug-cc-pvtz aug-cc-pvtz/c tightscf
| 35> %pal nprocs 16 end
| 36> %maxcore 3800
| 37> %base "TZ_S66by10_24_0.7_dimer"
| 38>
| 39> *xyz 0 1
| 40> C    0.71264532    1.12099570    0.06054078
| 41> H    1.35784165    1.98639917    0.12773717
| 42> C    1.25823573   -0.15925190    0.12423352
| 43> H    2.32495428   -0.28709988    0.24674303
| 44> C    0.42688496   -1.27452666    0.04265043
| 45> H    0.85044465   -2.26843268    0.09474995
| 46> C   -0.94957784   -1.11007406   -0.10031360
| 47> H   -1.59445570   -1.97627370   -0.16371348
| 48> C   -1.49552564    0.17105056   -0.16154602
| 49> H   -2.56378279    0.29922115   -0.27370311
| 50> C   -0.66382760    1.28664289   -0.08340143
| 51> H   -1.08690070    2.28100020   -0.13288613
| 52> C    1.58354623    1.11354979    2.55397736
| 53> H    2.22839135    1.97973353    2.61772808
| 54> C    2.12949936   -0.16760131    2.61549709
| 55> H    3.19770624   -0.29574836    2.72824131
| 56> C    1.29784988   -1.28320141    2.53684667
| 57> H    1.72093158   -2.27755385    2.58650033
| 58> C   -0.07855168   -1.11756638    2.39212992
| 59> H   -0.72365428   -1.98297663    2.32449729
| 60> C   -0.62411156    0.16266636    2.32816409
| 61> H   -1.69073959    0.29049558    2.20498533
| 62> C    0.20716539    1.27794713    2.41023503
| 63> H   -0.21635949    2.27185216    2.35786610
| 64> *
| 65>
| 66> $new_job
| 67> ! ri-mp2 aug-cc-pvqz aug-cc-pvqz/c tightscf
| 68> %pal nprocs 16 end
| 69> %maxcore 3800
| 70> %base "QZ_S66by10_24_0.7_dimer"
| 71>
| 72> *xyz 0 1
| 73> C    0.71264532    1.12099570    0.06054078
| 74> H    1.35784165    1.98639917    0.12773717
| 75> C    1.25823573   -0.15925190    0.12423352
| 76> H    2.32495428   -0.28709988    0.24674303
| 77> C    0.42688496   -1.27452666    0.04265043
| 78> H    0.85044465   -2.26843268    0.09474995
| 79> C   -0.94957784   -1.11007406   -0.10031360
| 80> H   -1.59445570   -1.97627370   -0.16371348
| 81> C   -1.49552564    0.17105056   -0.16154602
| 82> H   -2.56378279    0.29922115   -0.27370311
| 83> C   -0.66382760    1.28664289   -0.08340143
| 84> H   -1.08690070    2.28100020   -0.13288613
| 85> C    1.58354623    1.11354979    2.55397736
| 86> H    2.22839135    1.97973353    2.61772808
| 87> C    2.12949936   -0.16760131    2.61549709
| 88> H    3.19770624   -0.29574836    2.72824131
| 89> C    1.29784988   -1.28320141    2.53684667
| 90> H    1.72093158   -2.27755385    2.58650033
| 91> C   -0.07855168   -1.11756638    2.39212992
| 92> H   -0.72365428   -1.98297663    2.32449729
| 93> C   -0.62411156    0.16266636    2.32816409
| 94> H   -1.69073959    0.29049558    2.20498533
| 95> C    0.20716539    1.27794713    2.41023503
| 96> H   -0.21635949    2.27185216    2.35786610
| 97> *
| 98>
| 99>
|100>
|101>
|102>                          ****END OF INPUT****
 Total Charge           Charge          ....    0
 Multiplicity           Mult            ....    1
 Number of Electrons    NEL             ....   84
MP2 TOTAL ENERGY:     -463.025098375 Eh
FINAL SINGLE POINT ENERGY      -463.025098375099
MP2 TOTAL ENERGY:     -463.433624921 Eh
FINAL SINGLE POINT ENERGY      -463.433624920645

CARTESIAN COORDINATES (ANGSTROEM)
---------------------------------
  C      0.712645    1.120996    0.060541
  H      1.357842    1.986399    0.127737
  C      1.258236   -0.159252    0.124234
  H      2.324954   -0.287100    0.246743
  C      0.426885   -1.274527    0.042650
  H      0.850445   -2.268433    0.094750
  C     -0.949578   -1.110074   -0.100314
  H     -1.594456   -1.976274   -0.163713
  C     -1.495526    0.171051   -0.161546
  H     -2.563783    0.299221   -0.273703
  C     -0.663828    1.286643   -0.083401
  H     -1.086901    2.281000   -0.132886
  C      1.583546    1.113550    2.553977
  H      2.228391    1.979734    2.617728
  C      2.129499   -0.167601    2.615497
  H      3.197706   -0.295748    2.728241
  C      1.297850   -1.283201    2.536847
  H      1.720932   -2.277554    2.586500
  C     -0.078552   -1.117566    2.392130
  H     -0.723654   -1.982977    2.324497
  C     -0.624112    0.162666    2.328164
  H     -1.690740    0.290496    2.204985
  C      0.207165    1.277947    2.410235
  H     -0.216359    2.271852    2.357866

 Multiplicity           Mult            ....    1
 Number of Electrons    NEL             ....   84
 Basis Dimension        Dim             .... 1512

ORBITAL ENERGIES
----------------

  NO   OCC          E(Eh)            E(eV)
   0   2.0000     -11.231837      -305.6338
   1   2.0000     -11.231817      -305.6333
   2   2.0000     -11.231302      -305.6193
   3   2.0000     -11.231277      -305.6186
   4   2.0000     -11.224630      -305.4377
   5   2.0000     -11.224610      -305.4372
   6   2.0000     -11.220693      -305.3306
   7   2.0000     -11.220676      -305.3301
   8   2.0000     -11.218438      -305.2692
   9   2.0000     -11.218417      -305.2686
  10   2.0000     -11.216773      -305.2239
  11   2.0000     -11.216754      -305.2234
  12   2.0000      -1.173034       -31.9199
  13   2.0000      -1.125346       -30.6222
  14   2.0000      -1.035423       -28.1753
  15   2.0000      -1.023034       -27.8382
  16   2.0000      -0.999043       -27.1853
  17   2.0000      -0.992030       -26.9945
  18   2.0000      -0.833139       -22.6709
  19   2.0000      -0.828544       -22.5458
  20   2.0000      -0.813266       -22.1301
  21   2.0000      -0.809911       -22.0388
  22   2.0000      -0.716886       -19.5074
  23   2.0000      -0.697236       -18.9728
  24   2.0000      -0.648456       -17.6454
  25   2.0000      -0.634374       -17.2622
  26   2.0000      -0.616373       -16.7724
  27   2.0000      -0.613273       -16.6880
  28   2.0000      -0.592730       -16.1290
  29   2.0000      -0.587231       -15.9794
  30   2.0000      -0.584564       -15.9068
  31   2.0000      -0.574172       -15.6240
  32   2.0000      -0.562622       -15.3097
  33   2.0000      -0.495088       -13.4720
  34   2.0000      -0.491913       -13.3856
  35   2.0000      -0.488382       -13.2896
  36   2.0000      -0.485177       -13.2023
  37   2.0000      -0.430392       -11.7116
  38   2.0000      -0.394673       -10.7396
  39   2.0000      -0.341627        -9.2962
  40   2.0000      -0.294112        -8.0032
  41   2.0000      -0.264572        -7.1994
  42   0.0000       0.023617         0.6427
  43   0.0000       0.027155         0.7389
  44   0.0000       0.027784         0.7561
  45   0.0000       0.038026         1.0347
  46   0.0000       0.038101         1.0368

MULLIKEN ATOMIC CHARGES
-----------------------
   0 C :    0.039019
   1 H :    0.185435
   2 C :    0.129113
   3 H :    0.359804
   4 C :   -0.050498
   5 H :    0.173169
   6 C :   -0.529165
   7 H :    0.200209
   8 C :   -0.384455
   9 H :    0.205536
  10 C :   -0.531500
  11 H :    0.203323
  12 C :   -0.530050
  13 H :    0.200160
  14 C :   -0.384325
  15 H :    0.205678
  16 C :   -0.532421
  17 H :    0.203151
  18 C :    0.039333
  19 H :    0.185291
  20 C :    0.130136
  21 H :    0.360741
  22 C :   -0.050555
  23 H :    0.172872
Sum of atomic charges:    0.0000000

LOEWDIN ATOMIC CHARGES
----------------------
   0 C :    0.276856
   1 H :   -0.290285
   2 C :    0.283632
   3 H :   -0.312609
   4 C :    0.279561
   5 H :   -0.285155
   6 C :    0.312643
   7 H :   -0.294389
   8 C :    0.308905
   9 H :   -0.296324
  10 C :    0.308621
  11 H :   -0.291193
  12 C :    0.312770
  13 H :   -0.294474
  14 C :    0.309061
  15 H :   -0.296428
  16 C :    0.308713
  17 H :   -0.291241
  18 C :    0.276786
  19 H :   -0.290383
  20 C :    0.283432
  21 H :   -0.312856
  22 C :    0.279560
  23 H :   -0.285204

  Mayer bond orders larger than 0.100000
B(  0-C ,  1-H ) :   1.1831 B(  0-C ,  2-C ) :   0.8915 B(  0-C ,  3-H ) :  -0.2164
B(  0-C , 10-C ) :   1.1656 B(  1-H ,  2-C ) :  -0.1746 B(  1-H , 10-C ) :  -0.1197
B(  2-C ,  3-H ) :   1.0269 B(  2-C ,  4-C ) :   0.8896 B(  2-C ,  5-H ) :  -0.1624
B(  2-C ,  8-C ) :   0.1203 B(  3-H ,  4-C ) :  -0.2321 B(  4-C ,  5-H ) :   1.2029
B(  4-C ,  6-C ) :   1.2435 B(  4-C , 10-C ) :   0.1069 B(  5-H ,  6-C ) :  -0.1035
B(  6-C ,  7-H ) :   1.1409 B(  6-C ,  8-C ) :   1.3052 B(  8-C ,  9-H ) :   1.1418
B(  8-C , 10-C ) :   1.3317 B( 10-C , 11-H ) :   1.1390 B( 12-C , 13-H ) :   1.1410
B( 12-C , 14-C ) :   1.3054 B( 12-C , 22-C ) :   1.2436 B( 12-C , 23-H ) :  -0.1033
B( 14-C , 15-H ) :   1.1418 B( 14-C , 16-C ) :   1.3321 B( 14-C , 20-C ) :   0.1203
B( 16-C , 17-H ) :   1.1391 B( 16-C , 18-C ) :   1.1655 B( 16-C , 19-H ) :  -0.1196
B( 16-C , 22-C ) :   0.1068 B( 18-C , 19-H ) :   1.1832 B( 18-C , 20-C ) :   0.8911
B( 18-C , 21-H ) :  -0.2167 B( 19-H , 20-C ) :  -0.1746 B( 20-C , 21-H ) :   1.0264
B( 20-C , 22-C ) :   0.8892 B( 20-C , 23-H ) :  -0.1624 B( 21-H , 22-C ) :  -0.2323
B( 22-C , 23-H ) :   1.2033

MP2 TOTAL ENERGY:     -463.561600488 Eh
FINAL SINGLE POINT ENERGY      -463.561600488006

DIPOLE MOMENT
-------------
                                X             Y             Z
Electronic contribution:     -0.00031       0.00002      -0.00015
Nuclear contribution   :      0.00013      -0.00001      -0.00023
                        -----------------------------------------
Total Dipole Moment    :     -0.00019       0.00001      -0.00038
                        -----------------------------------------
Magnitude (a.u.)       :      0.00043
Magnitude (Debye)      :      0.00108

Rotational constants in cm-1:     0.056827     0.037520     0.033282
Rotational constants in MHz :  1703.633488  1124.825048   997.783617

                             ****ORCA TERMINATED NORMALLY****
TOTAL RUN TIME: 0 days 2 hours 7 minutes 47 seconds 365 msec
