                         Program Version 5.0.4 -  RELEASE  -
|  1> ! ri-mp2 aug-cc-pvdz aug-cc-pvdz/c tightscf
|  2> %pal nprocs 16 end
|  3> %maxcore 3800
|  4> %base "DZ_S66by10_61_0.95_dimer"
|  5> %scf STABPerform true end
|  6>
|  7> *xyz 0 1
|  8> C   -2.27534498   -0.13507494    0.83133387
|  9> H   -2.49071776   -0.72792669   -0.05756635
| 10> H   -2.22632382   -0.81844641    1.67882341
| 11> H   -3.11202566    0.54494342    0.98740008
| 12> C   -0.96169812    0.61927789    0.66939920
| 13> H   -0.78869920    1.25043181    1.54470266
| 14> H   -1.02617687    1.29544524   -0.18645838
| 15> C    0.22650217   -0.31471031    0.47998579
| 16> H    0.30944439   -0.97513911    1.34803794
| 17> H    0.03915056   -0.96599875   -0.37878983
| 18> C    1.54300168    0.42117452    0.26899951
| 19> H    1.71163863    1.10777177    1.10244654
| 20> H    1.46609466    1.04374331   -0.62529358
| 21> C    2.72757632   -0.52686091    0.13745931
| 22> H    2.58874155   -1.20321391   -0.70575734
| 23> H    3.66150100    0.01169308   -0.01596863
| 24> H    2.83519407   -1.13740994    1.03407512
| 25> C   -0.47540050   -0.28574611    4.07946000
| 26> O   -0.89801444   -1.40092636    3.88231342
| 27> O   -1.28909286    0.77321940    4.31204948
| 28> H   -2.18985496    0.41883887    4.27151374
| 29> C    0.96486657    0.12391997    4.09666538
| 30> H    1.59068963   -0.74626098    3.93851022
| 31> H    1.14090398    0.85819360    3.31354080
| 32> H    1.20217781    0.59322092    5.04846777
| 33> *
| 34>
| 35> $new_job
| 36> ! ri-mp2 aug-cc-pvtz aug-cc-pvtz/c tightscf
| 37> %pal nprocs 16 end
| 38> %maxcore 3800
| 39> %base "TZ_S66by10_61_0.95_dimer"
| 40>
| 41> *xyz 0 1
| 42> C   -2.27534498   -0.13507494    0.83133387
| 43> H   -2.49071776   -0.72792669   -0.05756635
| 44> H   -2.22632382   -0.81844641    1.67882341
| 45> H   -3.11202566    0.54494342    0.98740008
| 46> C   -0.96169812    0.61927789    0.66939920
| 47> H   -0.78869920    1.25043181    1.54470266
| 48> H   -1.02617687    1.29544524   -0.18645838
| 49> C    0.22650217   -0.31471031    0.47998579
| 50> H    0.30944439   -0.97513911    1.34803794
| 51> H    0.03915056   -0.96599875   -0.37878983
| 52> C    1.54300168    0.42117452    0.26899951
| 53> H    1.71163863    1.10777177    1.10244654
| 54> H    1.46609466    1.04374331   -0.62529358
| 55> C    2.72757632   -0.52686091    0.13745931
| 56> H    2.58874155   -1.20321391   -0.70575734
| 57> H    3.66150100    0.01169308   -0.01596863
| 58> H    2.83519407   -1.13740994    1.03407512
| 59> C   -0.47540050   -0.28574611    4.07946000
| 60> O   -0.89801444   -1.40092636    3.88231342
| 61> O   -1.28909286    0.77321940    4.31204948
| 62> H   -2.18985496    0.41883887    4.27151374
| 63> C    0.96486657    0.12391997    4.09666538
| 64> H    1.59068963   -0.74626098    3.93851022
| 65> H    1.14090398    0.85819360    3.31354080
| 66> H    1.20217781    0.59322092    5.04846777
| 67> *
| 68>
| 69> $new_job
| 70> ! ri-mp2 aug-cc-pvqz aug-cc-pvqz/c tightscf
| 71> %pal nprocs 16 end
| 72> %maxcore 3800
| 73> %base "QZ_S66by10_61_0.95_dimer"
| 74>
| 75> *xyz 0 1
| 76> C   -2.27534498   -0.13507494    0.83133387
| 77> H   -2.49071776   -0.72792669   -0.05756635
| 78> H   -2.22632382   -0.81844641    1.67882341
| 79> H   -3.11202566    0.54494342    0.98740008
| 80> C   -0.96169812    0.61927789    0.66939920
| 81> H   -0.78869920    1.25043181    1.54470266
| 82> H   -1.02617687    1.29544524   -0.18645838
| 83> C    0.22650217   -0.31471031    0.47998579
| 84> H    0.30944439   -0.97513911    1.34803794
| 85> H    0.03915056   -0.96599875   -0.37878983
| 86> C    1.54300168    0.42117452    0.26899951
| 87> H    1.71163863    1.10777177    1.10244654
| 88> H    1.46609466    1.04374331   -0.62529358
| 89> C    2.72757632   -0.52686091    0.13745931
| 90> H    2.58874155   -1.20321391   -0.70575734
| 91> H    3.66150100    0.01169308   -0.01596863
| 92> H    2.83519407   -1.13740994    1.03407512
| 93> C   -0.47540050   -0.28574611    4.07946000
| 94> O   -0.89801444   -1.40092636    3.88231342
| 95> O   -1.28909286    0.77321940    4.31204948
| 96> H   -2.18985496    0.41883887    4.27151374
| 97> C    0.96486657    0.12391997    4.09666538
| 98> H    1.59068963   -0.74626098    3.93851022
| 99> H    1.14090398    0.85819360    3.31354080
|100> H    1.20217781    0.59322092    5.04846777
|101> *
|102>
|103>
|104>
|105>
|106>                          ****END OF INPUT****
 Total Charge           Charge          ....    0
 Multiplicity           Mult            ....    1
 Number of Electrons    NEL             ....   74
MP2 TOTAL ENERGY:     -425.644742506 Eh
FINAL SINGLE POINT ENERGY      -425.644742506230
MP2 TOTAL ENERGY:     -426.039098610 Eh
FINAL SINGLE POINT ENERGY      -426.039098609788

CARTESIAN COORDINATES (ANGSTROEM)
---------------------------------
  C     -2.275345   -0.135075    0.831334
  H     -2.490718   -0.727927   -0.057566
  H     -2.226324   -0.818446    1.678823
  H     -3.112026    0.544943    0.987400
  C     -0.961698    0.619278    0.669399
  H     -0.788699    1.250432    1.544703
  H     -1.026177    1.295445   -0.186458
  C      0.226502   -0.314710    0.479986
  H      0.309444   -0.975139    1.348038
  H      0.039151   -0.965999   -0.378790
  C      1.543002    0.421175    0.269000
  H      1.711639    1.107772    1.102447
  H      1.466095    1.043743   -0.625294
  C      2.727576   -0.526861    0.137459
  H      2.588742   -1.203214   -0.705757
  H      3.661501    0.011693   -0.015969
  H      2.835194   -1.137410    1.034075
  C     -0.475401   -0.285746    4.079460
  O     -0.898014   -1.400926    3.882313
  O     -1.289093    0.773219    4.312049
  H     -2.189855    0.418839    4.271514
  C      0.964867    0.123920    4.096665
  H      1.590690   -0.746261    3.938510
  H      1.140904    0.858194    3.313541
  H      1.202178    0.593221    5.048468

 Multiplicity           Mult            ....    1
 Number of Electrons    NEL             ....   74
 Basis Dimension        Dim             .... 1456

ORBITAL ENERGIES
----------------

  NO   OCC          E(Eh)            E(eV)
   0   2.0000     -20.613920      -560.9333
   1   2.0000     -20.551100      -559.2239
   2   2.0000     -11.391090      -309.9673
   3   2.0000     -11.245151      -305.9961
   4   2.0000     -11.214459      -305.1609
   5   2.0000     -11.211383      -305.0772
   6   2.0000     -11.208467      -304.9979
   7   2.0000     -11.208226      -304.9913
   8   2.0000     -11.202420      -304.8333
   9   2.0000      -1.467730       -39.9390
  10   2.0000      -1.363851       -37.1123
  11   2.0000      -1.082011       -29.4430
  12   2.0000      -1.031823       -28.0773
  13   2.0000      -1.015906       -27.6442
  14   2.0000      -0.918881       -25.0040
  15   2.0000      -0.824614       -22.4389
  16   2.0000      -0.820338       -22.3225
  17   2.0000      -0.786061       -21.3898
  18   2.0000      -0.709985       -19.3197
  19   2.0000      -0.683869       -18.6090
  20   2.0000      -0.665684       -18.1142
  21   2.0000      -0.638058       -17.3624
  22   2.0000      -0.599437       -16.3115
  23   2.0000      -0.595466       -16.2034
  24   2.0000      -0.588025       -16.0010
  25   2.0000      -0.576699       -15.6928
  26   2.0000      -0.563981       -15.3467
  27   2.0000      -0.554169       -15.0797
  28   2.0000      -0.547876       -14.9085
  29   2.0000      -0.525174       -14.2907
  30   2.0000      -0.495943       -13.4953
  31   2.0000      -0.490923       -13.3587
  32   2.0000      -0.476658       -12.9705
  33   2.0000      -0.462366       -12.5816
  34   2.0000      -0.458711       -12.4821
  35   2.0000      -0.456244       -12.4150
  36   2.0000      -0.447235       -12.1699
  37   0.0000       0.023773         0.6469
  38   0.0000       0.028533         0.7764
  39   0.0000       0.030109         0.8193
  40   0.0000       0.034493         0.9386
  41   0.0000       0.041504         1.1294

MULLIKEN ATOMIC CHARGES
-----------------------
   0 C :   -1.046443
   1 H :    0.270626
   2 H :    0.277146
   3 H :    0.234528
   4 C :   -0.448123
   5 H :    0.218593
   6 H :    0.303537
   7 C :   -0.214659
   8 H :    0.270170
   9 H :    0.317261
  10 C :   -0.614439
  11 H :    0.308562
  12 H :    0.284275
  13 C :   -0.923996
  14 H :    0.219754
  15 H :    0.263994
  16 H :    0.252244
  17 C :    1.419500
  18 O :   -0.890385
  19 O :   -0.823566
  20 H :    0.329281
  21 C :   -0.965049
  22 H :    0.300795
  23 H :    0.312255
  24 H :    0.344143
Sum of atomic charges:    0.0000000

LOEWDIN ATOMIC CHARGES
----------------------
   0 C :    0.924178
   1 H :   -0.280630
   2 H :   -0.325515
   3 H :   -0.278734
   4 C :    0.497891
   5 H :   -0.296821
   6 H :   -0.266685
   7 C :    0.486580
   8 H :   -0.302640
   9 H :   -0.262238
  10 C :    0.503089
  11 H :   -0.292849
  12 H :   -0.267194
  13 C :    0.931552
  14 H :   -0.283337
  15 H :   -0.281332
  16 H :   -0.286747
  17 C :   -1.039050
  18 O :    0.726491
  19 O :    1.265181
  20 H :   -0.820316
  21 C :    0.875752
  22 H :   -0.309506
  23 H :   -0.326037
  24 H :   -0.291084

  Mayer bond orders larger than 0.100000
B(  0-C ,  1-H ) :   0.9654 B(  0-C ,  2-H ) :   0.9129 B(  0-C ,  3-H ) :   1.0571
B(  0-C ,  4-C ) :   0.9355 B(  3-H ,  4-C ) :  -0.1055 B(  4-C ,  5-H ) :   0.9004
B(  4-C ,  6-H ) :   0.8621 B(  4-C ,  7-C ) :   0.8167 B(  7-C ,  8-H ) :   0.8410
B(  7-C ,  9-H ) :   0.8950 B(  7-C , 10-C ) :   0.8171 B(  7-C , 13-C ) :  -0.1136
B( 10-C , 11-H ) :   0.8533 B( 10-C , 12-H ) :   0.8764 B( 10-C , 13-C ) :   1.0201
B( 13-C , 14-H ) :   0.9910 B( 13-C , 15-H ) :   1.0262 B( 13-C , 16-H ) :   0.9181
B( 17-C , 18-O ) :   1.2290 B( 17-C , 19-O ) :   0.6437 B( 17-C , 21-C ) :   0.9586
B( 19-O , 20-H ) :   0.8810 B( 21-C , 22-H ) :   0.9538 B( 21-C , 23-H ) :   0.8512
B( 21-C , 24-H ) :   0.9202

MP2 TOTAL ENERGY:     -426.161772259 Eh
FINAL SINGLE POINT ENERGY      -426.161772258870

DIPOLE MOMENT
-------------
                                X             Y             Z
Electronic contribution:     -5.15271      -1.06233      10.97460
Nuclear contribution   :      5.43803       1.72002     -10.86614
                        -----------------------------------------
Total Dipole Moment    :      0.28533       0.65769       0.10846
                        -----------------------------------------
Magnitude (a.u.)       :      0.72508
Magnitude (Debye)      :      1.84300

Rotational constants in cm-1:     0.054792     0.029086     0.022257
Rotational constants in MHz :  1642.625745   871.982847   667.259656

                             ****ORCA TERMINATED NORMALLY****
TOTAL RUN TIME: 0 days 8 hours 30 minutes 55 seconds 366 msec
