                         Program Version 5.0.4 -  RELEASE  -
|  1> ! ri-mp2 aug-cc-pvdz aug-cc-pvdz/c tightscf
|  2> %pal nprocs 16 end
|  3> %maxcore 3800
|  4> %base "DZ_S66by10_21_0.95_dimer"
|  5> %scf STABPerform true end
|  6>
|  7> *xyz 0 1
|  8> C   -1.30974974    1.18017617   -0.02517034
|  9> O   -0.72530044    2.15514767    0.45271335
| 10> N   -0.66562116    0.09505470   -0.49199449
| 11> H    0.35458266    0.05144817   -0.45930922
| 12> H   -1.18362704   -0.67359969   -0.87075610
| 13> C   -2.81671934    1.15599865   -0.11060597
| 14> H   -3.22062895    1.26254146    0.89308239
| 15> H   -3.20942754    0.24863402   -0.56190009
| 16> H   -3.14315813    2.01659563   -0.68889311
| 17> C    2.70124552    1.06226088    0.12948034
| 18> O    2.11682375    0.08824044   -0.35025062
| 19> N    2.05715795    2.14700410    0.59732690
| 20> H    1.03705259    2.19144188    0.56302558
| 21> H    2.57518202    2.91496530    0.97744754
| 22> C    4.20824470    1.08654526    0.21470543
| 23> H    4.60011576    1.98619477    0.68188944
| 24> H    4.61180089    0.99900022   -0.79107488
| 25> H    4.53602346    0.21597035    0.77688576
| 26> *
| 27>
| 28> $new_job
| 29> ! ri-mp2 aug-cc-pvtz aug-cc-pvtz/c tightscf
| 30> %pal nprocs 16 end
| 31> %maxcore 3800
| 32> %base "TZ_S66by10_21_0.95_dimer"
| 33>
| 34> *xyz 0 1
| 35> C   -1.30974974    1.18017617   -0.02517034
| 36> O   -0.72530044    2.15514767    0.45271335
| 37> N   -0.66562116    0.09505470   -0.49199449
| 38> H    0.35458266    0.05144817   -0.45930922
| 39> H   -1.18362704   -0.67359969   -0.87075610
| 40> C   -2.81671934    1.15599865   -0.11060597
| 41> H   -3.22062895    1.26254146    0.89308239
| 42> H   -3.20942754    0.24863402   -0.56190009
| 43> H   -3.14315813    2.01659563   -0.68889311
| 44> C    2.70124552    1.06226088    0.12948034
| 45> O    2.11682375    0.08824044   -0.35025062
| 46> N    2.05715795    2.14700410    0.59732690
| 47> H    1.03705259    2.19144188    0.56302558
| 48> H    2.57518202    2.91496530    0.97744754
| 49> C    4.20824470    1.08654526    0.21470543
| 50> H    4.60011576    1.98619477    0.68188944
| 51> H    4.61180089    0.99900022   -0.79107488
| 52> H    4.53602346    0.21597035    0.77688576
| 53> *
| 54>
| 55> $new_job
| 56> ! ri-mp2 aug-cc-pvqz aug-cc-pvqz/c tightscf
| 57> %pal nprocs 16 end
| 58> %maxcore 3800
| 59> %base "QZ_S66by10_21_0.95_dimer"
| 60>
| 61> *xyz 0 1
| 62> C   -1.30974974    1.18017617   -0.02517034
| 63> O   -0.72530044    2.15514767    0.45271335
| 64> N   -0.66562116    0.09505470   -0.49199449
| 65> H    0.35458266    0.05144817   -0.45930922
| 66> H   -1.18362704   -0.67359969   -0.87075610
| 67> C   -2.81671934    1.15599865   -0.11060597
| 68> H   -3.22062895    1.26254146    0.89308239
| 69> H   -3.20942754    0.24863402   -0.56190009
| 70> H   -3.14315813    2.01659563   -0.68889311
| 71> C    2.70124552    1.06226088    0.12948034
| 72> O    2.11682375    0.08824044   -0.35025062
| 73> N    2.05715795    2.14700410    0.59732690
| 74> H    1.03705259    2.19144188    0.56302558
| 75> H    2.57518202    2.91496530    0.97744754
| 76> C    4.20824470    1.08654526    0.21470543
| 77> H    4.60011576    1.98619477    0.68188944
| 78> H    4.61180089    0.99900022   -0.79107488
| 79> H    4.53602346    0.21597035    0.77688576
| 80> *
| 81>
| 82>
| 83>
| 84>
| 85>                          ****END OF INPUT****
 Total Charge           Charge          ....    0
 Multiplicity           Mult            ....    1
 Number of Electrons    NEL             ....   64
MP2 TOTAL ENERGY:     -417.362634223 Eh
FINAL SINGLE POINT ENERGY      -417.362634222968
MP2 TOTAL ENERGY:     -417.733477116 Eh
FINAL SINGLE POINT ENERGY      -417.733477116186

CARTESIAN COORDINATES (ANGSTROEM)
---------------------------------
  C     -1.309750    1.180176   -0.025170
  O     -0.725300    2.155148    0.452713
  N     -0.665621    0.095055   -0.491994
  H      0.354583    0.051448   -0.459309
  H     -1.183627   -0.673600   -0.870756
  C     -2.816719    1.155999   -0.110606
  H     -3.220629    1.262541    0.893082
  H     -3.209428    0.248634   -0.561900
  H     -3.143158    2.016596   -0.688893
  C      2.701246    1.062261    0.129480
  O      2.116824    0.088240   -0.350251
  N      2.057158    2.147004    0.597327
  H      1.037053    2.191442    0.563026
  H      2.575182    2.914965    0.977448
  C      4.208245    1.086545    0.214705
  H      4.600116    1.986195    0.681889
  H      4.611801    0.999000   -0.791075
  H      4.536023    0.215970    0.776886

 Multiplicity           Mult            ....    1
 Number of Electrons    NEL             ....   64
 Basis Dimension        Dim             .... 1100

ORBITAL ENERGIES
----------------

  NO   OCC          E(Eh)            E(eV)
   0   2.0000     -20.511724      -558.1524
   1   2.0000     -20.511699      -558.1517
   2   2.0000     -15.563843      -423.5137
   3   2.0000     -15.563839      -423.5136
   4   2.0000     -11.350120      -308.8525
   5   2.0000     -11.350111      -308.8522
   6   2.0000     -11.232230      -305.6445
   7   2.0000     -11.232224      -305.6444
   8   2.0000      -1.377670       -37.4883
   9   2.0000      -1.371853       -37.3300
  10   2.0000      -1.206372       -32.8270
  11   2.0000      -1.198344       -32.6086
  12   2.0000      -1.004328       -27.3291
  13   2.0000      -0.998165       -27.1615
  14   2.0000      -0.801716       -21.8158
  15   2.0000      -0.783714       -21.3260
  16   2.0000      -0.723290       -19.6817
  17   2.0000      -0.721757       -19.6400
  18   2.0000      -0.675146       -18.3717
  19   2.0000      -0.645345       -17.5607
  20   2.0000      -0.614085       -16.7101
  21   2.0000      -0.611140       -16.6300
  22   2.0000      -0.588869       -16.0239
  23   2.0000      -0.575183       -15.6515
  24   2.0000      -0.560368       -15.2484
  25   2.0000      -0.552662       -15.0387
  26   2.0000      -0.524320       -14.2675
  27   2.0000      -0.517377       -14.0786
  28   2.0000      -0.439032       -11.9467
  29   2.0000      -0.414975       -11.2920
  30   2.0000      -0.412841       -11.2340
  31   2.0000      -0.400637       -10.9019
  32   0.0000       0.024817         0.6753
  33   0.0000       0.026371         0.7176
  34   0.0000       0.036468         0.9923
  35   0.0000       0.042351         1.1524
  36   0.0000       0.043365         1.1800

MULLIKEN ATOMIC CHARGES
-----------------------
   0 C :    0.852850
   1 O :   -0.843567
   2 N :   -0.701257
   3 H :    0.327823
   4 H :    0.242424
   5 C :   -0.675815
   6 H :    0.275911
   7 H :    0.249978
   8 H :    0.271617
   9 C :    0.852811
  10 O :   -0.843365
  11 N :   -0.701386
  12 H :    0.327964
  13 H :    0.242239
  14 C :   -0.675958
  15 H :    0.249892
  16 H :    0.278165
  17 H :    0.269673
Sum of atomic charges:    0.0000000

LOEWDIN ATOMIC CHARGES
----------------------
   0 C :   -0.744063
   1 O :    0.815227
   2 N :    1.253020
   3 H :   -0.808926
   4 H :   -0.492403
   5 C :    0.893429
   6 H :   -0.300179
   7 H :   -0.315239
   8 H :   -0.300987
   9 C :   -0.744033
  10 O :    0.815315
  11 N :    1.253034
  12 H :   -0.808827
  13 H :   -0.492419
  14 C :    0.893446
  15 H :   -0.315231
  16 H :   -0.299652
  17 H :   -0.301513

  Mayer bond orders larger than 0.100000
B(  0-C ,  1-O ) :   1.3754 B(  0-C ,  2-N ) :   1.1217 B(  0-C ,  5-C ) :   0.7297
B(  0-C ,  7-H ) :  -0.1138 B(  1-O ,  2-N ) :   0.1593 B(  2-N ,  3-H ) :   0.8601
B(  2-N ,  4-H ) :   1.0212 B(  5-C ,  6-H ) :   0.9507 B(  5-C ,  7-H ) :   1.0089
B(  5-C ,  8-H ) :   0.9602 B(  9-C , 10-O ) :   1.3756 B(  9-C , 11-N ) :   1.1217
B(  9-C , 14-C ) :   0.7297 B(  9-C , 15-H ) :  -0.1138 B( 10-O , 11-N ) :   0.1592
B( 11-N , 12-H ) :   0.8600 B( 11-N , 13-H ) :   1.0214 B( 14-C , 15-H ) :   1.0090
B( 14-C , 16-H ) :   0.9457 B( 14-C , 17-H ) :   0.9650

MP2 TOTAL ENERGY:     -417.852889917 Eh
FINAL SINGLE POINT ENERGY      -417.852889916842

DIPOLE MOMENT
-------------
                                X             Y             Z
Electronic contribution:     -0.00008      -0.00061       0.00051
Nuclear contribution   :      0.00027      -0.00002       0.00041
                        -----------------------------------------
Total Dipole Moment    :      0.00019      -0.00062       0.00091
                        -----------------------------------------
Magnitude (a.u.)       :      0.00112
Magnitude (Debye)      :      0.00286

Rotational constants in cm-1:     0.178980     0.027512     0.024058
Rotational constants in MHz :  5365.695882   824.801085   721.237608

                             ****ORCA TERMINATED NORMALLY****
TOTAL RUN TIME: 0 days 2 hours 36 minutes 35 seconds 595 msec
