                         Program Version 5.0.4 -  RELEASE  -
|  1> ! ri-mp2 aug-cc-pvdz aug-cc-pvdz/c tightscf
|  2> %pal nprocs 16 end
|  3> %maxcore 3800
|  4> %base "DZ_S66by10_14_1.05_dimer"
|  5> %scf STABPerform true end
|  6>
|  7> *xyz 0 1
|  8> C   -0.77857334   -0.46332064    2.49038768
|  9> H    0.22474462   -0.05095294    2.41348355
| 10> H   -0.72247994   -1.48709180    2.85458464
| 11> H   -1.35190757    0.11081693    3.21368365
| 12> C   -1.52050259   -0.45662769    1.17232500
| 13> O   -2.70083521   -0.78358573    1.08959682
| 14> N   -0.79195361   -0.06964048    0.10058937
| 15> H    0.19411165    0.14570790    0.20292464
| 16> C   -1.39779834   -0.05608245   -1.21131793
| 17> H   -2.31492801    0.52889121   -1.19970991
| 18> H   -0.69880422    0.38726130   -1.91536621
| 19> H   -1.65298232   -1.06152895   -1.54543495
| 20> N    2.35851857    0.26097737    0.28720068
| 21> H    2.76218490    0.80089689    1.04240077
| 22> H    2.77652245    0.62835862   -0.55844524
| 23> C    2.73082141   -1.15020545    0.44095343
| 24> H    2.30453401   -1.72123803   -0.38042202
| 25> H    3.80622005   -1.33689490    0.46673683
| 26> H    2.29634884   -1.53461246    1.36078943
| 27> *
| 28>
| 29> $new_job
| 30> ! ri-mp2 aug-cc-pvtz aug-cc-pvtz/c tightscf
| 31> %pal nprocs 16 end
| 32> %maxcore 3800
| 33> %base "TZ_S66by10_14_1.05_dimer"
| 34>
| 35> *xyz 0 1
| 36> C   -0.77857334   -0.46332064    2.49038768
| 37> H    0.22474462   -0.05095294    2.41348355
| 38> H   -0.72247994   -1.48709180    2.85458464
| 39> H   -1.35190757    0.11081693    3.21368365
| 40> C   -1.52050259   -0.45662769    1.17232500
| 41> O   -2.70083521   -0.78358573    1.08959682
| 42> N   -0.79195361   -0.06964048    0.10058937
| 43> H    0.19411165    0.14570790    0.20292464
| 44> C   -1.39779834   -0.05608245   -1.21131793
| 45> H   -2.31492801    0.52889121   -1.19970991
| 46> H   -0.69880422    0.38726130   -1.91536621
| 47> H   -1.65298232   -1.06152895   -1.54543495
| 48> N    2.35851857    0.26097737    0.28720068
| 49> H    2.76218490    0.80089689    1.04240077
| 50> H    2.77652245    0.62835862   -0.55844524
| 51> C    2.73082141   -1.15020545    0.44095343
| 52> H    2.30453401   -1.72123803   -0.38042202
| 53> H    3.80622005   -1.33689490    0.46673683
| 54> H    2.29634884   -1.53461246    1.36078943
| 55> *
| 56>
| 57> $new_job
| 58> ! ri-mp2 aug-cc-pvqz aug-cc-pvqz/c tightscf
| 59> %pal nprocs 16 end
| 60> %maxcore 3800
| 61> %base "QZ_S66by10_14_1.05_dimer"
| 62>
| 63> *xyz 0 1
| 64> C   -0.77857334   -0.46332064    2.49038768
| 65> H    0.22474462   -0.05095294    2.41348355
| 66> H   -0.72247994   -1.48709180    2.85458464
| 67> H   -1.35190757    0.11081693    3.21368365
| 68> C   -1.52050259   -0.45662769    1.17232500
| 69> O   -2.70083521   -0.78358573    1.08959682
| 70> N   -0.79195361   -0.06964048    0.10058937
| 71> H    0.19411165    0.14570790    0.20292464
| 72> C   -1.39779834   -0.05608245   -1.21131793
| 73> H   -2.31492801    0.52889121   -1.19970991
| 74> H   -0.69880422    0.38726130   -1.91536621
| 75> H   -1.65298232   -1.06152895   -1.54543495
| 76> N    2.35851857    0.26097737    0.28720068
| 77> H    2.76218490    0.80089689    1.04240077
| 78> H    2.77652245    0.62835862   -0.55844524
| 79> C    2.73082141   -1.15020545    0.44095343
| 80> H    2.30453401   -1.72123803   -0.38042202
| 81> H    3.80622005   -1.33689490    0.46673683
| 82> H    2.29634884   -1.53461246    1.36078943
| 83> *
| 84>
| 85>
| 86>
| 87>
| 88>                          ****END OF INPUT****
 Total Charge           Charge          ....    0
 Multiplicity           Mult            ....    1
 Number of Electrons    NEL             ....   58
MP2 TOTAL ENERGY:     -343.433819774 Eh
FINAL SINGLE POINT ENERGY      -343.433819773522
MP2 TOTAL ENERGY:     -343.750318633 Eh
FINAL SINGLE POINT ENERGY      -343.750318633088

CARTESIAN COORDINATES (ANGSTROEM)
---------------------------------
  C     -0.778573   -0.463321    2.490388
  H      0.224745   -0.050953    2.413484
  H     -0.722480   -1.487092    2.854585
  H     -1.351908    0.110817    3.213684
  C     -1.520503   -0.456628    1.172325
  O     -2.700835   -0.783586    1.089597
  N     -0.791954   -0.069640    0.100589
  H      0.194112    0.145708    0.202925
  C     -1.397798   -0.056082   -1.211318
  H     -2.314928    0.528891   -1.199710
  H     -0.698804    0.387261   -1.915366
  H     -1.652982   -1.061529   -1.545435
  N      2.358519    0.260977    0.287201
  H      2.762185    0.800897    1.042401
  H      2.776522    0.628359   -0.558445
  C      2.730821   -1.150205    0.440953
  H      2.304534   -1.721238   -0.380422
  H      3.806220   -1.336895    0.466737
  H      2.296349   -1.534612    1.360789

 Multiplicity           Mult            ....    1
 Number of Electrons    NEL             ....   58
 Basis Dimension        Dim             .... 1112

ORBITAL ENERGIES
----------------

  NO   OCC          E(Eh)            E(eV)
   0   2.0000     -20.492822      -557.6380
   1   2.0000     -15.567803      -423.6215
   2   2.0000     -15.560753      -423.4296
   3   2.0000     -11.327937      -308.2488
   4   2.0000     -11.261014      -306.4278
   5   2.0000     -11.242867      -305.9340
   6   2.0000     -11.221515      -305.3530
   7   2.0000      -1.356058       -36.9002
   8   2.0000      -1.211047       -32.9543
   9   2.0000      -1.198530       -32.6137
  10   2.0000      -1.004042       -27.3214
  11   2.0000      -0.920503       -25.0482
  12   2.0000      -0.916999       -24.9528
  13   2.0000      -0.771607       -20.9965
  14   2.0000      -0.689604       -18.7651
  15   2.0000      -0.674845       -18.3635
  16   2.0000      -0.638321       -17.3696
  17   2.0000      -0.628795       -17.1104
  18   2.0000      -0.618958       -16.8427
  19   2.0000      -0.581442       -15.8218
  20   2.0000      -0.571521       -15.5519
  21   2.0000      -0.563851       -15.3432
  22   2.0000      -0.543034       -14.7767
  23   2.0000      -0.540424       -14.7057
  24   2.0000      -0.533576       -14.5193
  25   2.0000      -0.485397       -13.2083
  26   2.0000      -0.426997       -11.6192
  27   2.0000      -0.404598       -11.0097
  28   2.0000      -0.374070       -10.1790
  29   0.0000       0.016041         0.4365
  30   0.0000       0.028789         0.7834
  31   0.0000       0.029473         0.8020
  32   0.0000       0.034747         0.9455
  33   0.0000       0.045600         1.2408

MULLIKEN ATOMIC CHARGES
-----------------------
   0 C :   -0.861050
   1 H :    0.266251
   2 H :    0.253659
   3 H :    0.280672
   4 C :    0.995170
   5 O :   -0.888868
   6 N :   -0.586120
   7 H :    0.390624
   8 C :   -0.879167
   9 H :    0.338085
  10 H :    0.332260
  11 H :    0.322420
  12 N :   -0.465940
  13 H :    0.210545
  14 H :    0.194351
  15 C :   -0.903072
  16 H :    0.282270
  17 H :    0.424834
  18 H :    0.293075
Sum of atomic charges:    0.0000000

LOEWDIN ATOMIC CHARGES
----------------------
   0 C :    0.886035
   1 H :   -0.332888
   2 H :   -0.295585
   3 H :   -0.301833
   4 C :   -0.852502
   5 O :    0.686778
   6 N :    0.808899
   7 H :   -0.628456
   8 C :    0.764599
   9 H :   -0.304738
  10 H :   -0.297720
  11 H :   -0.289723
  12 N :    1.267058
  13 H :   -0.495260
  14 H :   -0.493410
  15 C :    0.776736
  16 H :   -0.302381
  17 H :   -0.284876
  18 H :   -0.310732

  Mayer bond orders larger than 0.100000
B(  0-C ,  1-H ) :   0.9598 B(  0-C ,  2-H ) :   0.9405 B(  0-C ,  3-H ) :   0.9723
B(  0-C ,  4-C ) :   0.8886 B(  0-C ,  5-O ) :   0.1219 B(  4-C ,  5-O ) :   1.0937
B(  4-C ,  6-N ) :   1.2434 B(  5-O ,  6-N ) :   0.2944 B(  6-N ,  7-H ) :   0.8521
B(  6-N ,  8-C ) :   0.8239 B(  6-N , 12-N ) :   0.1008 B(  8-C ,  9-H ) :   0.9133
B(  8-C , 10-H ) :   0.9081 B(  8-C , 11-H ) :   0.9290 B( 12-N , 13-H ) :   0.9914
B( 12-N , 14-H ) :   1.0063 B( 12-N , 15-C ) :   0.9729 B( 15-C , 16-H ) :   0.9255
B( 15-C , 17-H ) :   0.8041 B( 15-C , 18-H ) :   0.9164

MP2 TOTAL ENERGY:     -343.849678304 Eh
FINAL SINGLE POINT ENERGY      -343.849678303690

DIPOLE MOMENT
-------------
                                X             Y             Z
Electronic contribution:     -7.34724       0.41971       1.03185
Nuclear contribution   :      9.84963       0.01884      -1.28588
                        -----------------------------------------
Total Dipole Moment    :      2.50239       0.43855      -0.25403
                        -----------------------------------------
Magnitude (a.u.)       :      2.55320
Magnitude (Debye)      :      6.48971

Rotational constants in cm-1:     0.109508     0.039675     0.031869
Rotational constants in MHz :  3282.965924  1189.424234   955.411326

                             ****ORCA TERMINATED NORMALLY****
TOTAL RUN TIME: 0 days 2 hours 13 minutes 11 seconds 895 msec
