                         Program Version 5.0.4 -  RELEASE  -
|  1> ! ri-mp2 aug-cc-pvdz aug-cc-pvdz/c tightscf
|  2> %pal nprocs 16 end
|  3> %maxcore 3800
|  4> %base "DZ_S66by10_65_0.95_dimer"
|  5>
|  6> *xyz 0 1
|  7> N   -0.08303249    0.00071459    1.05519999
|  8> C   -0.20285376   -1.14172585    0.36493369
|  9> H   -0.09848563   -2.05509795    0.93743262
| 10> C   -0.44678144   -1.19176367   -1.00451226
| 11> H   -0.53364921   -2.14585511   -1.50417155
| 12> C   -0.57468209    0.00343953   -1.70430948
| 13> H   -0.76368391    0.00448010   -2.76872670
| 14> C   -0.45345675    1.19724254   -1.00091647
| 15> H   -0.54563080    2.15227264   -1.49779508
| 16> C   -0.20931111    1.14450759    0.36836730
| 17> H   -0.11016707    2.05669726    0.94357396
| 18> C    0.45873207   -0.00575451    5.44641211
| 19> H    0.57414212   -0.00518032    6.50142594
| 20> C    0.32666231   -0.00630425    4.24016481
| 21> H    0.20851419   -0.00604182    3.17565934
| 22> *
| 23>
| 24> $new_job
| 25> ! ri-mp2 aug-cc-pvtz aug-cc-pvtz/c tightscf
| 26> %pal nprocs 16 end
| 27> %maxcore 3800
| 28> %base "TZ_S66by10_65_0.95_dimer"
| 29>
| 30> *xyz 0 1
| 31> N   -0.08303249    0.00071459    1.05519999
| 32> C   -0.20285376   -1.14172585    0.36493369
| 33> H   -0.09848563   -2.05509795    0.93743262
| 34> C   -0.44678144   -1.19176367   -1.00451226
| 35> H   -0.53364921   -2.14585511   -1.50417155
| 36> C   -0.57468209    0.00343953   -1.70430948
| 37> H   -0.76368391    0.00448010   -2.76872670
| 38> C   -0.45345675    1.19724254   -1.00091647
| 39> H   -0.54563080    2.15227264   -1.49779508
| 40> C   -0.20931111    1.14450759    0.36836730
| 41> H   -0.11016707    2.05669726    0.94357396
| 42> C    0.45873207   -0.00575451    5.44641211
| 43> H    0.57414212   -0.00518032    6.50142594
| 44> C    0.32666231   -0.00630425    4.24016481
| 45> H    0.20851419   -0.00604182    3.17565934
| 46> *
| 47>
| 48> $new_job
| 49> ! ri-mp2 aug-cc-pvqz aug-cc-pvqz/c tightscf
| 50> %pal nprocs 16 end
| 51> %maxcore 3800
| 52> %base "QZ_S66by10_65_0.95_dimer"
| 53>
| 54> *xyz 0 1
| 55> N   -0.08303249    0.00071459    1.05519999
| 56> C   -0.20285376   -1.14172585    0.36493369
| 57> H   -0.09848563   -2.05509795    0.93743262
| 58> C   -0.44678144   -1.19176367   -1.00451226
| 59> H   -0.53364921   -2.14585511   -1.50417155
| 60> C   -0.57468209    0.00343953   -1.70430948
| 61> H   -0.76368391    0.00448010   -2.76872670
| 62> C   -0.45345675    1.19724254   -1.00091647
| 63> H   -0.54563080    2.15227264   -1.49779508
| 64> C   -0.20931111    1.14450759    0.36836730
| 65> H   -0.11016707    2.05669726    0.94357396
| 66> C    0.45873207   -0.00575451    5.44641211
| 67> H    0.57414212   -0.00518032    6.50142594
| 68> C    0.32666231   -0.00630425    4.24016481
| 69> H    0.20851419   -0.00604182    3.17565934
| 70> *
| 71>
| 72>
| 73>
| 74>
| 75>                          ****END OF INPUT****
 Total Charge           Charge          ....    0
 Multiplicity           Mult            ....    1
 Number of Electrons    NEL             ....   56
MP2 TOTAL ENERGY:     -324.663477009 Eh
FINAL SINGLE POINT ENERGY      -324.663477008678
MP2 TOTAL ENERGY:     -324.948996132 Eh
FINAL SINGLE POINT ENERGY      -324.948996132433

CARTESIAN COORDINATES (ANGSTROEM)
---------------------------------
  N     -0.083032    0.000715    1.055200
  C     -0.202854   -1.141726    0.364934
  H     -0.098486   -2.055098    0.937433
  C     -0.446781   -1.191764   -1.004512
  H     -0.533649   -2.145855   -1.504172
  C     -0.574682    0.003440   -1.704309
  H     -0.763684    0.004480   -2.768727
  C     -0.453457    1.197243   -1.000916
  H     -0.545631    2.152273   -1.497795
  C     -0.209311    1.144508    0.368367
  H     -0.110167    2.056697    0.943574
  C      0.458732   -0.005755    5.446412
  H      0.574142   -0.005180    6.501426
  C      0.326662   -0.006304    4.240165
  H      0.208514   -0.006042    3.175659

 Multiplicity           Mult            ....    1
 Number of Electrons    NEL             ....   56
 Basis Dimension        Dim             ....  962

ORBITAL ENERGIES
----------------

  NO   OCC          E(Eh)            E(eV)
   0   2.0000     -15.576237      -423.8509
   1   2.0000     -11.284514      -307.0672
   2   2.0000     -11.284491      -307.0666
   3   2.0000     -11.268207      -306.6235
   4   2.0000     -11.249488      -306.1141
   5   2.0000     -11.249436      -306.1127
   6   2.0000     -11.219817      -305.3067
   7   2.0000     -11.215732      -305.1956
   8   2.0000      -1.268106       -34.5069
   9   2.0000      -1.099051       -29.9067
  10   2.0000      -1.043277       -28.3890
  11   2.0000      -1.003914       -27.3179
  12   2.0000      -0.868888       -23.6437
  13   2.0000      -0.866098       -23.5677
  14   2.0000      -0.746366       -20.3097
  15   2.0000      -0.729989       -19.8640
  16   2.0000      -0.670814       -18.2538
  17   2.0000      -0.663592       -18.0572
  18   2.0000      -0.655795       -17.8451
  19   2.0000      -0.607897       -16.5417
  20   2.0000      -0.585408       -15.9298
  21   2.0000      -0.552279       -15.0283
  22   2.0000      -0.529522       -14.4090
  23   2.0000      -0.433958       -11.8086
  24   2.0000      -0.395042       -10.7496
  25   2.0000      -0.385763       -10.4972
  26   2.0000      -0.385218       -10.4823
  27   2.0000      -0.356891        -9.7115
  28   0.0000       0.020093         0.5467
  29   0.0000       0.027446         0.7468
  30   0.0000       0.029654         0.8069
  31   0.0000       0.035944         0.9781
  32   0.0000       0.044094         1.1999

MULLIKEN ATOMIC CHARGES
-----------------------
   0 N :   -0.488585
   1 C :   -0.291597
   2 H :    0.416742
   3 C :   -0.201719
   4 H :    0.327991
   5 C :   -0.201216
   6 H :    0.354448
   7 C :   -0.201863
   8 H :    0.327863
   9 C :   -0.293658
  10 H :    0.416710
  11 C :   -1.114770
  12 H :    0.342909
  13 C :   -0.885680
  14 H :    1.492426
Sum of atomic charges:    0.0000000

LOEWDIN ATOMIC CHARGES
----------------------
   0 N :    0.581458
   1 C :    0.097343
   2 H :   -0.344136
   3 C :    0.337005
   4 H :   -0.329228
   5 C :    0.333309
   6 H :   -0.313092
   7 C :    0.336991
   8 H :   -0.329244
   9 C :    0.097389
  10 H :   -0.344185
  11 C :    0.489132
  12 H :   -0.492079
  13 C :    0.484073
  14 H :   -0.604737

  Mayer bond orders larger than 0.100000
B(  0-N ,  1-C ) :   1.3840 B(  0-N ,  9-C ) :   1.3844 B(  0-N , 14-H ) :   0.1176
B(  1-C ,  2-H ) :   0.9075 B(  1-C ,  3-C ) :   1.1836 B(  1-C ,  5-C ) :  -0.1036
B(  1-C ,  7-C ) :   0.1188 B(  3-C ,  4-H ) :   0.9787 B(  3-C ,  5-C ) :   1.2092
B(  3-C ,  9-C ) :   0.1188 B(  5-C ,  6-H ) :   0.9477 B(  5-C ,  7-C ) :   1.2092
B(  5-C ,  9-C ) :  -0.1037 B(  7-C ,  8-H ) :   0.9788 B(  7-C ,  9-C ) :   1.1840
B(  9-C , 10-H ) :   0.9081 B( 11-C , 12-H ) :   1.2830 B( 11-C , 13-C ) :   2.2533
B( 11-C , 14-H ) :  -0.4258 B( 12-H , 13-C ) :  -0.1009 B( 12-H , 14-H ) :  -0.2626
B( 13-C , 14-H ) :  -0.6918

MP2 TOTAL ENERGY:     -325.038706916 Eh
FINAL SINGLE POINT ENERGY      -325.038706916238

DIPOLE MOMENT
-------------
                                X             Y             Z
Electronic contribution:     -0.00566       0.00138      -0.41111
Nuclear contribution   :     -0.21108       0.00076      -0.89161
                        -----------------------------------------
Total Dipole Moment    :     -0.21675       0.00214      -1.30272
                        -----------------------------------------
Magnitude (a.u.)       :      1.32063
Magnitude (Debye)      :      3.35677

Rotational constants in cm-1:     0.201596     0.026653     0.023548
Rotational constants in MHz :  6043.703138   799.025256   705.964815

                             ****ORCA TERMINATED NORMALLY****
TOTAL RUN TIME: 0 days 0 hours 21 minutes 24 seconds 586 msec
