                         Program Version 5.0.4 -  RELEASE  -
|  1> ! ri-mp2 aug-cc-pvdz aug-cc-pvdz/c tightscf
|  2> %pal nprocs 16 end
|  3> %maxcore 3800
|  4> %base "DZ_S66by10_37_1.1_dimer"
|  5> %scf STABPerform true end
|  6>
|  7> *xyz 0 1
|  8> C    0.79991408   -1.02205164    0.68773696
|  9> H    0.85355588   -1.12205101   -0.39801435
| 10> H    1.49140210   -1.74416936    1.11972040
| 11> C    1.11688700    0.42495279    1.09966205
| 12> H    1.83814230    0.89014504    0.43045256
| 13> H    1.55556959    0.43982464    2.09708356
| 14> C   -0.24455916    1.16568959    1.10297714
| 15> H   -0.25807760    2.00086313    0.40532333
| 16> H   -0.44880450    1.57699582    2.09098447
| 17> C   -1.29871418    0.10381191    0.73930899
| 18> H   -1.47356078    0.10524338   -0.33800545
| 19> H   -2.25673428    0.27804118    1.22715843
| 20> C   -0.64687993   -1.22006836    1.13630660
| 21> H   -1.12443918   -2.08762702    0.68299327
| 22> H   -0.68601864   -1.34528332    2.22022006
| 23> C    0.05669474    0.10754486    5.92308472
| 24> C   -0.03964945   -0.04454112    7.43872520
| 25> H    0.95289692   -0.06000732    7.89108242
| 26> H   -0.59857422    0.78334338    7.87716011
| 27> H   -0.54681415   -0.97320720    7.70407479
| 28> C    0.77074799    1.41444997    5.58745984
| 29> H    0.85226753    1.54794910    4.50777796
| 30> H    0.22727560    2.26913841    5.99296122
| 31> H    1.77835253    1.42510038    6.00569284
| 32> C   -1.34831707    0.12736950    5.32576519
| 33> H   -1.31138548    0.24455944    4.24191623
| 34> H   -1.93061660    0.95479306    5.73411112
| 35> H   -1.87822013   -0.80041734    5.54709449
| 36> C    0.84459456   -1.06594005    5.34574654
| 37> H    0.34937424   -2.01293079    5.56598969
| 38> H    0.93943773   -0.97875728    4.26261177
| 39> H    1.84931264   -1.10334469    5.76949500
| 40> *
| 41>
| 42> $new_job
| 43> ! ri-mp2 aug-cc-pvtz aug-cc-pvtz/c tightscf
| 44> %pal nprocs 16 end
| 45> %maxcore 3800
| 46> %base "TZ_S66by10_37_1.1_dimer"
| 47>
| 48> *xyz 0 1
| 49> C    0.79991408   -1.02205164    0.68773696
| 50> H    0.85355588   -1.12205101   -0.39801435
| 51> H    1.49140210   -1.74416936    1.11972040
| 52> C    1.11688700    0.42495279    1.09966205
| 53> H    1.83814230    0.89014504    0.43045256
| 54> H    1.55556959    0.43982464    2.09708356
| 55> C   -0.24455916    1.16568959    1.10297714
| 56> H   -0.25807760    2.00086313    0.40532333
| 57> H   -0.44880450    1.57699582    2.09098447
| 58> C   -1.29871418    0.10381191    0.73930899
| 59> H   -1.47356078    0.10524338   -0.33800545
| 60> H   -2.25673428    0.27804118    1.22715843
| 61> C   -0.64687993   -1.22006836    1.13630660
| 62> H   -1.12443918   -2.08762702    0.68299327
| 63> H   -0.68601864   -1.34528332    2.22022006
| 64> C    0.05669474    0.10754486    5.92308472
| 65> C   -0.03964945   -0.04454112    7.43872520
| 66> H    0.95289692   -0.06000732    7.89108242
| 67> H   -0.59857422    0.78334338    7.87716011
| 68> H   -0.54681415   -0.97320720    7.70407479
| 69> C    0.77074799    1.41444997    5.58745984
| 70> H    0.85226753    1.54794910    4.50777796
| 71> H    0.22727560    2.26913841    5.99296122
| 72> H    1.77835253    1.42510038    6.00569284
| 73> C   -1.34831707    0.12736950    5.32576519
| 74> H   -1.31138548    0.24455944    4.24191623
| 75> H   -1.93061660    0.95479306    5.73411112
| 76> H   -1.87822013   -0.80041734    5.54709449
| 77> C    0.84459456   -1.06594005    5.34574654
| 78> H    0.34937424   -2.01293079    5.56598969
| 79> H    0.93943773   -0.97875728    4.26261177
| 80> H    1.84931264   -1.10334469    5.76949500
| 81> *
| 82>
| 83> $new_job
| 84> ! ri-mp2 aug-cc-pvqz aug-cc-pvqz/c tightscf
| 85> %pal nprocs 16 end
| 86> %maxcore 3800
| 87> %base "QZ_S66by10_37_1.1_dimer"
| 88>
| 89> *xyz 0 1
| 90> C    0.79991408   -1.02205164    0.68773696
| 91> H    0.85355588   -1.12205101   -0.39801435
| 92> H    1.49140210   -1.74416936    1.11972040
| 93> C    1.11688700    0.42495279    1.09966205
| 94> H    1.83814230    0.89014504    0.43045256
| 95> H    1.55556959    0.43982464    2.09708356
| 96> C   -0.24455916    1.16568959    1.10297714
| 97> H   -0.25807760    2.00086313    0.40532333
| 98> H   -0.44880450    1.57699582    2.09098447
| 99> C   -1.29871418    0.10381191    0.73930899
|100> H   -1.47356078    0.10524338   -0.33800545
|101> H   -2.25673428    0.27804118    1.22715843
|102> C   -0.64687993   -1.22006836    1.13630660
|103> H   -1.12443918   -2.08762702    0.68299327
|104> H   -0.68601864   -1.34528332    2.22022006
|105> C    0.05669474    0.10754486    5.92308472
|106> C   -0.03964945   -0.04454112    7.43872520
|107> H    0.95289692   -0.06000732    7.89108242
|108> H   -0.59857422    0.78334338    7.87716011
|109> H   -0.54681415   -0.97320720    7.70407479
|110> C    0.77074799    1.41444997    5.58745984
|111> H    0.85226753    1.54794910    4.50777796
|112> H    0.22727560    2.26913841    5.99296122
|113> H    1.77835253    1.42510038    6.00569284
|114> C   -1.34831707    0.12736950    5.32576519
|115> H   -1.31138548    0.24455944    4.24191623
|116> H   -1.93061660    0.95479306    5.73411112
|117> H   -1.87822013   -0.80041734    5.54709449
|118> C    0.84459456   -1.06594005    5.34574654
|119> H    0.34937424   -2.01293079    5.56598969
|120> H    0.93943773   -0.97875728    4.26261177
|121> H    1.84931264   -1.10334469    5.76949500
|122> *
|123>
|124>
|125>
|126>
|127>                          ****END OF INPUT****
 Total Charge           Charge          ....    0
 Multiplicity           Mult            ....    1
 Number of Electrons    NEL             ....   82
MP2 TOTAL ENERGY:     -393.049951442 Eh
FINAL SINGLE POINT ENERGY      -393.049951441820
MP2 TOTAL ENERGY:     -393.433516661 Eh
FINAL SINGLE POINT ENERGY      -393.433516660763

CARTESIAN COORDINATES (ANGSTROEM)
---------------------------------
  C      0.799914   -1.022052    0.687737
  H      0.853556   -1.122051   -0.398014
  H      1.491402   -1.744169    1.119720
  C      1.116887    0.424953    1.099662
  H      1.838142    0.890145    0.430453
  H      1.555570    0.439825    2.097084
  C     -0.244559    1.165690    1.102977
  H     -0.258078    2.000863    0.405323
  H     -0.448804    1.576996    2.090984
  C     -1.298714    0.103812    0.739309
  H     -1.473561    0.105243   -0.338005
  H     -2.256734    0.278041    1.227158
  C     -0.646880   -1.220068    1.136307
  H     -1.124439   -2.087627    0.682993
  H     -0.686019   -1.345283    2.220220
  C      0.056695    0.107545    5.923085
  C     -0.039649   -0.044541    7.438725
  H      0.952897   -0.060007    7.891082
  H     -0.598574    0.783343    7.877160
  H     -0.546814   -0.973207    7.704075
  C      0.770748    1.414450    5.587460
  H      0.852268    1.547949    4.507778
  H      0.227276    2.269138    5.992961
  H      1.778353    1.425100    6.005693
  C     -1.348317    0.127369    5.325765
  H     -1.311385    0.244559    4.241916
  H     -1.930617    0.954793    5.734111
  H     -1.878220   -0.800417    5.547094
  C      0.844595   -1.065940    5.345747
  H      0.349374   -2.012931    5.565990
  H      0.939438   -0.978757    4.262612
  H      1.849313   -1.103345    5.769495

 Multiplicity           Mult            ....    1
 Number of Electrons    NEL             ....   82
 Basis Dimension        Dim             .... 1812

ORBITAL ENERGIES
----------------

  NO   OCC          E(Eh)            E(eV)
   0   2.0000     -11.226217      -305.4809
   1   2.0000     -11.209937      -305.0379
   2   2.0000     -11.209524      -305.0266
   3   2.0000     -11.209318      -305.0210
   4   2.0000     -11.208920      -305.0102
   5   2.0000     -11.208394      -304.9959
   6   2.0000     -11.205088      -304.9060
   7   2.0000     -11.205057      -304.9051
   8   2.0000     -11.204966      -304.9026
   9   2.0000     -11.204749      -304.8967
  10   2.0000      -1.116226       -30.3740
  11   2.0000      -1.106694       -30.1147
  12   2.0000      -0.957151       -26.0454
  13   2.0000      -0.956755       -26.0346
  14   2.0000      -0.929498       -25.2929
  15   2.0000      -0.929117       -25.2825
  16   2.0000      -0.928898       -25.2766
  17   2.0000      -0.777219       -21.1492
  18   2.0000      -0.768089       -20.9008
  19   2.0000      -0.730568       -19.8798
  20   2.0000      -0.651281       -17.7222
  21   2.0000      -0.645105       -17.5542
  22   2.0000      -0.612792       -16.6749
  23   2.0000      -0.612544       -16.6682
  24   2.0000      -0.611721       -16.6458
  25   2.0000      -0.571858       -15.5611
  26   2.0000      -0.569606       -15.4998
  27   2.0000      -0.553371       -15.0580
  28   2.0000      -0.552766       -15.0415
  29   2.0000      -0.510068       -13.8796
  30   2.0000      -0.510021       -13.8784
  31   2.0000      -0.509893       -13.8749
  32   2.0000      -0.475381       -12.9358
  33   2.0000      -0.475268       -12.9327
  34   2.0000      -0.464609       -12.6426
  35   2.0000      -0.462835       -12.5944
  36   2.0000      -0.460250       -12.5240
  37   2.0000      -0.453370       -12.3368
  38   2.0000      -0.452993       -12.3266
  39   2.0000      -0.449955       -12.2439
  40   2.0000      -0.449526       -12.2322
  41   0.0000       0.023174         0.6306
  42   0.0000       0.028245         0.7686
  43   0.0000       0.029426         0.8007
  44   0.0000       0.029630         0.8063
  45   0.0000       0.038988         1.0609

MULLIKEN ATOMIC CHARGES
-----------------------
   0 C :   -0.684375
   1 H :    0.272992
   2 H :    0.287628
   3 C :   -0.619177
   4 H :    0.334714
   5 H :    0.315602
   6 C :   -0.585958
   7 H :    0.325829
   8 H :    0.306848
   9 C :   -0.696848
  10 H :    0.274757
  11 H :    0.285745
  12 C :   -0.544578
  13 H :    0.329008
  14 H :    0.350707
  15 C :    1.861155
  16 C :   -1.130644
  17 H :    0.238945
  18 H :    0.238158
  19 H :    0.220728
  20 C :   -1.302727
  21 H :    0.436326
  22 H :    0.209106
  23 H :    0.211567
  24 C :   -1.314711
  25 H :    0.425782
  26 H :    0.217899
  27 H :    0.202946
  28 C :   -1.313346
  29 H :    0.201273
  30 H :    0.429629
  31 H :    0.215020
Sum of atomic charges:   -0.0000000

LOEWDIN ATOMIC CHARGES
----------------------
   0 C :    0.529523
   1 H :   -0.266414
   2 H :   -0.256713
   3 C :    0.543394
   4 H :   -0.261348
   5 H :   -0.285043
   6 C :    0.545641
   7 H :   -0.262601
   8 H :   -0.284219
   9 C :    0.530820
  10 H :   -0.267297
  11 H :   -0.257782
  12 C :    0.517558
  13 H :   -0.251997
  14 H :   -0.282321
  15 C :   -0.326737
  16 C :    0.902924
  17 H :   -0.271238
  18 H :   -0.271209
  19 H :   -0.270738
  20 C :    0.903423
  21 H :   -0.283024
  22 H :   -0.267979
  23 H :   -0.267929
  24 C :    0.902796
  25 H :   -0.288803
  26 H :   -0.266956
  27 H :   -0.266539
  28 C :    0.902921
  29 H :   -0.266674
  30 H :   -0.288350
  31 H :   -0.267087

  Mayer bond orders larger than 0.100000
B(  0-C ,  1-H ) :   0.9311 B(  0-C ,  2-H ) :   0.8813 B(  0-C ,  3-C ) :   0.9881
B(  0-C , 12-C ) :   0.9175 B(  3-C ,  4-H ) :   0.9026 B(  3-C ,  5-H ) :   0.8296
B(  3-C ,  6-C ) :   0.9384 B(  6-C ,  7-H ) :   0.9131 B(  6-C ,  8-H ) :   0.8388
B(  6-C ,  9-C ) :   0.9882 B(  6-C , 12-C ) :  -0.1013 B(  9-C , 10-H ) :   0.9330
B(  9-C , 11-H ) :   0.8830 B(  9-C , 12-C ) :   0.9160 B( 12-C , 13-H ) :   0.8755
B( 12-C , 14-H ) :   0.7742 B( 15-C , 16-C ) :   0.1084 B( 15-C , 17-H ) :  -0.1493
B( 15-C , 18-H ) :  -0.1494 B( 15-C , 19-H ) :  -0.1663 B( 15-C , 20-C ) :   0.4084
B( 15-C , 24-C ) :   0.3625 B( 15-C , 25-H ) :  -0.1241 B( 15-C , 28-C ) :   0.3509
B( 15-C , 30-H ) :  -0.1085 B( 16-C , 17-H ) :   1.0613 B( 16-C , 18-H ) :   1.0611
B( 16-C , 19-H ) :   1.0795 B( 16-C , 20-C ) :   0.1632 B( 16-C , 24-C ) :   0.1687
B( 16-C , 28-C ) :   0.1661 B( 20-C , 21-H ) :   0.8183 B( 20-C , 22-H ) :   1.0745
B( 20-C , 23-H ) :   1.0722 B( 20-C , 24-C ) :   0.1739 B( 20-C , 28-C ) :   0.1726
B( 24-C , 25-H ) :   0.8738 B( 24-C , 26-H ) :   1.0689 B( 24-C , 27-H ) :   1.0654
B( 24-C , 28-C ) :   0.1456 B( 28-C , 29-H ) :   1.0726 B( 28-C , 30-H ) :   0.8628
B( 28-C , 31-H ) :   1.0776

MP2 TOTAL ENERGY:     -393.548121392 Eh
FINAL SINGLE POINT ENERGY      -393.548121392171

DIPOLE MOMENT
-------------
                                X             Y             Z
Electronic contribution:     -0.12311      -0.25117      -3.95662
Nuclear contribution   :      0.11940       0.24355       3.94948
                        -----------------------------------------
Total Dipole Moment    :     -0.00371      -0.00762      -0.00714
                        -----------------------------------------
Magnitude (a.u.)       :      0.01108
Magnitude (Debye)      :      0.02817

Rotational constants in cm-1:     0.068749     0.015746     0.015731
Rotational constants in MHz :  2061.057153   472.045898   471.600906

                             ****ORCA TERMINATED NORMALLY****
TOTAL RUN TIME: 0 days 19 hours 28 minutes 5 seconds 968 msec
