                         Program Version 5.0.4 -  RELEASE  -
|  1> ! ri-mp2 aug-cc-pvdz aug-cc-pvdz/c tightscf
|  2> %pal nprocs 16 end
|  3> %maxcore 3800
|  4> %base "DZ_S66by10_49_1.0_dimer"
|  5>
|  6> *xyz 0 1
|  7> C    0.84507720    1.05791869    0.69945490
|  8> H    1.50640601    1.90322178    0.83338235
|  9> C    1.37550931   -0.21745534    0.51116093
| 10> H    2.44718367   -0.36147258    0.50285232
| 11> C    0.52406810   -1.30704432    0.33319233
| 12> H    0.93572726   -2.29602641    0.18492305
| 13> C   -0.85771573   -1.12146341    0.34638409
| 14> H   -1.51838119   -1.96645805    0.20836325
| 15> C   -1.38804570    0.15363438    0.53761349
| 16> H   -2.45971752    0.29741587    0.55003229
| 17> C   -0.53661315    1.24342221    0.71273882
| 18> H   -0.94892427    2.23280628    0.85736635
| 19> N    0.02353898    0.35882312    6.74109522
| 20> C    0.17822280    1.29678472    5.79621834
| 21> H    0.31999363    2.30931073    6.15412007
| 22> C    0.16401353    1.02949496    4.42971890
| 23> H    0.29425359    1.83052075    3.71583349
| 24> C   -0.02032478   -0.28213473    4.00442847
| 25> H   -0.03689123   -0.52525340    2.95108054
| 26> C   -0.18217370   -1.26716906    4.97328756
| 27> H   -0.32871672   -2.30238003    4.69851605
| 28> C   -0.15297123   -0.89983596    6.31637707
| 29> H   -0.27656737   -1.64734993    7.09047807
| 30> *
| 31>
| 32> $new_job
| 33> ! ri-mp2 aug-cc-pvtz aug-cc-pvtz/c tightscf
| 34> %pal nprocs 16 end
| 35> %maxcore 3800
| 36> %base "TZ_S66by10_49_1.0_dimer"
| 37>
| 38> *xyz 0 1
| 39> C    0.84507720    1.05791869    0.69945490
| 40> H    1.50640601    1.90322178    0.83338235
| 41> C    1.37550931   -0.21745534    0.51116093
| 42> H    2.44718367   -0.36147258    0.50285232
| 43> C    0.52406810   -1.30704432    0.33319233
| 44> H    0.93572726   -2.29602641    0.18492305
| 45> C   -0.85771573   -1.12146341    0.34638409
| 46> H   -1.51838119   -1.96645805    0.20836325
| 47> C   -1.38804570    0.15363438    0.53761349
| 48> H   -2.45971752    0.29741587    0.55003229
| 49> C   -0.53661315    1.24342221    0.71273882
| 50> H   -0.94892427    2.23280628    0.85736635
| 51> N    0.02353898    0.35882312    6.74109522
| 52> C    0.17822280    1.29678472    5.79621834
| 53> H    0.31999363    2.30931073    6.15412007
| 54> C    0.16401353    1.02949496    4.42971890
| 55> H    0.29425359    1.83052075    3.71583349
| 56> C   -0.02032478   -0.28213473    4.00442847
| 57> H   -0.03689123   -0.52525340    2.95108054
| 58> C   -0.18217370   -1.26716906    4.97328756
| 59> H   -0.32871672   -2.30238003    4.69851605
| 60> C   -0.15297123   -0.89983596    6.31637707
| 61> H   -0.27656737   -1.64734993    7.09047807
| 62> *
| 63>
| 64> $new_job
| 65> ! ri-mp2 aug-cc-pvqz aug-cc-pvqz/c tightscf
| 66> %pal nprocs 16 end
| 67> %maxcore 3800
| 68> %base "QZ_S66by10_49_1.0_dimer"
| 69>
| 70> *xyz 0 1
| 71> C    0.84507720    1.05791869    0.69945490
| 72> H    1.50640601    1.90322178    0.83338235
| 73> C    1.37550931   -0.21745534    0.51116093
| 74> H    2.44718367   -0.36147258    0.50285232
| 75> C    0.52406810   -1.30704432    0.33319233
| 76> H    0.93572726   -2.29602641    0.18492305
| 77> C   -0.85771573   -1.12146341    0.34638409
| 78> H   -1.51838119   -1.96645805    0.20836325
| 79> C   -1.38804570    0.15363438    0.53761349
| 80> H   -2.45971752    0.29741587    0.55003229
| 81> C   -0.53661315    1.24342221    0.71273882
| 82> H   -0.94892427    2.23280628    0.85736635
| 83> N    0.02353898    0.35882312    6.74109522
| 84> C    0.17822280    1.29678472    5.79621834
| 85> H    0.31999363    2.30931073    6.15412007
| 86> C    0.16401353    1.02949496    4.42971890
| 87> H    0.29425359    1.83052075    3.71583349
| 88> C   -0.02032478   -0.28213473    4.00442847
| 89> H   -0.03689123   -0.52525340    2.95108054
| 90> C   -0.18217370   -1.26716906    4.97328756
| 91> H   -0.32871672   -2.30238003    4.69851605
| 92> C   -0.15297123   -0.89983596    6.31637707
| 93> H   -0.27656737   -1.64734993    7.09047807
| 94> *
| 95>
| 96>
| 97>
| 98>
| 99>                          ****END OF INPUT****
 Total Charge           Charge          ....    0
 Multiplicity           Mult            ....    1
 Number of Electrons    NEL             ....   84
MP2 TOTAL ENERGY:     -479.112349458 Eh
FINAL SINGLE POINT ENERGY      -479.112349458357
MP2 TOTAL ENERGY:     -479.530477853 Eh
FINAL SINGLE POINT ENERGY      -479.530477853079

CARTESIAN COORDINATES (ANGSTROEM)
---------------------------------
  C      0.845077    1.057919    0.699455
  H      1.506406    1.903222    0.833382
  C      1.375509   -0.217455    0.511161
  H      2.447184   -0.361473    0.502852
  C      0.524068   -1.307044    0.333192
  H      0.935727   -2.296026    0.184923
  C     -0.857716   -1.121463    0.346384
  H     -1.518381   -1.966458    0.208363
  C     -1.388046    0.153634    0.537613
  H     -2.459718    0.297416    0.550032
  C     -0.536613    1.243422    0.712739
  H     -0.948924    2.232806    0.857366
  N      0.023539    0.358823    6.741095
  C      0.178223    1.296785    5.796218
  H      0.319994    2.309311    6.154120
  C      0.164014    1.029495    4.429719
  H      0.294254    1.830521    3.715833
  C     -0.020325   -0.282135    4.004428
  H     -0.036891   -0.525253    2.951081
  C     -0.182174   -1.267169    4.973288
  H     -0.328717   -2.302380    4.698516
  C     -0.152971   -0.899836    6.316377
  H     -0.276567   -1.647350    7.090478

 Multiplicity           Mult            ....    1
 Number of Electrons    NEL             ....   84
 Basis Dimension        Dim             .... 1466

ORBITAL ENERGIES
----------------

  NO   OCC          E(Eh)            E(eV)
   0   2.0000     -15.557013      -423.3279
   1   2.0000     -11.266639      -306.5808
   2   2.0000     -11.266488      -306.5767
   3   2.0000     -11.246623      -306.0362
   4   2.0000     -11.245549      -306.0069
   5   2.0000     -11.245009      -305.9923
   6   2.0000     -11.244926      -305.9900
   7   2.0000     -11.243767      -305.9584
   8   2.0000     -11.243679      -305.9561
   9   2.0000     -11.243108      -305.9405
  10   2.0000     -11.232071      -305.6402
  11   2.0000     -11.231229      -305.6173
  12   2.0000      -1.248315       -33.9684
  13   2.0000      -1.161369       -31.6024
  14   2.0000      -1.079855       -29.3843
  15   2.0000      -1.025839       -27.9145
  16   2.0000      -1.025124       -27.8951
  17   2.0000      -1.024549       -27.8794
  18   2.0000      -0.850046       -23.1309
  19   2.0000      -0.847318       -23.0567
  20   2.0000      -0.834406       -22.7053
  21   2.0000      -0.834273       -22.7017
  22   2.0000      -0.720251       -19.5990
  23   2.0000      -0.713518       -19.4158
  24   2.0000      -0.654109       -17.7992
  25   2.0000      -0.651808       -17.7366
  26   2.0000      -0.645937       -17.5769
  27   2.0000      -0.629504       -17.1297
  28   2.0000      -0.598661       -16.2904
  29   2.0000      -0.598276       -16.2799
  30   2.0000      -0.590065       -16.0565
  31   2.0000      -0.571849       -15.5608
  32   2.0000      -0.533438       -14.5156
  33   2.0000      -0.511303       -13.9133
  34   2.0000      -0.507780       -13.8174
  35   2.0000      -0.505164       -13.7462
  36   2.0000      -0.504993       -13.7416
  37   2.0000      -0.412310       -11.2195
  38   2.0000      -0.376111       -10.2345
  39   2.0000      -0.348867        -9.4931
  40   2.0000      -0.347195        -9.4477
  41   2.0000      -0.339953        -9.2506
  42   0.0000       0.020213         0.5500
  43   0.0000       0.024852         0.6763
  44   0.0000       0.027960         0.7608
  45   0.0000       0.033441         0.9100
  46   0.0000       0.038067         1.0358

MULLIKEN ATOMIC CHARGES
-----------------------
   0 C :   -0.296671
   1 H :    0.313080
   2 C :   -0.373420
   3 H :    0.300203
   4 C :   -0.276708
   5 H :    0.315174
   6 C :   -0.292447
   7 H :    0.311816
   8 C :   -0.350299
   9 H :    0.301527
  10 C :   -0.315233
  11 H :    0.303714
  12 N :   -0.710332
  13 C :   -0.028824
  14 H :    0.494094
  15 C :   -0.676918
  16 H :    0.291353
  17 C :   -0.302467
  18 H :    1.012790
  19 C :   -0.586734
  20 H :    0.232691
  21 C :   -0.181535
  22 H :    0.515146
Sum of atomic charges:   -0.0000000

LOEWDIN ATOMIC CHARGES
----------------------
   0 C :    0.319008
   1 H :   -0.316947
   2 C :    0.330649
   3 H :   -0.317884
   4 C :    0.329946
   5 H :   -0.319489
   6 C :    0.329989
   7 H :   -0.319477
   8 C :    0.330736
   9 H :   -0.317815
  10 C :    0.319138
  11 H :   -0.316824
  12 N :    0.585911
  13 C :    0.074108
  14 H :   -0.357454
  15 C :    0.331810
  16 H :   -0.338448
  17 C :    0.321942
  18 H :   -0.391959
  19 C :    0.341851
  20 H :   -0.328611
  21 C :    0.068074
  22 H :   -0.358255

  Mayer bond orders larger than 0.100000
B(  0-C ,  1-H ) :   1.0393 B(  0-C ,  2-C ) :   1.2282 B(  0-C ,  6-C ) :   0.1345
B(  0-C , 10-C ) :   1.1696 B(  2-C ,  3-H ) :   1.0638 B(  2-C ,  4-C ) :   1.2402
B(  2-C ,  8-C ) :   0.2135 B(  4-C ,  5-H ) :   1.0696 B(  4-C ,  6-C ) :   1.1153
B(  4-C , 10-C ) :   0.1346 B(  6-C ,  7-H ) :   1.0724 B(  6-C ,  8-C ) :   1.2380
B(  8-C ,  9-H ) :   1.0592 B(  8-C , 10-C ) :   1.2293 B( 10-C , 11-H ) :   1.0485
B( 12-N , 13-C ) :   1.1931 B( 12-N , 14-H ) :  -0.1111 B( 12-N , 15-C ) :   0.1337
B( 12-N , 19-C ) :   0.1224 B( 12-N , 21-C ) :   1.2080 B( 12-N , 22-H ) :  -0.1246
B( 13-C , 14-H ) :   0.8474 B( 13-C , 15-C ) :   1.2935 B( 13-C , 17-C ) :  -0.2627
B( 13-C , 19-C ) :   0.1749 B( 14-H , 15-C ) :  -0.1470 B( 15-C , 16-H ) :   0.9899
B( 15-C , 17-C ) :   1.1327 B( 15-C , 18-H ) :  -0.2066 B( 17-C , 18-H ) :   0.1790
B( 17-C , 19-C ) :   1.1088 B( 17-C , 21-C ) :  -0.2949 B( 18-H , 19-C ) :  -0.1920
B( 19-C , 20-H ) :   1.0541 B( 19-C , 21-C ) :   1.4036 B( 19-C , 22-H ) :  -0.1292
B( 21-C , 22-H ) :   0.8208

MP2 TOTAL ENERGY:     -479.663213631 Eh
FINAL SINGLE POINT ENERGY      -479.663213631396

DIPOLE MOMENT
-------------
                                X             Y             Z
Electronic contribution:      0.02057       0.32615       3.43024
Nuclear contribution   :     -0.03856      -0.53891      -4.57836
                        -----------------------------------------
Total Dipole Moment    :     -0.01799      -0.21276      -1.14812
                        -----------------------------------------
Magnitude (a.u.)       :      1.16780
Magnitude (Debye)      :      2.96831

Rotational constants in cm-1:     0.065386     0.015237     0.014202
Rotational constants in MHz :  1960.217171   456.800775   425.767604

                             ****ORCA TERMINATED NORMALLY****
TOTAL RUN TIME: 0 days 0 hours 58 minutes 26 seconds 774 msec
