                         Program Version 5.0.4 -  RELEASE  -
|  1> ! ri-mp2 aug-cc-pvdz aug-cc-pvdz/c tightscf
|  2> %pal nprocs 16 end
|  3> %maxcore 3800
|  4> %base "DZ_S66by10_1_0.8_dimer"
|  5> %scf STABPerform true end
|  6>
|  7> *xyz 0 1
|  8> O   -0.70219605   -0.05606026    0.00994226
|  9> H   -1.02219322    0.84677578   -0.01148871
| 10> H    0.25752106    0.04212150    0.00521900
| 11> O    1.86666371    0.02949595    0.00145009
| 12> H    2.24328533   -0.40888412    0.76757448
| 13> H    2.23892803   -0.44671703   -0.74395241
| 14> *
| 15>
| 16> $new_job
| 17> ! ri-mp2 aug-cc-pvtz aug-cc-pvtz/c tightscf
| 18> %pal nprocs 16 end
| 19> %maxcore 3800
| 20> %base "TZ_S66by10_1_0.8_dimer"
| 21>
| 22> *xyz 0 1
| 23> O   -0.70219605   -0.05606026    0.00994226
| 24> H   -1.02219322    0.84677578   -0.01148871
| 25> H    0.25752106    0.04212150    0.00521900
| 26> O    1.86666371    0.02949595    0.00145009
| 27> H    2.24328533   -0.40888412    0.76757448
| 28> H    2.23892803   -0.44671703   -0.74395241
| 29> *
| 30>
| 31> $new_job
| 32> ! ri-mp2 aug-cc-pvqz aug-cc-pvqz/c tightscf
| 33> %pal nprocs 16 end
| 34> %maxcore 3800
| 35> %base "QZ_S66by10_1_0.8_dimer"
| 36>
| 37> *xyz 0 1
| 38> O   -0.70219605   -0.05606026    0.00994226
| 39> H   -1.02219322    0.84677578   -0.01148871
| 40> H    0.25752106    0.04212150    0.00521900
| 41> O    1.86666371    0.02949595    0.00145009
| 42> H    2.24328533   -0.40888412    0.76757448
| 43> H    2.23892803   -0.44671703   -0.74395241
| 44> *
| 45>
| 46>
| 47>
| 48>
| 49>                          ****END OF INPUT****
 Total Charge           Charge          ....    0
 Multiplicity           Mult            ....    1
 Number of Electrons    NEL             ....   20
MP2 TOTAL ENERGY:     -152.525753913 Eh
FINAL SINGLE POINT ENERGY      -152.525753912667
MP2 TOTAL ENERGY:     -152.662251391 Eh
FINAL SINGLE POINT ENERGY      -152.662251390759

CARTESIAN COORDINATES (ANGSTROEM)
---------------------------------
  O     -0.702196   -0.056060    0.009942
  H     -1.022193    0.846776   -0.011489
  H      0.257521    0.042121    0.005219
  O      1.866664    0.029496    0.001450
  H      2.243285   -0.408884    0.767574
  H      2.238928   -0.446717   -0.743952

 Multiplicity           Mult            ....    1
 Number of Electrons    NEL             ....   20
 Basis Dimension        Dim             ....  344

ORBITAL ENERGIES
----------------

  NO   OCC          E(Eh)            E(eV)
   0   2.0000     -20.598940      -560.5257
   1   2.0000     -20.514777      -558.2355
   2   2.0000      -1.394900       -37.9571
   3   2.0000      -1.307844       -35.5882
   4   2.0000      -0.752325       -20.4718
   5   2.0000      -0.704279       -19.1644
   6   2.0000      -0.620879       -16.8950
   7   2.0000      -0.558665       -15.2020
   8   2.0000      -0.521448       -14.1893
   9   2.0000      -0.466842       -12.7034
  10   0.0000       0.018599         0.5061
  11   0.0000       0.040320         1.0972
  12   0.0000       0.044398         1.2081
  13   0.0000       0.069709         1.8969
  14   0.0000       0.099823         2.7163

MULLIKEN ATOMIC CHARGES
-----------------------
   0 O :   -0.614371
   1 H :    0.295244
   2 H :    0.210135
   3 O :   -0.519011
   4 H :    0.313972
   5 H :    0.314031
Sum of atomic charges:    0.0000000

LOEWDIN ATOMIC CHARGES
----------------------
   0 O :    1.601138
   1 H :   -0.792007
   2 H :   -1.189988
   3 O :    1.727645
   4 H :   -0.673403
   5 H :   -0.673385

  Mayer bond orders larger than 0.100000
B(  0-O ,  1-H ) :   0.9528 B(  0-O ,  2-H ) :   1.0104 B(  2-H ,  3-O ) :   0.1296
B(  3-O ,  4-H ) :   0.9295 B(  3-O ,  5-H ) :   0.9294

MP2 TOTAL ENERGY:     -152.708041401 Eh
FINAL SINGLE POINT ENERGY      -152.708041400542

DIPOLE MOMENT
-------------
                                X             Y             Z
Electronic contribution:      0.11894      -0.05015       0.00094
Nuclear contribution   :      1.15582       0.07194      -0.00452
                        -----------------------------------------
Total Dipole Moment    :      1.27476       0.02179      -0.00359
                        -----------------------------------------
Magnitude (a.u.)       :      1.27496
Magnitude (Debye)      :      3.24068

Rotational constants in cm-1:     7.366946     0.271294     0.271224
Rotational constants in MHz : 220855.471208  8133.198707  8131.079248

                             ****ORCA TERMINATED NORMALLY****
TOTAL RUN TIME: 0 days 0 hours 3 minutes 14 seconds 642 msec
