                         Program Version 5.0.4 -  RELEASE  -
|  1> ! ri-mp2 aug-cc-pvdz aug-cc-pvdz/c tightscf
|  2> %pal nprocs 16 end
|  3> %maxcore 3800
|  4> %base "DZ_S66by10_64_0.9_dimer"
|  5> %scf STABPerform true end
|  6>
|  7> *xyz 0 1
|  8> C    1.62971482    0.50301252    0.27011189
|  9> H    1.64157338    1.45923792   -0.24808286
| 10> H    2.31531919   -0.18355470   -0.21758635
| 11> H    1.96974564    0.64936024    1.29398105
| 12> C    0.26182776   -0.13286122    0.31456221
| 13> O    0.09925265   -1.30961602    0.61183995
| 14> N   -0.77350225    0.70251214    0.02207590
| 15> H   -0.56901138    1.66655677   -0.16581434
| 16> C   -2.15001214    0.26596865    0.09505328
| 17> H   -2.14473761   -0.81940745    0.10091210
| 18> H   -2.64054318    0.61582035    1.00360442
| 19> H   -2.70774393    0.62075110   -0.76826057
| 20> C   -0.07756867    0.51996269    3.56584937
| 21> H   -0.08245023    1.26213650    4.35173194
| 22> H   -0.72610142    0.68773133    2.71716580
| 23> C    0.69094164   -0.56699924    3.63565898
| 24> H    1.33624660   -0.73882488    4.48578684
| 25> H    0.68582965   -1.30219936    2.84334970
| 26> *
| 27>
| 28> $new_job
| 29> ! ri-mp2 aug-cc-pvtz aug-cc-pvtz/c tightscf
| 30> %pal nprocs 16 end
| 31> %maxcore 3800
| 32> %base "TZ_S66by10_64_0.9_dimer"
| 33>
| 34> *xyz 0 1
| 35> C    1.62971482    0.50301252    0.27011189
| 36> H    1.64157338    1.45923792   -0.24808286
| 37> H    2.31531919   -0.18355470   -0.21758635
| 38> H    1.96974564    0.64936024    1.29398105
| 39> C    0.26182776   -0.13286122    0.31456221
| 40> O    0.09925265   -1.30961602    0.61183995
| 41> N   -0.77350225    0.70251214    0.02207590
| 42> H   -0.56901138    1.66655677   -0.16581434
| 43> C   -2.15001214    0.26596865    0.09505328
| 44> H   -2.14473761   -0.81940745    0.10091210
| 45> H   -2.64054318    0.61582035    1.00360442
| 46> H   -2.70774393    0.62075110   -0.76826057
| 47> C   -0.07756867    0.51996269    3.56584937
| 48> H   -0.08245023    1.26213650    4.35173194
| 49> H   -0.72610142    0.68773133    2.71716580
| 50> C    0.69094164   -0.56699924    3.63565898
| 51> H    1.33624660   -0.73882488    4.48578684
| 52> H    0.68582965   -1.30219936    2.84334970
| 53> *
| 54>
| 55> $new_job
| 56> ! ri-mp2 aug-cc-pvqz aug-cc-pvqz/c tightscf
| 57> %pal nprocs 16 end
| 58> %maxcore 3800
| 59> %base "QZ_S66by10_64_0.9_dimer"
| 60>
| 61> *xyz 0 1
| 62> C    1.62971482    0.50301252    0.27011189
| 63> H    1.64157338    1.45923792   -0.24808286
| 64> H    2.31531919   -0.18355470   -0.21758635
| 65> H    1.96974564    0.64936024    1.29398105
| 66> C    0.26182776   -0.13286122    0.31456221
| 67> O    0.09925265   -1.30961602    0.61183995
| 68> N   -0.77350225    0.70251214    0.02207590
| 69> H   -0.56901138    1.66655677   -0.16581434
| 70> C   -2.15001214    0.26596865    0.09505328
| 71> H   -2.14473761   -0.81940745    0.10091210
| 72> H   -2.64054318    0.61582035    1.00360442
| 73> H   -2.70774393    0.62075110   -0.76826057
| 74> C   -0.07756867    0.51996269    3.56584937
| 75> H   -0.08245023    1.26213650    4.35173194
| 76> H   -0.72610142    0.68773133    2.71716580
| 77> C    0.69094164   -0.56699924    3.63565898
| 78> H    1.33624660   -0.73882488    4.48578684
| 79> H    0.68582965   -1.30219936    2.84334970
| 80> *
| 81>
| 82>
| 83>
| 84>
| 85>                          ****END OF INPUT****
 Total Charge           Charge          ....    0
 Multiplicity           Mult            ....    1
 Number of Electrons    NEL             ....   56
MP2 TOTAL ENERGY:     -326.181339766 Eh
FINAL SINGLE POINT ENERGY      -326.181339765857
MP2 TOTAL ENERGY:     -326.480485143 Eh
FINAL SINGLE POINT ENERGY      -326.480485142983

CARTESIAN COORDINATES (ANGSTROEM)
---------------------------------
  C      1.629715    0.503013    0.270112
  H      1.641573    1.459238   -0.248083
  H      2.315319   -0.183555   -0.217586
  H      1.969746    0.649360    1.293981
  C      0.261828   -0.132861    0.314562
  O      0.099253   -1.309616    0.611840
  N     -0.773502    0.702512    0.022076
  H     -0.569011    1.666557   -0.165814
  C     -2.150012    0.265969    0.095053
  H     -2.144738   -0.819407    0.100912
  H     -2.640543    0.615820    1.003604
  H     -2.707744    0.620751   -0.768261
  C     -0.077569    0.519963    3.565849
  H     -0.082450    1.262136    4.351732
  H     -0.726101    0.687731    2.717166
  C      0.690942   -0.566999    3.635659
  H      1.336247   -0.738825    4.485787
  H      0.685830   -1.302199    2.843350

 Multiplicity           Mult            ....    1
 Number of Electrons    NEL             ....   56
 Basis Dimension        Dim             .... 1066

ORBITAL ENERGIES
----------------

  NO   OCC          E(Eh)            E(eV)
   0   2.0000     -20.510740      -558.1256
   1   2.0000     -15.585863      -424.1129
   2   2.0000     -11.348177      -308.7996
   3   2.0000     -11.257280      -306.3262
   4   2.0000     -11.230855      -305.6071
   5   2.0000     -11.218619      -305.2741
   6   2.0000     -11.215473      -305.1885
   7   2.0000      -1.376907       -37.4675
   8   2.0000      -1.232049       -33.5258
   9   2.0000      -1.024982       -27.8912
  10   2.0000      -1.018223       -27.7073
  11   2.0000      -0.933034       -25.3891
  12   2.0000      -0.792375       -21.5616
  13   2.0000      -0.781997       -21.2792
  14   2.0000      -0.691417       -18.8144
  15   2.0000      -0.655329       -17.8324
  16   2.0000      -0.651102       -17.7174
  17   2.0000      -0.621603       -16.9147
  18   2.0000      -0.587702       -15.9922
  19   2.0000      -0.583668       -15.8824
  20   2.0000      -0.574096       -15.6219
  21   2.0000      -0.555352       -15.1119
  22   2.0000      -0.546243       -14.8640
  23   2.0000      -0.507359       -13.8059
  24   2.0000      -0.496690       -13.5156
  25   2.0000      -0.423637       -11.5277
  26   2.0000      -0.394157       -10.7256
  27   2.0000      -0.367417        -9.9979
  28   0.0000       0.019729         0.5369
  29   0.0000       0.030716         0.8358
  30   0.0000       0.032075         0.8728
  31   0.0000       0.035428         0.9640
  32   0.0000       0.044612         1.2139

MULLIKEN ATOMIC CHARGES
-----------------------
   0 C :   -0.825027
   1 H :    0.241206
   2 H :    0.296807
   3 H :    0.339522
   4 C :    1.152202
   5 O :   -0.962491
   6 N :   -0.524203
   7 H :    0.238209
   8 C :   -0.819088
   9 H :    0.292699
  10 H :    0.268136
  11 H :    0.349785
  12 C :   -1.000065
  13 H :    0.386019
  14 H :    0.520540
  15 C :   -0.912424
  16 H :    0.427305
  17 H :    0.530869
Sum of atomic charges:   -0.0000000

LOEWDIN ATOMIC CHARGES
----------------------
   0 C :    0.893620
   1 H :   -0.304545
   2 H :   -0.298303
   3 H :   -0.314627
   4 C :   -0.858635
   5 O :    0.740949
   6 N :    0.827317
   7 H :   -0.499632
   8 C :    0.785785
   9 H :   -0.351039
  10 H :   -0.284690
  11 H :   -0.285927
  12 C :    0.757399
  13 H :   -0.359209
  14 H :   -0.409691
  15 C :    0.757492
  16 H :   -0.356292
  17 H :   -0.439972

  Mayer bond orders larger than 0.100000
B(  0-C ,  1-H ) :   1.0085 B(  0-C ,  2-H ) :   0.9686 B(  0-C ,  3-H ) :   0.8679
B(  0-C ,  4-C ) :   0.8216 B(  4-C ,  5-O ) :   1.0363 B(  4-C ,  6-N ) :   1.1161
B(  5-O ,  6-N ) :   0.1656 B(  6-N ,  7-H ) :   0.9795 B(  6-N ,  8-C ) :   0.8200
B(  8-C ,  9-H ) :   0.9481 B(  8-C , 10-H ) :   0.9464 B(  8-C , 11-H ) :   0.9117
B( 12-C , 13-H ) :   0.8995 B( 12-C , 14-H ) :   0.6973 B( 12-C , 15-C ) :   1.9159
B( 15-C , 16-H ) :   0.8749 B( 15-C , 17-H ) :   0.6592

MP2 TOTAL ENERGY:     -326.574369702 Eh
FINAL SINGLE POINT ENERGY      -326.574369701546

DIPOLE MOMENT
-------------
                                X             Y             Z
Electronic contribution:      0.18742      -2.20663      -2.60291
Nuclear contribution   :     -0.26320       3.66891       2.15817
                        -----------------------------------------
Total Dipole Moment    :     -0.07577       1.46228      -0.44475
                        -----------------------------------------
Magnitude (a.u.)       :      1.53029
Magnitude (Debye)      :      3.88969

Rotational constants in cm-1:     0.096744     0.054699     0.045064
Rotational constants in MHz :  2900.302048  1639.843616  1350.977677

                             ****ORCA TERMINATED NORMALLY****
TOTAL RUN TIME: 0 days 2 hours 42 minutes 29 seconds 872 msec
