                         Program Version 5.0.4 -  RELEASE  -
|  1> ! ri-mp2 aug-cc-pvdz aug-cc-pvdz/c tightscf
|  2> %pal nprocs 16 end
|  3> %maxcore 3800
|  4> %base "DZ_S66by10_24_1.5_dimer"
|  5>
|  6> *xyz 0 1
|  7> C    0.71264532    1.12099570    0.06054078
|  8> H    1.35784165    1.98639917    0.12773717
|  9> C    1.25823573   -0.15925190    0.12423352
| 10> H    2.32495428   -0.28709988    0.24674303
| 11> C    0.42688496   -1.27452666    0.04265043
| 12> H    0.85044465   -2.26843268    0.09474995
| 13> C   -0.94957784   -1.11007406   -0.10031360
| 14> H   -1.59445570   -1.97627370   -0.16371348
| 15> C   -1.49552564    0.17105056   -0.16154602
| 16> H   -2.56378279    0.29922115   -0.27370311
| 17> C   -0.66382760    1.28664289   -0.08340143
| 18> H   -1.08690070    2.28100020   -0.13288613
| 19> C    2.57397328    1.10425699    5.38730815
| 20> H    3.21881840    1.97044073    5.45105887
| 21> C    3.11992641   -0.17689411    5.44882789
| 22> H    4.18813329   -0.30504116    5.56157211
| 23> C    2.28827693   -1.29249421    5.37017746
| 24> H    2.71135863   -2.28684664    5.41983112
| 25> C    0.91187536   -1.12685918    5.22546071
| 26> H    0.26677277   -1.99226942    5.15782808
| 27> C    0.36631549    0.15337357    5.16149488
| 28> H   -0.70031254    0.28120278    5.03831612
| 29> C    1.19759244    1.26865433    5.24356583
| 30> H    0.77406756    2.26255936    5.19119690
| 31> *
| 32>
| 33> $new_job
| 34> ! ri-mp2 aug-cc-pvtz aug-cc-pvtz/c tightscf
| 35> %pal nprocs 16 end
| 36> %maxcore 3800
| 37> %base "TZ_S66by10_24_1.5_dimer"
| 38>
| 39> *xyz 0 1
| 40> C    0.71264532    1.12099570    0.06054078
| 41> H    1.35784165    1.98639917    0.12773717
| 42> C    1.25823573   -0.15925190    0.12423352
| 43> H    2.32495428   -0.28709988    0.24674303
| 44> C    0.42688496   -1.27452666    0.04265043
| 45> H    0.85044465   -2.26843268    0.09474995
| 46> C   -0.94957784   -1.11007406   -0.10031360
| 47> H   -1.59445570   -1.97627370   -0.16371348
| 48> C   -1.49552564    0.17105056   -0.16154602
| 49> H   -2.56378279    0.29922115   -0.27370311
| 50> C   -0.66382760    1.28664289   -0.08340143
| 51> H   -1.08690070    2.28100020   -0.13288613
| 52> C    2.57397328    1.10425699    5.38730815
| 53> H    3.21881840    1.97044073    5.45105887
| 54> C    3.11992641   -0.17689411    5.44882789
| 55> H    4.18813329   -0.30504116    5.56157211
| 56> C    2.28827693   -1.29249421    5.37017746
| 57> H    2.71135863   -2.28684664    5.41983112
| 58> C    0.91187536   -1.12685918    5.22546071
| 59> H    0.26677277   -1.99226942    5.15782808
| 60> C    0.36631549    0.15337357    5.16149488
| 61> H   -0.70031254    0.28120278    5.03831612
| 62> C    1.19759244    1.26865433    5.24356583
| 63> H    0.77406756    2.26255936    5.19119690
| 64> *
| 65>
| 66> $new_job
| 67> ! ri-mp2 aug-cc-pvqz aug-cc-pvqz/c tightscf
| 68> %pal nprocs 16 end
| 69> %maxcore 3800
| 70> %base "QZ_S66by10_24_1.5_dimer"
| 71>
| 72> *xyz 0 1
| 73> C    0.71264532    1.12099570    0.06054078
| 74> H    1.35784165    1.98639917    0.12773717
| 75> C    1.25823573   -0.15925190    0.12423352
| 76> H    2.32495428   -0.28709988    0.24674303
| 77> C    0.42688496   -1.27452666    0.04265043
| 78> H    0.85044465   -2.26843268    0.09474995
| 79> C   -0.94957784   -1.11007406   -0.10031360
| 80> H   -1.59445570   -1.97627370   -0.16371348
| 81> C   -1.49552564    0.17105056   -0.16154602
| 82> H   -2.56378279    0.29922115   -0.27370311
| 83> C   -0.66382760    1.28664289   -0.08340143
| 84> H   -1.08690070    2.28100020   -0.13288613
| 85> C    2.57397328    1.10425699    5.38730815
| 86> H    3.21881840    1.97044073    5.45105887
| 87> C    3.11992641   -0.17689411    5.44882789
| 88> H    4.18813329   -0.30504116    5.56157211
| 89> C    2.28827693   -1.29249421    5.37017746
| 90> H    2.71135863   -2.28684664    5.41983112
| 91> C    0.91187536   -1.12685918    5.22546071
| 92> H    0.26677277   -1.99226942    5.15782808
| 93> C    0.36631549    0.15337357    5.16149488
| 94> H   -0.70031254    0.28120278    5.03831612
| 95> C    1.19759244    1.26865433    5.24356583
| 96> H    0.77406756    2.26255936    5.19119690
| 97> *
| 98>
| 99>
|100>
|101>
|102>                          ****END OF INPUT****
 Total Charge           Charge          ....    0
 Multiplicity           Mult            ....    1
 Number of Electrons    NEL             ....   84
MP2 TOTAL ENERGY:     -463.078930729 Eh
FINAL SINGLE POINT ENERGY      -463.078930729163
MP2 TOTAL ENERGY:     -463.490718788 Eh
FINAL SINGLE POINT ENERGY      -463.490718787657

CARTESIAN COORDINATES (ANGSTROEM)
---------------------------------
  C      0.712645    1.120996    0.060541
  H      1.357842    1.986399    0.127737
  C      1.258236   -0.159252    0.124234
  H      2.324954   -0.287100    0.246743
  C      0.426885   -1.274527    0.042650
  H      0.850445   -2.268433    0.094750
  C     -0.949578   -1.110074   -0.100314
  H     -1.594456   -1.976274   -0.163713
  C     -1.495526    0.171051   -0.161546
  H     -2.563783    0.299221   -0.273703
  C     -0.663828    1.286643   -0.083401
  H     -1.086901    2.281000   -0.132886
  C      2.573973    1.104257    5.387308
  H      3.218818    1.970441    5.451059
  C      3.119926   -0.176894    5.448828
  H      4.188133   -0.305041    5.561572
  C      2.288277   -1.292494    5.370177
  H      2.711359   -2.286847    5.419831
  C      0.911875   -1.126859    5.225461
  H      0.266773   -1.992269    5.157828
  C      0.366315    0.153374    5.161495
  H     -0.700313    0.281203    5.038316
  C      1.197592    1.268654    5.243566
  H      0.774068    2.262559    5.191197

 Multiplicity           Mult            ....    1
 Number of Electrons    NEL             ....   84
 Basis Dimension        Dim             .... 1512

ORBITAL ENERGIES
----------------

  NO   OCC          E(Eh)            E(eV)
   0   2.0000     -11.232696      -305.6572
   1   2.0000     -11.232696      -305.6572
   2   2.0000     -11.232048      -305.6396
   3   2.0000     -11.232046      -305.6395
   4   2.0000     -11.231821      -305.6334
   5   2.0000     -11.231817      -305.6333
   6   2.0000     -11.230799      -305.6056
   7   2.0000     -11.230798      -305.6056
   8   2.0000     -11.230710      -305.6031
   9   2.0000     -11.230706      -305.6030
  10   2.0000     -11.229925      -305.5818
  11   2.0000     -11.229919      -305.5816
  12   2.0000      -1.147519       -31.2256
  13   2.0000      -1.147460       -31.2240
  14   2.0000      -1.011964       -27.5369
  15   2.0000      -1.011940       -27.5363
  16   2.0000      -1.011893       -27.5350
  17   2.0000      -1.011848       -27.5338
  18   2.0000      -0.821472       -22.3534
  19   2.0000      -0.821446       -22.3527
  20   2.0000      -0.821367       -22.3505
  21   2.0000      -0.821362       -22.3504
  22   2.0000      -0.707199       -19.2439
  23   2.0000      -0.707154       -19.2426
  24   2.0000      -0.641540       -17.4572
  25   2.0000      -0.641516       -17.4565
  26   2.0000      -0.616653       -16.7800
  27   2.0000      -0.616646       -16.7798
  28   2.0000      -0.585614       -15.9354
  29   2.0000      -0.585610       -15.9353
  30   2.0000      -0.585537       -15.9333
  31   2.0000      -0.585472       -15.9315
  32   2.0000      -0.500888       -13.6299
  33   2.0000      -0.498830       -13.5738
  34   2.0000      -0.492492       -13.4014
  35   2.0000      -0.492482       -13.4011
  36   2.0000      -0.492353       -13.3976
  37   2.0000      -0.492330       -13.3970
  38   2.0000      -0.335246        -9.1225
  39   2.0000      -0.334550        -9.1036
  40   2.0000      -0.333751        -9.0818
  41   2.0000      -0.333306        -9.0697
  42   0.0000       0.024420         0.6645
  43   0.0000       0.027139         0.7385
  44   0.0000       0.027304         0.7430
  45   0.0000       0.036042         0.9808
  46   0.0000       0.036927         1.0048

MULLIKEN ATOMIC CHARGES
-----------------------
   0 C :   -0.332297
   1 H :    0.336714
   2 C :   -0.363155
   3 H :    0.308747
   4 C :   -0.328461
   5 H :    0.337987
   6 C :   -0.337104
   7 H :    0.349639
   8 C :   -0.329081
   9 H :    0.344365
  10 C :   -0.332706
  11 H :    0.345340
  12 C :   -0.337148
  13 H :    0.349732
  14 C :   -0.329069
  15 H :    0.344343
  16 C :   -0.332727
  17 H :    0.345320
  18 C :   -0.332260
  19 H :    0.336741
  20 C :   -0.363172
  21 H :    0.308738
  22 C :   -0.328418
  23 H :    0.337936
Sum of atomic charges:    0.0000000

LOEWDIN ATOMIC CHARGES
----------------------
   0 C :    0.327692
   1 H :   -0.327130
   2 C :    0.328245
   3 H :   -0.326220
   4 C :    0.327539
   5 H :   -0.327308
   6 C :    0.327006
   7 H :   -0.327871
   8 C :    0.326625
   9 H :   -0.327954
  10 C :    0.327213
  11 H :   -0.327837
  12 C :    0.327030
  13 H :   -0.327885
  14 C :    0.326648
  15 H :   -0.327948
  16 C :    0.327218
  17 H :   -0.327833
  18 C :    0.327702
  19 H :   -0.327155
  20 C :    0.328241
  21 H :   -0.326235
  22 C :    0.327531
  23 H :   -0.327311

  Mayer bond orders larger than 0.100000
B(  0-C ,  1-H ) :   0.9795 B(  0-C ,  2-C ) :   1.2338 B(  0-C ,  6-C ) :   0.1289
B(  0-C , 10-C ) :   1.2685 B(  2-C ,  3-H ) :   1.0071 B(  2-C ,  4-C ) :   1.2482
B(  4-C ,  5-H ) :   0.9791 B(  4-C ,  6-C ) :   1.2687 B(  4-C , 10-C ) :   0.1396
B(  6-C ,  7-H ) :   0.9740 B(  6-C ,  8-C ) :   1.2270 B(  8-C ,  9-H ) :   0.9850
B(  8-C , 10-C ) :   1.2286 B( 10-C , 11-H ) :   0.9804 B( 12-C , 13-H ) :   0.9739
B( 12-C , 14-C ) :   1.2270 B( 12-C , 18-C ) :   0.1289 B( 12-C , 22-C ) :   1.2687
B( 14-C , 15-H ) :   0.9851 B( 14-C , 16-C ) :   1.2285 B( 16-C , 17-H ) :   0.9804
B( 16-C , 18-C ) :   1.2685 B( 16-C , 22-C ) :   0.1396 B( 18-C , 19-H ) :   0.9794
B( 18-C , 20-C ) :   1.2337 B( 20-C , 21-H ) :   1.0072 B( 20-C , 22-C ) :   1.2482
B( 22-C , 23-H ) :   0.9792

MP2 TOTAL ENERGY:     -463.620952309 Eh
FINAL SINGLE POINT ENERGY      -463.620952308767

DIPOLE MOMENT
-------------
                                X             Y             Z
Electronic contribution:     -0.00010       0.00001       0.00011
Nuclear contribution   :      0.00013      -0.00001      -0.00023
                        -----------------------------------------
Total Dipole Moment    :      0.00002      -0.00000      -0.00012
                        -----------------------------------------
Magnitude (a.u.)       :      0.00012
Magnitude (Debye)      :      0.00031

Rotational constants in cm-1:     0.053048     0.011871     0.011577
Rotational constants in MHz :  1590.341896   355.877892   347.061725

                             ****ORCA TERMINATED NORMALLY****
TOTAL RUN TIME: 0 days 1 hours 6 minutes 17 seconds 391 msec
