                         Program Version 5.0.4 -  RELEASE  -
|  1> ! ri-mp2 aug-cc-pvdz aug-cc-pvdz/c tightscf
|  2> %pal nprocs 16 end
|  3> %maxcore 3800
|  4> %base "DZ_S66by10_22_0.95_dimer"
|  5> %scf STABPerform true end
|  6>
|  7> *xyz 0 1
|  8> C   -1.11362611    1.32702009    0.27516705
|  9> O   -0.46708264    2.34938778    0.46153746
| 10> O   -0.57808939    0.13692049    0.04961747
| 11> H    0.41332036    0.20325661    0.05548711
| 12> C   -2.61142469    1.28618957    0.27736131
| 13> H   -3.00664872    2.27688545    0.46578983
| 14> H   -2.96425623    0.91525868   -0.68200123
| 15> H   -2.95311421    0.59179821    1.04124041
| 16> N    4.11181054    1.08601348    0.18317154
| 17> H    4.50501565    0.17062325    0.01145212
| 18> C    5.03333844    2.13412910    0.36462466
| 19> O    6.23048483    1.91583329    0.31174469
| 20> C    4.39427237    3.41359148    0.60523181
| 21> H    5.01380714    4.28051636    0.75670908
| 22> C    3.04718817    3.49358164    0.63461304
| 23> H    2.52434798    4.42202864    0.80991125
| 24> N    2.24345742    2.40289965    0.44420701
| 25> H    1.21940559    2.47284734    0.46799727
| 26> C    2.74338990    1.15267687    0.21003479
| 27> O    2.03135746    0.16317198    0.03656461
| 28> *
| 29>
| 30> $new_job
| 31> ! ri-mp2 aug-cc-pvtz aug-cc-pvtz/c tightscf
| 32> %pal nprocs 16 end
| 33> %maxcore 3800
| 34> %base "TZ_S66by10_22_0.95_dimer"
| 35>
| 36> *xyz 0 1
| 37> C   -1.11362611    1.32702009    0.27516705
| 38> O   -0.46708264    2.34938778    0.46153746
| 39> O   -0.57808939    0.13692049    0.04961747
| 40> H    0.41332036    0.20325661    0.05548711
| 41> C   -2.61142469    1.28618957    0.27736131
| 42> H   -3.00664872    2.27688545    0.46578983
| 43> H   -2.96425623    0.91525868   -0.68200123
| 44> H   -2.95311421    0.59179821    1.04124041
| 45> N    4.11181054    1.08601348    0.18317154
| 46> H    4.50501565    0.17062325    0.01145212
| 47> C    5.03333844    2.13412910    0.36462466
| 48> O    6.23048483    1.91583329    0.31174469
| 49> C    4.39427237    3.41359148    0.60523181
| 50> H    5.01380714    4.28051636    0.75670908
| 51> C    3.04718817    3.49358164    0.63461304
| 52> H    2.52434798    4.42202864    0.80991125
| 53> N    2.24345742    2.40289965    0.44420701
| 54> H    1.21940559    2.47284734    0.46799727
| 55> C    2.74338990    1.15267687    0.21003479
| 56> O    2.03135746    0.16317198    0.03656461
| 57> *
| 58>
| 59> $new_job
| 60> ! ri-mp2 aug-cc-pvqz aug-cc-pvqz/c tightscf
| 61> %pal nprocs 16 end
| 62> %maxcore 3800
| 63> %base "QZ_S66by10_22_0.95_dimer"
| 64>
| 65> *xyz 0 1
| 66> C   -1.11362611    1.32702009    0.27516705
| 67> O   -0.46708264    2.34938778    0.46153746
| 68> O   -0.57808939    0.13692049    0.04961747
| 69> H    0.41332036    0.20325661    0.05548711
| 70> C   -2.61142469    1.28618957    0.27736131
| 71> H   -3.00664872    2.27688545    0.46578983
| 72> H   -2.96425623    0.91525868   -0.68200123
| 73> H   -2.95311421    0.59179821    1.04124041
| 74> N    4.11181054    1.08601348    0.18317154
| 75> H    4.50501565    0.17062325    0.01145212
| 76> C    5.03333844    2.13412910    0.36462466
| 77> O    6.23048483    1.91583329    0.31174469
| 78> C    4.39427237    3.41359148    0.60523181
| 79> H    5.01380714    4.28051636    0.75670908
| 80> C    3.04718817    3.49358164    0.63461304
| 81> H    2.52434798    4.42202864    0.80991125
| 82> N    2.24345742    2.40289965    0.44420701
| 83> H    1.21940559    2.47284734    0.46799727
| 84> C    2.74338990    1.15267687    0.21003479
| 85> O    2.03135746    0.16317198    0.03656461
| 86> *
| 87>
| 88>
| 89>
| 90>
| 91>                          ****END OF INPUT****
 Total Charge           Charge          ....    0
 Multiplicity           Mult            ....    1
 Number of Electrons    NEL             ....   90
MP2 TOTAL ENERGY:     -642.330345045 Eh
FINAL SINGLE POINT ENERGY      -642.330345044811
MP2 TOTAL ENERGY:     -642.877072485 Eh
FINAL SINGLE POINT ENERGY      -642.877072485371

CARTESIAN COORDINATES (ANGSTROEM)
---------------------------------
  C     -1.113626    1.327020    0.275167
  O     -0.467083    2.349388    0.461537
  O     -0.578089    0.136920    0.049617
  H      0.413320    0.203257    0.055487
  C     -2.611425    1.286190    0.277361
  H     -3.006649    2.276885    0.465790
  H     -2.964256    0.915259   -0.682001
  H     -2.953114    0.591798    1.041240
  N      4.111811    1.086013    0.183172
  H      4.505016    0.170623    0.011452
  C      5.033338    2.134129    0.364625
  O      6.230485    1.915833    0.311745
  C      4.394272    3.413591    0.605232
  H      5.013807    4.280516    0.756709
  C      3.047188    3.493582    0.634613
  H      2.524348    4.422029    0.809911
  N      2.243457    2.402900    0.444207
  H      1.219406    2.472847    0.467997
  C      2.743390    1.152677    0.210035
  O      2.031357    0.163172    0.036565

 Multiplicity           Mult            ....    1
 Number of Electrons    NEL             ....   90
 Basis Dimension        Dim             .... 1328

ORBITAL ENERGIES
----------------

  NO   OCC          E(Eh)            E(eV)
   0   2.0000     -20.596309      -560.4541
   1   2.0000     -20.559010      -559.4391
   2   2.0000     -20.557426      -559.3960
   3   2.0000     -20.538772      -558.8884
   4   2.0000     -15.629878      -425.3106
   5   2.0000     -15.625812      -425.2000
   6   2.0000     -11.425763      -310.9108
   7   2.0000     -11.399918      -310.2075
   8   2.0000     -11.379518      -309.6524
   9   2.0000     -11.333272      -308.3940
  10   2.0000     -11.250131      -306.1316
  11   2.0000     -11.246223      -306.0253
  12   2.0000      -1.468386       -39.9568
  13   2.0000      -1.442714       -39.2582
  14   2.0000      -1.399082       -38.0710
  15   2.0000      -1.366676       -37.1891
  16   2.0000      -1.312084       -35.7036
  17   2.0000      -1.246117       -33.9086
  18   2.0000      -1.084997       -29.5243
  19   2.0000      -1.033285       -28.1171
  20   2.0000      -0.931967       -25.3601
  21   2.0000      -0.904772       -24.6201
  22   2.0000      -0.830023       -22.5861
  23   2.0000      -0.809975       -22.0405
  24   2.0000      -0.767331       -20.8801
  25   2.0000      -0.733647       -19.9635
  26   2.0000      -0.703874       -19.1534
  27   2.0000      -0.694529       -18.8991
  28   2.0000      -0.677106       -18.4250
  29   2.0000      -0.672883       -18.3101
  30   2.0000      -0.655060       -17.8251
  31   2.0000      -0.653729       -17.7889
  32   2.0000      -0.611260       -16.6332
  33   2.0000      -0.603339       -16.4177
  34   2.0000      -0.584801       -15.9132
  35   2.0000      -0.573045       -15.5933
  36   2.0000      -0.570840       -15.5334
  37   2.0000      -0.561843       -15.2885
  38   2.0000      -0.524876       -14.2826
  39   2.0000      -0.497246       -13.5308
  40   2.0000      -0.491122       -13.3641
  41   2.0000      -0.467265       -12.7149
  42   2.0000      -0.450907       -12.2698
  43   2.0000      -0.445965       -12.1353
  44   2.0000      -0.365526        -9.9465
  45   0.0000       0.019116         0.5202
  46   0.0000       0.025956         0.7063
  47   0.0000       0.033287         0.9058
  48   0.0000       0.038275         1.0415
  49   0.0000       0.039434         1.0731

MULLIKEN ATOMIC CHARGES
-----------------------
   0 C :    0.954505
   1 O :   -0.720379
   2 O :   -0.691366
   3 H :    0.266673
   4 C :   -0.720223
   5 H :    0.338501
   6 H :    0.293428
   7 H :    0.292455
   8 N :   -0.660378
   9 H :    0.131043
  10 C :    1.112251
  11 O :   -0.822832
  12 C :   -0.372739
  13 H :    0.288898
  14 C :   -0.326886
  15 H :    0.325358
  16 N :   -0.530716
  17 H :    0.160823
  18 C :    1.402399
  19 O :   -0.720816
Sum of atomic charges:    0.0000000

LOEWDIN ATOMIC CHARGES
----------------------
   0 C :   -0.928011
   1 O :    0.860813
   2 O :    1.268992
   3 H :   -1.196711
   4 C :    0.881005
   5 H :   -0.324002
   6 H :   -0.301885
   7 H :   -0.301910
   8 N :    0.794041
   9 H :   -0.514030
  10 C :   -0.859054
  11 O :    0.682015
  12 C :    0.338025
  13 H :   -0.354777
  14 C :    0.251993
  15 H :   -0.291692
  16 N :    0.817377
  17 H :   -0.855870
  18 C :   -0.858432
  19 O :    0.892115

  Mayer bond orders larger than 0.100000
B(  0-C ,  1-O ) :   1.5237 B(  0-C ,  2-O ) :   0.9570 B(  0-C ,  4-C ) :   0.6639
B(  2-O ,  3-H ) :   0.8975 B(  2-O , 19-O ) :  -0.1044 B(  4-C ,  5-H ) :   0.9632
B(  4-C ,  6-H ) :   0.9403 B(  4-C ,  7-H ) :   0.9414 B(  8-N ,  9-H ) :   1.1861
B(  8-N , 10-C ) :   1.0329 B(  8-N , 11-O ) :   0.1586 B(  8-N , 18-C ) :   1.0126
B(  9-H , 18-C ) :  -0.1035 B( 10-C , 11-O ) :   1.0380 B( 10-C , 12-C ) :   1.1535
B( 11-O , 12-C ) :   0.2702 B( 12-C , 13-H ) :   1.0064 B( 12-C , 14-C ) :   1.4582
B( 13-H , 14-C ) :  -0.1159 B( 14-C , 15-H ) :   0.9964 B( 14-C , 16-N ) :   1.0183
B( 16-N , 17-H ) :   0.9922 B( 16-N , 18-C ) :   1.1707 B( 16-N , 19-O ) :   0.2076
B( 18-C , 19-O ) :   1.2340

MP2 TOTAL ENERGY:     -643.056681022 Eh
FINAL SINGLE POINT ENERGY      -643.056681021955

DIPOLE MOMENT
-------------
                                X             Y             Z
Electronic contribution:      9.08462      -0.85345      -0.22878
Nuclear contribution   :    -10.68476       1.65711       0.38895
                        -----------------------------------------
Total Dipole Moment    :     -1.60014       0.80366       0.16017
                        -----------------------------------------
Magnitude (a.u.)       :      1.79777
Magnitude (Debye)      :      4.56957

Rotational constants in cm-1:     0.093055     0.013508     0.011822
Rotational constants in MHz :  2789.729726   404.969601   354.403652

                             ****ORCA TERMINATED NORMALLY****
TOTAL RUN TIME: 0 days 5 hours 33 minutes 17 seconds 433 msec
