                         Program Version 5.0.4 -  RELEASE  -
|  1> ! ri-mp2 aug-cc-pvdz aug-cc-pvdz/c tightscf
|  2> %pal nprocs 16 end
|  3> %maxcore 3800
|  4> %base "DZ_S66by10_1_0.95_dimer"
|  5> %scf STABPerform true end
|  6>
|  7> *xyz 0 1
|  8> O   -0.70219605   -0.05606026    0.00994226
|  9> H   -1.02219322    0.84677578   -0.01148871
| 10> H    0.25752106    0.04212150    0.00521900
| 11> O    2.16841280    0.02712839    0.00074334
| 12> H    2.54503441   -0.41125168    0.76686773
| 13> H    2.54067711   -0.44908459   -0.74465916
| 14> *
| 15>
| 16> $new_job
| 17> ! ri-mp2 aug-cc-pvtz aug-cc-pvtz/c tightscf
| 18> %pal nprocs 16 end
| 19> %maxcore 3800
| 20> %base "TZ_S66by10_1_0.95_dimer"
| 21>
| 22> *xyz 0 1
| 23> O   -0.70219605   -0.05606026    0.00994226
| 24> H   -1.02219322    0.84677578   -0.01148871
| 25> H    0.25752106    0.04212150    0.00521900
| 26> O    2.16841280    0.02712839    0.00074334
| 27> H    2.54503441   -0.41125168    0.76686773
| 28> H    2.54067711   -0.44908459   -0.74465916
| 29> *
| 30>
| 31> $new_job
| 32> ! ri-mp2 aug-cc-pvqz aug-cc-pvqz/c tightscf
| 33> %pal nprocs 16 end
| 34> %maxcore 3800
| 35> %base "QZ_S66by10_1_0.95_dimer"
| 36>
| 37> *xyz 0 1
| 38> O   -0.70219605   -0.05606026    0.00994226
| 39> H   -1.02219322    0.84677578   -0.01148871
| 40> H    0.25752106    0.04212150    0.00521900
| 41> O    2.16841280    0.02712839    0.00074334
| 42> H    2.54503441   -0.41125168    0.76686773
| 43> H    2.54067711   -0.44908459   -0.74465916
| 44> *
| 45>
| 46>
| 47>
| 48>
| 49>                          ****END OF INPUT****
 Total Charge           Charge          ....    0
 Multiplicity           Mult            ....    1
 Number of Electrons    NEL             ....   20
MP2 TOTAL ENERGY:     -152.529925415 Eh
FINAL SINGLE POINT ENERGY      -152.529925414781
MP2 TOTAL ENERGY:     -152.666103259 Eh
FINAL SINGLE POINT ENERGY      -152.666103259220

CARTESIAN COORDINATES (ANGSTROEM)
---------------------------------
  O     -0.702196   -0.056060    0.009942
  H     -1.022193    0.846776   -0.011489
  H      0.257521    0.042121    0.005219
  O      2.168413    0.027128    0.000743
  H      2.545034   -0.411252    0.766868
  H      2.540677   -0.449085   -0.744659

 Multiplicity           Mult            ....    1
 Number of Electrons    NEL             ....   20
 Basis Dimension        Dim             ....  344

ORBITAL ENERGIES
----------------

  NO   OCC          E(Eh)            E(eV)
   0   2.0000     -20.591114      -560.3127
   1   2.0000     -20.531333      -558.6860
   2   2.0000      -1.381049       -37.5802
   3   2.0000      -1.320218       -35.9250
   4   2.0000      -0.742092       -20.1933
   5   2.0000      -0.692800       -18.8520
   6   2.0000      -0.616764       -16.7830
   7   2.0000      -0.558734       -15.2039
   8   2.0000      -0.531964       -14.4755
   9   2.0000      -0.479625       -13.0513
  10   0.0000       0.019920         0.5421
  11   0.0000       0.040905         1.1131
  12   0.0000       0.042940         1.1684
  13   0.0000       0.068709         1.8697
  14   0.0000       0.101487         2.7616

MULLIKEN ATOMIC CHARGES
-----------------------
   0 O :   -0.603126
   1 H :    0.296854
   2 H :    0.259829
   3 O :   -0.565795
   4 H :    0.306090
   5 H :    0.306149
Sum of atomic charges:    0.0000000

LOEWDIN ATOMIC CHARGES
----------------------
   0 O :    1.601195
   1 H :   -0.798484
   2 H :   -1.016102
   3 O :    1.672062
   4 H :   -0.729347
   5 H :   -0.729324

  Mayer bond orders larger than 0.100000
B(  0-O ,  1-H ) :   0.9546 B(  0-O ,  2-H ) :   1.0035 B(  3-O ,  4-H ) :   0.9434
B(  3-O ,  5-H ) :   0.9433

MP2 TOTAL ENERGY:     -152.711862653 Eh
FINAL SINGLE POINT ENERGY      -152.711862652961

DIPOLE MOMENT
-------------
                                X             Y             Z
Electronic contribution:     -0.00295      -0.03754       0.00092
Nuclear contribution   :      1.15582       0.07194      -0.00452
                        -----------------------------------------
Total Dipole Moment    :      1.15287       0.03439      -0.00360
                        -----------------------------------------
Magnitude (a.u.)       :      1.15339
Magnitude (Debye)      :      2.93168

Rotational constants in cm-1:     7.363657     0.219054     0.219011
Rotational constants in MHz : 220756.873698  6567.070619  6565.775816

                             ****ORCA TERMINATED NORMALLY****
TOTAL RUN TIME: 0 days 0 hours 2 minutes 42 seconds 839 msec
