                         Program Version 5.0.4 -  RELEASE  -
|  1> ! ri-mp2 aug-cc-pvdz aug-cc-pvdz/c tightscf
|  2> %pal nprocs 16 end
|  3> %maxcore 3800
|  4> %base "DZ_S66by10_15_1.05_dimer"
|  5> %scf STABPerform true end
|  6>
|  7> *xyz 0 1
|  8> C   -0.70150294   -0.29062770    2.40688440
|  9> H   -1.18329596    0.39564777    3.09887422
| 10> H    0.34956157   -0.03032157    2.30783303
| 11> H   -0.79405685   -1.29160545    2.82403929
| 12> C   -1.44854625   -0.24487664    1.09181530
| 13> O   -2.66045000   -0.42847909    1.03434577
| 14> N   -0.67005656    0.00591656    0.00977691
| 15> H    0.32667532    0.12256396    0.14159284
| 16> C   -1.22705457    0.08979374   -1.31996754
| 17> H   -2.29202426   -0.10650119   -1.24087756
| 18> H   -1.07780169    1.07994030   -1.74854354
| 19> H   -0.77662849   -0.64799919   -1.98337273
| 20> C    2.16200617   -2.35904589    0.69580462
| 21> H    2.72023098   -3.26904912    0.48989662
| 22> H    1.23331432   -2.36557534    0.13147920
| 23> H    1.90278725   -2.33559919    1.75274562
| 24> C    2.92964212   -1.10463385    0.35956788
| 25> O    2.38445547   -0.00319704    0.30259549
| 26> N    4.25640033   -1.27344762    0.14581991
| 27> H    4.63272163   -2.20069331    0.22257724
| 28> C    5.14363851   -0.16698164   -0.14312862
| 29> H    4.52944613    0.72382813   -0.22295234
| 30> H    5.87105306   -0.02751591    0.65427468
| 31> H    5.66862881   -0.32696337   -1.08227096
| 32> *
| 33>
| 34> $new_job
| 35> ! ri-mp2 aug-cc-pvtz aug-cc-pvtz/c tightscf
| 36> %pal nprocs 16 end
| 37> %maxcore 3800
| 38> %base "TZ_S66by10_15_1.05_dimer"
| 39>
| 40> *xyz 0 1
| 41> C   -0.70150294   -0.29062770    2.40688440
| 42> H   -1.18329596    0.39564777    3.09887422
| 43> H    0.34956157   -0.03032157    2.30783303
| 44> H   -0.79405685   -1.29160545    2.82403929
| 45> C   -1.44854625   -0.24487664    1.09181530
| 46> O   -2.66045000   -0.42847909    1.03434577
| 47> N   -0.67005656    0.00591656    0.00977691
| 48> H    0.32667532    0.12256396    0.14159284
| 49> C   -1.22705457    0.08979374   -1.31996754
| 50> H   -2.29202426   -0.10650119   -1.24087756
| 51> H   -1.07780169    1.07994030   -1.74854354
| 52> H   -0.77662849   -0.64799919   -1.98337273
| 53> C    2.16200617   -2.35904589    0.69580462
| 54> H    2.72023098   -3.26904912    0.48989662
| 55> H    1.23331432   -2.36557534    0.13147920
| 56> H    1.90278725   -2.33559919    1.75274562
| 57> C    2.92964212   -1.10463385    0.35956788
| 58> O    2.38445547   -0.00319704    0.30259549
| 59> N    4.25640033   -1.27344762    0.14581991
| 60> H    4.63272163   -2.20069331    0.22257724
| 61> C    5.14363851   -0.16698164   -0.14312862
| 62> H    4.52944613    0.72382813   -0.22295234
| 63> H    5.87105306   -0.02751591    0.65427468
| 64> H    5.66862881   -0.32696337   -1.08227096
| 65> *
| 66>
| 67> $new_job
| 68> ! ri-mp2 aug-cc-pvqz aug-cc-pvqz/c tightscf
| 69> %pal nprocs 16 end
| 70> %maxcore 3800
| 71> %base "QZ_S66by10_15_1.05_dimer"
| 72>
| 73> *xyz 0 1
| 74> C   -0.70150294   -0.29062770    2.40688440
| 75> H   -1.18329596    0.39564777    3.09887422
| 76> H    0.34956157   -0.03032157    2.30783303
| 77> H   -0.79405685   -1.29160545    2.82403929
| 78> C   -1.44854625   -0.24487664    1.09181530
| 79> O   -2.66045000   -0.42847909    1.03434577
| 80> N   -0.67005656    0.00591656    0.00977691
| 81> H    0.32667532    0.12256396    0.14159284
| 82> C   -1.22705457    0.08979374   -1.31996754
| 83> H   -2.29202426   -0.10650119   -1.24087756
| 84> H   -1.07780169    1.07994030   -1.74854354
| 85> H   -0.77662849   -0.64799919   -1.98337273
| 86> C    2.16200617   -2.35904589    0.69580462
| 87> H    2.72023098   -3.26904912    0.48989662
| 88> H    1.23331432   -2.36557534    0.13147920
| 89> H    1.90278725   -2.33559919    1.75274562
| 90> C    2.92964212   -1.10463385    0.35956788
| 91> O    2.38445547   -0.00319704    0.30259549
| 92> N    4.25640033   -1.27344762    0.14581991
| 93> H    4.63272163   -2.20069331    0.22257724
| 94> C    5.14363851   -0.16698164   -0.14312862
| 95> H    4.52944613    0.72382813   -0.22295234
| 96> H    5.87105306   -0.02751591    0.65427468
| 97> H    5.66862881   -0.32696337   -1.08227096
| 98> *
| 99>
|100>
|101>
|102>
|103>                          ****END OF INPUT****
 Total Charge           Charge          ....    0
 Multiplicity           Mult            ....    1
 Number of Electrons    NEL             ....   80
MP2 TOTAL ENERGY:     -495.708620407 Eh
FINAL SINGLE POINT ENERGY      -495.708620406690
MP2 TOTAL ENERGY:     -496.155264468 Eh
FINAL SINGLE POINT ENERGY      -496.155264468221

CARTESIAN COORDINATES (ANGSTROEM)
---------------------------------
  C     -0.701503   -0.290628    2.406884
  H     -1.183296    0.395648    3.098874
  H      0.349562   -0.030322    2.307833
  H     -0.794057   -1.291605    2.824039
  C     -1.448546   -0.244877    1.091815
  O     -2.660450   -0.428479    1.034346
  N     -0.670057    0.005917    0.009777
  H      0.326675    0.122564    0.141593
  C     -1.227055    0.089794   -1.319968
  H     -2.292024   -0.106501   -1.240878
  H     -1.077802    1.079940   -1.748544
  H     -0.776628   -0.647999   -1.983373
  C      2.162006   -2.359046    0.695805
  H      2.720231   -3.269049    0.489897
  H      1.233314   -2.365575    0.131479
  H      1.902787   -2.335599    1.752746
  C      2.929642   -1.104634    0.359568
  O      2.384455   -0.003197    0.302595
  N      4.256400   -1.273448    0.145820
  H      4.632722   -2.200693    0.222577
  C      5.143639   -0.166982   -0.143129
  H      4.529446    0.723828   -0.222952
  H      5.871053   -0.027516    0.654275
  H      5.668629   -0.326963   -1.082271

 Multiplicity           Mult            ....    1
 Number of Electrons    NEL             ....   80
 Basis Dimension        Dim             .... 1444

ORBITAL ENERGIES
----------------

  NO   OCC          E(Eh)            E(eV)
   0   2.0000     -20.531840      -558.6998
   1   2.0000     -20.488610      -557.5234
   2   2.0000     -15.604246      -424.6131
   3   2.0000     -15.557179      -423.3324
   4   2.0000     -11.369308      -309.3746
   5   2.0000     -11.326085      -308.1984
   6   2.0000     -11.269817      -306.6673
   7   2.0000     -11.250029      -306.1289
   8   2.0000     -11.236893      -305.7714
   9   2.0000     -11.215620      -305.1925
  10   2.0000      -1.396228       -37.9933
  11   2.0000      -1.352122       -36.7931
  12   2.0000      -1.250523       -34.0285
  13   2.0000      -1.207036       -32.8451
  14   2.0000      -1.037017       -28.2187
  15   2.0000      -0.999507       -27.1980
  16   2.0000      -0.949389       -25.8342
  17   2.0000      -0.912507       -24.8306
  18   2.0000      -0.811480       -22.0815
  19   2.0000      -0.764909       -20.8142
  20   2.0000      -0.709686       -19.3115
  21   2.0000      -0.675155       -18.3719
  22   2.0000      -0.669991       -18.2314
  23   2.0000      -0.651691       -17.7334
  24   2.0000      -0.633845       -17.2478
  25   2.0000      -0.614698       -16.7268
  26   2.0000      -0.604051       -16.4371
  27   2.0000      -0.602168       -16.3858
  28   2.0000      -0.572959       -15.5910
  29   2.0000      -0.569372       -15.4934
  30   2.0000      -0.561975       -15.2921
  31   2.0000      -0.558487       -15.1972
  32   2.0000      -0.535301       -14.5663
  33   2.0000      -0.525844       -14.3089
  34   2.0000      -0.524900       -14.2833
  35   2.0000      -0.486328       -13.2337
  36   2.0000      -0.445602       -12.1255
  37   2.0000      -0.413343       -11.2476
  38   2.0000      -0.400966       -10.9108
  39   2.0000      -0.369182       -10.0459
  40   0.0000       0.012122         0.3298
  41   0.0000       0.025348         0.6898
  42   0.0000       0.027755         0.7553
  43   0.0000       0.032004         0.8709
  44   0.0000       0.041734         1.1356

MULLIKEN ATOMIC CHARGES
-----------------------
   0 C :   -0.861293
   1 H :    0.300498
   2 H :    0.292461
   3 H :    0.259005
   4 C :    0.945064
   5 O :   -0.916067
   6 N :   -0.453018
   7 H :    0.431130
   8 C :   -0.910109
   9 H :    0.304715
  10 H :    0.307016
  11 H :    0.327228
  12 C :   -0.806059
  13 H :    0.341072
  14 H :    0.261154
  15 H :    0.286464
  16 C :    1.007970
  17 O :   -0.935644
  18 N :   -0.531761
  19 H :    0.247209
  20 C :   -0.816083
  21 H :    0.297868
  22 H :    0.301294
  23 H :    0.319885
Sum of atomic charges:   -0.0000000

LOEWDIN ATOMIC CHARGES
----------------------
   0 C :    0.881252
   1 H :   -0.299461
   2 H :   -0.335349
   3 H :   -0.297597
   4 C :   -0.837299
   5 O :    0.691901
   6 N :    0.820045
   7 H :   -0.687547
   8 C :    0.783382
   9 H :   -0.366776
  10 H :   -0.284107
  11 H :   -0.286869
  12 C :    0.904490
  13 H :   -0.303304
  14 H :   -0.306156
  15 H :   -0.289582
  16 C :   -0.778654
  17 O :    0.787488
  18 N :    0.837458
  19 H :   -0.503265
  20 C :    0.798927
  21 H :   -0.362070
  22 H :   -0.282406
  23 H :   -0.284502

  Mayer bond orders larger than 0.100000
B(  0-C ,  1-H ) :   0.9447 B(  0-C ,  2-H ) :   0.9625 B(  0-C ,  3-H ) :   0.9383
B(  0-C ,  4-C ) :   0.9147 B(  0-C ,  5-O ) :   0.1177 B(  4-C ,  5-O ) :   1.0649
B(  4-C ,  6-N ) :   1.1961 B(  5-O ,  6-N ) :   0.2353 B(  6-N ,  7-H ) :   0.7838
B(  6-N ,  8-C ) :   0.8541 B(  8-C ,  9-H ) :   0.9303 B(  8-C , 10-H ) :   0.9485
B(  8-C , 11-H ) :   0.9123 B( 12-C , 13-H ) :   0.9437 B( 12-C , 14-H ) :   0.9514
B( 12-C , 15-H ) :   0.8899 B( 12-C , 16-C ) :   0.8341 B( 16-C , 17-O ) :   1.2948
B( 16-C , 18-N ) :   1.1237 B( 18-N , 19-H ) :   0.9816 B( 18-N , 20-C ) :   0.8780
B( 20-C , 21-H ) :   0.9196 B( 20-C , 22-H ) :   0.9405 B( 20-C , 23-H ) :   0.9290

MP2 TOTAL ENERGY:     -496.297060807 Eh
FINAL SINGLE POINT ENERGY      -496.297060806957

DIPOLE MOMENT
-------------
                                X             Y             Z
Electronic contribution:     -3.30496       1.02731       0.67933
Nuclear contribution   :      6.35035      -2.08878      -0.92012
                        -----------------------------------------
Total Dipole Moment    :      3.04539      -1.06148      -0.24080
                        -----------------------------------------
Magnitude (a.u.)       :      3.23406
Magnitude (Debye)      :      8.22032

Rotational constants in cm-1:     0.080149     0.015953     0.014898
Rotational constants in MHz :  2402.792646   478.263891   446.641743

                             ****ORCA TERMINATED NORMALLY****
TOTAL RUN TIME: 0 days 6 hours 18 minutes 54 seconds 285 msec
