                         Program Version 5.0.4 -  RELEASE  -
|  1> ! ri-mp2 aug-cc-pvdz aug-cc-pvdz/c tightscf
|  2> %pal nprocs 16 end
|  3> %maxcore 3800
|  4> %base "DZ_S66by10_17_0.7_dimer"
|  5> %scf STABPerform true end
|  6>
|  7> *xyz 0 1
|  8> N   -0.72999913    0.02276763    0.00091465
|  9> H    0.29842255    0.07400447    0.00162304
| 10> C   -1.29682453   -1.24042682    0.00150234
| 11> O   -0.59409886   -2.25351751    0.00263371
| 12> C   -2.74362229   -1.26233170    0.00047938
| 13> H   -3.24959045   -2.21183517    0.00083311
| 14> C   -3.42201997   -0.09590921   -0.00092259
| 15> H   -4.50089709   -0.04921603   -0.00174546
| 16> N   -2.77483684    1.10540895   -0.00141807
| 17> H   -3.28383807    1.97387739   -0.00248574
| 18> C   -1.39147866    1.23701978   -0.00052538
| 19> O   -0.83984371    2.31703528   -0.00100125
| 20> N    3.62090077   -1.05845352    0.00049659
| 21> H    4.06814456   -0.15188032    0.00088341
| 22> C    4.47694854   -2.17307131   -0.00100328
| 23> O    5.68640057   -2.02136690   -0.00175248
| 24> C    3.76273011   -3.43524485   -0.00150768
| 25> H    4.32931466   -4.35027560   -0.00264631
| 26> C    2.41256114   -3.43906272   -0.00054758
| 27> H    1.83559790   -4.35202749   -0.00086626
| 28> N    1.67456973   -2.28818188    0.00090283
| 29> H    0.64823347   -2.30962468    0.00157990
| 30> C    2.24734066   -1.04351684    0.00145348
| 31> O    1.59701978   -0.00229854    0.00268987
| 32> *
| 33>
| 34> $new_job
| 35> ! ri-mp2 aug-cc-pvtz aug-cc-pvtz/c tightscf
| 36> %pal nprocs 16 end
| 37> %maxcore 3800
| 38> %base "TZ_S66by10_17_0.7_dimer"
| 39>
| 40> *xyz 0 1
| 41> N   -0.72999913    0.02276763    0.00091465
| 42> H    0.29842255    0.07400447    0.00162304
| 43> C   -1.29682453   -1.24042682    0.00150234
| 44> O   -0.59409886   -2.25351751    0.00263371
| 45> C   -2.74362229   -1.26233170    0.00047938
| 46> H   -3.24959045   -2.21183517    0.00083311
| 47> C   -3.42201997   -0.09590921   -0.00092259
| 48> H   -4.50089709   -0.04921603   -0.00174546
| 49> N   -2.77483684    1.10540895   -0.00141807
| 50> H   -3.28383807    1.97387739   -0.00248574
| 51> C   -1.39147866    1.23701978   -0.00052538
| 52> O   -0.83984371    2.31703528   -0.00100125
| 53> N    3.62090077   -1.05845352    0.00049659
| 54> H    4.06814456   -0.15188032    0.00088341
| 55> C    4.47694854   -2.17307131   -0.00100328
| 56> O    5.68640057   -2.02136690   -0.00175248
| 57> C    3.76273011   -3.43524485   -0.00150768
| 58> H    4.32931466   -4.35027560   -0.00264631
| 59> C    2.41256114   -3.43906272   -0.00054758
| 60> H    1.83559790   -4.35202749   -0.00086626
| 61> N    1.67456973   -2.28818188    0.00090283
| 62> H    0.64823347   -2.30962468    0.00157990
| 63> C    2.24734066   -1.04351684    0.00145348
| 64> O    1.59701978   -0.00229854    0.00268987
| 65> *
| 66>
| 67> $new_job
| 68> ! ri-mp2 aug-cc-pvqz aug-cc-pvqz/c tightscf
| 69> %pal nprocs 16 end
| 70> %maxcore 3800
| 71> %base "QZ_S66by10_17_0.7_dimer"
| 72>
| 73> *xyz 0 1
| 74> N   -0.72999913    0.02276763    0.00091465
| 75> H    0.29842255    0.07400447    0.00162304
| 76> C   -1.29682453   -1.24042682    0.00150234
| 77> O   -0.59409886   -2.25351751    0.00263371
| 78> C   -2.74362229   -1.26233170    0.00047938
| 79> H   -3.24959045   -2.21183517    0.00083311
| 80> C   -3.42201997   -0.09590921   -0.00092259
| 81> H   -4.50089709   -0.04921603   -0.00174546
| 82> N   -2.77483684    1.10540895   -0.00141807
| 83> H   -3.28383807    1.97387739   -0.00248574
| 84> C   -1.39147866    1.23701978   -0.00052538
| 85> O   -0.83984371    2.31703528   -0.00100125
| 86> N    3.62090077   -1.05845352    0.00049659
| 87> H    4.06814456   -0.15188032    0.00088341
| 88> C    4.47694854   -2.17307131   -0.00100328
| 89> O    5.68640057   -2.02136690   -0.00175248
| 90> C    3.76273011   -3.43524485   -0.00150768
| 91> H    4.32931466   -4.35027560   -0.00264631
| 92> C    2.41256114   -3.43906272   -0.00054758
| 93> H    1.83559790   -4.35202749   -0.00086626
| 94> N    1.67456973   -2.28818188    0.00090283
| 95> H    0.64823347   -2.30962468    0.00157990
| 96> C    2.24734066   -1.04351684    0.00145348
| 97> O    1.59701978   -0.00229854    0.00268987
| 98> *
| 99>
|100>
|101>
|102>
|103>                          ****END OF INPUT****
 Total Charge           Charge          ....    0
 Multiplicity           Mult            ....    1
 Number of Electrons    NEL             ....  116
MP2 TOTAL ENERGY:     -827.540196845 Eh
FINAL SINGLE POINT ENERGY      -827.540196844639
MP2 TOTAL ENERGY:     -828.237497714 Eh
FINAL SINGLE POINT ENERGY      -828.237497713696

CARTESIAN COORDINATES (ANGSTROEM)
---------------------------------
  N     -0.729999    0.022768    0.000915
  H      0.298423    0.074004    0.001623
  C     -1.296825   -1.240427    0.001502
  O     -0.594099   -2.253518    0.002634
  C     -2.743622   -1.262332    0.000479
  H     -3.249590   -2.211835    0.000833
  C     -3.422020   -0.095909   -0.000923
  H     -4.500897   -0.049216   -0.001745
  N     -2.774837    1.105409   -0.001418
  H     -3.283838    1.973877   -0.002486
  C     -1.391479    1.237020   -0.000525
  O     -0.839844    2.317035   -0.001001
  N      3.620901   -1.058454    0.000497
  H      4.068145   -0.151880    0.000883
  C      4.476949   -2.173071   -0.001003
  O      5.686401   -2.021367   -0.001752
  C      3.762730   -3.435245   -0.001508
  H      4.329315   -4.350276   -0.002646
  C      2.412561   -3.439063   -0.000548
  H      1.835598   -4.352027   -0.000866
  N      1.674570   -2.288182    0.000903
  H      0.648233   -2.309625    0.001580
  C      2.247341   -1.043517    0.001453
  O      1.597020   -0.002299    0.002690

 Multiplicity           Mult            ....    1
 Number of Electrons    NEL             ....  116
 Basis Dimension        Dim             .... 1648

ORBITAL ENERGIES
----------------

  NO   OCC          E(Eh)            E(eV)
   0   2.0000     -20.560216      -559.4719
   1   2.0000     -20.550342      -559.2032
   2   2.0000     -20.537722      -558.8598
   3   2.0000     -20.526350      -558.5504
   4   2.0000     -15.644228      -425.7011
   5   2.0000     -15.619695      -425.0335
   6   2.0000     -15.592812      -424.3020
   7   2.0000     -15.584349      -424.0717
   8   2.0000     -11.416708      -310.6644
   9   2.0000     -11.409521      -310.4688
  10   2.0000     -11.400043      -310.2109
  11   2.0000     -11.367572      -309.3274
  12   2.0000     -11.348525      -308.8091
  13   2.0000     -11.316507      -307.9378
  14   2.0000     -11.258806      -306.3677
  15   2.0000     -11.234791      -305.7142
  16   2.0000      -1.455467       -39.6053
  17   2.0000      -1.436531       -39.0900
  18   2.0000      -1.420919       -38.6652
  19   2.0000      -1.389173       -37.8013
  20   2.0000      -1.314929       -35.7810
  21   2.0000      -1.300752       -35.3953
  22   2.0000      -1.240743       -33.7623
  23   2.0000      -1.231540       -33.5119
  24   2.0000      -1.094893       -29.7936
  25   2.0000      -1.070551       -29.1312
  26   2.0000      -0.951450       -25.8903
  27   2.0000      -0.916127       -24.9291
  28   2.0000      -0.909309       -24.7436
  29   2.0000      -0.892200       -24.2780
  30   2.0000      -0.835058       -22.7231
  31   2.0000      -0.807915       -21.9845
  32   2.0000      -0.765997       -20.8438
  33   2.0000      -0.757520       -20.6132
  34   2.0000      -0.749021       -20.3819
  35   2.0000      -0.723647       -19.6914
  36   2.0000      -0.681614       -18.5477
  37   2.0000      -0.670425       -18.2432
  38   2.0000      -0.664944       -18.0940
  39   2.0000      -0.658853       -17.9283
  40   2.0000      -0.650238       -17.6939
  41   2.0000      -0.640063       -17.4170
  42   2.0000      -0.623987       -16.9795
  43   2.0000      -0.610285       -16.6067
  44   2.0000      -0.594929       -16.1888
  45   2.0000      -0.587357       -15.9828
  46   2.0000      -0.573521       -15.6063
  47   2.0000      -0.564131       -15.3508
  48   2.0000      -0.523701       -14.2506
  49   2.0000      -0.508902       -13.8479
  50   2.0000      -0.502847       -13.6832
  51   2.0000      -0.466672       -12.6988
  52   2.0000      -0.455946       -12.4069
  53   2.0000      -0.443680       -12.0732
  54   2.0000      -0.438441       -11.9306
  55   2.0000      -0.435372       -11.8471
  56   2.0000      -0.375715       -10.2237
  57   2.0000      -0.348096        -9.4722
  58   0.0000       0.008324         0.2265
  59   0.0000       0.021027         0.5722
  60   0.0000       0.029297         0.7972
  61   0.0000       0.036325         0.9885
  62   0.0000       0.040313         1.0970

MULLIKEN ATOMIC CHARGES
-----------------------
   0 N :   -0.779755
   1 H :    0.467287
   2 C :    0.976569
   3 O :   -0.643746
   4 C :   -0.382351
   5 H :    0.225112
   6 C :   -0.103196
   7 H :    0.416434
   8 N :   -0.727526
   9 H :    0.052771
  10 C :    1.352534
  11 O :   -0.773897
  12 N :   -0.710249
  13 H :    0.116857
  14 C :    1.108808
  15 O :   -0.854185
  16 C :   -0.375366
  17 H :    0.267397
  18 C :   -0.365974
  19 H :    0.267122
  20 N :   -0.628317
  21 H :    0.330041
  22 C :    1.424520
  23 O :   -0.660889
Sum of atomic charges:    0.0000000

LOEWDIN ATOMIC CHARGES
----------------------
   0 N :    0.784527
   1 H :   -1.254139
   2 C :   -0.586002
   3 O :    1.102424
   4 C :    0.369209
   5 H :   -0.351642
   6 C :    0.243061
   7 H :   -0.293224
   8 N :    0.817220
   9 H :   -0.492715
  10 C :   -0.952183
  11 O :    0.705470
  12 N :    0.809332
  13 H :   -0.512043
  14 C :   -0.864538
  15 O :    0.676092
  16 C :    0.334774
  17 H :   -0.358577
  18 C :    0.259934
  19 H :   -0.290473
  20 N :    0.799776
  21 H :   -1.303999
  22 C :   -0.722732
  23 O :    1.080450

  Mayer bond orders larger than 0.100000
B(  0-N ,  1-H ) :   0.7174 B(  0-N ,  2-C ) :   1.1915 B(  0-N ,  3-O ) :   0.2276
B(  0-N , 10-C ) :   1.4222 B(  0-N , 11-O ) :   0.3035 B(  2-C ,  3-O ) :   1.2643
B(  2-C ,  4-C ) :   0.8891 B(  2-C ,  6-C ) :  -0.2582 B(  4-C ,  5-H ) :   1.0578
B(  4-C ,  6-C ) :   1.4158 B(  4-C ,  7-H ) :  -0.1612 B(  5-H ,  6-C ) :  -0.1130
B(  6-C ,  7-H ) :   0.9655 B(  6-C ,  8-N ) :   0.9384 B(  8-N ,  9-H ) :   1.2571
B(  8-N , 10-C ) :   1.0653 B(  8-N , 11-O ) :   0.2030 B(  9-H , 10-C ) :  -0.1115
B( 10-C , 11-O ) :   0.9920 B( 12-N , 13-H ) :   1.1914 B( 12-N , 14-C ) :   1.0615
B( 12-N , 15-O ) :   0.1507 B( 12-N , 22-C ) :   1.0179 B( 12-N , 23-O ) :   0.1131
B( 13-H , 22-C ) :  -0.1089 B( 14-C , 15-O ) :   0.9610 B( 14-C , 16-C ) :   1.1654
B( 15-O , 16-C ) :   0.2913 B( 16-C , 17-H ) :   1.0260 B( 16-C , 18-C ) :   1.4529
B( 16-C , 20-N ) :  -0.1214 B( 17-H , 18-C ) :  -0.1036 B( 18-C , 19-H ) :   1.0184
B( 18-C , 20-N ) :   1.2266 B( 20-N , 21-H ) :   0.8195 B( 20-N , 22-C ) :   1.2739
B( 20-N , 23-O ) :   0.1731 B( 22-C , 23-O ) :   1.2254

MP2 TOTAL ENERGY:     -828.467056183 Eh
FINAL SINGLE POINT ENERGY      -828.467056183489

DIPOLE MOMENT
-------------
                                X             Y             Z
Electronic contribution:      1.92778       2.79404       0.00258
Nuclear contribution   :     -5.43260      -3.55860      -0.00389
                        -----------------------------------------
Total Dipole Moment    :     -3.50483      -0.76455      -0.00132
                        -----------------------------------------
Magnitude (a.u.)       :      3.58725
Magnitude (Debye)      :      9.11807

Rotational constants in cm-1:     0.047268     0.008733     0.007371
Rotational constants in MHz :  1417.062962   261.814525   220.985638

                             ****ORCA TERMINATED NORMALLY****
TOTAL RUN TIME: 0 days 11 hours 58 minutes 43 seconds 924 msec
