                         Program Version 5.0.4 -  RELEASE  -
|  1> ! ri-mp2 aug-cc-pvdz aug-cc-pvdz/c tightscf
|  2> %pal nprocs 16 end
|  3> %maxcore 3800
|  4> %base "DZ_S66by10_16_1.05_dimer"
|  5> %scf STABPerform true end
|  6>
|  7> *xyz 0 1
|  8> C   -0.72430464   -0.70493582    2.28386786
|  9> H    0.33531828   -0.62994325    2.05318235
| 10> H   -0.95169666   -1.71198961    2.62565146
| 11> H   -0.96962784   -0.02207955    3.09376537
| 12> C   -1.61493501   -0.38742925    1.10406897
| 13> O   -2.83732387   -0.41502209    1.19413277
| 14> N   -0.95342037   -0.07640442   -0.04081980
| 15> H    0.05380860   -0.07556651   -0.03664022
| 16> C   -1.65812397    0.25009358   -1.25855306
| 17> H   -2.72037197    0.17694444   -1.04665270
| 18> H   -1.43030493    1.26296263   -1.58809384
| 19> H   -1.40562611   -0.44433518   -2.05858358
| 20> O    2.23510508   -0.05729876   -0.16272564
| 21> H    2.80008236   -0.77025738   -0.46792504
| 22> H    2.81485670    0.70689480   -0.13882714
| 23> *
| 24>
| 25> $new_job
| 26> ! ri-mp2 aug-cc-pvtz aug-cc-pvtz/c tightscf
| 27> %pal nprocs 16 end
| 28> %maxcore 3800
| 29> %base "TZ_S66by10_16_1.05_dimer"
| 30>
| 31> *xyz 0 1
| 32> C   -0.72430464   -0.70493582    2.28386786
| 33> H    0.33531828   -0.62994325    2.05318235
| 34> H   -0.95169666   -1.71198961    2.62565146
| 35> H   -0.96962784   -0.02207955    3.09376537
| 36> C   -1.61493501   -0.38742925    1.10406897
| 37> O   -2.83732387   -0.41502209    1.19413277
| 38> N   -0.95342037   -0.07640442   -0.04081980
| 39> H    0.05380860   -0.07556651   -0.03664022
| 40> C   -1.65812397    0.25009358   -1.25855306
| 41> H   -2.72037197    0.17694444   -1.04665270
| 42> H   -1.43030493    1.26296263   -1.58809384
| 43> H   -1.40562611   -0.44433518   -2.05858358
| 44> O    2.23510508   -0.05729876   -0.16272564
| 45> H    2.80008236   -0.77025738   -0.46792504
| 46> H    2.81485670    0.70689480   -0.13882714
| 47> *
| 48>
| 49> $new_job
| 50> ! ri-mp2 aug-cc-pvqz aug-cc-pvqz/c tightscf
| 51> %pal nprocs 16 end
| 52> %maxcore 3800
| 53> %base "QZ_S66by10_16_1.05_dimer"
| 54>
| 55> *xyz 0 1
| 56> C   -0.72430464   -0.70493582    2.28386786
| 57> H    0.33531828   -0.62994325    2.05318235
| 58> H   -0.95169666   -1.71198961    2.62565146
| 59> H   -0.96962784   -0.02207955    3.09376537
| 60> C   -1.61493501   -0.38742925    1.10406897
| 61> O   -2.83732387   -0.41502209    1.19413277
| 62> N   -0.95342037   -0.07640442   -0.04081980
| 63> H    0.05380860   -0.07556651   -0.03664022
| 64> C   -1.65812397    0.25009358   -1.25855306
| 65> H   -2.72037197    0.17694444   -1.04665270
| 66> H   -1.43030493    1.26296263   -1.58809384
| 67> H   -1.40562611   -0.44433518   -2.05858358
| 68> O    2.23510508   -0.05729876   -0.16272564
| 69> H    2.80008236   -0.77025738   -0.46792504
| 70> H    2.81485670    0.70689480   -0.13882714
| 71> *
| 72>
| 73>
| 74>
| 75>
| 76>                          ****END OF INPUT****
 Total Charge           Charge          ....    0
 Multiplicity           Mult            ....    1
 Number of Electrons    NEL             ....   50
MP2 TOTAL ENERGY:     -324.116294917 Eh
FINAL SINGLE POINT ENERGY      -324.116294917257
MP2 TOTAL ENERGY:     -324.407882629 Eh
FINAL SINGLE POINT ENERGY      -324.407882628951

CARTESIAN COORDINATES (ANGSTROEM)
---------------------------------
  C     -0.724305   -0.704936    2.283868
  H      0.335318   -0.629943    2.053182
  H     -0.951697   -1.711990    2.625651
  H     -0.969628   -0.022080    3.093765
  C     -1.614935   -0.387429    1.104069
  O     -2.837324   -0.415022    1.194133
  N     -0.953420   -0.076404   -0.040820
  H      0.053809   -0.075567   -0.036640
  C     -1.658124    0.250094   -1.258553
  H     -2.720372    0.176944   -1.046653
  H     -1.430305    1.262963   -1.588094
  H     -1.405626   -0.444335   -2.058584
  O      2.235105   -0.057299   -0.162726
  H      2.800082   -0.770257   -0.467925
  H      2.814857    0.706895   -0.138827

 Multiplicity           Mult            ....    1
 Number of Electrons    NEL             ....   50
 Basis Dimension        Dim             ....  894

ORBITAL ENERGIES
----------------

  NO   OCC          E(Eh)            E(eV)
   0   2.0000     -20.595829      -560.4410
   1   2.0000     -20.493208      -557.6485
   2   2.0000     -15.564869      -423.5416
   3   2.0000     -11.330999      -308.3322
   4   2.0000     -11.241616      -305.8999
   5   2.0000     -11.219034      -305.2854
   6   2.0000      -1.384010       -37.6608
   7   2.0000      -1.357360       -36.9356
   8   2.0000      -1.213164       -33.0119
   9   2.0000      -1.003660       -27.3110
  10   2.0000      -0.917343       -24.9622
  11   2.0000      -0.773403       -21.0454
  12   2.0000      -0.746941       -20.3253
  13   2.0000      -0.676376       -18.4051
  14   2.0000      -0.639690       -17.4068
  15   2.0000      -0.620930       -16.8964
  16   2.0000      -0.618728       -16.8365
  17   2.0000      -0.573798       -15.6139
  18   2.0000      -0.564057       -15.3488
  19   2.0000      -0.545361       -14.8400
  20   2.0000      -0.537021       -14.6131
  21   2.0000      -0.529236       -14.4012
  22   2.0000      -0.490374       -13.3438
  23   2.0000      -0.405861       -11.0440
  24   2.0000      -0.375283       -10.2120
  25   0.0000       0.011424         0.3109
  26   0.0000       0.031361         0.8534
  27   0.0000       0.033680         0.9165
  28   0.0000       0.037398         1.0176
  29   0.0000       0.051526         1.4021

MULLIKEN ATOMIC CHARGES
-----------------------
   0 C :   -0.820826
   1 H :    0.305576
   2 H :    0.269564
   3 H :    0.267475
   4 C :    0.890782
   5 O :   -0.852507
   6 N :   -0.414069
   7 H :    0.261357
   8 C :   -0.753481
   9 H :    0.299819
  10 H :    0.280524
  11 H :    0.278914
  12 O :   -0.630107
  13 H :    0.309102
  14 H :    0.307876
Sum of atomic charges:    0.0000000

LOEWDIN ATOMIC CHARGES
----------------------
   0 C :    0.886082
   1 H :   -0.328342
   2 H :   -0.300290
   3 H :   -0.300894
   4 C :   -0.835521
   5 O :    0.693315
   6 N :    0.823744
   7 H :   -0.628982
   8 C :    0.781824
   9 H :   -0.369097
  10 H :   -0.286705
  11 H :   -0.287126
  12 O :    1.658953
  13 H :   -0.753472
  14 H :   -0.753490

  Mayer bond orders larger than 0.100000
B(  0-C ,  1-H ) :   0.9464 B(  0-C ,  2-H ) :   0.9488 B(  0-C ,  3-H ) :   0.9545
B(  0-C ,  4-C ) :   0.9118 B(  0-C ,  5-O ) :   0.1099 B(  4-C ,  5-O ) :   1.2457
B(  4-C ,  6-N ) :   1.1414 B(  5-O ,  6-N ) :   0.1882 B(  6-N ,  7-H ) :   1.0522
B(  6-N ,  8-C ) :   0.7800 B(  8-C ,  9-H ) :   0.9351 B(  8-C , 10-H ) :   0.9564
B(  8-C , 11-H ) :   0.9566 B( 12-O , 13-H ) :   0.9485 B( 12-O , 14-H ) :   0.9484

MP2 TOTAL ENERGY:     -324.501728567 Eh
FINAL SINGLE POINT ENERGY      -324.501728566751

DIPOLE MOMENT
-------------
                                X             Y             Z
Electronic contribution:     -2.74251      -0.30086       1.13479
Nuclear contribution   :      5.34902       0.46407      -1.79070
                        -----------------------------------------
Total Dipole Moment    :      2.60651       0.16321      -0.65591
                        -----------------------------------------
Magnitude (a.u.)       :      2.69272
Magnitude (Debye)      :      6.84436

Rotational constants in cm-1:     0.130855     0.060238     0.042133
Rotational constants in MHz :  3922.939898  1805.885542  1263.102852

                             ****ORCA TERMINATED NORMALLY****
TOTAL RUN TIME: 0 days 1 hours 8 minutes 35 seconds 569 msec
