                         Program Version 5.0.4 -  RELEASE  -
|  1> ! ri-mp2 aug-cc-pvdz aug-cc-pvdz/c tightscf
|  2> %pal nprocs 16 end
|  3> %maxcore 3800
|  4> %base "DZ_S66by10_48_1.0_dimer"
|  5>
|  6> *xyz 0 1
|  7> N    1.32276272   -0.01037598    1.01918373
|  8> C    0.65128601   -1.14899203    0.79680119
|  9> H    1.20041842   -2.06552808    0.97367282
| 10> C   -0.67268130   -1.19471172    0.36665693
| 11> H   -1.15719362   -2.14732141    0.20646407
| 12> C   -1.34719675    0.00313399    0.15214401
| 13> H   -2.37535653    0.00840542   -0.18229302
| 14> C   -0.66455797    1.19409062    0.37900199
| 15> H   -1.14262633    2.15155765    0.22872051
| 16> C    0.65889576    1.13497854    0.80885987
| 17> H    1.21410272    2.04591045    0.99543831
| 18> N    0.45585921    0.00141494    6.76151837
| 19> C    1.32652722   -0.00419786    5.74210534
| 20> H    2.37438380   -0.00294933    6.01640813
| 21> C    0.95314149   -0.01126562    4.40027727
| 22> H    1.70060215   -0.01542964    3.61917762
| 23> C   -0.40290707   -0.01267968    4.08786180
| 24> H   -0.73263575   -0.01813516    3.05758035
| 25> C   -1.32101033   -0.00696459    5.13303141
| 26> H   -2.38546037   -0.00781398    4.94429563
| 27> C   -0.84540653   -0.00004694    6.44199026
| 28> H   -1.53759019    0.00453619    7.27518147
| 29> *
| 30>
| 31> $new_job
| 32> ! ri-mp2 aug-cc-pvtz aug-cc-pvtz/c tightscf
| 33> %pal nprocs 16 end
| 34> %maxcore 3800
| 35> %base "TZ_S66by10_48_1.0_dimer"
| 36>
| 37> *xyz 0 1
| 38> N    1.32276272   -0.01037598    1.01918373
| 39> C    0.65128601   -1.14899203    0.79680119
| 40> H    1.20041842   -2.06552808    0.97367282
| 41> C   -0.67268130   -1.19471172    0.36665693
| 42> H   -1.15719362   -2.14732141    0.20646407
| 43> C   -1.34719675    0.00313399    0.15214401
| 44> H   -2.37535653    0.00840542   -0.18229302
| 45> C   -0.66455797    1.19409062    0.37900199
| 46> H   -1.14262633    2.15155765    0.22872051
| 47> C    0.65889576    1.13497854    0.80885987
| 48> H    1.21410272    2.04591045    0.99543831
| 49> N    0.45585921    0.00141494    6.76151837
| 50> C    1.32652722   -0.00419786    5.74210534
| 51> H    2.37438380   -0.00294933    6.01640813
| 52> C    0.95314149   -0.01126562    4.40027727
| 53> H    1.70060215   -0.01542964    3.61917762
| 54> C   -0.40290707   -0.01267968    4.08786180
| 55> H   -0.73263575   -0.01813516    3.05758035
| 56> C   -1.32101033   -0.00696459    5.13303141
| 57> H   -2.38546037   -0.00781398    4.94429563
| 58> C   -0.84540653   -0.00004694    6.44199026
| 59> H   -1.53759019    0.00453619    7.27518147
| 60> *
| 61>
| 62> $new_job
| 63> ! ri-mp2 aug-cc-pvqz aug-cc-pvqz/c tightscf
| 64> %pal nprocs 16 end
| 65> %maxcore 3800
| 66> %base "QZ_S66by10_48_1.0_dimer"
| 67>
| 68> *xyz 0 1
| 69> N    1.32276272   -0.01037598    1.01918373
| 70> C    0.65128601   -1.14899203    0.79680119
| 71> H    1.20041842   -2.06552808    0.97367282
| 72> C   -0.67268130   -1.19471172    0.36665693
| 73> H   -1.15719362   -2.14732141    0.20646407
| 74> C   -1.34719675    0.00313399    0.15214401
| 75> H   -2.37535653    0.00840542   -0.18229302
| 76> C   -0.66455797    1.19409062    0.37900199
| 77> H   -1.14262633    2.15155765    0.22872051
| 78> C    0.65889576    1.13497854    0.80885987
| 79> H    1.21410272    2.04591045    0.99543831
| 80> N    0.45585921    0.00141494    6.76151837
| 81> C    1.32652722   -0.00419786    5.74210534
| 82> H    2.37438380   -0.00294933    6.01640813
| 83> C    0.95314149   -0.01126562    4.40027727
| 84> H    1.70060215   -0.01542964    3.61917762
| 85> C   -0.40290707   -0.01267968    4.08786180
| 86> H   -0.73263575   -0.01813516    3.05758035
| 87> C   -1.32101033   -0.00696459    5.13303141
| 88> H   -2.38546037   -0.00781398    4.94429563
| 89> C   -0.84540653   -0.00004694    6.44199026
| 90> H   -1.53759019    0.00453619    7.27518147
| 91> *
| 92>
| 93>
| 94>
| 95>
| 96>                          ****END OF INPUT****
 Total Charge           Charge          ....    0
 Multiplicity           Mult            ....    1
 Number of Electrons    NEL             ....   84
MP2 TOTAL ENERGY:     -495.136346794 Eh
FINAL SINGLE POINT ENERGY      -495.136346793513
MP2 TOTAL ENERGY:     -495.563337063 Eh
FINAL SINGLE POINT ENERGY      -495.563337062536

CARTESIAN COORDINATES (ANGSTROEM)
---------------------------------
  N      1.322763   -0.010376    1.019184
  C      0.651286   -1.148992    0.796801
  H      1.200418   -2.065528    0.973673
  C     -0.672681   -1.194712    0.366657
  H     -1.157194   -2.147321    0.206464
  C     -1.347197    0.003134    0.152144
  H     -2.375357    0.008405   -0.182293
  C     -0.664558    1.194091    0.379002
  H     -1.142626    2.151558    0.228721
  C      0.658896    1.134979    0.808860
  H      1.214103    2.045910    0.995438
  N      0.455859    0.001415    6.761518
  C      1.326527   -0.004198    5.742105
  H      2.374384   -0.002949    6.016408
  C      0.953141   -0.011266    4.400277
  H      1.700602   -0.015430    3.619178
  C     -0.402907   -0.012680    4.087862
  H     -0.732636   -0.018135    3.057580
  C     -1.321010   -0.006965    5.133031
  H     -2.385460   -0.007814    4.944296
  C     -0.845407   -0.000047    6.441990
  H     -1.537590    0.004536    7.275181

 Multiplicity           Mult            ....    1
 Number of Electrons    NEL             ....   84
 Basis Dimension        Dim             .... 1420

ORBITAL ENERGIES
----------------

  NO   OCC          E(Eh)            E(eV)
   0   2.0000     -15.575515      -423.8313
   1   2.0000     -15.556696      -423.3192
   2   2.0000     -11.284655      -307.0711
   3   2.0000     -11.284616      -307.0700
   4   2.0000     -11.269743      -306.6653
   5   2.0000     -11.266101      -306.5662
   6   2.0000     -11.264775      -306.5301
   7   2.0000     -11.251482      -306.1684
   8   2.0000     -11.251421      -306.1667
   9   2.0000     -11.247890      -306.0706
  10   2.0000     -11.232858      -305.6616
  11   2.0000     -11.228243      -305.5360
  12   2.0000      -1.267731       -34.4967
  13   2.0000      -1.247555       -33.9477
  14   2.0000      -1.100446       -29.9447
  15   2.0000      -1.079675       -29.3795
  16   2.0000      -1.044098       -28.4113
  17   2.0000      -1.024024       -27.8651
  18   2.0000      -0.869718       -23.6662
  19   2.0000      -0.866300       -23.5732
  20   2.0000      -0.849643       -23.1200
  21   2.0000      -0.846542       -23.0356
  22   2.0000      -0.732562       -19.9340
  23   2.0000      -0.713455       -19.4141
  24   2.0000      -0.671061       -18.2605
  25   2.0000      -0.664240       -18.0749
  26   2.0000      -0.651343       -17.7239
  27   2.0000      -0.644687       -17.5428
  28   2.0000      -0.608625       -16.5615
  29   2.0000      -0.591328       -16.0909
  30   2.0000      -0.586335       -15.9550
  31   2.0000      -0.575135       -15.6502
  32   2.0000      -0.543281       -14.7834
  33   2.0000      -0.532775       -14.4975
  34   2.0000      -0.530177       -14.4269
  35   2.0000      -0.510004       -13.8779
  36   2.0000      -0.431153       -11.7323
  37   2.0000      -0.412316       -11.2197
  38   2.0000      -0.394992       -10.7483
  39   2.0000      -0.376978       -10.2581
  40   2.0000      -0.357266        -9.7217
  41   2.0000      -0.338805        -9.2194
  42   0.0000       0.017301         0.4708
  43   0.0000       0.026363         0.7174
  44   0.0000       0.028778         0.7831
  45   0.0000       0.030887         0.8405
  46   0.0000       0.038838         1.0568

MULLIKEN ATOMIC CHARGES
-----------------------
   0 N :   -0.727193
   1 C :   -0.113066
   2 H :    0.456568
   3 C :   -0.352676
   4 H :    0.316243
   5 C :   -0.269592
   6 H :    0.370970
   7 C :   -0.355679
   8 H :    0.316736
   9 C :   -0.107559
  10 H :    0.455945
  11 N :   -0.715140
  12 C :    0.025051
  13 H :    0.498671
  14 C :   -0.750195
  15 H :    0.339256
  16 C :   -0.175463
  17 H :    0.850857
  18 C :   -0.627684
  19 H :    0.261998
  20 C :   -0.221950
  21 H :    0.523902
Sum of atomic charges:    0.0000000

LOEWDIN ATOMIC CHARGES
----------------------
   0 N :    0.586644
   1 C :    0.064991
   2 H :   -0.342896
   3 C :    0.330163
   4 H :   -0.323952
   5 C :    0.330057
   6 H :   -0.309652
   7 C :    0.330194
   8 H :   -0.323901
   9 C :    0.064706
  10 H :   -0.342801
  11 N :    0.586327
  12 C :    0.078042
  13 H :   -0.356760
  14 C :    0.329134
  15 H :   -0.360810
  16 C :    0.318164
  17 H :   -0.372795
  18 C :    0.338232
  19 H :   -0.330500
  20 C :    0.066197
  21 H :   -0.358785

  Mayer bond orders larger than 0.100000
B(  0-N ,  1-C ) :   1.1205 B(  0-N ,  2-H ) :  -0.1579 B(  0-N ,  9-C ) :   1.1197
B(  0-N , 10-H ) :  -0.1577 B(  1-C ,  2-H ) :   0.9170 B(  1-C ,  3-C ) :   1.1866
B(  1-C ,  7-C ) :   0.1227 B(  3-C ,  4-H ) :   1.0236 B(  3-C ,  5-C ) :   1.2026
B(  3-C ,  9-C ) :   0.1215 B(  5-C ,  6-H ) :   0.9796 B(  5-C ,  7-C ) :   1.2061
B(  7-C ,  8-H ) :   1.0225 B(  7-C ,  9-C ) :   1.1852 B(  9-C , 10-H ) :   0.9177
B( 11-N , 12-C ) :   1.1600 B( 11-N , 13-H ) :  -0.1111 B( 11-N , 14-C ) :   0.1856
B( 11-N , 16-C ) :  -0.1023 B( 11-N , 18-C ) :   0.1086 B( 11-N , 20-C ) :   1.2059
B( 11-N , 21-H ) :  -0.1302 B( 12-C , 13-H ) :   0.8386 B( 12-C , 14-C ) :   1.3034
B( 12-C , 16-C ) :  -0.2834 B( 12-C , 18-C ) :   0.1564 B( 13-H , 14-C ) :  -0.1452
B( 14-C , 15-H ) :   0.9602 B( 14-C , 16-C ) :   1.0795 B( 14-C , 17-H ) :  -0.1780
B( 14-C , 20-C ) :   0.1015 B( 16-C , 17-H ) :   0.3723 B( 16-C , 18-C ) :   1.0465
B( 16-C , 20-C ) :  -0.3346 B( 17-H , 18-C ) :  -0.1893 B( 18-C , 19-H ) :   1.0234
B( 18-C , 20-C ) :   1.4789 B( 18-C , 21-H ) :  -0.1162 B( 20-C , 21-H ) :   0.8052

MP2 TOTAL ENERGY:     -495.699688208 Eh
FINAL SINGLE POINT ENERGY      -495.699688207610

DIPOLE MOMENT
-------------
                                X             Y             Z
Electronic contribution:      1.69595       0.00094       1.38590
Nuclear contribution   :     -2.77843      -0.00040      -2.78172
                        -----------------------------------------
Total Dipole Moment    :     -1.08249       0.00053      -1.39582
                        -----------------------------------------
Magnitude (a.u.)       :      1.76638
Magnitude (Debye)      :      4.48978

Rotational constants in cm-1:     0.068941     0.015217     0.014220
Rotational constants in MHz :  2066.809560   456.196449   426.314380

                             ****ORCA TERMINATED NORMALLY****
TOTAL RUN TIME: 0 days 1 hours 6 minutes 2 seconds 515 msec
