                         Program Version 5.0.4 -  RELEASE  -
|  1> ! ri-mp2 aug-cc-pvdz aug-cc-pvdz/c tightscf
|  2> %pal nprocs 16 end
|  3> %maxcore 3800
|  4> %base "DZ_S66by10_28_0.8_dimer"
|  5>
|  6> *xyz 0 1
|  7> C    0.82576911    1.23652484   -0.04025044
|  8> H    1.52101317    2.06312520   -0.08247145
|  9> C    1.30015992   -0.06294088    0.12725601
| 10> H    2.36365753   -0.24226113    0.20767420
| 11> C    0.40352312   -1.12855218    0.19824486
| 12> H    0.77375338   -2.13742677    0.32412109
| 13> C   -0.96780949   -0.89519049    0.10313994
| 14> H   -1.66520900   -1.71998342    0.16042745
| 15> C   -1.44350838    0.40448328   -0.06244130
| 16> H   -2.50751124    0.58550112   -0.12415016
| 17> C   -0.54575549    1.46876875   -0.13624741
| 18> H   -0.91422190    2.47742220   -0.26785516
| 19> N   -0.29924125    0.74006143    2.57553285
| 20> H   -0.67254865    1.64182286    2.31263987
| 21> C    1.09290543    0.66707453    2.70754618
| 22> O    1.78381575    1.66149822    2.56271212
| 23> C    1.57180554   -0.66700318    3.02565639
| 24> H    2.62885764   -0.81921912    3.15977752
| 25> C    0.69209632   -1.68138436    3.15187291
| 26> H    0.99802384   -2.68980496    3.38839727
| 27> N   -0.65314957   -1.49635244    2.98178077
| 28> H   -1.30189740   -2.25891138    3.08064994
| 29> C   -1.22759788   -0.27155141    2.68236615
| 30> O   -2.42538629   -0.12072813    2.54025396
| 31> *
| 32>
| 33> $new_job
| 34> ! ri-mp2 aug-cc-pvtz aug-cc-pvtz/c tightscf
| 35> %pal nprocs 16 end
| 36> %maxcore 3800
| 37> %base "TZ_S66by10_28_0.8_dimer"
| 38>
| 39> *xyz 0 1
| 40> C    0.82576911    1.23652484   -0.04025044
| 41> H    1.52101317    2.06312520   -0.08247145
| 42> C    1.30015992   -0.06294088    0.12725601
| 43> H    2.36365753   -0.24226113    0.20767420
| 44> C    0.40352312   -1.12855218    0.19824486
| 45> H    0.77375338   -2.13742677    0.32412109
| 46> C   -0.96780949   -0.89519049    0.10313994
| 47> H   -1.66520900   -1.71998342    0.16042745
| 48> C   -1.44350838    0.40448328   -0.06244130
| 49> H   -2.50751124    0.58550112   -0.12415016
| 50> C   -0.54575549    1.46876875   -0.13624741
| 51> H   -0.91422190    2.47742220   -0.26785516
| 52> N   -0.29924125    0.74006143    2.57553285
| 53> H   -0.67254865    1.64182286    2.31263987
| 54> C    1.09290543    0.66707453    2.70754618
| 55> O    1.78381575    1.66149822    2.56271212
| 56> C    1.57180554   -0.66700318    3.02565639
| 57> H    2.62885764   -0.81921912    3.15977752
| 58> C    0.69209632   -1.68138436    3.15187291
| 59> H    0.99802384   -2.68980496    3.38839727
| 60> N   -0.65314957   -1.49635244    2.98178077
| 61> H   -1.30189740   -2.25891138    3.08064994
| 62> C   -1.22759788   -0.27155141    2.68236615
| 63> O   -2.42538629   -0.12072813    2.54025396
| 64> *
| 65>
| 66> $new_job
| 67> ! ri-mp2 aug-cc-pvqz aug-cc-pvqz/c tightscf
| 68> %pal nprocs 16 end
| 69> %maxcore 3800
| 70> %base "QZ_S66by10_28_0.8_dimer"
| 71>
| 72> *xyz 0 1
| 73> C    0.82576911    1.23652484   -0.04025044
| 74> H    1.52101317    2.06312520   -0.08247145
| 75> C    1.30015992   -0.06294088    0.12725601
| 76> H    2.36365753   -0.24226113    0.20767420
| 77> C    0.40352312   -1.12855218    0.19824486
| 78> H    0.77375338   -2.13742677    0.32412109
| 79> C   -0.96780949   -0.89519049    0.10313994
| 80> H   -1.66520900   -1.71998342    0.16042745
| 81> C   -1.44350838    0.40448328   -0.06244130
| 82> H   -2.50751124    0.58550112   -0.12415016
| 83> C   -0.54575549    1.46876875   -0.13624741
| 84> H   -0.91422190    2.47742220   -0.26785516
| 85> N   -0.29924125    0.74006143    2.57553285
| 86> H   -0.67254865    1.64182286    2.31263987
| 87> C    1.09290543    0.66707453    2.70754618
| 88> O    1.78381575    1.66149822    2.56271212
| 89> C    1.57180554   -0.66700318    3.02565639
| 90> H    2.62885764   -0.81921912    3.15977752
| 91> C    0.69209632   -1.68138436    3.15187291
| 92> H    0.99802384   -2.68980496    3.38839727
| 93> N   -0.65314957   -1.49635244    2.98178077
| 94> H   -1.30189740   -2.25891138    3.08064994
| 95> C   -1.22759788   -0.27155141    2.68236615
| 96> O   -2.42538629   -0.12072813    2.54025396
| 97> *
| 98>
| 99>
|100>
|101>
|102>                          ****END OF INPUT****
 Total Charge           Charge          ....    0
 Multiplicity           Mult            ....    1
 Number of Electrons    NEL             ....  100
MP2 TOTAL ENERGY:     -645.321820831 Eh
FINAL SINGLE POINT ENERGY      -645.321820830681
MP2 TOTAL ENERGY:     -645.870272144 Eh
FINAL SINGLE POINT ENERGY      -645.870272143662

CARTESIAN COORDINATES (ANGSTROEM)
---------------------------------
  C      0.825769    1.236525   -0.040250
  H      1.521013    2.063125   -0.082471
  C      1.300160   -0.062941    0.127256
  H      2.363658   -0.242261    0.207674
  C      0.403523   -1.128552    0.198245
  H      0.773753   -2.137427    0.324121
  C     -0.967809   -0.895190    0.103140
  H     -1.665209   -1.719983    0.160427
  C     -1.443508    0.404483   -0.062441
  H     -2.507511    0.585501   -0.124150
  C     -0.545755    1.468769   -0.136247
  H     -0.914222    2.477422   -0.267855
  N     -0.299241    0.740061    2.575533
  H     -0.672549    1.641823    2.312640
  C      1.092905    0.667075    2.707546
  O      1.783816    1.661498    2.562712
  C      1.571806   -0.667003    3.025656
  H      2.628858   -0.819219    3.159778
  C      0.692096   -1.681384    3.151873
  H      0.998024   -2.689805    3.388397
  N     -0.653150   -1.496352    2.981781
  H     -1.301897   -2.258911    3.080650
  C     -1.227598   -0.271551    2.682366
  O     -2.425386   -0.120728    2.540254

 Multiplicity           Mult            ....    1
 Number of Electrons    NEL             ....  100
 Basis Dimension        Dim             .... 1580

ORBITAL ENERGIES
----------------

  NO   OCC          E(Eh)            E(eV)
   0   2.0000     -20.533847      -558.7544
   1   2.0000     -20.528831      -558.6179
   2   2.0000     -15.632885      -425.3924
   3   2.0000     -15.610481      -424.7828
   4   2.0000     -11.408529      -310.4418
   5   2.0000     -11.371487      -309.4339
   6   2.0000     -11.328838      -308.2734
   7   2.0000     -11.246330      -306.0282
   8   2.0000     -11.238883      -305.8256
   9   2.0000     -11.232261      -305.6453
  10   2.0000     -11.231041      -305.6122
  11   2.0000     -11.230763      -305.6046
  12   2.0000     -11.229786      -305.5780
  13   2.0000     -11.228494      -305.5428
  14   2.0000      -1.428032       -38.8587
  15   2.0000      -1.390523       -37.8381
  16   2.0000      -1.304798       -35.5054
  17   2.0000      -1.237145       -33.6644
  18   2.0000      -1.152506       -31.3613
  19   2.0000      -1.080846       -29.4113
  20   2.0000      -1.017676       -27.6924
  21   2.0000      -1.016274       -27.6542
  22   2.0000      -0.925114       -25.1736
  23   2.0000      -0.893102       -24.3025
  24   2.0000      -0.826306       -22.4849
  25   2.0000      -0.825094       -22.4519
  26   2.0000      -0.799399       -21.7527
  27   2.0000      -0.756651       -20.5895
  28   2.0000      -0.712213       -19.3803
  29   2.0000      -0.705512       -19.1980
  30   2.0000      -0.673185       -18.3183
  31   2.0000      -0.669334       -18.2135
  32   2.0000      -0.645870       -17.5750
  33   2.0000      -0.644336       -17.5333
  34   2.0000      -0.619707       -16.8631
  35   2.0000      -0.608236       -16.5509
  36   2.0000      -0.594793       -16.1851
  37   2.0000      -0.590111       -16.0577
  38   2.0000      -0.588513       -16.0143
  39   2.0000      -0.569664       -15.5014
  40   2.0000      -0.523515       -14.2456
  41   2.0000      -0.495554       -13.4847
  42   2.0000      -0.494635       -13.4597
  43   2.0000      -0.489904       -13.3310
  44   2.0000      -0.472902       -12.8683
  45   2.0000      -0.441677       -12.0187
  46   2.0000      -0.428568       -11.6619
  47   2.0000      -0.366519        -9.9735
  48   2.0000      -0.335584        -9.1317
  49   2.0000      -0.327637        -8.9155
  50   0.0000       0.012497         0.3401
  51   0.0000       0.027882         0.7587
  52   0.0000       0.031296         0.8516
  53   0.0000       0.032500         0.8844
  54   0.0000       0.040011         1.0888

MULLIKEN ATOMIC CHARGES
-----------------------
   0 C :   -0.416269
   1 H :    0.308309
   2 C :   -0.159782
   3 H :    0.261692
   4 C :   -0.235189
   5 H :    0.266283
   6 C :   -0.155236
   7 H :    0.216619
   8 C :   -0.488745
   9 H :    0.287438
  10 C :   -0.226083
  11 H :    0.228531
  12 N :   -0.634099
  13 H :    0.088856
  14 C :    1.625310
  15 O :   -1.058003
  16 C :   -0.511224
  17 H :    0.228126
  18 C :   -0.187858
  19 H :    0.338770
  20 N :   -0.717337
  21 H :    0.034960
  22 C :    1.930404
  23 O :   -1.025472
Sum of atomic charges:    0.0000000

LOEWDIN ATOMIC CHARGES
----------------------
   0 C :    0.291623
   1 H :   -0.310494
   2 C :    0.285477
   3 H :   -0.301643
   4 C :    0.301303
   5 H :   -0.305925
   6 C :    0.281246
   7 H :   -0.304655
   8 C :    0.293309
   9 H :   -0.307533
  10 C :    0.326763
  11 H :   -0.302339
  12 N :    0.778705
  13 H :   -0.537630
  14 C :   -0.910523
  15 O :    0.738022
  16 C :    0.323801
  17 H :   -0.331578
  18 C :    0.225662
  19 H :   -0.284723
  20 N :    0.822976
  21 H :   -0.475009
  22 C :   -1.043386
  23 O :    0.746551

  Mayer bond orders larger than 0.100000
B(  0-C ,  1-H ) :   1.0735 B(  0-C ,  2-C ) :   1.2006 B(  0-C ,  3-H ) :  -0.1067
B(  0-C ,  6-C ) :   0.1459 B(  0-C , 10-C ) :   1.2069 B(  2-C ,  3-H ) :   1.1015
B(  2-C ,  4-C ) :   1.0692 B(  2-C ,  5-H ) :  -0.1276 B(  2-C ,  8-C ) :   0.1365
B(  3-H ,  4-C ) :  -0.1304 B(  4-C ,  5-H ) :   1.0460 B(  4-C ,  6-C ) :   1.0494
B(  4-C ,  7-H ) :  -0.1408 B(  4-C , 10-C ) :   0.1387 B(  5-H ,  6-C ) :  -0.1518
B(  6-C ,  7-H ) :   1.1637 B(  6-C ,  8-C ) :   1.2036 B(  7-H ,  8-C ) :  -0.1046
B(  8-C ,  9-H ) :   1.1004 B(  8-C , 10-C ) :   1.1867 B( 10-C , 11-H ) :   1.1401
B( 12-N , 13-H ) :   1.1612 B( 12-N , 14-C ) :   1.0616 B( 12-N , 15-O ) :   0.2543
B( 12-N , 22-C ) :   1.0625 B( 12-N , 23-O ) :   0.2943 B( 14-C , 15-O ) :   0.6296
B( 14-C , 16-C ) :   0.9835 B( 14-C , 18-C ) :  -0.1159 B( 15-O , 16-C ) :   0.2264
B( 16-C , 17-H ) :   1.0511 B( 16-C , 18-C ) :   1.6120 B( 18-C , 19-H ) :   1.0404
B( 18-C , 20-N ) :   0.9497 B( 20-N , 21-H ) :   1.2283 B( 20-N , 22-C ) :   0.9265
B( 20-N , 23-O ) :   0.2446 B( 22-C , 23-O ) :   0.5479

MP2 TOTAL ENERGY:     -646.048237109 Eh
FINAL SINGLE POINT ENERGY      -646.048237108782

DIPOLE MOMENT
-------------
                                X             Y             Z
Electronic contribution:     -1.00613       1.11912       4.29624
Nuclear contribution   :      1.22928      -2.87785      -3.98983
                        -----------------------------------------
Total Dipole Moment    :      0.22316      -1.75874       0.30641
                        -----------------------------------------
Magnitude (a.u.)       :      1.79912
Magnitude (Debye)      :      4.57300

Rotational constants in cm-1:     0.032478     0.029719     0.023223
Rotational constants in MHz :   973.658931   890.953093   696.216355

                             ****ORCA TERMINATED NORMALLY****
TOTAL RUN TIME: 0 days 2 hours 35 minutes 5 seconds 127 msec
