                         Program Version 5.0.4 -  RELEASE  -
|  1> ! ri-mp2 aug-cc-pvdz aug-cc-pvdz/c tightscf
|  2> %pal nprocs 16 end
|  3> %maxcore 3800
|  4> %base "DZ_S66by10_60_1.05_dimer"
|  5> %scf STABPerform true end
|  6>
|  7> *xyz 0 1
|  8> C   -0.61056257    0.22750310   -0.17060207
|  9> H    0.10738506    0.86143603   -0.63420924
| 10> C   -1.38627573   -0.52532550    0.37997353
| 11> H   -2.08070324   -1.17406739    0.85437937
| 12> C    2.96595091   -0.69987780    0.50889338
| 13> O    2.71177185    0.25622445   -0.18994437
| 14> O    2.01804629   -1.47421803    1.07657999
| 15> H    1.15704691   -1.10691904    0.80880885
| 16> C    4.34158607   -1.18132763    0.85904429
| 17> H    5.07997188   -0.54377754    0.38819397
| 18> H    4.46779658   -1.16947290    1.93907962
| 19> H    4.46386321   -2.20917218    0.52580996
| 20> *
| 21>
| 22> $new_job
| 23> ! ri-mp2 aug-cc-pvtz aug-cc-pvtz/c tightscf
| 24> %pal nprocs 16 end
| 25> %maxcore 3800
| 26> %base "TZ_S66by10_60_1.05_dimer"
| 27>
| 28> *xyz 0 1
| 29> C   -0.61056257    0.22750310   -0.17060207
| 30> H    0.10738506    0.86143603   -0.63420924
| 31> C   -1.38627573   -0.52532550    0.37997353
| 32> H   -2.08070324   -1.17406739    0.85437937
| 33> C    2.96595091   -0.69987780    0.50889338
| 34> O    2.71177185    0.25622445   -0.18994437
| 35> O    2.01804629   -1.47421803    1.07657999
| 36> H    1.15704691   -1.10691904    0.80880885
| 37> C    4.34158607   -1.18132763    0.85904429
| 38> H    5.07997188   -0.54377754    0.38819397
| 39> H    4.46779658   -1.16947290    1.93907962
| 40> H    4.46386321   -2.20917218    0.52580996
| 41> *
| 42>
| 43> $new_job
| 44> ! ri-mp2 aug-cc-pvqz aug-cc-pvqz/c tightscf
| 45> %pal nprocs 16 end
| 46> %maxcore 3800
| 47> %base "QZ_S66by10_60_1.05_dimer"
| 48>
| 49> *xyz 0 1
| 50> C   -0.61056257    0.22750310   -0.17060207
| 51> H    0.10738506    0.86143603   -0.63420924
| 52> C   -1.38627573   -0.52532550    0.37997353
| 53> H   -2.08070324   -1.17406739    0.85437937
| 54> C    2.96595091   -0.69987780    0.50889338
| 55> O    2.71177185    0.25622445   -0.18994437
| 56> O    2.01804629   -1.47421803    1.07657999
| 57> H    1.15704691   -1.10691904    0.80880885
| 58> C    4.34158607   -1.18132763    0.85904429
| 59> H    5.07997188   -0.54377754    0.38819397
| 60> H    4.46779658   -1.16947290    1.93907962
| 61> H    4.46386321   -2.20917218    0.52580996
| 62> *
| 63>
| 64>
| 65>
| 66>
| 67>                          ****END OF INPUT****
 Total Charge           Charge          ....    0
 Multiplicity           Mult            ....    1
 Number of Electrons    NEL             ....   46
MP2 TOTAL ENERGY:     -305.624100468 Eh
FINAL SINGLE POINT ENERGY      -305.624100467760
MP2 TOTAL ENERGY:     -305.894646628 Eh
FINAL SINGLE POINT ENERGY      -305.894646628221

CARTESIAN COORDINATES (ANGSTROEM)
---------------------------------
  C     -0.610563    0.227503   -0.170602
  H      0.107385    0.861436   -0.634209
  C     -1.386276   -0.525326    0.379974
  H     -2.080703   -1.174067    0.854379
  C      2.965951   -0.699878    0.508893
  O      2.711772    0.256224   -0.189944
  O      2.018046   -1.474218    1.076580
  H      1.157047   -1.106919    0.808809
  C      4.341586   -1.181328    0.859044
  H      5.079972   -0.543778    0.388194
  H      4.467797   -1.169473    1.939080
  H      4.463863   -2.209172    0.525810

 Multiplicity           Mult            ....    1
 Number of Electrons    NEL             ....   46
 Basis Dimension        Dim             ....  756

ORBITAL ENERGIES
----------------

  NO   OCC          E(Eh)            E(eV)
   0   2.0000     -20.604218      -560.6693
   1   2.0000     -20.546032      -559.0859
   2   2.0000     -11.386680      -309.8473
   3   2.0000     -11.253666      -306.2278
   4   2.0000     -11.250038      -306.1291
   5   2.0000     -11.241282      -305.8908
   6   2.0000      -1.460071       -39.7306
   7   2.0000      -1.357350       -36.9354
   8   2.0000      -1.038439       -28.2574
   9   2.0000      -1.026236       -27.9253
  10   2.0000      -0.819956       -22.3121
  11   2.0000      -0.774858       -21.0850
  12   2.0000      -0.705237       -19.1905
  13   2.0000      -0.687943       -18.7199
  14   2.0000      -0.676141       -18.3987
  15   2.0000      -0.648218       -17.6389
  16   2.0000      -0.581654       -15.8276
  17   2.0000      -0.571854       -15.5610
  18   2.0000      -0.558963       -15.2102
  19   2.0000      -0.481372       -13.0988
  20   2.0000      -0.456561       -12.4237
  21   2.0000      -0.418930       -11.3997
  22   2.0000      -0.417923       -11.3723
  23   0.0000       0.024343         0.6624
  24   0.0000       0.029081         0.7913
  25   0.0000       0.039016         1.0617
  26   0.0000       0.041521         1.1298
  27   0.0000       0.046346         1.2611

MULLIKEN ATOMIC CHARGES
-----------------------
   0 C :   -0.594504
   1 H :    0.648437
   2 C :   -0.615229
   3 H :    0.560697
   4 C :    0.884831
   5 O :   -0.740749
   6 O :   -0.626881
   7 H :    0.333346
   8 C :   -0.727172
   9 H :    0.299600
  10 H :    0.288867
  11 H :    0.288758
Sum of atomic charges:   -0.0000000

LOEWDIN ATOMIC CHARGES
----------------------
   0 C :    0.497901
   1 H :   -0.466642
   2 C :    0.524402
   3 H :   -0.461125
   4 C :   -1.033080
   5 O :    0.691488
   6 O :    1.255693
   7 H :   -0.942161
   8 C :    0.867910
   9 H :   -0.325263
  10 H :   -0.304484
  11 H :   -0.304640

  Mayer bond orders larger than 0.100000
B(  0-C ,  1-H ) :   0.5847 B(  0-C ,  2-C ) :   2.6485 B(  2-C ,  3-H ) :   0.7199
B(  4-C ,  5-O ) :   1.4952 B(  4-C ,  6-O ) :   0.9854 B(  4-C ,  8-C ) :   0.8709
B(  6-O ,  7-H ) :   0.8657 B(  8-C ,  9-H ) :   0.9657 B(  8-C , 10-H ) :   0.9229
B(  8-C , 11-H ) :   0.9236

MP2 TOTAL ENERGY:     -305.981131422 Eh
FINAL SINGLE POINT ENERGY      -305.981131421700

DIPOLE MOMENT
-------------
                                X             Y             Z
Electronic contribution:     -2.33430       1.10443      -0.80390
Nuclear contribution   :      2.40871      -1.67466       1.22033
                        -----------------------------------------
Total Dipole Moment    :      0.07441      -0.57023       0.41643
                        -----------------------------------------
Magnitude (a.u.)       :      0.71001
Magnitude (Debye)      :      1.80470

Rotational constants in cm-1:     0.301297     0.047583     0.041407
Rotational constants in MHz :  9032.665410  1426.503683  1241.335778

                             ****ORCA TERMINATED NORMALLY****
TOTAL RUN TIME: 0 days 0 hours 28 minutes 14 seconds 249 msec
