                         Program Version 5.0.4 -  RELEASE  -
|  1> ! ri-mp2 aug-cc-pvdz aug-cc-pvdz/c tightscf
|  2> %pal nprocs 16 end
|  3> %maxcore 3800
|  4> %base "DZ_S66by10_60_1.5_dimer"
|  5> %scf STABPerform true end
|  6>
|  7> *xyz 0 1
|  8> C   -0.61056257    0.22750310   -0.17060207
|  9> H    0.10738506    0.86143603   -0.63420924
| 10> C   -1.38627573   -0.52532550    0.37997353
| 11> H   -2.08070324   -1.17406739    0.85437937
| 12> C    3.89459105   -1.11261663    0.81225097
| 13> O    3.64041200   -0.15651438    0.11341323
| 14> O    2.94668644   -1.88695686    1.37993758
| 15> H    2.08568705   -1.51965787    1.11216644
| 16> C    5.27022621   -1.59406646    1.16240188
| 17> H    6.00861202   -0.95651637    0.69155156
| 18> H    5.39643672   -1.58221173    2.24243721
| 19> H    5.39250335   -2.62191101    0.82916755
| 20> *
| 21>
| 22> $new_job
| 23> ! ri-mp2 aug-cc-pvtz aug-cc-pvtz/c tightscf
| 24> %pal nprocs 16 end
| 25> %maxcore 3800
| 26> %base "TZ_S66by10_60_1.5_dimer"
| 27>
| 28> *xyz 0 1
| 29> C   -0.61056257    0.22750310   -0.17060207
| 30> H    0.10738506    0.86143603   -0.63420924
| 31> C   -1.38627573   -0.52532550    0.37997353
| 32> H   -2.08070324   -1.17406739    0.85437937
| 33> C    3.89459105   -1.11261663    0.81225097
| 34> O    3.64041200   -0.15651438    0.11341323
| 35> O    2.94668644   -1.88695686    1.37993758
| 36> H    2.08568705   -1.51965787    1.11216644
| 37> C    5.27022621   -1.59406646    1.16240188
| 38> H    6.00861202   -0.95651637    0.69155156
| 39> H    5.39643672   -1.58221173    2.24243721
| 40> H    5.39250335   -2.62191101    0.82916755
| 41> *
| 42>
| 43> $new_job
| 44> ! ri-mp2 aug-cc-pvqz aug-cc-pvqz/c tightscf
| 45> %pal nprocs 16 end
| 46> %maxcore 3800
| 47> %base "QZ_S66by10_60_1.5_dimer"
| 48>
| 49> *xyz 0 1
| 50> C   -0.61056257    0.22750310   -0.17060207
| 51> H    0.10738506    0.86143603   -0.63420924
| 52> C   -1.38627573   -0.52532550    0.37997353
| 53> H   -2.08070324   -1.17406739    0.85437937
| 54> C    3.89459105   -1.11261663    0.81225097
| 55> O    3.64041200   -0.15651438    0.11341323
| 56> O    2.94668644   -1.88695686    1.37993758
| 57> H    2.08568705   -1.51965787    1.11216644
| 58> C    5.27022621   -1.59406646    1.16240188
| 59> H    6.00861202   -0.95651637    0.69155156
| 60> H    5.39643672   -1.58221173    2.24243721
| 61> H    5.39250335   -2.62191101    0.82916755
| 62> *
| 63>
| 64>
| 65>
| 66>
| 67>                          ****END OF INPUT****
 Total Charge           Charge          ....    0
 Multiplicity           Mult            ....    1
 Number of Electrons    NEL             ....   46
MP2 TOTAL ENERGY:     -305.618949377 Eh
FINAL SINGLE POINT ENERGY      -305.618949376979
MP2 TOTAL ENERGY:     -305.889438996 Eh
FINAL SINGLE POINT ENERGY      -305.889438995603

CARTESIAN COORDINATES (ANGSTROEM)
---------------------------------
  C     -0.610563    0.227503   -0.170602
  H      0.107385    0.861436   -0.634209
  C     -1.386276   -0.525326    0.379974
  H     -2.080703   -1.174067    0.854379
  C      3.894591   -1.112617    0.812251
  O      3.640412   -0.156514    0.113413
  O      2.946686   -1.886957    1.379938
  H      2.085687   -1.519658    1.112166
  C      5.270226   -1.594066    1.162402
  H      6.008612   -0.956516    0.691552
  H      5.396437   -1.582212    2.242437
  H      5.392503   -2.621911    0.829168

 Multiplicity           Mult            ....    1
 Number of Electrons    NEL             ....   46
 Basis Dimension        Dim             ....  756

ORBITAL ENERGIES
----------------

  NO   OCC          E(Eh)            E(eV)
   0   2.0000     -20.611738      -560.8739
   1   2.0000     -20.547701      -559.1314
   2   2.0000     -11.388374      -309.8934
   3   2.0000     -11.248920      -306.0987
   4   2.0000     -11.245281      -305.9997
   5   2.0000     -11.243186      -305.9427
   6   2.0000      -1.464096       -39.8401
   7   2.0000      -1.359784       -37.0016
   8   2.0000      -1.030912       -28.0526
   9   2.0000      -1.028563       -27.9886
  10   2.0000      -0.823920       -22.4200
  11   2.0000      -0.770908       -20.9775
  12   2.0000      -0.706102       -19.2140
  13   2.0000      -0.683035       -18.5863
  14   2.0000      -0.680390       -18.5143
  15   2.0000      -0.651403       -17.7256
  16   2.0000      -0.583859       -15.8876
  17   2.0000      -0.573860       -15.6155
  18   2.0000      -0.562093       -15.2953
  19   2.0000      -0.483342       -13.1524
  20   2.0000      -0.455680       -12.3997
  21   2.0000      -0.412734       -11.2311
  22   2.0000      -0.411963       -11.2101
  23   0.0000       0.024243         0.6597
  24   0.0000       0.028800         0.7837
  25   0.0000       0.037993         1.0338
  26   0.0000       0.040896         1.1128
  27   0.0000       0.044825         1.2197

MULLIKEN ATOMIC CHARGES
-----------------------
   0 C :   -0.625421
   1 H :    0.631610
   2 C :   -0.604019
   3 H :    0.594357
   4 C :    0.882770
   5 O :   -0.713062
   6 O :   -0.678320
   7 H :    0.385812
   8 C :   -0.746298
   9 H :    0.293664
  10 H :    0.289530
  11 H :    0.289376
Sum of atomic charges:   -0.0000000

LOEWDIN ATOMIC CHARGES
----------------------
   0 C :    0.480653
   1 H :   -0.472979
   2 C :    0.482385
   3 H :   -0.480959
   4 C :   -1.038671
   5 O :    0.681728
   6 O :    1.241677
   7 H :   -0.822375
   8 C :    0.863828
   9 H :   -0.325245
  10 H :   -0.304943
  11 H :   -0.305099

  Mayer bond orders larger than 0.100000
B(  0-C ,  1-H ) :   0.6150 B(  0-C ,  2-C ) :   2.6259 B(  2-C ,  3-H ) :   0.6727
B(  4-C ,  5-O ) :   1.5441 B(  4-C ,  6-O ) :   0.9499 B(  4-C ,  8-C ) :   0.9197
B(  6-O ,  7-H ) :   0.8381 B(  8-C ,  9-H ) :   0.9629 B(  8-C , 10-H ) :   0.9184
B(  8-C , 11-H ) :   0.9191

MP2 TOTAL ENERGY:     -305.976152245 Eh
FINAL SINGLE POINT ENERGY      -305.976152244729

DIPOLE MOMENT
-------------
                                X             Y             Z
Electronic contribution:     -2.10335       0.99953      -0.72682
Nuclear contribution   :      2.25558      -1.60660       1.17031
                        -----------------------------------------
Total Dipole Moment    :      0.15224      -0.60707       0.44349
                        -----------------------------------------
Magnitude (a.u.)       :      0.76707
Magnitude (Debye)      :      1.94972

Rotational constants in cm-1:     0.297663     0.032248     0.029253
Rotational constants in MHz :  8923.724550   966.785075   876.980174

                             ****ORCA TERMINATED NORMALLY****
TOTAL RUN TIME: 0 days 0 hours 26 minutes 51 seconds 581 msec
