                         Program Version 5.0.4 -  RELEASE  -
|  1> ! ri-mp2 aug-cc-pvdz aug-cc-pvdz/c tightscf
|  2> %pal nprocs 16 end
|  3> %maxcore 3800
|  4> %base "DZ_S66by10_45_0.7_dimer"
|  5> %scf STABPerform true end
|  6>
|  7> *xyz 0 1
|  8> C   -0.60618936    0.05587406    0.58900491
|  9> H   -1.66803667    0.05577624    0.58901162
| 10> C    0.60584873    0.05554087    0.58926624
| 11> H    1.66767817    0.05486328    0.58972794
| 12> C   -2.53046054   -0.32887302    3.22827271
| 13> H   -2.53882717   -0.99082655    2.36186213
| 14> H   -2.58237887   -0.95514223    4.11886349
| 15> H   -3.43287516    0.28003104    3.19551109
| 16> C   -1.26992841    0.52572770    3.23934198
| 17> H   -1.28658008    1.19872692    4.09975110
| 18> H   -1.24466143    1.15994371    2.35054588
| 19> C   -0.00000979   -0.31260330    3.27979732
| 20> H   -0.00000706   -0.93039295    4.18285872
| 21> H    0.00005730   -1.00090246    2.43055613
| 22> C    1.26988876    0.52577277    3.23942886
| 23> H    1.28651659    1.19873989    4.09985016
| 24> H    1.24474385    1.15994509    2.35062767
| 25> C    2.53041126   -0.32886381    3.22848244
| 26> H    2.53879102   -0.99084656    2.36210337
| 27> H    3.43279003    0.28006753    3.19575608
| 28> H    2.58222849   -0.95507855    4.11911599
| 29> *
| 30>
| 31> $new_job
| 32> ! ri-mp2 aug-cc-pvtz aug-cc-pvtz/c tightscf
| 33> %pal nprocs 16 end
| 34> %maxcore 3800
| 35> %base "TZ_S66by10_45_0.7_dimer"
| 36>
| 37> *xyz 0 1
| 38> C   -0.60618936    0.05587406    0.58900491
| 39> H   -1.66803667    0.05577624    0.58901162
| 40> C    0.60584873    0.05554087    0.58926624
| 41> H    1.66767817    0.05486328    0.58972794
| 42> C   -2.53046054   -0.32887302    3.22827271
| 43> H   -2.53882717   -0.99082655    2.36186213
| 44> H   -2.58237887   -0.95514223    4.11886349
| 45> H   -3.43287516    0.28003104    3.19551109
| 46> C   -1.26992841    0.52572770    3.23934198
| 47> H   -1.28658008    1.19872692    4.09975110
| 48> H   -1.24466143    1.15994371    2.35054588
| 49> C   -0.00000979   -0.31260330    3.27979732
| 50> H   -0.00000706   -0.93039295    4.18285872
| 51> H    0.00005730   -1.00090246    2.43055613
| 52> C    1.26988876    0.52577277    3.23942886
| 53> H    1.28651659    1.19873989    4.09985016
| 54> H    1.24474385    1.15994509    2.35062767
| 55> C    2.53041126   -0.32886381    3.22848244
| 56> H    2.53879102   -0.99084656    2.36210337
| 57> H    3.43279003    0.28006753    3.19575608
| 58> H    2.58222849   -0.95507855    4.11911599
| 59> *
| 60>
| 61> $new_job
| 62> ! ri-mp2 aug-cc-pvqz aug-cc-pvqz/c tightscf
| 63> %pal nprocs 16 end
| 64> %maxcore 3800
| 65> %base "QZ_S66by10_45_0.7_dimer"
| 66>
| 67> *xyz 0 1
| 68> C   -0.60618936    0.05587406    0.58900491
| 69> H   -1.66803667    0.05577624    0.58901162
| 70> C    0.60584873    0.05554087    0.58926624
| 71> H    1.66767817    0.05486328    0.58972794
| 72> C   -2.53046054   -0.32887302    3.22827271
| 73> H   -2.53882717   -0.99082655    2.36186213
| 74> H   -2.58237887   -0.95514223    4.11886349
| 75> H   -3.43287516    0.28003104    3.19551109
| 76> C   -1.26992841    0.52572770    3.23934198
| 77> H   -1.28658008    1.19872692    4.09975110
| 78> H   -1.24466143    1.15994371    2.35054588
| 79> C   -0.00000979   -0.31260330    3.27979732
| 80> H   -0.00000706   -0.93039295    4.18285872
| 81> H    0.00005730   -1.00090246    2.43055613
| 82> C    1.26988876    0.52577277    3.23942886
| 83> H    1.28651659    1.19873989    4.09985016
| 84> H    1.24474385    1.15994509    2.35062767
| 85> C    2.53041126   -0.32886381    3.22848244
| 86> H    2.53879102   -0.99084656    2.36210337
| 87> H    3.43279003    0.28006753    3.19575608
| 88> H    2.58222849   -0.95507855    4.11911599
| 89> *
| 90>
| 91>
| 92>
| 93>
| 94>                          ****END OF INPUT****
 Total Charge           Charge          ....    0
 Multiplicity           Mult            ....    1
 Number of Electrons    NEL             ....   56
MP2 TOTAL ENERGY:     -274.186250352 Eh
FINAL SINGLE POINT ENERGY      -274.186250351653
MP2 TOTAL ENERGY:     -274.455611987 Eh
FINAL SINGLE POINT ENERGY      -274.455611987419

CARTESIAN COORDINATES (ANGSTROEM)
---------------------------------
  C     -0.606189    0.055874    0.589005
  H     -1.668037    0.055776    0.589012
  C      0.605849    0.055541    0.589266
  H      1.667678    0.054863    0.589728
  C     -2.530461   -0.328873    3.228273
  H     -2.538827   -0.990827    2.361862
  H     -2.582379   -0.955142    4.118863
  H     -3.432875    0.280031    3.195511
  C     -1.269928    0.525728    3.239342
  H     -1.286580    1.198727    4.099751
  H     -1.244661    1.159944    2.350546
  C     -0.000010   -0.312603    3.279797
  H     -0.000007   -0.930393    4.182859
  H      0.000057   -1.000902    2.430556
  C      1.269889    0.525773    3.239429
  H      1.286517    1.198740    4.099850
  H      1.244744    1.159945    2.350628
  C      2.530411   -0.328864    3.228482
  H      2.538791   -0.990847    2.362103
  H      3.432790    0.280068    3.195756
  H      2.582228   -0.955079    4.119116

 Multiplicity           Mult            ....    1
 Number of Electrons    NEL             ....   56
 Basis Dimension        Dim             .... 1204

ORBITAL ENERGIES
----------------

  NO   OCC          E(Eh)            E(eV)
   0   2.0000     -11.236057      -305.7487
   1   2.0000     -11.232432      -305.6500
   2   2.0000     -11.208779      -305.0064
   3   2.0000     -11.208775      -305.0063
   4   2.0000     -11.206824      -304.9532
   5   2.0000     -11.206815      -304.9529
   6   2.0000     -11.197192      -304.6911
   7   2.0000      -1.085428       -29.5360
   8   2.0000      -1.024103       -27.8672
   9   2.0000      -1.017486       -27.6872
  10   2.0000      -0.919171       -25.0119
  11   2.0000      -0.822011       -22.3680
  12   2.0000      -0.783541       -21.3212
  13   2.0000      -0.772246       -21.0139
  14   2.0000      -0.688265       -18.7287
  15   2.0000      -0.643552       -17.5119
  16   2.0000      -0.598905       -16.2970
  17   2.0000      -0.590985       -16.0815
  18   2.0000      -0.553369       -15.0579
  19   2.0000      -0.550015       -14.9667
  20   2.0000      -0.529726       -14.4146
  21   2.0000      -0.495181       -13.4746
  22   2.0000      -0.478913       -13.0319
  23   2.0000      -0.473250       -12.8778
  24   2.0000      -0.461197       -12.5498
  25   2.0000      -0.444958       -12.1079
  26   2.0000      -0.391242       -10.6462
  27   2.0000      -0.385856       -10.4997
  28   0.0000       0.026405         0.7185
  29   0.0000       0.027567         0.7501
  30   0.0000       0.033160         0.9023
  31   0.0000       0.034450         0.9374
  32   0.0000       0.041681         1.1342

MULLIKEN ATOMIC CHARGES
-----------------------
   0 C :   -0.536868
   1 H :    0.410627
   2 C :   -0.536532
   3 H :    0.410958
   4 C :   -0.958656
   5 H :    0.212274
   6 H :    0.239545
   7 H :    0.252959
   8 C :   -0.420170
   9 H :    0.281376
  10 H :    0.251165
  11 C :   -0.074613
  12 H :    0.320943
  13 H :    0.288449
  14 C :   -0.420112
  15 H :    0.281360
  16 H :    0.251043
  17 C :   -0.958543
  18 H :    0.212343
  19 H :    0.252942
  20 H :    0.239510
Sum of atomic charges:   -0.0000000

LOEWDIN ATOMIC CHARGES
----------------------
   0 C :    0.565624
   1 H :   -0.392953
   2 C :    0.565562
   3 H :   -0.393023
   4 C :    0.936102
   5 H :   -0.305814
   6 H :   -0.275852
   7 H :   -0.271991
   8 C :    0.485505
   9 H :   -0.254506
  10 H :   -0.380385
  11 C :    0.454960
  12 H :   -0.252092
  13 H :   -0.414281
  14 C :    0.485528
  15 H :   -0.254508
  16 H :   -0.380337
  17 C :    0.936125
  18 H :   -0.305828
  19 H :   -0.271995
  20 H :   -0.275841

  Mayer bond orders larger than 0.100000
B(  0-C ,  1-H ) :   0.8877 B(  0-C ,  2-C ) :   2.6555 B(  2-C ,  3-H ) :   0.8873
B(  4-C ,  5-H ) :   0.9807 B(  4-C ,  6-H ) :   0.9929 B(  4-C ,  7-H ) :   1.0276
B(  4-C ,  8-C ) :   0.9007 B(  8-C ,  9-H ) :   0.9073 B(  8-C , 10-H ) :   0.9239
B(  8-C , 11-C ) :   0.7447 B( 11-C , 12-H ) :   0.9054 B( 11-C , 13-H ) :   0.8779
B( 11-C , 14-C ) :   0.7445 B( 14-C , 15-H ) :   0.9073 B( 14-C , 16-H ) :   0.9240
B( 14-C , 17-C ) :   0.9007 B( 17-C , 18-H ) :   0.9807 B( 17-C , 19-H ) :   1.0276
B( 17-C , 20-H ) :   0.9929

MP2 TOTAL ENERGY:     -274.535234722 Eh
FINAL SINGLE POINT ENERGY      -274.535234721606

DIPOLE MOMENT
-------------
                                X             Y             Z
Electronic contribution:     -0.00027       0.69690      -4.12888
Nuclear contribution   :      0.00026      -0.65894       4.22472
                        -----------------------------------------
Total Dipole Moment    :     -0.00001       0.03796       0.09584
                        -----------------------------------------
Magnitude (a.u.)       :      0.10309
Magnitude (Debye)      :      0.26203

Rotational constants in cm-1:     0.102544     0.059044     0.041504
Rotational constants in MHz :  3074.201201  1770.106905  1244.267393

                             ****ORCA TERMINATED NORMALLY****
TOTAL RUN TIME: 0 days 4 hours 21 minutes 9 seconds 614 msec
