                         Program Version 5.0.4 -  RELEASE  -
|  1> ! ri-mp2 aug-cc-pvdz aug-cc-pvdz/c tightscf
|  2> %pal nprocs 16 end
|  3> %maxcore 3800
|  4> %base "DZ_S66by10_49_0.7_dimer"
|  5>
|  6> *xyz 0 1
|  7> C    0.84507720    1.05791869    0.69945490
|  8> H    1.50640601    1.90322178    0.83338235
|  9> C    1.37550931   -0.21745534    0.51116093
| 10> H    2.44718367   -0.36147258    0.50285232
| 11> C    0.52406810   -1.30704432    0.33319233
| 12> H    0.93572726   -2.29602641    0.18492305
| 13> C   -0.85771573   -1.12146341    0.34638409
| 14> H   -1.51838119   -1.96645805    0.20836325
| 15> C   -1.38804570    0.15363438    0.53761349
| 16> H   -2.45971752    0.29741587    0.55003229
| 17> C   -0.53661315    1.24342221    0.71273882
| 18> H   -0.94892427    2.23280628    0.85736635
| 19> N    0.03569439    0.55480002    5.77687439
| 20> C    0.19037822    1.49276163    4.83199751
| 21> H    0.33214904    2.50528763    5.18989924
| 22> C    0.17616895    1.22547186    3.46549808
| 23> H    0.30640901    2.02649766    2.75161266
| 24> C   -0.00816936   -0.08615782    3.04020764
| 25> H   -0.02473582   -0.32927649    1.98685971
| 26> C   -0.17001829   -1.07119215    4.00906673
| 27> H   -0.31656131   -2.10640312    3.73429522
| 28> C   -0.14081582   -0.70385905    5.35215624
| 29> H   -0.26441195   -1.45137302    6.12625724
| 30> *
| 31>
| 32> $new_job
| 33> ! ri-mp2 aug-cc-pvtz aug-cc-pvtz/c tightscf
| 34> %pal nprocs 16 end
| 35> %maxcore 3800
| 36> %base "TZ_S66by10_49_0.7_dimer"
| 37>
| 38> *xyz 0 1
| 39> C    0.84507720    1.05791869    0.69945490
| 40> H    1.50640601    1.90322178    0.83338235
| 41> C    1.37550931   -0.21745534    0.51116093
| 42> H    2.44718367   -0.36147258    0.50285232
| 43> C    0.52406810   -1.30704432    0.33319233
| 44> H    0.93572726   -2.29602641    0.18492305
| 45> C   -0.85771573   -1.12146341    0.34638409
| 46> H   -1.51838119   -1.96645805    0.20836325
| 47> C   -1.38804570    0.15363438    0.53761349
| 48> H   -2.45971752    0.29741587    0.55003229
| 49> C   -0.53661315    1.24342221    0.71273882
| 50> H   -0.94892427    2.23280628    0.85736635
| 51> N    0.03569439    0.55480002    5.77687439
| 52> C    0.19037822    1.49276163    4.83199751
| 53> H    0.33214904    2.50528763    5.18989924
| 54> C    0.17616895    1.22547186    3.46549808
| 55> H    0.30640901    2.02649766    2.75161266
| 56> C   -0.00816936   -0.08615782    3.04020764
| 57> H   -0.02473582   -0.32927649    1.98685971
| 58> C   -0.17001829   -1.07119215    4.00906673
| 59> H   -0.31656131   -2.10640312    3.73429522
| 60> C   -0.14081582   -0.70385905    5.35215624
| 61> H   -0.26441195   -1.45137302    6.12625724
| 62> *
| 63>
| 64> $new_job
| 65> ! ri-mp2 aug-cc-pvqz aug-cc-pvqz/c tightscf
| 66> %pal nprocs 16 end
| 67> %maxcore 3800
| 68> %base "QZ_S66by10_49_0.7_dimer"
| 69>
| 70> *xyz 0 1
| 71> C    0.84507720    1.05791869    0.69945490
| 72> H    1.50640601    1.90322178    0.83338235
| 73> C    1.37550931   -0.21745534    0.51116093
| 74> H    2.44718367   -0.36147258    0.50285232
| 75> C    0.52406810   -1.30704432    0.33319233
| 76> H    0.93572726   -2.29602641    0.18492305
| 77> C   -0.85771573   -1.12146341    0.34638409
| 78> H   -1.51838119   -1.96645805    0.20836325
| 79> C   -1.38804570    0.15363438    0.53761349
| 80> H   -2.45971752    0.29741587    0.55003229
| 81> C   -0.53661315    1.24342221    0.71273882
| 82> H   -0.94892427    2.23280628    0.85736635
| 83> N    0.03569439    0.55480002    5.77687439
| 84> C    0.19037822    1.49276163    4.83199751
| 85> H    0.33214904    2.50528763    5.18989924
| 86> C    0.17616895    1.22547186    3.46549808
| 87> H    0.30640901    2.02649766    2.75161266
| 88> C   -0.00816936   -0.08615782    3.04020764
| 89> H   -0.02473582   -0.32927649    1.98685971
| 90> C   -0.17001829   -1.07119215    4.00906673
| 91> H   -0.31656131   -2.10640312    3.73429522
| 92> C   -0.14081582   -0.70385905    5.35215624
| 93> H   -0.26441195   -1.45137302    6.12625724
| 94> *
| 95>
| 96>
| 97>
| 98>
| 99>                          ****END OF INPUT****
 Total Charge           Charge          ....    0
 Multiplicity           Mult            ....    1
 Number of Electrons    NEL             ....   84
MP2 TOTAL ENERGY:     -479.078530761 Eh
FINAL SINGLE POINT ENERGY      -479.078530761275
MP2 TOTAL ENERGY:     -479.496792580 Eh
FINAL SINGLE POINT ENERGY      -479.496792579629

CARTESIAN COORDINATES (ANGSTROEM)
---------------------------------
  C      0.845077    1.057919    0.699455
  H      1.506406    1.903222    0.833382
  C      1.375509   -0.217455    0.511161
  H      2.447184   -0.361473    0.502852
  C      0.524068   -1.307044    0.333192
  H      0.935727   -2.296026    0.184923
  C     -0.857716   -1.121463    0.346384
  H     -1.518381   -1.966458    0.208363
  C     -1.388046    0.153634    0.537613
  H     -2.459718    0.297416    0.550032
  C     -0.536613    1.243422    0.712739
  H     -0.948924    2.232806    0.857366
  N      0.035694    0.554800    5.776874
  C      0.190378    1.492762    4.831998
  H      0.332149    2.505288    5.189899
  C      0.176169    1.225472    3.465498
  H      0.306409    2.026498    2.751613
  C     -0.008169   -0.086158    3.040208
  H     -0.024736   -0.329276    1.986860
  C     -0.170018   -1.071192    4.009067
  H     -0.316561   -2.106403    3.734295
  C     -0.140816   -0.703859    5.352156
  H     -0.264412   -1.451373    6.126257

 Multiplicity           Mult            ....    1
 Number of Electrons    NEL             ....   84
 Basis Dimension        Dim             .... 1466

ORBITAL ENERGIES
----------------

  NO   OCC          E(Eh)            E(eV)
   0   2.0000     -15.547873      -423.0791
   1   2.0000     -11.260851      -306.4233
   2   2.0000     -11.260407      -306.4112
   3   2.0000     -11.249230      -306.1071
   4   2.0000     -11.248734      -306.0936
   5   2.0000     -11.248439      -306.0856
   6   2.0000     -11.247434      -306.0582
   7   2.0000     -11.247247      -306.0531
   8   2.0000     -11.246645      -306.0368
   9   2.0000     -11.227828      -305.5247
  10   2.0000     -11.221435      -305.3508
  11   2.0000     -11.219407      -305.2956
  12   2.0000      -1.240903       -33.7667
  13   2.0000      -1.177897       -32.0522
  14   2.0000      -1.071387       -29.1539
  15   2.0000      -1.035487       -28.1770
  16   2.0000      -1.032772       -28.1032
  17   2.0000      -1.016432       -27.6585
  18   2.0000      -0.847316       -23.0566
  19   2.0000      -0.846150       -23.0249
  20   2.0000      -0.840241       -22.8641
  21   2.0000      -0.835502       -22.7352
  22   2.0000      -0.736461       -20.0401
  23   2.0000      -0.710835       -19.3428
  24   2.0000      -0.659181       -17.9372
  25   2.0000      -0.645876       -17.5752
  26   2.0000      -0.642781       -17.4910
  27   2.0000      -0.632321       -17.2063
  28   2.0000      -0.606427       -16.5017
  29   2.0000      -0.605226       -16.4690
  30   2.0000      -0.591275       -16.0894
  31   2.0000      -0.582069       -15.8389
  32   2.0000      -0.527431       -14.3521
  33   2.0000      -0.510799       -13.8996
  34   2.0000      -0.510277       -13.8853
  35   2.0000      -0.503474       -13.7002
  36   2.0000      -0.463242       -12.6055
  37   2.0000      -0.404350       -11.0029
  38   2.0000      -0.388524       -10.5723
  39   2.0000      -0.353640        -9.6230
  40   2.0000      -0.338469        -9.2102
  41   2.0000      -0.331789        -9.0285
  42   0.0000       0.019318         0.5257
  43   0.0000       0.024661         0.6710
  44   0.0000       0.027604         0.7511
  45   0.0000       0.033719         0.9175
  46   0.0000       0.038228         1.0402

MULLIKEN ATOMIC CHARGES
-----------------------
   0 C :   -0.220195
   1 H :    0.304510
   2 C :   -0.535673
   3 H :    0.233471
   4 C :   -0.381877
   5 H :    0.246841
   6 C :   -0.405248
   7 H :    0.247392
   8 C :   -0.518205
   9 H :    0.240742
  10 C :   -0.240442
  11 H :    0.296253
  12 N :   -0.819878
  13 C :   -0.327504
  14 H :    0.441118
  15 C :   -0.403150
  16 H :    0.294294
  17 C :    0.384891
  18 H :    1.616601
  19 C :   -0.897058
  20 H :    0.191495
  21 C :   -0.210956
  22 H :    0.462577
Sum of atomic charges:   -0.0000000

LOEWDIN ATOMIC CHARGES
----------------------
   0 C :    0.318446
   1 H :   -0.281103
   2 C :    0.377121
   3 H :   -0.287837
   4 C :    0.370177
   5 H :   -0.293434
   6 C :    0.369237
   7 H :   -0.293426
   8 C :    0.375450
   9 H :   -0.287781
  10 C :    0.317542
  11 H :   -0.280978
  12 N :    0.586765
  13 C :    0.101489
  14 H :   -0.353688
  15 C :    0.359022
  16 H :   -0.407361
  17 C :    0.290440
  18 H :   -0.767169
  19 C :    0.386249
  20 H :   -0.318113
  21 C :    0.077092
  22 H :   -0.358139

  Mayer bond orders larger than 0.100000
B(  0-C ,  1-H ) :   1.0319 B(  0-C ,  2-C ) :   1.2799 B(  0-C ,  6-C ) :   0.1480
B(  0-C , 10-C ) :   1.2552 B(  0-C , 18-H ) :  -0.3240 B(  2-C ,  3-H ) :   1.1326
B(  2-C ,  4-C ) :   1.3389 B(  2-C ,  6-C ) :   0.1125 B(  2-C ,  8-C ) :   0.1921
B(  2-C , 18-H ) :  -0.3631 B(  4-C ,  5-H ) :   1.1351 B(  4-C ,  6-C ) :   1.2534
B(  4-C , 10-C ) :   0.1651 B(  4-C , 18-H ) :  -0.2682 B(  6-C ,  7-H ) :   1.1362
B(  6-C ,  8-C ) :   1.3317 B(  6-C , 18-H ) :  -0.2626 B(  8-C ,  9-H ) :   1.1198
B(  8-C , 10-C ) :   1.2883 B(  8-C , 18-H ) :  -0.3313 B( 10-C , 11-H ) :   1.0387
B( 10-C , 18-H ) :  -0.3219 B( 12-N , 13-C ) :   1.0455 B( 12-N , 14-H ) :  -0.1612
B( 12-N , 19-C ) :   0.1170 B( 12-N , 21-C ) :   1.1309 B( 12-N , 22-H ) :  -0.1510
B( 13-C , 14-H ) :   0.9687 B( 13-C , 15-C ) :   1.3214 B( 13-C , 17-C ) :  -0.3762
B( 13-C , 19-C ) :   0.2340 B( 13-C , 21-C ) :   0.1011 B( 14-H , 15-C ) :  -0.1552
B( 15-C , 16-H ) :   1.0119 B( 15-C , 17-C ) :   1.0642 B( 15-C , 18-H ) :  -0.3148
B( 17-C , 19-C ) :   0.7217 B( 17-C , 21-C ) :  -0.4877 B( 18-H , 19-C ) :  -0.2103
B( 19-C , 20-H ) :   1.1474 B( 19-C , 21-C ) :   1.4551 B( 19-C , 22-H ) :  -0.1657
B( 21-C , 22-H ) :   0.9296

MP2 TOTAL ENERGY:     -479.628597694 Eh
FINAL SINGLE POINT ENERGY      -479.628597693658

DIPOLE MOMENT
-------------
                                X             Y             Z
Electronic contribution:      0.02691       0.41156       2.80789
Nuclear contribution   :     -0.04462      -0.63666      -4.09743
                        -----------------------------------------
Total Dipole Moment    :     -0.01772      -0.22510      -1.28953
                        -----------------------------------------
Magnitude (a.u.)       :      1.30915
Magnitude (Debye)      :      3.32760

Rotational constants in cm-1:     0.065988     0.021624     0.019649
Rotational constants in MHz :  1978.283590   648.269961   589.074080

                             ****ORCA TERMINATED NORMALLY****
TOTAL RUN TIME: 0 days 1 hours 39 minutes 9 seconds 869 msec
