                         Program Version 5.0.4 -  RELEASE  -
|  1> ! ri-mp2 aug-cc-pvdz aug-cc-pvdz/c tightscf
|  2> %pal nprocs 16 end
|  3> %maxcore 3800
|  4> %base "DZ_S66by10_25_0.95_dimer"
|  5>
|  6> *xyz 0 1
|  7> N    1.57248145    0.25454916   -0.25648131
|  8> C    0.96935990   -0.90316032    0.04452614
|  9> H    1.61363891   -1.77218121    0.10234520
| 10> C   -0.39815811   -1.02881911    0.28096043
| 11> H   -0.81842477   -1.99173710    0.53356364
| 12> C   -1.19580525    0.10655779    0.19539732
| 13> H   -2.26068964    0.04953865    0.37344280
| 14> C   -0.58712829    1.31741239   -0.12010544
| 15> H   -1.16181223    2.22950003   -0.20046257
| 16> C    0.78854733    1.33970567   -0.33224053
| 17> H    1.28843202    2.26879436   -0.57852690
| 18> N   -0.50364082   -1.49033600    3.58155983
| 19> C   -1.43611891   -0.52970654    3.65541099
| 20> H   -2.43890816   -0.86066134    3.89760385
| 21> C   -1.17411588    0.82136188    3.44603160
| 22> H   -1.97267363    1.54586732    3.52430270
| 23> C    0.12531146    1.21060316    3.13576320
| 24> H    0.36729601    2.24960165    2.95989194
| 25> C    1.10487076    0.22770501    3.05240173
| 26> H    2.12717200    0.47445076    2.80396475
| 27> C    0.74239104   -1.09743275    3.28559473
| 28> H    1.48625181   -1.88298738    3.22914613
| 29> *
| 30>
| 31> $new_job
| 32> ! ri-mp2 aug-cc-pvtz aug-cc-pvtz/c tightscf
| 33> %pal nprocs 16 end
| 34> %maxcore 3800
| 35> %base "TZ_S66by10_25_0.95_dimer"
| 36>
| 37> *xyz 0 1
| 38> N    1.57248145    0.25454916   -0.25648131
| 39> C    0.96935990   -0.90316032    0.04452614
| 40> H    1.61363891   -1.77218121    0.10234520
| 41> C   -0.39815811   -1.02881911    0.28096043
| 42> H   -0.81842477   -1.99173710    0.53356364
| 43> C   -1.19580525    0.10655779    0.19539732
| 44> H   -2.26068964    0.04953865    0.37344280
| 45> C   -0.58712829    1.31741239   -0.12010544
| 46> H   -1.16181223    2.22950003   -0.20046257
| 47> C    0.78854733    1.33970567   -0.33224053
| 48> H    1.28843202    2.26879436   -0.57852690
| 49> N   -0.50364082   -1.49033600    3.58155983
| 50> C   -1.43611891   -0.52970654    3.65541099
| 51> H   -2.43890816   -0.86066134    3.89760385
| 52> C   -1.17411588    0.82136188    3.44603160
| 53> H   -1.97267363    1.54586732    3.52430270
| 54> C    0.12531146    1.21060316    3.13576320
| 55> H    0.36729601    2.24960165    2.95989194
| 56> C    1.10487076    0.22770501    3.05240173
| 57> H    2.12717200    0.47445076    2.80396475
| 58> C    0.74239104   -1.09743275    3.28559473
| 59> H    1.48625181   -1.88298738    3.22914613
| 60> *
| 61>
| 62> $new_job
| 63> ! ri-mp2 aug-cc-pvqz aug-cc-pvqz/c tightscf
| 64> %pal nprocs 16 end
| 65> %maxcore 3800
| 66> %base "QZ_S66by10_25_0.95_dimer"
| 67>
| 68> *xyz 0 1
| 69> N    1.57248145    0.25454916   -0.25648131
| 70> C    0.96935990   -0.90316032    0.04452614
| 71> H    1.61363891   -1.77218121    0.10234520
| 72> C   -0.39815811   -1.02881911    0.28096043
| 73> H   -0.81842477   -1.99173710    0.53356364
| 74> C   -1.19580525    0.10655779    0.19539732
| 75> H   -2.26068964    0.04953865    0.37344280
| 76> C   -0.58712829    1.31741239   -0.12010544
| 77> H   -1.16181223    2.22950003   -0.20046257
| 78> C    0.78854733    1.33970567   -0.33224053
| 79> H    1.28843202    2.26879436   -0.57852690
| 80> N   -0.50364082   -1.49033600    3.58155983
| 81> C   -1.43611891   -0.52970654    3.65541099
| 82> H   -2.43890816   -0.86066134    3.89760385
| 83> C   -1.17411588    0.82136188    3.44603160
| 84> H   -1.97267363    1.54586732    3.52430270
| 85> C    0.12531146    1.21060316    3.13576320
| 86> H    0.36729601    2.24960165    2.95989194
| 87> C    1.10487076    0.22770501    3.05240173
| 88> H    2.12717200    0.47445076    2.80396475
| 89> C    0.74239104   -1.09743275    3.28559473
| 90> H    1.48625181   -1.88298738    3.22914613
| 91> *
| 92>
| 93>
| 94>
| 95>
| 96>                          ****END OF INPUT****
 Total Charge           Charge          ....    0
 Multiplicity           Mult            ....    1
 Number of Electrons    NEL             ....   84
MP2 TOTAL ENERGY:     -495.140836195 Eh
FINAL SINGLE POINT ENERGY      -495.140836195088
MP2 TOTAL ENERGY:     -495.566796560 Eh
FINAL SINGLE POINT ENERGY      -495.566796560474

CARTESIAN COORDINATES (ANGSTROEM)
---------------------------------
  N      1.572481    0.254549   -0.256481
  C      0.969360   -0.903160    0.044526
  H      1.613639   -1.772181    0.102345
  C     -0.398158   -1.028819    0.280960
  H     -0.818425   -1.991737    0.533564
  C     -1.195805    0.106558    0.195397
  H     -2.260690    0.049539    0.373443
  C     -0.587128    1.317412   -0.120105
  H     -1.161812    2.229500   -0.200463
  C      0.788547    1.339706   -0.332241
  H      1.288432    2.268794   -0.578527
  N     -0.503641   -1.490336    3.581560
  C     -1.436119   -0.529707    3.655411
  H     -2.438908   -0.860661    3.897604
  C     -1.174116    0.821362    3.446032
  H     -1.972674    1.545867    3.524303
  C      0.125311    1.210603    3.135763
  H      0.367296    2.249602    2.959892
  C      1.104871    0.227705    3.052402
  H      2.127172    0.474451    2.803965
  C      0.742391   -1.097433    3.285595
  H      1.486252   -1.882987    3.229146

 Multiplicity           Mult            ....    1
 Number of Electrons    NEL             ....   84
 Basis Dimension        Dim             .... 1420

ORBITAL ENERGIES
----------------

  NO   OCC          E(Eh)            E(eV)
   0   2.0000     -15.562137      -423.4673
   1   2.0000     -15.562069      -423.4654
   2   2.0000     -11.271752      -306.7200
   3   2.0000     -11.271698      -306.7185
   4   2.0000     -11.271612      -306.7161
   5   2.0000     -11.271545      -306.7143
   6   2.0000     -11.255746      -306.2844
   7   2.0000     -11.255683      -306.2827
   8   2.0000     -11.238504      -305.8152
   9   2.0000     -11.238420      -305.8129
  10   2.0000     -11.236720      -305.7667
  11   2.0000     -11.236613      -305.7638
  12   2.0000      -1.255660       -34.1682
  13   2.0000      -1.252686       -34.0873
  14   2.0000      -1.089047       -29.6345
  15   2.0000      -1.084983       -29.5239
  16   2.0000      -1.033071       -28.1113
  17   2.0000      -1.029270       -28.0079
  18   2.0000      -0.857118       -23.3234
  19   2.0000      -0.857022       -23.3208
  20   2.0000      -0.853806       -23.2333
  21   2.0000      -0.853133       -23.2149
  22   2.0000      -0.721961       -19.6456
  23   2.0000      -0.717957       -19.5366
  24   2.0000      -0.658541       -17.9198
  25   2.0000      -0.657478       -17.8909
  26   2.0000      -0.652567       -17.7573
  27   2.0000      -0.651571       -17.7302
  28   2.0000      -0.597245       -16.2518
  29   2.0000      -0.595003       -16.1908
  30   2.0000      -0.575191       -15.6517
  31   2.0000      -0.574612       -15.6360
  32   2.0000      -0.561096       -15.2682
  33   2.0000      -0.521075       -14.1792
  34   2.0000      -0.518182       -14.1004
  35   2.0000      -0.516665       -14.0592
  36   2.0000      -0.419017       -11.4020
  37   2.0000      -0.417655       -11.3650
  38   2.0000      -0.390779       -10.6336
  39   2.0000      -0.377508       -10.2725
  40   2.0000      -0.353037        -9.6066
  41   2.0000      -0.331107        -9.0099
  42   0.0000       0.020706         0.5634
  43   0.0000       0.027641         0.7521
  44   0.0000       0.030446         0.8285
  45   0.0000       0.034221         0.9312
  46   0.0000       0.038918         1.0590

MULLIKEN ATOMIC CHARGES
-----------------------
   0 N :   -0.811011
   1 C :   -0.097383
   2 H :    0.428274
   3 C :   -0.170072
   4 H :    0.255402
   5 C :   -0.290525
   6 H :    0.309056
   7 C :   -0.200129
   8 H :    0.299693
   9 C :   -0.179339
  10 H :    0.456491
  11 N :   -0.811794
  12 C :   -0.178215
  13 H :    0.456284
  14 C :   -0.196594
  15 H :    0.300292
  16 C :   -0.295278
  17 H :    0.308951
  18 C :   -0.169830
  19 H :    0.255080
  20 C :   -0.097672
  21 H :    0.428318
Sum of atomic charges:    0.0000000

LOEWDIN ATOMIC CHARGES
----------------------
   0 N :    0.596072
   1 C :    0.047110
   2 H :   -0.341892
   3 C :    0.302116
   4 H :   -0.315569
   5 C :    0.307606
   6 H :   -0.301478
   7 C :    0.314702
   8 H :   -0.320728
   9 C :    0.061498
  10 H :   -0.349846
  11 N :    0.595970
  12 C :    0.061217
  13 H :   -0.349660
  14 C :    0.314388
  15 H :   -0.320548
  16 C :    0.307945
  17 H :   -0.301377
  18 C :    0.302621
  19 H :   -0.315314
  20 C :    0.047041
  21 H :   -0.341873

  Mayer bond orders larger than 0.100000
B(  0-N ,  1-C ) :   1.0523 B(  0-N ,  2-H ) :  -0.1557 B(  0-N ,  7-C ) :   0.1030
B(  0-N ,  9-C ) :   1.1517 B(  0-N , 10-H ) :  -0.1441 B(  1-C ,  2-H ) :   0.9569
B(  1-C ,  3-C ) :   1.0887 B(  2-H ,  3-C ) :  -0.1284 B(  3-C ,  4-H ) :   1.0672
B(  3-C ,  5-C ) :   1.1529 B(  3-C ,  9-C ) :   0.1250 B(  5-C ,  6-H ) :   0.9841
B(  5-C ,  7-C ) :   1.1532 B(  7-C ,  8-H ) :   1.0323 B(  7-C ,  9-C ) :   1.2256
B(  9-C , 10-H ) :   0.9061 B( 11-N , 12-C ) :   1.1499 B( 11-N , 13-H ) :  -0.1443
B( 11-N , 14-C ) :   0.1033 B( 11-N , 20-C ) :   1.0514 B( 11-N , 21-H ) :  -0.1559
B( 12-C , 13-H ) :   0.9066 B( 12-C , 14-C ) :   1.2248 B( 12-C , 18-C ) :   0.1246
B( 14-C , 15-H ) :   1.0320 B( 14-C , 16-C ) :   1.1521 B( 16-C , 17-H ) :   0.9839
B( 16-C , 18-C ) :   1.1535 B( 18-C , 19-H ) :   1.0681 B( 18-C , 20-C ) :   1.0910
B( 18-C , 21-H ) :  -0.1281 B( 20-C , 21-H ) :   0.9569

MP2 TOTAL ENERGY:     -495.702837223 Eh
FINAL SINGLE POINT ENERGY      -495.702837222624

DIPOLE MOMENT
-------------
                                X             Y             Z
Electronic contribution:      1.02911      -1.22790      -0.00129
Nuclear contribution   :     -1.68087       2.00584       0.00438
                        -----------------------------------------
Total Dipole Moment    :     -0.65177       0.77795       0.00309
                        -----------------------------------------
Magnitude (a.u.)       :      1.01489
Magnitude (Debye)      :      2.57965

Rotational constants in cm-1:     0.054853     0.026456     0.025251
Rotational constants in MHz :  1644.448229   793.139198   756.999935

                             ****ORCA TERMINATED NORMALLY****
TOTAL RUN TIME: 0 days 1 hours 32 minutes 14 seconds 703 msec
