                         Program Version 5.0.4 -  RELEASE  -
|  1> ! ri-mp2 aug-cc-pvdz aug-cc-pvdz/c tightscf
|  2> %pal nprocs 16 end
|  3> %maxcore 3800
|  4> %base "DZ_S66by10_31_1.05_dimer"
|  5> %scf STABPerform true end
|  6>
|  7> *xyz 0 1
|  8> N   -0.05087365   -0.98008127    0.03396219
|  9> H   -0.05322205   -1.99069374    0.04982167
| 10> C   -1.30881316   -0.36187638    0.00402596
| 11> O   -2.32722000   -1.03255492   -0.00582886
| 12> C   -1.23681849    1.08804829   -0.01222440
| 13> H   -2.15273897    1.65146044   -0.05477443
| 14> C   -0.03519433    1.69783584    0.03370483
| 15> H    0.07036636    2.77247575    0.03188224
| 16> N    1.13452913    0.99028251    0.09184461
| 17> H    2.02372032    1.45677218    0.15569277
| 18> C    1.19318599   -0.39183287    0.11577512
| 19> O    2.23639797   -1.01118826    0.19418562
| 20> C    0.73049615    0.03076642    3.56570752
| 21> H    1.24761389   -0.84022147    3.18848093
| 22> H    1.33610716    0.81776046    3.99302185
| 23> C   -0.59828035    0.13135687    3.51646059
| 24> H   -1.21028323   -0.65612272    3.09955987
| 25> H   -1.11010534    1.00242646    3.90046036
| 26> *
| 27>
| 28> $new_job
| 29> ! ri-mp2 aug-cc-pvtz aug-cc-pvtz/c tightscf
| 30> %pal nprocs 16 end
| 31> %maxcore 3800
| 32> %base "TZ_S66by10_31_1.05_dimer"
| 33>
| 34> *xyz 0 1
| 35> N   -0.05087365   -0.98008127    0.03396219
| 36> H   -0.05322205   -1.99069374    0.04982167
| 37> C   -1.30881316   -0.36187638    0.00402596
| 38> O   -2.32722000   -1.03255492   -0.00582886
| 39> C   -1.23681849    1.08804829   -0.01222440
| 40> H   -2.15273897    1.65146044   -0.05477443
| 41> C   -0.03519433    1.69783584    0.03370483
| 42> H    0.07036636    2.77247575    0.03188224
| 43> N    1.13452913    0.99028251    0.09184461
| 44> H    2.02372032    1.45677218    0.15569277
| 45> C    1.19318599   -0.39183287    0.11577512
| 46> O    2.23639797   -1.01118826    0.19418562
| 47> C    0.73049615    0.03076642    3.56570752
| 48> H    1.24761389   -0.84022147    3.18848093
| 49> H    1.33610716    0.81776046    3.99302185
| 50> C   -0.59828035    0.13135687    3.51646059
| 51> H   -1.21028323   -0.65612272    3.09955987
| 52> H   -1.11010534    1.00242646    3.90046036
| 53> *
| 54>
| 55> $new_job
| 56> ! ri-mp2 aug-cc-pvqz aug-cc-pvqz/c tightscf
| 57> %pal nprocs 16 end
| 58> %maxcore 3800
| 59> %base "QZ_S66by10_31_1.05_dimer"
| 60>
| 61> *xyz 0 1
| 62> N   -0.05087365   -0.98008127    0.03396219
| 63> H   -0.05322205   -1.99069374    0.04982167
| 64> C   -1.30881316   -0.36187638    0.00402596
| 65> O   -2.32722000   -1.03255492   -0.00582886
| 66> C   -1.23681849    1.08804829   -0.01222440
| 67> H   -2.15273897    1.65146044   -0.05477443
| 68> C   -0.03519433    1.69783584    0.03370483
| 69> H    0.07036636    2.77247575    0.03188224
| 70> N    1.13452913    0.99028251    0.09184461
| 71> H    2.02372032    1.45677218    0.15569277
| 72> C    1.19318599   -0.39183287    0.11577512
| 73> O    2.23639797   -1.01118826    0.19418562
| 74> C    0.73049615    0.03076642    3.56570752
| 75> H    1.24761389   -0.84022147    3.18848093
| 76> H    1.33610716    0.81776046    3.99302185
| 77> C   -0.59828035    0.13135687    3.51646059
| 78> H   -1.21028323   -0.65612272    3.09955987
| 79> H   -1.11010534    1.00242646    3.90046036
| 80> *
| 81>
| 82>
| 83>
| 84>
| 85>                          ****END OF INPUT****
 Total Charge           Charge          ....    0
 Multiplicity           Mult            ....    1
 Number of Electrons    NEL             ....   74
MP2 TOTAL ENERGY:     -492.113980301 Eh
FINAL SINGLE POINT ENERGY      -492.113980300912
MP2 TOTAL ENERGY:     -492.536858891 Eh
FINAL SINGLE POINT ENERGY      -492.536858890725

CARTESIAN COORDINATES (ANGSTROEM)
---------------------------------
  N     -0.050874   -0.980081    0.033962
  H     -0.053222   -1.990694    0.049822
  C     -1.308813   -0.361876    0.004026
  O     -2.327220   -1.032555   -0.005829
  C     -1.236818    1.088048   -0.012224
  H     -2.152739    1.651460   -0.054774
  C     -0.035194    1.697836    0.033705
  H      0.070366    2.772476    0.031882
  N      1.134529    0.990283    0.091845
  H      2.023720    1.456772    0.155693
  C      1.193186   -0.391833    0.115775
  O      2.236398   -1.011188    0.194186
  C      0.730496    0.030766    3.565708
  H      1.247614   -0.840221    3.188481
  H      1.336107    0.817760    3.993022
  C     -0.598280    0.131357    3.516461
  H     -1.210283   -0.656123    3.099560
  H     -1.110105    1.002426    3.900460

 Multiplicity           Mult            ....    1
 Number of Electrons    NEL             ....   74
 Basis Dimension        Dim             .... 1168

ORBITAL ENERGIES
----------------

  NO   OCC          E(Eh)            E(eV)
   0   2.0000     -20.543045      -559.0047
   1   2.0000     -20.537806      -558.8621
   2   2.0000     -15.639541      -425.5735
   3   2.0000     -15.623327      -425.1324
   4   2.0000     -11.415924      -310.6431
   5   2.0000     -11.378091      -309.6136
   6   2.0000     -11.336692      -308.4871
   7   2.0000     -11.251028      -306.1560
   8   2.0000     -11.233869      -305.6891
   9   2.0000     -11.231998      -305.6382
  10   2.0000      -1.434093       -39.0237
  11   2.0000      -1.396173       -37.9918
  12   2.0000      -1.310896       -35.6713
  13   2.0000      -1.243658       -33.8416
  14   2.0000      -1.085492       -29.5377
  15   2.0000      -1.038774       -28.2665
  16   2.0000      -0.931297       -25.3419
  17   2.0000      -0.899556       -24.4782
  18   2.0000      -0.804992       -21.9050
  19   2.0000      -0.797748       -21.7078
  20   2.0000      -0.763234       -20.7686
  21   2.0000      -0.712387       -19.3850
  22   2.0000      -0.676155       -18.3991
  23   2.0000      -0.669276       -18.2119
  24   2.0000      -0.651380       -17.7250
  25   2.0000      -0.647222       -17.6118
  26   2.0000      -0.613276       -16.6881
  27   2.0000      -0.599859       -16.3230
  28   2.0000      -0.591657       -16.0998
  29   2.0000      -0.569802       -15.5051
  30   2.0000      -0.524307       -14.2671
  31   2.0000      -0.511510       -13.9189
  32   2.0000      -0.482711       -13.1352
  33   2.0000      -0.448451       -12.2030
  34   2.0000      -0.436471       -11.8770
  35   2.0000      -0.383108       -10.4249
  36   2.0000      -0.365524        -9.9464
  37   0.0000       0.012776         0.3476
  38   0.0000       0.028682         0.7805
  39   0.0000       0.032570         0.8863
  40   0.0000       0.036068         0.9815
  41   0.0000       0.044648         1.2149

MULLIKEN ATOMIC CHARGES
-----------------------
   0 N :   -0.668368
   1 H :    0.068848
   2 C :    1.270600
   3 O :   -0.882085
   4 C :   -0.440385
   5 H :    0.256583
   6 C :   -0.129237
   7 H :    0.417539
   8 N :   -0.621739
   9 H :    0.072899
  10 C :    1.496716
  11 O :   -0.852699
  12 C :   -0.817909
  13 H :    0.421905
  14 H :    0.414418
  15 C :   -0.855325
  16 H :    0.431588
  17 H :    0.416652
Sum of atomic charges:    0.0000000

LOEWDIN ATOMIC CHARGES
----------------------
   0 N :    0.773332
   1 H :   -0.516382
   2 C :   -0.889251
   3 O :    0.687612
   4 C :    0.320531
   5 H :   -0.350882
   6 C :    0.224926
   7 H :   -0.294565
   8 N :    0.807651
   9 H :   -0.489416
  10 C :   -1.019795
  11 O :    0.696259
  12 C :    0.751751
  13 H :   -0.367891
  14 H :   -0.360975
  15 C :    0.750524
  16 H :   -0.365111
  17 H :   -0.358321

  Mayer bond orders larger than 0.100000
B(  0-N ,  1-H ) :   1.2064 B(  0-N ,  2-C ) :   0.9550 B(  0-N ,  3-O ) :   0.2102
B(  0-N , 10-C ) :   1.0813 B(  0-N , 11-O ) :   0.2112 B(  2-C ,  3-O ) :   0.9316
B(  2-C ,  4-C ) :   1.1556 B(  3-O ,  4-C ) :   0.2626 B(  4-C ,  5-H ) :   1.0385
B(  4-C ,  6-C ) :   1.4533 B(  6-C ,  7-H ) :   0.9294 B(  6-C ,  8-N ) :   0.8911
B(  8-N ,  9-H ) :   1.1972 B(  8-N , 10-C ) :   1.0911 B(  8-N , 11-O ) :   0.2204
B( 10-C , 11-O ) :   1.0014 B( 12-C , 13-H ) :   0.7949 B( 12-C , 14-H ) :   0.8312
B( 12-C , 15-C ) :   1.9869 B( 15-C , 16-H ) :   0.7946 B( 15-C , 17-H ) :   0.8254

MP2 TOTAL ENERGY:     -492.674638689 Eh
FINAL SINGLE POINT ENERGY      -492.674638689076

DIPOLE MOMENT
-------------
                                X             Y             Z
Electronic contribution:      0.30640      -2.13039      -7.73040
Nuclear contribution   :      0.21136       4.02826       7.77113
                        -----------------------------------------
Total Dipole Moment    :      0.51777       1.89787       0.04073
                        -----------------------------------------
Magnitude (a.u.)       :      1.96765
Magnitude (Debye)      :      5.00137

Rotational constants in cm-1:     0.044040     0.040000     0.031204
Rotational constants in MHz :  1320.296379  1199.174456   935.466371

                             ****ORCA TERMINATED NORMALLY****
TOTAL RUN TIME: 0 days 3 hours 53 minutes 43 seconds 665 msec
