                         Program Version 5.0.4 -  RELEASE  -
|  1> ! ri-mp2 aug-cc-pvdz aug-cc-pvdz/c tightscf
|  2> %pal nprocs 16 end
|  3> %maxcore 3800
|  4> %base "DZ_S66by10_25_1.05_dimer"
|  5>
|  6> *xyz 0 1
|  7> N    1.57248145    0.25454916   -0.25648131
|  8> C    0.96935990   -0.90316032    0.04452614
|  9> H    1.61363891   -1.77218121    0.10234520
| 10> C   -0.39815811   -1.02881911    0.28096043
| 11> H   -0.81842477   -1.99173710    0.53356364
| 12> C   -1.19580525    0.10655779    0.19539732
| 13> H   -2.26068964    0.04953865    0.37344280
| 14> C   -0.58712829    1.31741239   -0.12010544
| 15> H   -1.16181223    2.22950003   -0.20046257
| 16> C    0.78854733    1.33970567   -0.33224053
| 17> H    1.28843202    2.26879436   -0.57852690
| 18> N   -0.54264797   -1.52343444    3.92204573
| 19> C   -1.47512607   -0.56280498    3.99589689
| 20> H   -2.47791531   -0.89375978    4.23808975
| 21> C   -1.21312303    0.78826344    3.78651751
| 22> H   -2.01168078    1.51276888    3.86478860
| 23> C    0.08630430    1.17750472    3.47624910
| 24> H    0.32828886    2.21650321    3.30037784
| 25> C    1.06586361    0.19460657    3.39288763
| 26> H    2.08816485    0.44135231    3.14445065
| 27> C    0.70338389   -1.13053119    3.62608063
| 28> H    1.44724466   -1.91608582    3.56963203
| 29> *
| 30>
| 31> $new_job
| 32> ! ri-mp2 aug-cc-pvtz aug-cc-pvtz/c tightscf
| 33> %pal nprocs 16 end
| 34> %maxcore 3800
| 35> %base "TZ_S66by10_25_1.05_dimer"
| 36>
| 37> *xyz 0 1
| 38> N    1.57248145    0.25454916   -0.25648131
| 39> C    0.96935990   -0.90316032    0.04452614
| 40> H    1.61363891   -1.77218121    0.10234520
| 41> C   -0.39815811   -1.02881911    0.28096043
| 42> H   -0.81842477   -1.99173710    0.53356364
| 43> C   -1.19580525    0.10655779    0.19539732
| 44> H   -2.26068964    0.04953865    0.37344280
| 45> C   -0.58712829    1.31741239   -0.12010544
| 46> H   -1.16181223    2.22950003   -0.20046257
| 47> C    0.78854733    1.33970567   -0.33224053
| 48> H    1.28843202    2.26879436   -0.57852690
| 49> N   -0.54264797   -1.52343444    3.92204573
| 50> C   -1.47512607   -0.56280498    3.99589689
| 51> H   -2.47791531   -0.89375978    4.23808975
| 52> C   -1.21312303    0.78826344    3.78651751
| 53> H   -2.01168078    1.51276888    3.86478860
| 54> C    0.08630430    1.17750472    3.47624910
| 55> H    0.32828886    2.21650321    3.30037784
| 56> C    1.06586361    0.19460657    3.39288763
| 57> H    2.08816485    0.44135231    3.14445065
| 58> C    0.70338389   -1.13053119    3.62608063
| 59> H    1.44724466   -1.91608582    3.56963203
| 60> *
| 61>
| 62> $new_job
| 63> ! ri-mp2 aug-cc-pvqz aug-cc-pvqz/c tightscf
| 64> %pal nprocs 16 end
| 65> %maxcore 3800
| 66> %base "QZ_S66by10_25_1.05_dimer"
| 67>
| 68> *xyz 0 1
| 69> N    1.57248145    0.25454916   -0.25648131
| 70> C    0.96935990   -0.90316032    0.04452614
| 71> H    1.61363891   -1.77218121    0.10234520
| 72> C   -0.39815811   -1.02881911    0.28096043
| 73> H   -0.81842477   -1.99173710    0.53356364
| 74> C   -1.19580525    0.10655779    0.19539732
| 75> H   -2.26068964    0.04953865    0.37344280
| 76> C   -0.58712829    1.31741239   -0.12010544
| 77> H   -1.16181223    2.22950003   -0.20046257
| 78> C    0.78854733    1.33970567   -0.33224053
| 79> H    1.28843202    2.26879436   -0.57852690
| 80> N   -0.54264797   -1.52343444    3.92204573
| 81> C   -1.47512607   -0.56280498    3.99589689
| 82> H   -2.47791531   -0.89375978    4.23808975
| 83> C   -1.21312303    0.78826344    3.78651751
| 84> H   -2.01168078    1.51276888    3.86478860
| 85> C    0.08630430    1.17750472    3.47624910
| 86> H    0.32828886    2.21650321    3.30037784
| 87> C    1.06586361    0.19460657    3.39288763
| 88> H    2.08816485    0.44135231    3.14445065
| 89> C    0.70338389   -1.13053119    3.62608063
| 90> H    1.44724466   -1.91608582    3.56963203
| 91> *
| 92>
| 93>
| 94>
| 95>
| 96>                          ****END OF INPUT****
 Total Charge           Charge          ....    0
 Multiplicity           Mult            ....    1
 Number of Electrons    NEL             ....   84
MP2 TOTAL ENERGY:     -495.138826153 Eh
FINAL SINGLE POINT ENERGY      -495.138826152702
MP2 TOTAL ENERGY:     -495.565602395 Eh
FINAL SINGLE POINT ENERGY      -495.565602395372

CARTESIAN COORDINATES (ANGSTROEM)
---------------------------------
  N      1.572481    0.254549   -0.256481
  C      0.969360   -0.903160    0.044526
  H      1.613639   -1.772181    0.102345
  C     -0.398158   -1.028819    0.280960
  H     -0.818425   -1.991737    0.533564
  C     -1.195805    0.106558    0.195397
  H     -2.260690    0.049539    0.373443
  C     -0.587128    1.317412   -0.120105
  H     -1.161812    2.229500   -0.200463
  C      0.788547    1.339706   -0.332241
  H      1.288432    2.268794   -0.578527
  N     -0.542648   -1.523434    3.922046
  C     -1.475126   -0.562805    3.995897
  H     -2.477915   -0.893760    4.238090
  C     -1.213123    0.788263    3.786518
  H     -2.011681    1.512769    3.864789
  C      0.086304    1.177505    3.476249
  H      0.328289    2.216503    3.300378
  C      1.065864    0.194607    3.392888
  H      2.088165    0.441352    3.144451
  C      0.703384   -1.130531    3.626081
  H      1.447245   -1.916086    3.569632

 Multiplicity           Mult            ....    1
 Number of Electrons    NEL             ....   84
 Basis Dimension        Dim             .... 1420

ORBITAL ENERGIES
----------------

  NO   OCC          E(Eh)            E(eV)
   0   2.0000     -15.563492      -423.5041
   1   2.0000     -15.563441      -423.5028
   2   2.0000     -11.272764      -306.7475
   3   2.0000     -11.272722      -306.7464
   4   2.0000     -11.272086      -306.7291
   5   2.0000     -11.272034      -306.7276
   6   2.0000     -11.256517      -306.3054
   7   2.0000     -11.256467      -306.3040
   8   2.0000     -11.239501      -305.8424
   9   2.0000     -11.239444      -305.8408
  10   2.0000     -11.237604      -305.7908
  11   2.0000     -11.237529      -305.7887
  12   2.0000      -1.255345       -34.1597
  13   2.0000      -1.254046       -34.1243
  14   2.0000      -1.088468       -29.6187
  15   2.0000      -1.086335       -29.5607
  16   2.0000      -1.032374       -28.0923
  17   2.0000      -1.030538       -28.0424
  18   2.0000      -0.857443       -23.3322
  19   2.0000      -0.857254       -23.3271
  20   2.0000      -0.854016       -23.2390
  21   2.0000      -0.853812       -23.2334
  22   2.0000      -0.721205       -19.6250
  23   2.0000      -0.719276       -19.5725
  24   2.0000      -0.658893       -17.9294
  25   2.0000      -0.658305       -17.9134
  26   2.0000      -0.652436       -17.7537
  27   2.0000      -0.652266       -17.7491
  28   2.0000      -0.596949       -16.2438
  29   2.0000      -0.595830       -16.2134
  30   2.0000      -0.575422       -15.6580
  31   2.0000      -0.575238       -15.6530
  32   2.0000      -0.552925       -15.0458
  33   2.0000      -0.528153       -14.3718
  34   2.0000      -0.518305       -14.1038
  35   2.0000      -0.517837       -14.0911
  36   2.0000      -0.419330       -11.4106
  37   2.0000      -0.418569       -11.3898
  38   2.0000      -0.387366       -10.5408
  39   2.0000      -0.378283       -10.2936
  40   2.0000      -0.352584        -9.5943
  41   2.0000      -0.337264        -9.1774
  42   0.0000       0.020672         0.5625
  43   0.0000       0.027571         0.7502
  44   0.0000       0.030346         0.8258
  45   0.0000       0.033918         0.9230
  46   0.0000       0.038826         1.0565

MULLIKEN ATOMIC CHARGES
-----------------------
   0 N :   -0.765062
   1 C :   -0.088817
   2 H :    0.442639
   3 C :   -0.258176
   4 H :    0.282861
   5 C :   -0.338188
   6 H :    0.357664
   7 C :   -0.230536
   8 H :    0.309646
   9 C :   -0.173119
  10 H :    0.461265
  11 N :   -0.765977
  12 C :   -0.170773
  13 H :    0.461137
  14 C :   -0.228975
  15 H :    0.310155
  16 C :   -0.341661
  17 H :    0.357051
  18 C :   -0.257577
  19 H :    0.284403
  20 C :   -0.090365
  21 H :    0.442405
Sum of atomic charges:   -0.0000000

LOEWDIN ATOMIC CHARGES
----------------------
   0 N :    0.592967
   1 C :    0.054217
   2 H :   -0.347548
   3 C :    0.310821
   4 H :   -0.319242
   5 C :    0.313649
   6 H :   -0.306037
   7 C :    0.318036
   8 H :   -0.325669
   9 C :    0.062152
  10 H :   -0.353501
  11 N :    0.592899
  12 C :    0.061946
  13 H :   -0.353394
  14 C :    0.317816
  15 H :   -0.325535
  16 C :    0.313844
  17 H :   -0.305966
  18 C :    0.311102
  19 H :   -0.319146
  20 C :    0.054136
  21 H :   -0.347549

  Mayer bond orders larger than 0.100000
B(  0-N ,  1-C ) :   1.0828 B(  0-N ,  2-H ) :  -0.1498 B(  0-N ,  7-C ) :   0.1037
B(  0-N ,  9-C ) :   1.1823 B(  0-N , 10-H ) :  -0.1386 B(  1-C ,  2-H ) :   0.9214
B(  1-C ,  3-C ) :   1.1230 B(  2-H ,  3-C ) :  -0.1053 B(  3-C ,  4-H ) :   1.0351
B(  3-C ,  5-C ) :   1.2132 B(  3-C ,  9-C ) :   0.1255 B(  5-C ,  6-H ) :   0.9435
B(  5-C ,  7-C ) :   1.1628 B(  7-C ,  8-H ) :   1.0176 B(  7-C ,  9-C ) :   1.2123
B(  9-C , 10-H ) :   0.8953 B( 11-N , 12-C ) :   1.1804 B( 11-N , 13-H ) :  -0.1390
B( 11-N , 14-C ) :   0.1039 B( 11-N , 20-C ) :   1.0830 B( 11-N , 21-H ) :  -0.1498
B( 12-C , 13-H ) :   0.8958 B( 12-C , 14-C ) :   1.2119 B( 12-C , 18-C ) :   0.1251
B( 14-C , 15-H ) :   1.0171 B( 14-C , 16-C ) :   1.1627 B( 16-C , 17-H ) :   0.9438
B( 16-C , 18-C ) :   1.2134 B( 18-C , 19-H ) :   1.0340 B( 18-C , 20-C ) :   1.1246
B( 18-C , 21-H ) :  -0.1048 B( 20-C , 21-H ) :   0.9217

MP2 TOTAL ENERGY:     -495.701872884 Eh
FINAL SINGLE POINT ENERGY      -495.701872883620

DIPOLE MOMENT
-------------
                                X             Y             Z
Electronic contribution:      1.02054      -1.21756      -0.00165
Nuclear contribution   :     -1.68087       2.00584       0.00438
                        -----------------------------------------
Total Dipole Moment    :     -0.66033       0.78828       0.00273
                        -----------------------------------------
Magnitude (a.u.)       :      1.02832
Magnitude (Debye)      :      2.61377

Rotational constants in cm-1:     0.054479     0.022926     0.022076
Rotational constants in MHz :  1633.226996   687.306548   661.827317

                             ****ORCA TERMINATED NORMALLY****
TOTAL RUN TIME: 0 days 1 hours 31 minutes 1 seconds 697 msec
