                         Program Version 5.0.4 -  RELEASE  -
|  1> ! ri-mp2 aug-cc-pvdz aug-cc-pvdz/c tightscf
|  2> %pal nprocs 16 end
|  3> %maxcore 3800
|  4> %base "DZ_S66by10_65_0.7_dimer"
|  5>
|  6> *xyz 0 1
|  7> N   -0.08303249    0.00071459    1.05519999
|  8> C   -0.20285376   -1.14172585    0.36493369
|  9> H   -0.09848563   -2.05509795    0.93743262
| 10> C   -0.44678144   -1.19176367   -1.00451226
| 11> H   -0.53364921   -2.14585511   -1.50417155
| 12> C   -0.57468209    0.00343953   -1.70430948
| 13> H   -0.76368391    0.00448010   -2.76872670
| 14> C   -0.45345675    1.19724254   -1.00091647
| 15> H   -0.54563080    2.15227264   -1.49779508
| 16> C   -0.20931111    1.14450759    0.36836730
| 17> H   -0.11016707    2.05669726    0.94357396
| 18> C    0.38204009   -0.00397722    4.88862070
| 19> H    0.49745013   -0.00340303    5.94363452
| 20> C    0.24997032   -0.00452696    3.68237340
| 21> H    0.13182221   -0.00426453    2.61786793
| 22> *
| 23>
| 24> $new_job
| 25> ! ri-mp2 aug-cc-pvtz aug-cc-pvtz/c tightscf
| 26> %pal nprocs 16 end
| 27> %maxcore 3800
| 28> %base "TZ_S66by10_65_0.7_dimer"
| 29>
| 30> *xyz 0 1
| 31> N   -0.08303249    0.00071459    1.05519999
| 32> C   -0.20285376   -1.14172585    0.36493369
| 33> H   -0.09848563   -2.05509795    0.93743262
| 34> C   -0.44678144   -1.19176367   -1.00451226
| 35> H   -0.53364921   -2.14585511   -1.50417155
| 36> C   -0.57468209    0.00343953   -1.70430948
| 37> H   -0.76368391    0.00448010   -2.76872670
| 38> C   -0.45345675    1.19724254   -1.00091647
| 39> H   -0.54563080    2.15227264   -1.49779508
| 40> C   -0.20931111    1.14450759    0.36836730
| 41> H   -0.11016707    2.05669726    0.94357396
| 42> C    0.38204009   -0.00397722    4.88862070
| 43> H    0.49745013   -0.00340303    5.94363452
| 44> C    0.24997032   -0.00452696    3.68237340
| 45> H    0.13182221   -0.00426453    2.61786793
| 46> *
| 47>
| 48> $new_job
| 49> ! ri-mp2 aug-cc-pvqz aug-cc-pvqz/c tightscf
| 50> %pal nprocs 16 end
| 51> %maxcore 3800
| 52> %base "QZ_S66by10_65_0.7_dimer"
| 53>
| 54> *xyz 0 1
| 55> N   -0.08303249    0.00071459    1.05519999
| 56> C   -0.20285376   -1.14172585    0.36493369
| 57> H   -0.09848563   -2.05509795    0.93743262
| 58> C   -0.44678144   -1.19176367   -1.00451226
| 59> H   -0.53364921   -2.14585511   -1.50417155
| 60> C   -0.57468209    0.00343953   -1.70430948
| 61> H   -0.76368391    0.00448010   -2.76872670
| 62> C   -0.45345675    1.19724254   -1.00091647
| 63> H   -0.54563080    2.15227264   -1.49779508
| 64> C   -0.20931111    1.14450759    0.36836730
| 65> H   -0.11016707    2.05669726    0.94357396
| 66> C    0.38204009   -0.00397722    4.88862070
| 67> H    0.49745013   -0.00340303    5.94363452
| 68> C    0.24997032   -0.00452696    3.68237340
| 69> H    0.13182221   -0.00426453    2.61786793
| 70> *
| 71>
| 72>
| 73>
| 74>
| 75>                          ****END OF INPUT****
 Total Charge           Charge          ....    0
 Multiplicity           Mult            ....    1
 Number of Electrons    NEL             ....   56
MP2 TOTAL ENERGY:     -324.649415655 Eh
FINAL SINGLE POINT ENERGY      -324.649415654894
MP2 TOTAL ENERGY:     -324.935377497 Eh
FINAL SINGLE POINT ENERGY      -324.935377496698

CARTESIAN COORDINATES (ANGSTROEM)
---------------------------------
  N     -0.083032    0.000715    1.055200
  C     -0.202854   -1.141726    0.364934
  H     -0.098486   -2.055098    0.937433
  C     -0.446781   -1.191764   -1.004512
  H     -0.533649   -2.145855   -1.504172
  C     -0.574682    0.003440   -1.704309
  H     -0.763684    0.004480   -2.768727
  C     -0.453457    1.197243   -1.000916
  H     -0.545631    2.152273   -1.497795
  C     -0.209311    1.144508    0.368367
  H     -0.110167    2.056697    0.943574
  C      0.382040   -0.003977    4.888621
  H      0.497450   -0.003403    5.943635
  C      0.249970   -0.004527    3.682373
  H      0.131822   -0.004265    2.617868

 Multiplicity           Mult            ....    1
 Number of Electrons    NEL             ....   56
 Basis Dimension        Dim             ....  962

ORBITAL ENERGIES
----------------

  NO   OCC          E(Eh)            E(eV)
   0   2.0000     -15.580207      -423.9590
   1   2.0000     -11.292603      -307.2874
   2   2.0000     -11.292583      -307.2868
   3   2.0000     -11.275251      -306.8152
   4   2.0000     -11.255664      -306.2822
   5   2.0000     -11.255614      -306.2808
   6   2.0000     -11.199390      -304.7509
   7   2.0000     -11.185886      -304.3834
   8   2.0000      -1.279278       -34.8109
   9   2.0000      -1.107694       -30.1419
  10   2.0000      -1.050423       -28.5835
  11   2.0000      -0.986804       -26.8523
  12   2.0000      -0.878234       -23.8980
  13   2.0000      -0.874086       -23.7851
  14   2.0000      -0.760333       -20.6897
  15   2.0000      -0.721886       -19.6435
  16   2.0000      -0.678815       -18.4715
  17   2.0000      -0.671409       -18.2700
  18   2.0000      -0.655714       -17.8429
  19   2.0000      -0.614394       -16.7185
  20   2.0000      -0.578924       -15.7533
  21   2.0000      -0.561166       -15.2701
  22   2.0000      -0.536161       -14.5897
  23   2.0000      -0.430789       -11.7224
  24   2.0000      -0.404204       -10.9989
  25   2.0000      -0.368353       -10.0234
  26   2.0000      -0.367269        -9.9939
  27   2.0000      -0.363253        -9.8846
  28   0.0000       0.018134         0.4935
  29   0.0000       0.026327         0.7164
  30   0.0000       0.030661         0.8343
  31   0.0000       0.036671         0.9979
  32   0.0000       0.044323         1.2061

MULLIKEN ATOMIC CHARGES
-----------------------
   0 N :   -0.392481
   1 C :   -0.287274
   2 H :    0.383892
   3 C :   -0.247337
   4 H :    0.316958
   5 C :   -0.203372
   6 H :    0.359284
   7 C :   -0.249643
   8 H :    0.316626
   9 C :   -0.285563
  10 H :    0.384928
  11 C :   -1.254064
  12 H :    0.253363
  13 C :   -0.317832
  14 H :    1.222515
Sum of atomic charges:    0.0000000

LOEWDIN ATOMIC CHARGES
----------------------
   0 N :    0.606960
   1 C :    0.158926
   2 H :   -0.322964
   3 C :    0.352946
   4 H :   -0.326998
   5 C :    0.341969
   6 H :   -0.310536
   7 C :    0.352909
   8 H :   -0.327018
   9 C :    0.158942
  10 H :   -0.323074
  11 C :    0.511024
  12 H :   -0.499415
  13 C :    0.473000
  14 H :   -0.846669

  Mayer bond orders larger than 0.100000
B(  0-N ,  1-C ) :   1.4456 B(  0-N ,  9-C ) :   1.4417 B(  0-N , 14-H ) :   0.1071
B(  1-C ,  2-H ) :   0.9271 B(  1-C ,  3-C ) :   1.1834 B(  1-C ,  5-C ) :  -0.1204
B(  1-C ,  7-C ) :   0.1375 B(  3-C ,  4-H ) :   1.0015 B(  3-C ,  5-C ) :   1.1972
B(  3-C ,  7-C ) :  -0.1048 B(  3-C ,  9-C ) :   0.1379 B(  5-C ,  6-H ) :   0.9579
B(  5-C ,  7-C ) :   1.1974 B(  5-C ,  9-C ) :  -0.1195 B(  7-C ,  8-H ) :   1.0019
B(  7-C ,  9-C ) :   1.1845 B(  9-C , 10-H ) :   0.9264 B( 11-C , 12-H ) :   1.4943
B( 11-C , 13-C ) :   1.8613 B( 11-C , 14-H ) :  -0.5383 B( 12-H , 13-C ) :  -0.3018
B( 12-H , 14-H ) :  -0.2361

MP2 TOTAL ENERGY:     -325.025072781 Eh
FINAL SINGLE POINT ENERGY      -325.025072780506

DIPOLE MOMENT
-------------
                                X             Y             Z
Electronic contribution:     -0.03761       0.00154      -0.66073
Nuclear contribution   :     -0.23015       0.00120      -1.03028
                        -----------------------------------------
Total Dipole Moment    :     -0.26776       0.00274      -1.69101
                        -----------------------------------------
Magnitude (a.u.)       :      1.71208
Magnitude (Debye)      :      4.35177

Rotational constants in cm-1:     0.201605     0.032182     0.027763
Rotational constants in MHz :  6043.977099   964.781357   832.301265

                             ****ORCA TERMINATED NORMALLY****
TOTAL RUN TIME: 0 days 0 hours 22 minutes 15 seconds 318 msec
