                         Program Version 5.0.4 -  RELEASE  -
|  1> ! ri-mp2 aug-cc-pvdz aug-cc-pvdz/c tightscf
|  2> %pal nprocs 16 end
|  3> %maxcore 3800
|  4> %base "DZ_S66by10_23_1.5_dimer"
|  5> %scf STABPerform true end
|  6>
|  7> *xyz 0 1
|  8> C   -1.23272700    1.21163896   -0.14162406
|  9> O   -0.57127667    2.24201573    0.02561679
| 10> N   -0.67058051    0.00388878   -0.31428147
| 11> H    0.34384695   -0.09056011   -0.30832667
| 12> H   -1.24421373   -0.80632370   -0.44668271
| 13> C   -2.73824495    1.26675766   -0.15588657
| 14> H   -3.07797534    1.64660511    0.80450159
| 15> H   -3.20211503    0.30286549   -0.34621112
| 16> H   -3.04998747    1.97549049   -0.91859737
| 17> N    5.06871196    1.13057434   -0.10854265
| 18> H    5.55874140    0.25461716   -0.22648112
| 19> C    5.87233797    2.27341928    0.04193904
| 20> O    7.08790000    2.17779695    0.02675427
| 21> C    5.09974579    3.48873576    0.20508298
| 22> H    5.62150878    4.42192862    0.32811810
| 23> C    3.75058508    3.42706023    0.19940622
| 24> H    3.13018103    4.30342062    0.31708312
| 25> N    3.06550297    2.25477872    0.04484046
| 26> H    2.03271250    2.24571766    0.04400314
| 27> C    3.69639294    1.05030922   -0.11741958
| 28> O    3.09920421   -0.01360674   -0.25922707
| 29> *
| 30>
| 31> $new_job
| 32> ! ri-mp2 aug-cc-pvtz aug-cc-pvtz/c tightscf
| 33> %pal nprocs 16 end
| 34> %maxcore 3800
| 35> %base "TZ_S66by10_23_1.5_dimer"
| 36>
| 37> *xyz 0 1
| 38> C   -1.23272700    1.21163896   -0.14162406
| 39> O   -0.57127667    2.24201573    0.02561679
| 40> N   -0.67058051    0.00388878   -0.31428147
| 41> H    0.34384695   -0.09056011   -0.30832667
| 42> H   -1.24421373   -0.80632370   -0.44668271
| 43> C   -2.73824495    1.26675766   -0.15588657
| 44> H   -3.07797534    1.64660511    0.80450159
| 45> H   -3.20211503    0.30286549   -0.34621112
| 46> H   -3.04998747    1.97549049   -0.91859737
| 47> N    5.06871196    1.13057434   -0.10854265
| 48> H    5.55874140    0.25461716   -0.22648112
| 49> C    5.87233797    2.27341928    0.04193904
| 50> O    7.08790000    2.17779695    0.02675427
| 51> C    5.09974579    3.48873576    0.20508298
| 52> H    5.62150878    4.42192862    0.32811810
| 53> C    3.75058508    3.42706023    0.19940622
| 54> H    3.13018103    4.30342062    0.31708312
| 55> N    3.06550297    2.25477872    0.04484046
| 56> H    2.03271250    2.24571766    0.04400314
| 57> C    3.69639294    1.05030922   -0.11741958
| 58> O    3.09920421   -0.01360674   -0.25922707
| 59> *
| 60>
| 61> $new_job
| 62> ! ri-mp2 aug-cc-pvqz aug-cc-pvqz/c tightscf
| 63> %pal nprocs 16 end
| 64> %maxcore 3800
| 65> %base "QZ_S66by10_23_1.5_dimer"
| 66>
| 67> *xyz 0 1
| 68> C   -1.23272700    1.21163896   -0.14162406
| 69> O   -0.57127667    2.24201573    0.02561679
| 70> N   -0.67058051    0.00388878   -0.31428147
| 71> H    0.34384695   -0.09056011   -0.30832667
| 72> H   -1.24421373   -0.80632370   -0.44668271
| 73> C   -2.73824495    1.26675766   -0.15588657
| 74> H   -3.07797534    1.64660511    0.80450159
| 75> H   -3.20211503    0.30286549   -0.34621112
| 76> H   -3.04998747    1.97549049   -0.91859737
| 77> N    5.06871196    1.13057434   -0.10854265
| 78> H    5.55874140    0.25461716   -0.22648112
| 79> C    5.87233797    2.27341928    0.04193904
| 80> O    7.08790000    2.17779695    0.02675427
| 81> C    5.09974579    3.48873576    0.20508298
| 82> H    5.62150878    4.42192862    0.32811810
| 83> C    3.75058508    3.42706023    0.19940622
| 84> H    3.13018103    4.30342062    0.31708312
| 85> N    3.06550297    2.25477872    0.04484046
| 86> H    2.03271250    2.24571766    0.04400314
| 87> C    3.69639294    1.05030922   -0.11741958
| 88> O    3.09920421   -0.01360674   -0.25922707
| 89> *
| 90>
| 91>
| 92>
| 93>
| 94>                          ****END OF INPUT****
 Total Charge           Charge          ....    0
 Multiplicity           Mult            ....    1
 Number of Electrons    NEL             ....   90
MP2 TOTAL ENERGY:     -622.462166894 Eh
FINAL SINGLE POINT ENERGY      -622.462166893581
MP2 TOTAL ENERGY:     -622.994355543 Eh
FINAL SINGLE POINT ENERGY      -622.994355543211

CARTESIAN COORDINATES (ANGSTROEM)
---------------------------------
  C     -1.232727    1.211639   -0.141624
  O     -0.571277    2.242016    0.025617
  N     -0.670581    0.003889   -0.314281
  H      0.343847   -0.090560   -0.308327
  H     -1.244214   -0.806324   -0.446683
  C     -2.738245    1.266758   -0.155887
  H     -3.077975    1.646605    0.804502
  H     -3.202115    0.302865   -0.346211
  H     -3.049987    1.975490   -0.918597
  N      5.068712    1.130574   -0.108543
  H      5.558741    0.254617   -0.226481
  C      5.872338    2.273419    0.041939
  O      7.087900    2.177797    0.026754
  C      5.099746    3.488736    0.205083
  H      5.621509    4.421929    0.328118
  C      3.750585    3.427060    0.199406
  H      3.130181    4.303421    0.317083
  N      3.065503    2.254779    0.044840
  H      2.032713    2.245718    0.044003
  C      3.696393    1.050309   -0.117420
  O      3.099204   -0.013607   -0.259227

 Multiplicity           Mult            ....    1
 Number of Electrons    NEL             ....   90
 Basis Dimension        Dim             .... 1374

ORBITAL ENERGIES
----------------

  NO   OCC          E(Eh)            E(eV)
   0   2.0000     -20.538423      -558.8789
   1   2.0000     -20.533470      -558.7441
   2   2.0000     -20.523432      -558.4710
   3   2.0000     -15.635132      -425.4536
   4   2.0000     -15.620674      -425.0602
   5   2.0000     -15.595763      -424.3823
   6   2.0000     -11.412653      -310.5541
   7   2.0000     -11.373826      -309.4975
   8   2.0000     -11.363868      -309.2266
   9   2.0000     -11.331496      -308.3457
  10   2.0000     -11.246908      -306.0439
  11   2.0000     -11.244650      -305.9825
  12   2.0000      -1.427382       -38.8410
  13   2.0000      -1.390544       -37.8386
  14   2.0000      -1.381801       -37.6007
  15   2.0000      -1.305310       -35.5193
  16   2.0000      -1.239155       -33.7191
  17   2.0000      -1.225706       -33.3531
  18   2.0000      -1.080554       -29.4034
  19   2.0000      -1.015125       -27.6230
  20   2.0000      -0.928390       -25.2628
  21   2.0000      -0.893605       -24.3162
  22   2.0000      -0.812189       -22.1008
  23   2.0000      -0.796558       -21.6754
  24   2.0000      -0.759704       -20.6726
  25   2.0000      -0.736806       -20.0495
  26   2.0000      -0.706414       -19.2225
  27   2.0000      -0.677132       -18.4257
  28   2.0000      -0.669567       -18.2199
  29   2.0000      -0.663726       -18.0609
  30   2.0000      -0.646194       -17.5838
  31   2.0000      -0.625667       -17.0253
  32   2.0000      -0.607154       -16.5215
  33   2.0000      -0.595137       -16.1945
  34   2.0000      -0.591709       -16.1012
  35   2.0000      -0.572635       -15.5822
  36   2.0000      -0.564959       -15.3733
  37   2.0000      -0.534049       -14.5322
  38   2.0000      -0.517208       -14.0739
  39   2.0000      -0.479528       -13.0486
  40   2.0000      -0.444263       -12.0890
  41   2.0000      -0.437108       -11.8943
  42   2.0000      -0.432641       -11.7728
  43   2.0000      -0.425133       -11.5685
  44   2.0000      -0.362106        -9.8534
  45   0.0000       0.018111         0.4928
  46   0.0000       0.025644         0.6978
  47   0.0000       0.031621         0.8605
  48   0.0000       0.038077         1.0361
  49   0.0000       0.038920         1.0591

MULLIKEN ATOMIC CHARGES
-----------------------
   0 C :    0.884579
   1 O :   -0.923860
   2 N :   -0.662346
   3 H :    0.319572
   4 H :    0.265016
   5 C :   -0.705795
   6 H :    0.279504
   7 H :    0.261184
   8 H :    0.270191
   9 N :   -0.680578
  10 H :    0.137628
  11 C :    1.134520
  12 O :   -0.806341
  13 C :   -0.436807
  14 H :    0.303618
  15 C :   -0.230783
  16 H :    0.389478
  17 N :   -0.577048
  18 H :    0.215947
  19 C :    1.412302
  20 O :   -0.849980
Sum of atomic charges:   -0.0000000

LOEWDIN ATOMIC CHARGES
----------------------
   0 C :   -0.843755
   1 O :    0.670325
   2 N :    1.239937
   3 H :   -0.499837
   4 H :   -0.504204
   5 C :    0.881986
   6 H :   -0.299061
   7 H :   -0.314411
   8 H :   -0.301399
   9 N :    0.774475
  10 H :   -0.521153
  11 C :   -0.865254
  12 O :    0.679205
  13 C :    0.335021
  14 H :   -0.355075
  15 C :    0.233876
  16 H :   -0.296260
  17 N :    0.800659
  18 H :   -0.497286
  19 C :   -0.999509
  20 O :    0.681718

  Mayer bond orders larger than 0.100000
B(  0-C ,  1-O ) :   1.3814 B(  0-C ,  2-N ) :   1.0804 B(  0-C ,  5-C ) :   0.7787
B(  0-C ,  7-H ) :  -0.1130 B(  1-O ,  2-N ) :   0.1322 B(  2-N ,  3-H ) :   0.8727
B(  2-N ,  4-H ) :   0.9885 B(  5-C ,  6-H ) :   0.9337 B(  5-C ,  7-H ) :   1.0042
B(  5-C ,  8-H ) :   0.9526 B(  9-N , 10-H ) :   1.1602 B(  9-N , 11-C ) :   0.9888
B(  9-N , 12-O ) :   0.1643 B(  9-N , 19-C ) :   1.0103 B(  9-N , 20-O ) :   0.1232
B( 11-C , 12-O ) :   1.0933 B( 11-C , 13-C ) :   1.1914 B( 11-C , 15-C ) :  -0.1565
B( 12-O , 13-C ) :   0.2604 B( 13-C , 14-H ) :   0.9906 B( 13-C , 15-C ) :   1.4181
B( 14-H , 15-C ) :  -0.1240 B( 15-C , 16-H ) :   0.9373 B( 15-C , 17-N ) :   0.9260
B( 17-N , 18-H ) :   1.0592 B( 17-N , 19-C ) :   1.1325 B( 17-N , 20-O ) :   0.1850
B( 19-C , 20-O ) :   1.2188

MP2 TOTAL ENERGY:     -623.168998063 Eh
FINAL SINGLE POINT ENERGY      -623.168998063360

DIPOLE MOMENT
-------------
                                X             Y             Z
Electronic contribution:     13.56557       0.58358       0.21299
Nuclear contribution   :    -15.84963      -0.70934      -0.26479
                        -----------------------------------------
Total Dipole Moment    :     -2.28406      -0.12577      -0.05181
                        -----------------------------------------
Magnitude (a.u.)       :      2.28811
Magnitude (Debye)      :      5.81591

Rotational constants in cm-1:     0.088098     0.010202     0.009159
Rotational constants in MHz :  2641.110569   305.848768   274.577933

                             ****ORCA TERMINATED NORMALLY****
TOTAL RUN TIME: 0 days 5 hours 8 minutes 52 seconds 523 msec
