                         Program Version 5.0.4 -  RELEASE  -
|  1> ! ri-mp2 aug-cc-pvdz aug-cc-pvdz/c tightscf
|  2> %pal nprocs 16 end
|  3> %maxcore 3800
|  4> %base "DZ_S66by10_4_0.7_dimer"
|  5> %scf STABPerform true end
|  6>
|  7> *xyz 0 1
|  8> O   -0.39201845   -0.38471874    0.07607132
|  9> H   -0.91146085    0.41381204    0.17764877
| 10> H    0.52490382   -0.06848469    0.09051136
| 11> C    1.67291512   -2.30108858   -0.22134122
| 12> H    2.32287797   -3.16220046   -0.35425660
| 13> H    0.99193915   -2.22361652   -1.06520649
| 14> H    1.05989823   -2.43988457    0.66566715
| 15> C    2.42764720   -1.00307570   -0.08874771
| 16> O    1.85093175    0.07221915    0.06784103
| 17> N    3.77828032   -1.10057839   -0.15336568
| 18> H    4.17923195   -2.01111237   -0.28288078
| 19> C    4.64652244    0.05139207   -0.04392260
| 20> H    4.01002831    0.91969252    0.09086201
| 21> H    5.31211194   -0.04006312    0.81217028
| 22> H    5.24098816    0.18081256   -0.94618178
| 23> *
| 24>
| 25> $new_job
| 26> ! ri-mp2 aug-cc-pvtz aug-cc-pvtz/c tightscf
| 27> %pal nprocs 16 end
| 28> %maxcore 3800
| 29> %base "TZ_S66by10_4_0.7_dimer"
| 30>
| 31> *xyz 0 1
| 32> O   -0.39201845   -0.38471874    0.07607132
| 33> H   -0.91146085    0.41381204    0.17764877
| 34> H    0.52490382   -0.06848469    0.09051136
| 35> C    1.67291512   -2.30108858   -0.22134122
| 36> H    2.32287797   -3.16220046   -0.35425660
| 37> H    0.99193915   -2.22361652   -1.06520649
| 38> H    1.05989823   -2.43988457    0.66566715
| 39> C    2.42764720   -1.00307570   -0.08874771
| 40> O    1.85093175    0.07221915    0.06784103
| 41> N    3.77828032   -1.10057839   -0.15336568
| 42> H    4.17923195   -2.01111237   -0.28288078
| 43> C    4.64652244    0.05139207   -0.04392260
| 44> H    4.01002831    0.91969252    0.09086201
| 45> H    5.31211194   -0.04006312    0.81217028
| 46> H    5.24098816    0.18081256   -0.94618178
| 47> *
| 48>
| 49> $new_job
| 50> ! ri-mp2 aug-cc-pvqz aug-cc-pvqz/c tightscf
| 51> %pal nprocs 16 end
| 52> %maxcore 3800
| 53> %base "QZ_S66by10_4_0.7_dimer"
| 54>
| 55> *xyz 0 1
| 56> O   -0.39201845   -0.38471874    0.07607132
| 57> H   -0.91146085    0.41381204    0.17764877
| 58> H    0.52490382   -0.06848469    0.09051136
| 59> C    1.67291512   -2.30108858   -0.22134122
| 60> H    2.32287797   -3.16220046   -0.35425660
| 61> H    0.99193915   -2.22361652   -1.06520649
| 62> H    1.05989823   -2.43988457    0.66566715
| 63> C    2.42764720   -1.00307570   -0.08874771
| 64> O    1.85093175    0.07221915    0.06784103
| 65> N    3.77828032   -1.10057839   -0.15336568
| 66> H    4.17923195   -2.01111237   -0.28288078
| 67> C    4.64652244    0.05139207   -0.04392260
| 68> H    4.01002831    0.91969252    0.09086201
| 69> H    5.31211194   -0.04006312    0.81217028
| 70> H    5.24098816    0.18081256   -0.94618178
| 71> *
| 72>
| 73>
| 74>
| 75>
| 76>                          ****END OF INPUT****
 Total Charge           Charge          ....    0
 Multiplicity           Mult            ....    1
 Number of Electrons    NEL             ....   50
MP2 TOTAL ENERGY:     -324.101230462 Eh
FINAL SINGLE POINT ENERGY      -324.101230461789
MP2 TOTAL ENERGY:     -324.394212545 Eh
FINAL SINGLE POINT ENERGY      -324.394212545419

CARTESIAN COORDINATES (ANGSTROEM)
---------------------------------
  O     -0.392018   -0.384719    0.076071
  H     -0.911461    0.413812    0.177649
  H      0.524904   -0.068485    0.090511
  C      1.672915   -2.301089   -0.221341
  H      2.322878   -3.162200   -0.354257
  H      0.991939   -2.223617   -1.065206
  H      1.059898   -2.439885    0.665667
  C      2.427647   -1.003076   -0.088748
  O      1.850932    0.072219    0.067841
  N      3.778280   -1.100578   -0.153366
  H      4.179232   -2.011112   -0.282881
  C      4.646522    0.051392   -0.043923
  H      4.010028    0.919693    0.090862
  H      5.312112   -0.040063    0.812170
  H      5.240988    0.180813   -0.946182

 Multiplicity           Mult            ....    1
 Number of Electrons    NEL             ....   50
 Basis Dimension        Dim             ....  894

ORBITAL ENERGIES
----------------

  NO   OCC          E(Eh)            E(eV)
   0   2.0000     -20.532681      -558.7226
   1   2.0000     -20.474365      -557.1358
   2   2.0000     -15.604252      -424.6133
   3   2.0000     -11.371061      -309.4223
   4   2.0000     -11.268350      -306.6274
   5   2.0000     -11.234589      -305.7087
   6   2.0000      -1.413902       -38.4742
   7   2.0000      -1.281832       -34.8804
   8   2.0000      -1.248676       -33.9782
   9   2.0000      -1.029318       -28.0092
  10   2.0000      -0.944555       -25.7026
  11   2.0000      -0.822080       -22.3699
  12   2.0000      -0.707584       -19.2543
  13   2.0000      -0.699576       -19.0364
  14   2.0000      -0.668591       -18.1933
  15   2.0000      -0.649345       -17.6696
  16   2.0000      -0.596003       -16.2181
  17   2.0000      -0.582934       -15.8624
  18   2.0000      -0.566402       -15.4126
  19   2.0000      -0.557089       -15.1592
  20   2.0000      -0.524079       -14.2609
  21   2.0000      -0.511526       -13.9193
  22   2.0000      -0.439930       -11.9711
  23   2.0000      -0.433096       -11.7852
  24   2.0000      -0.411856       -11.2072
  25   0.0000       0.016649         0.4530
  26   0.0000       0.029398         0.8000
  27   0.0000       0.034528         0.9395
  28   0.0000       0.037990         1.0338
  29   0.0000       0.049991         1.3603

MULLIKEN ATOMIC CHARGES
-----------------------
   0 O :   -0.777552
   1 H :    0.246672
   2 H :    0.299428
   3 C :   -0.732443
   4 H :    0.289505
   5 H :    0.278015
   6 H :    0.278270
   7 C :    0.975527
   8 O :   -0.737795
   9 N :   -0.466615
  10 H :    0.231916
  11 C :   -0.738851
  12 H :    0.294400
  13 H :    0.279271
  14 H :    0.280253
Sum of atomic charges:   -0.0000000

LOEWDIN ATOMIC CHARGES
----------------------
   0 O :    1.600984
   1 H :   -0.760081
   2 H :   -1.539068
   3 C :    0.924075
   4 H :   -0.303737
   5 H :   -0.299026
   6 H :   -0.297325
   7 C :   -0.598518
   8 O :    1.028966
   9 N :    0.862654
  10 H :   -0.502352
  11 C :    0.805207
  12 H :   -0.356617
  13 H :   -0.282588
  14 H :   -0.282573

  Mayer bond orders larger than 0.100000
B(  0-O ,  1-H ) :   1.0201 B(  0-O ,  2-H ) :   0.8782 B(  0-O ,  8-O ) :  -0.1266
B(  3-C ,  4-H ) :   0.9820 B(  3-C ,  5-H ) :   0.9364 B(  3-C ,  6-H ) :   0.9358
B(  3-C ,  7-C ) :   0.8244 B(  7-C ,  8-O ) :   1.3112 B(  7-C ,  9-N ) :   1.1823
B(  7-C , 11-C ) :  -0.1167 B(  8-O ,  9-N ) :   0.1066 B(  9-N , 10-H ) :   0.9946
B(  9-N , 11-C ) :   0.8478 B( 11-C , 12-H ) :   0.9494 B( 11-C , 13-H ) :   0.9508
B( 11-C , 14-H ) :   0.9496

MP2 TOTAL ENERGY:     -324.488284274 Eh
FINAL SINGLE POINT ENERGY      -324.488284273865

DIPOLE MOMENT
-------------
                                X             Y             Z
Electronic contribution:     -0.47416       0.95311       0.14880
Nuclear contribution   :      2.36136      -1.59401      -0.30273
                        -----------------------------------------
Total Dipole Moment    :      1.88721      -0.64090      -0.15393
                        -----------------------------------------
Magnitude (a.u.)       :      1.99900
Magnitude (Debye)      :      5.08105

Rotational constants in cm-1:     0.226933     0.063484     0.050535
Rotational constants in MHz :  6803.283939  1903.189573  1515.014972

                             ****ORCA TERMINATED NORMALLY****
TOTAL RUN TIME: 0 days 1 hours 13 minutes 50 seconds 335 msec
