                         Program Version 5.0.4 -  RELEASE  -
|  1> ! ri-mp2 aug-cc-pvdz aug-cc-pvdz/c tightscf
|  2> %pal nprocs 16 end
|  3> %maxcore 3800
|  4> %base "DZ_S66by10_53_1.0_dimer"
|  5>
|  6> *xyz 0 1
|  7> C    0.85556074    0.35853244    1.04975426
|  8> H    1.51382550    0.90267956    1.71276582
|  9> C    1.34289713   -0.67537866    0.25115740
| 10> H    2.39288384   -0.93334472    0.28196305
| 11> C    0.47780661   -1.37670110   -0.58781577
| 12> H    0.85608399   -2.17890753   -1.20682428
| 13> C   -0.87482983   -1.04255615   -0.63045178
| 14> H   -1.54540573   -1.58570014   -1.28241614
| 15> C   -1.36239729   -0.00701391    0.16584645
| 16> H   -2.41157102    0.25346723    0.13077885
| 17> C   -0.49844404    0.69315695    1.00699199
| 18> H   -0.86611090    1.49033989    1.63803696
| 19> C    0.07829262    0.48600148    4.82524829
| 20> O    0.32478197    1.52942772    4.23800901
| 21> N   -0.22575463   -0.66900506    4.17408094
| 22> H   -0.20055432   -0.67602039    3.16744434
| 23> H   -0.38153111   -1.52449738    4.66978265
| 24> C    0.10113732    0.39110965    6.33366576
| 25> H    1.13285112    0.47532193    6.66873956
| 26> H   -0.32076659   -0.53553335    6.71469143
| 27> H   -0.44832734    1.23495596    6.74043627
| 28> *
| 29>
| 30> $new_job
| 31> ! ri-mp2 aug-cc-pvtz aug-cc-pvtz/c tightscf
| 32> %pal nprocs 16 end
| 33> %maxcore 3800
| 34> %base "TZ_S66by10_53_1.0_dimer"
| 35>
| 36> *xyz 0 1
| 37> C    0.85556074    0.35853244    1.04975426
| 38> H    1.51382550    0.90267956    1.71276582
| 39> C    1.34289713   -0.67537866    0.25115740
| 40> H    2.39288384   -0.93334472    0.28196305
| 41> C    0.47780661   -1.37670110   -0.58781577
| 42> H    0.85608399   -2.17890753   -1.20682428
| 43> C   -0.87482983   -1.04255615   -0.63045178
| 44> H   -1.54540573   -1.58570014   -1.28241614
| 45> C   -1.36239729   -0.00701391    0.16584645
| 46> H   -2.41157102    0.25346723    0.13077885
| 47> C   -0.49844404    0.69315695    1.00699199
| 48> H   -0.86611090    1.49033989    1.63803696
| 49> C    0.07829262    0.48600148    4.82524829
| 50> O    0.32478197    1.52942772    4.23800901
| 51> N   -0.22575463   -0.66900506    4.17408094
| 52> H   -0.20055432   -0.67602039    3.16744434
| 53> H   -0.38153111   -1.52449738    4.66978265
| 54> C    0.10113732    0.39110965    6.33366576
| 55> H    1.13285112    0.47532193    6.66873956
| 56> H   -0.32076659   -0.53553335    6.71469143
| 57> H   -0.44832734    1.23495596    6.74043627
| 58> *
| 59>
| 60> $new_job
| 61> ! ri-mp2 aug-cc-pvqz aug-cc-pvqz/c tightscf
| 62> %pal nprocs 16 end
| 63> %maxcore 3800
| 64> %base "QZ_S66by10_53_1.0_dimer"
| 65>
| 66> *xyz 0 1
| 67> C    0.85556074    0.35853244    1.04975426
| 68> H    1.51382550    0.90267956    1.71276582
| 69> C    1.34289713   -0.67537866    0.25115740
| 70> H    2.39288384   -0.93334472    0.28196305
| 71> C    0.47780661   -1.37670110   -0.58781577
| 72> H    0.85608399   -2.17890753   -1.20682428
| 73> C   -0.87482983   -1.04255615   -0.63045178
| 74> H   -1.54540573   -1.58570014   -1.28241614
| 75> C   -1.36239729   -0.00701391    0.16584645
| 76> H   -2.41157102    0.25346723    0.13077885
| 77> C   -0.49844404    0.69315695    1.00699199
| 78> H   -0.86611090    1.49033989    1.63803696
| 79> C    0.07829262    0.48600148    4.82524829
| 80> O    0.32478197    1.52942772    4.23800901
| 81> N   -0.22575463   -0.66900506    4.17408094
| 82> H   -0.20055432   -0.67602039    3.16744434
| 83> H   -0.38153111   -1.52449738    4.66978265
| 84> C    0.10113732    0.39110965    6.33366576
| 85> H    1.13285112    0.47532193    6.66873956
| 86> H   -0.32076659   -0.53553335    6.71469143
| 87> H   -0.44832734    1.23495596    6.74043627
| 88> *
| 89>
| 90>
| 91>
| 92>
| 93>                          ****END OF INPUT****
 Total Charge           Charge          ....    0
 Multiplicity           Mult            ....    1
 Number of Electrons    NEL             ....   74
MP2 TOTAL ENERGY:     -440.217167334 Eh
FINAL SINGLE POINT ENERGY      -440.217167334367
MP2 TOTAL ENERGY:     -440.607604676 Eh
FINAL SINGLE POINT ENERGY      -440.607604675975

CARTESIAN COORDINATES (ANGSTROEM)
---------------------------------
  C      0.855561    0.358532    1.049754
  H      1.513825    0.902680    1.712766
  C      1.342897   -0.675379    0.251157
  H      2.392884   -0.933345    0.281963
  C      0.477807   -1.376701   -0.587816
  H      0.856084   -2.178908   -1.206824
  C     -0.874830   -1.042556   -0.630452
  H     -1.545406   -1.585700   -1.282416
  C     -1.362397   -0.007014    0.165846
  H     -2.411571    0.253467    0.130779
  C     -0.498444    0.693157    1.006992
  H     -0.866111    1.490340    1.638037
  C      0.078293    0.486001    4.825248
  O      0.324782    1.529428    4.238009
  N     -0.225755   -0.669005    4.174081
  H     -0.200554   -0.676020    3.167444
  H     -0.381531   -1.524497    4.669783
  C      0.101137    0.391110    6.333666
  H      1.132851    0.475322    6.668740
  H     -0.320767   -0.535533    6.714691
  H     -0.448327    1.234956    6.740436

 Multiplicity           Mult            ....    1
 Number of Electrons    NEL             ....   74
 Basis Dimension        Dim             .... 1306

ORBITAL ENERGIES
----------------

  NO   OCC          E(Eh)            E(eV)
   0   2.0000     -20.511124      -558.1360
   1   2.0000     -15.578960      -423.9251
   2   2.0000     -11.350766      -308.8701
   3   2.0000     -11.234855      -305.7159
   4   2.0000     -11.234430      -305.7044
   5   2.0000     -11.233539      -305.6802
   6   2.0000     -11.232654      -305.6561
   7   2.0000     -11.232305      -305.6465
   8   2.0000     -11.228972      -305.5559
   9   2.0000     -11.227765      -305.5230
  10   2.0000      -1.374673       -37.4067
  11   2.0000      -1.209361       -32.9084
  12   2.0000      -1.148449       -31.2509
  13   2.0000      -1.012777       -27.5591
  14   2.0000      -1.012769       -27.5588
  15   2.0000      -1.003763       -27.3138
  16   2.0000      -0.822348       -22.3772
  17   2.0000      -0.821008       -22.3408
  18   2.0000      -0.797188       -21.6926
  19   2.0000      -0.724742       -19.7212
  20   2.0000      -0.706793       -19.2328
  21   2.0000      -0.663989       -18.0681
  22   2.0000      -0.641142       -17.4464
  23   2.0000      -0.616768       -16.7831
  24   2.0000      -0.614269       -16.7151
  25   2.0000      -0.586298       -15.9540
  26   2.0000      -0.586060       -15.9475
  27   2.0000      -0.582321       -15.8458
  28   2.0000      -0.561594       -15.2817
  29   2.0000      -0.523072       -14.2335
  30   2.0000      -0.501784       -13.6542
  31   2.0000      -0.491815       -13.3830
  32   2.0000      -0.491671       -13.3790
  33   2.0000      -0.423855       -11.5337
  34   2.0000      -0.412192       -11.2163
  35   2.0000      -0.336469        -9.1558
  36   2.0000      -0.335297        -9.1239
  37   0.0000       0.020159         0.5486
  38   0.0000       0.027674         0.7531
  39   0.0000       0.030498         0.8299
  40   0.0000       0.036345         0.9890
  41   0.0000       0.038735         1.0540

MULLIKEN ATOMIC CHARGES
-----------------------
   0 C :   -0.201571
   1 H :    0.372270
   2 C :   -0.432697
   3 H :    0.303974
   4 C :   -0.373534
   5 H :    0.342875
   6 C :   -0.354932
   7 H :    0.347268
   8 C :   -0.433389
   9 H :    0.303482
  10 C :   -0.201785
  11 H :    0.369360
  12 C :    0.912529
  13 O :   -0.865671
  14 N :   -0.793925
  15 H :    0.399653
  16 H :    0.227510
  17 C :   -0.736048
  18 H :    0.303040
  19 H :    0.237767
  20 H :    0.273823
Sum of atomic charges:    0.0000000

LOEWDIN ATOMIC CHARGES
----------------------
   0 C :    0.312911
   1 H :   -0.328790
   2 C :    0.337362
   3 H :   -0.324998
   4 C :    0.328822
   5 H :   -0.328019
   6 C :    0.329014
   7 H :   -0.327980
   8 C :    0.337783
   9 H :   -0.324747
  10 C :    0.312927
  11 H :   -0.328577
  12 C :   -0.838421
  13 O :    0.689216
  14 N :    1.250995
  15 H :   -0.569330
  16 H :   -0.495637
  17 C :    0.886818
  18 H :   -0.296496
  19 H :   -0.314916
  20 H :   -0.307937

  Mayer bond orders larger than 0.100000
B(  0-C ,  1-H ) :   0.9560 B(  0-C ,  2-C ) :   1.2339 B(  0-C ,  6-C ) :   0.1132
B(  0-C , 10-C ) :   1.1253 B(  2-C ,  3-H ) :   1.0301 B(  2-C ,  4-C ) :   1.2586
B(  2-C ,  8-C ) :   0.1661 B(  4-C ,  5-H ) :   0.9898 B(  4-C ,  6-C ) :   1.1822
B(  4-C , 10-C ) :   0.1136 B(  6-C ,  7-H ) :   0.9852 B(  6-C ,  8-C ) :   1.2515
B(  8-C ,  9-H ) :   1.0309 B(  8-C , 10-C ) :   1.2344 B( 10-C , 11-H ) :   0.9545
B( 12-C , 13-O ) :   1.3471 B( 12-C , 14-N ) :   1.1175 B( 12-C , 17-C ) :   0.7734
B( 13-O , 14-N ) :   0.1448 B( 14-N , 15-H ) :   0.7290 B( 14-N , 16-H ) :   1.0503
B( 17-C , 18-H ) :   0.9008 B( 17-C , 19-H ) :   1.0027 B( 17-C , 20-H ) :   0.9879

MP2 TOTAL ENERGY:     -440.731993172 Eh
FINAL SINGLE POINT ENERGY      -440.731993172134

DIPOLE MOMENT
-------------
                                X             Y             Z
Electronic contribution:      0.22516       1.30962      -3.95865
Nuclear contribution   :     -0.49865      -2.71049       4.53532
                        -----------------------------------------
Total Dipole Moment    :     -0.27349      -1.40087       0.57667
                        -----------------------------------------
Magnitude (a.u.)       :      1.53941
Magnitude (Debye)      :      3.91288

Rotational constants in cm-1:     0.101062     0.017922     0.017665
Rotational constants in MHz :  3029.749532   537.284607   529.579489

                             ****ORCA TERMINATED NORMALLY****
TOTAL RUN TIME: 0 days 0 hours 58 minutes 4 seconds 475 msec
