                         Program Version 5.0.4 -  RELEASE  -
|  1> ! ri-mp2 aug-cc-pvdz aug-cc-pvdz/c tightscf
|  2> %pal nprocs 16 end
|  3> %maxcore 3800
|  4> %base "DZ_S66by10_42_0.8_dimer"
|  5> %scf STABPerform true end
|  6>
|  7> *xyz 0 1
|  8> N    0.19572959   -0.84468925    0.82384642
|  9> H    0.45039753   -1.79675294    1.04976794
| 10> C   -1.17904919   -0.57368440    0.75948349
| 11> O   -1.99364624   -1.45626527    0.96690066
| 12> C   -1.47671471    0.81115567    0.43755952
| 13> H   -2.50635592    1.11565059    0.36389469
| 14> C   -0.46811280    1.68296245    0.23489084
| 15> H   -0.63843522    2.72164296   -0.00616410
| 16> N    0.84562854    1.30599113    0.32683051
| 17> H    1.58969256    1.96887924    0.18595979
| 18> C    1.25426147    0.01946187    0.63624397
| 19> O    2.42230438   -0.30171639    0.73187948
| 20> C    1.03858777   -0.85362865    3.81026804
| 21> H    1.49244027   -0.94568489    2.82228549
| 22> H    1.58309026   -1.51760892    4.47946571
| 23> C    1.09290124    0.61232335    4.24320402
| 24> H    2.05119123    1.08522229    4.03247974
| 25> H    0.90478595    0.69396089    5.31642716
| 26> C   -0.07445035    1.22513783    3.47243282
| 27> H    0.19985393    1.31391943    2.41896120
| 28> H   -0.35886477    2.21627895    3.82406684
| 29> C   -1.19139484    0.18756592    3.64346114
| 30> H   -1.91693412    0.21117977    2.83208923
| 31> H   -1.73548047    0.39226308    4.56570975
| 32> C   -0.46835849   -1.17898191    3.74711802
| 33> H   -0.71102304   -1.82313804    2.90375835
| 34> H   -0.78346472   -1.70638432    4.64620445
| 35> *
| 36>
| 37> $new_job
| 38> ! ri-mp2 aug-cc-pvtz aug-cc-pvtz/c tightscf
| 39> %pal nprocs 16 end
| 40> %maxcore 3800
| 41> %base "TZ_S66by10_42_0.8_dimer"
| 42>
| 43> *xyz 0 1
| 44> N    0.19572959   -0.84468925    0.82384642
| 45> H    0.45039753   -1.79675294    1.04976794
| 46> C   -1.17904919   -0.57368440    0.75948349
| 47> O   -1.99364624   -1.45626527    0.96690066
| 48> C   -1.47671471    0.81115567    0.43755952
| 49> H   -2.50635592    1.11565059    0.36389469
| 50> C   -0.46811280    1.68296245    0.23489084
| 51> H   -0.63843522    2.72164296   -0.00616410
| 52> N    0.84562854    1.30599113    0.32683051
| 53> H    1.58969256    1.96887924    0.18595979
| 54> C    1.25426147    0.01946187    0.63624397
| 55> O    2.42230438   -0.30171639    0.73187948
| 56> C    1.03858777   -0.85362865    3.81026804
| 57> H    1.49244027   -0.94568489    2.82228549
| 58> H    1.58309026   -1.51760892    4.47946571
| 59> C    1.09290124    0.61232335    4.24320402
| 60> H    2.05119123    1.08522229    4.03247974
| 61> H    0.90478595    0.69396089    5.31642716
| 62> C   -0.07445035    1.22513783    3.47243282
| 63> H    0.19985393    1.31391943    2.41896120
| 64> H   -0.35886477    2.21627895    3.82406684
| 65> C   -1.19139484    0.18756592    3.64346114
| 66> H   -1.91693412    0.21117977    2.83208923
| 67> H   -1.73548047    0.39226308    4.56570975
| 68> C   -0.46835849   -1.17898191    3.74711802
| 69> H   -0.71102304   -1.82313804    2.90375835
| 70> H   -0.78346472   -1.70638432    4.64620445
| 71> *
| 72>
| 73> $new_job
| 74> ! ri-mp2 aug-cc-pvqz aug-cc-pvqz/c tightscf
| 75> %pal nprocs 16 end
| 76> %maxcore 3800
| 77> %base "QZ_S66by10_42_0.8_dimer"
| 78>
| 79> *xyz 0 1
| 80> N    0.19572959   -0.84468925    0.82384642
| 81> H    0.45039753   -1.79675294    1.04976794
| 82> C   -1.17904919   -0.57368440    0.75948349
| 83> O   -1.99364624   -1.45626527    0.96690066
| 84> C   -1.47671471    0.81115567    0.43755952
| 85> H   -2.50635592    1.11565059    0.36389469
| 86> C   -0.46811280    1.68296245    0.23489084
| 87> H   -0.63843522    2.72164296   -0.00616410
| 88> N    0.84562854    1.30599113    0.32683051
| 89> H    1.58969256    1.96887924    0.18595979
| 90> C    1.25426147    0.01946187    0.63624397
| 91> O    2.42230438   -0.30171639    0.73187948
| 92> C    1.03858777   -0.85362865    3.81026804
| 93> H    1.49244027   -0.94568489    2.82228549
| 94> H    1.58309026   -1.51760892    4.47946571
| 95> C    1.09290124    0.61232335    4.24320402
| 96> H    2.05119123    1.08522229    4.03247974
| 97> H    0.90478595    0.69396089    5.31642716
| 98> C   -0.07445035    1.22513783    3.47243282
| 99> H    0.19985393    1.31391943    2.41896120
|100> H   -0.35886477    2.21627895    3.82406684
|101> C   -1.19139484    0.18756592    3.64346114
|102> H   -1.91693412    0.21117977    2.83208923
|103> H   -1.73548047    0.39226308    4.56570975
|104> C   -0.46835849   -1.17898191    3.74711802
|105> H   -0.71102304   -1.82313804    2.90375835
|106> H   -0.78346472   -1.70638432    4.64620445
|107> *
|108>
|109>
|110>
|111>
|112>                          ****END OF INPUT****
 Total Charge           Charge          ....    0
 Multiplicity           Mult            ....    1
 Number of Electrons    NEL             ....   98
MP2 TOTAL ENERGY:     -609.703577334 Eh
FINAL SINGLE POINT ENERGY      -609.703577334335
MP2 TOTAL ENERGY:     -610.237036719 Eh
FINAL SINGLE POINT ENERGY      -610.237036719125

CARTESIAN COORDINATES (ANGSTROEM)
---------------------------------
  N      0.195730   -0.844689    0.823846
  H      0.450398   -1.796753    1.049768
  C     -1.179049   -0.573684    0.759483
  O     -1.993646   -1.456265    0.966901
  C     -1.476715    0.811156    0.437560
  H     -2.506356    1.115651    0.363895
  C     -0.468113    1.682962    0.234891
  H     -0.638435    2.721643   -0.006164
  N      0.845629    1.305991    0.326831
  H      1.589693    1.968879    0.185960
  C      1.254261    0.019462    0.636244
  O      2.422304   -0.301716    0.731879
  C      1.038588   -0.853629    3.810268
  H      1.492440   -0.945685    2.822285
  H      1.583090   -1.517609    4.479466
  C      1.092901    0.612323    4.243204
  H      2.051191    1.085222    4.032480
  H      0.904786    0.693961    5.316427
  C     -0.074450    1.225138    3.472433
  H      0.199854    1.313919    2.418961
  H     -0.358865    2.216279    3.824067
  C     -1.191395    0.187566    3.643461
  H     -1.916934    0.211180    2.832089
  H     -1.735480    0.392263    4.565710
  C     -0.468358   -1.178982    3.747118
  H     -0.711023   -1.823138    2.903758
  H     -0.783465   -1.706384    4.646204

 Multiplicity           Mult            ....    1
 Number of Electrons    NEL             ....   98
 Basis Dimension        Dim             .... 1684

ORBITAL ENERGIES
----------------

  NO   OCC          E(Eh)            E(eV)
   0   2.0000     -20.547067      -559.1141
   1   2.0000     -20.539640      -558.9120
   2   2.0000     -15.642300      -425.6486
   3   2.0000     -15.626153      -425.2092
   4   2.0000     -11.419478      -310.7398
   5   2.0000     -11.381387      -309.7033
   6   2.0000     -11.338544      -308.5375
   7   2.0000     -11.254975      -306.2634
   8   2.0000     -11.208701      -305.0043
   9   2.0000     -11.206999      -304.9580
  10   2.0000     -11.205205      -304.9091
  11   2.0000     -11.201784      -304.8160
  12   2.0000     -11.201152      -304.7989
  13   2.0000      -1.439080       -39.1594
  14   2.0000      -1.400843       -38.1189
  15   2.0000      -1.315543       -35.7977
  16   2.0000      -1.248215       -33.9657
  17   2.0000      -1.114994       -30.3405
  18   2.0000      -1.089890       -29.6574
  19   2.0000      -0.956808       -26.0361
  20   2.0000      -0.954468       -25.9724
  21   2.0000      -0.934462       -25.4280
  22   2.0000      -0.903762       -24.5926
  23   2.0000      -0.809347       -22.0235
  24   2.0000      -0.780848       -21.2480
  25   2.0000      -0.772623       -21.0241
  26   2.0000      -0.759695       -20.6723
  27   2.0000      -0.716328       -19.4923
  28   2.0000      -0.691996       -18.8302
  29   2.0000      -0.679899       -18.5010
  30   2.0000      -0.655418       -17.8348
  31   2.0000      -0.643971       -17.5233
  32   2.0000      -0.632212       -17.2034
  33   2.0000      -0.616849       -16.7853
  34   2.0000      -0.603777       -16.4296
  35   2.0000      -0.592124       -16.1125
  36   2.0000      -0.582768       -15.8579
  37   2.0000      -0.546485       -14.8706
  38   2.0000      -0.517580       -14.0841
  39   2.0000      -0.488185       -13.2842
  40   2.0000      -0.474385       -12.9087
  41   2.0000      -0.471227       -12.8227
  42   2.0000      -0.462638       -12.5890
  43   2.0000      -0.459952       -12.5159
  44   2.0000      -0.459789       -12.5115
  45   2.0000      -0.451668       -12.2905
  46   2.0000      -0.442897       -12.0519
  47   2.0000      -0.433509       -11.7964
  48   2.0000      -0.369592       -10.0571
  49   0.0000       0.011676         0.3177
  50   0.0000       0.027449         0.7469
  51   0.0000       0.028704         0.7811
  52   0.0000       0.032263         0.8779
  53   0.0000       0.040618         1.1053

MULLIKEN ATOMIC CHARGES
-----------------------
   0 N :   -0.680797
   1 H :   -0.007539
   2 C :    1.821752
   3 O :   -1.043966
   4 C :   -0.612586
   5 H :    0.203611
   6 C :   -0.184392
   7 H :    0.357803
   8 N :   -0.769655
   9 H :    0.014531
  10 C :    2.072686
  11 O :   -0.971277
  12 C :   -0.642979
  13 H :    0.246269
  14 H :    0.300549
  15 C :   -0.552176
  16 H :    0.286027
  17 H :    0.223531
  18 C :   -0.624747
  19 H :    0.430849
  20 H :    0.233194
  21 C :   -0.686785
  22 H :    0.443069
  23 H :    0.219981
  24 C :   -0.583914
  25 H :    0.235508
  26 H :    0.271454
Sum of atomic charges:    0.0000000

LOEWDIN ATOMIC CHARGES
----------------------
   0 N :    0.811677
   1 H :   -0.511336
   2 C :   -0.867663
   3 O :    0.765956
   4 C :    0.349287
   5 H :   -0.324635
   6 C :    0.246389
   7 H :   -0.277120
   8 N :    0.835840
   9 H :   -0.467068
  10 C :   -0.972764
  11 O :    0.753736
  12 C :    0.541901
  13 H :   -0.406214
  14 H :   -0.243799
  15 C :    0.551852
  16 H :   -0.247706
  17 H :   -0.258076
  18 C :    0.525865
  19 H :   -0.444069
  20 H :   -0.234168
  21 C :    0.548958
  22 H :   -0.357142
  23 H :   -0.251733
  24 C :    0.558146
  25 H :   -0.372953
  26 H :   -0.253159

  Mayer bond orders larger than 0.100000
B(  0-N ,  1-H ) :   1.2341 B(  0-N ,  2-C ) :   1.0336 B(  0-N ,  3-O ) :   0.2545
B(  0-N , 10-C ) :   0.9588 B(  0-N , 11-O ) :   0.3071 B(  2-C ,  3-O ) :   0.4324
B(  2-C ,  4-C ) :   0.9817 B(  3-O ,  4-C ) :   0.2572 B(  3-O , 21-C ) :   0.1319
B(  4-C ,  5-H ) :   1.1083 B(  4-C ,  6-C ) :   1.6437 B(  4-C , 19-H ) :  -0.1141
B(  6-C ,  7-H ) :   0.9949 B(  6-C ,  8-N ) :   0.9877 B(  6-C ,  9-H ) :  -0.1049
B(  8-N ,  9-H ) :   1.2549 B(  8-N , 10-C ) :   0.9877 B(  8-N , 11-O ) :   0.3004
B( 10-C , 11-O ) :   0.5107 B( 12-C , 13-H ) :   0.8623 B( 12-C , 14-H ) :   0.9174
B( 12-C , 15-C ) :   0.9767 B( 12-C , 24-C ) :   0.9555 B( 15-C , 16-H ) :   0.8849
B( 15-C , 17-H ) :   0.9837 B( 15-C , 18-C ) :   0.9926 B( 15-C , 19-H ) :  -0.1061
B( 15-C , 21-C ) :  -0.1034 B( 18-C , 19-H ) :   0.7130 B( 18-C , 20-H ) :   1.0369
B( 18-C , 21-C ) :   0.7995 B( 21-C , 22-H ) :   0.8649 B( 21-C , 23-H ) :   0.9980
B( 21-C , 24-C ) :   0.9104 B( 24-C , 25-H ) :   0.9735 B( 24-C , 26-H ) :   0.9311

MP2 TOTAL ENERGY:     -610.407118622 Eh
FINAL SINGLE POINT ENERGY      -610.407118622314

DIPOLE MOMENT
-------------
                                X             Y             Z
Electronic contribution:      0.56796      -1.43119     -13.27185
Nuclear contribution   :     -0.58784       3.26499      12.80048
                        -----------------------------------------
Total Dipole Moment    :     -0.01988       1.83380      -0.47137
                        -----------------------------------------
Magnitude (a.u.)       :      1.89352
Magnitude (Debye)      :      4.81295

Rotational constants in cm-1:     0.033926     0.026303     0.021821
Rotational constants in MHz :  1017.062105   788.554481   654.178985

                             ****ORCA TERMINATED NORMALLY****
TOTAL RUN TIME: 0 days 15 hours 40 minutes 27 seconds 363 msec
