                         Program Version 5.0.4 -  RELEASE  -
|  1> ! ri-mp2 aug-cc-pvdz aug-cc-pvdz/c tightscf
|  2> %pal nprocs 16 end
|  3> %maxcore 3800
|  4> %base "DZ_S66by10_27_1.1_dimer"
|  5>
|  6> *xyz 0 1
|  7> C    0.81874699    0.86417234    0.18828612
|  8> H    1.46611361    1.71666767    0.34472141
|  9> C    1.36899712   -0.39052394   -0.06669818
| 10> H    2.44303637   -0.51186194   -0.11057444
| 11> C    0.53437860   -1.48849320   -0.27188804
| 12> H    0.96084825   -2.46156422   -0.47550749
| 13> C   -0.84911561   -1.33050735   -0.21989643
| 14> H   -1.49706942   -2.18186028   -0.37955321
| 15> C   -1.39948546   -0.07603020    0.04043417
| 16> H   -2.47268667    0.04490778    0.09338206
| 17> C   -0.56529230    1.02140336    0.24227921
| 18> H   -0.99255667    1.99366131    0.44625817
| 19> N   -2.46770780    0.19605040    3.77240516
| 20> C   -1.85282187    1.35371821    4.05246936
| 21> H   -2.50042593    2.20688966    4.21498145
| 22> C   -0.47060697    1.49456594    4.14264017
| 23> H   -0.03875821    2.45821606    4.37385647
| 24> C    0.33034442    0.37758664    3.92842626
| 25> H    1.40791359    0.44797092    3.98326077
| 26> C   -0.29020748   -0.83106840    3.63476668
| 27> H    0.28556702   -1.72669028    3.45069175
| 28> C   -1.68072176   -0.86910628    3.56931727
| 29> H   -2.18957469   -1.79755966    3.34047459
| 30> *
| 31>
| 32> $new_job
| 33> ! ri-mp2 aug-cc-pvtz aug-cc-pvtz/c tightscf
| 34> %pal nprocs 16 end
| 35> %maxcore 3800
| 36> %base "TZ_S66by10_27_1.1_dimer"
| 37>
| 38> *xyz 0 1
| 39> C    0.81874699    0.86417234    0.18828612
| 40> H    1.46611361    1.71666767    0.34472141
| 41> C    1.36899712   -0.39052394   -0.06669818
| 42> H    2.44303637   -0.51186194   -0.11057444
| 43> C    0.53437860   -1.48849320   -0.27188804
| 44> H    0.96084825   -2.46156422   -0.47550749
| 45> C   -0.84911561   -1.33050735   -0.21989643
| 46> H   -1.49706942   -2.18186028   -0.37955321
| 47> C   -1.39948546   -0.07603020    0.04043417
| 48> H   -2.47268667    0.04490778    0.09338206
| 49> C   -0.56529230    1.02140336    0.24227921
| 50> H   -0.99255667    1.99366131    0.44625817
| 51> N   -2.46770780    0.19605040    3.77240516
| 52> C   -1.85282187    1.35371821    4.05246936
| 53> H   -2.50042593    2.20688966    4.21498145
| 54> C   -0.47060697    1.49456594    4.14264017
| 55> H   -0.03875821    2.45821606    4.37385647
| 56> C    0.33034442    0.37758664    3.92842626
| 57> H    1.40791359    0.44797092    3.98326077
| 58> C   -0.29020748   -0.83106840    3.63476668
| 59> H    0.28556702   -1.72669028    3.45069175
| 60> C   -1.68072176   -0.86910628    3.56931727
| 61> H   -2.18957469   -1.79755966    3.34047459
| 62> *
| 63>
| 64> $new_job
| 65> ! ri-mp2 aug-cc-pvqz aug-cc-pvqz/c tightscf
| 66> %pal nprocs 16 end
| 67> %maxcore 3800
| 68> %base "QZ_S66by10_27_1.1_dimer"
| 69>
| 70> *xyz 0 1
| 71> C    0.81874699    0.86417234    0.18828612
| 72> H    1.46611361    1.71666767    0.34472141
| 73> C    1.36899712   -0.39052394   -0.06669818
| 74> H    2.44303637   -0.51186194   -0.11057444
| 75> C    0.53437860   -1.48849320   -0.27188804
| 76> H    0.96084825   -2.46156422   -0.47550749
| 77> C   -0.84911561   -1.33050735   -0.21989643
| 78> H   -1.49706942   -2.18186028   -0.37955321
| 79> C   -1.39948546   -0.07603020    0.04043417
| 80> H   -2.47268667    0.04490778    0.09338206
| 81> C   -0.56529230    1.02140336    0.24227921
| 82> H   -0.99255667    1.99366131    0.44625817
| 83> N   -2.46770780    0.19605040    3.77240516
| 84> C   -1.85282187    1.35371821    4.05246936
| 85> H   -2.50042593    2.20688966    4.21498145
| 86> C   -0.47060697    1.49456594    4.14264017
| 87> H   -0.03875821    2.45821606    4.37385647
| 88> C    0.33034442    0.37758664    3.92842626
| 89> H    1.40791359    0.44797092    3.98326077
| 90> C   -0.29020748   -0.83106840    3.63476668
| 91> H    0.28556702   -1.72669028    3.45069175
| 92> C   -1.68072176   -0.86910628    3.56931727
| 93> H   -2.18957469   -1.79755966    3.34047459
| 94> *
| 95>
| 96>
| 97>
| 98>
| 99>                          ****END OF INPUT****
 Total Charge           Charge          ....    0
 Multiplicity           Mult            ....    1
 Number of Electrons    NEL             ....   84
MP2 TOTAL ENERGY:     -479.111989865 Eh
FINAL SINGLE POINT ENERGY      -479.111989865318
MP2 TOTAL ENERGY:     -479.530723960 Eh
FINAL SINGLE POINT ENERGY      -479.530723959817

CARTESIAN COORDINATES (ANGSTROEM)
---------------------------------
  C      0.818747    0.864172    0.188286
  H      1.466114    1.716668    0.344721
  C      1.368997   -0.390524   -0.066698
  H      2.443036   -0.511862   -0.110574
  C      0.534379   -1.488493   -0.271888
  H      0.960848   -2.461564   -0.475507
  C     -0.849116   -1.330507   -0.219896
  H     -1.497069   -2.181860   -0.379553
  C     -1.399485   -0.076030    0.040434
  H     -2.472687    0.044908    0.093382
  C     -0.565292    1.021403    0.242279
  H     -0.992557    1.993661    0.446258
  N     -2.467708    0.196050    3.772405
  C     -1.852822    1.353718    4.052469
  H     -2.500426    2.206890    4.214981
  C     -0.470607    1.494566    4.142640
  H     -0.038758    2.458216    4.373856
  C      0.330344    0.377587    3.928426
  H      1.407914    0.447971    3.983261
  C     -0.290207   -0.831068    3.634767
  H      0.285567   -1.726690    3.450692
  C     -1.680722   -0.869106    3.569317
  H     -2.189575   -1.797560    3.340475

 Multiplicity           Mult            ....    1
 Number of Electrons    NEL             ....   84
 Basis Dimension        Dim             .... 1466

ORBITAL ENERGIES
----------------

  NO   OCC          E(Eh)            E(eV)
   0   2.0000     -15.559912      -423.4067
   1   2.0000     -11.269354      -306.6547
   2   2.0000     -11.268568      -306.6333
   3   2.0000     -11.253379      -306.2200
   4   2.0000     -11.235919      -305.7449
   5   2.0000     -11.234367      -305.7027
   6   2.0000     -11.234158      -305.6970
   7   2.0000     -11.233354      -305.6751
   8   2.0000     -11.232701      -305.6573
   9   2.0000     -11.232107      -305.6412
  10   2.0000     -11.231464      -305.6237
  11   2.0000     -11.230427      -305.5954
  12   2.0000      -1.251122       -34.0448
  13   2.0000      -1.148563       -31.2540
  14   2.0000      -1.084039       -29.4982
  15   2.0000      -1.027961       -27.9722
  16   2.0000      -1.013115       -27.5683
  17   2.0000      -1.012936       -27.5634
  18   2.0000      -0.853961       -23.2375
  19   2.0000      -0.850488       -23.1430
  20   2.0000      -0.822646       -22.3853
  21   2.0000      -0.822475       -22.3807
  22   2.0000      -0.716942       -19.5090
  23   2.0000      -0.708258       -19.2727
  24   2.0000      -0.655260       -17.8305
  25   2.0000      -0.649078       -17.6623
  26   2.0000      -0.642789       -17.4912
  27   2.0000      -0.617656       -16.8073
  28   2.0000      -0.593065       -16.1381
  29   2.0000      -0.586832       -15.9685
  30   2.0000      -0.586572       -15.9614
  31   2.0000      -0.572045       -15.5661
  32   2.0000      -0.538969       -14.6661
  33   2.0000      -0.514822       -14.0090
  34   2.0000      -0.498952       -13.5772
  35   2.0000      -0.493541       -13.4299
  36   2.0000      -0.493505       -13.4289
  37   2.0000      -0.415406       -11.3038
  38   2.0000      -0.379436       -10.3250
  39   2.0000      -0.345138        -9.3917
  40   2.0000      -0.335093        -9.1183
  41   2.0000      -0.331779        -9.0282
  42   0.0000       0.022311         0.6071
  43   0.0000       0.026403         0.7185
  44   0.0000       0.029877         0.8130
  45   0.0000       0.035335         0.9615
  46   0.0000       0.038405         1.0450

MULLIKEN ATOMIC CHARGES
-----------------------
   0 C :   -0.310767
   1 H :    0.293146
   2 C :   -0.217962
   3 H :    0.334066
   4 C :   -0.342943
   5 H :    0.307373
   6 C :   -0.284225
   7 H :    0.328453
   8 C :   -0.342944
   9 H :    0.288623
  10 C :   -0.356232
  11 H :    0.316617
  12 N :   -0.763995
  13 C :   -0.197970
  14 H :    0.464306
  15 C :   -0.251064
  16 H :    0.314097
  17 C :   -0.304115
  18 H :    0.363127
  19 C :   -0.366437
  20 H :    0.338677
  21 C :   -0.068609
  22 H :    0.458776
Sum of atomic charges:    0.0000000

LOEWDIN ATOMIC CHARGES
----------------------
   0 C :    0.321594
   1 H :   -0.322145
   2 C :    0.325378
   3 H :   -0.325654
   4 C :    0.325333
   5 H :   -0.325572
   6 C :    0.324402
   7 H :   -0.322834
   8 C :    0.318659
   9 H :   -0.317904
  10 C :    0.317558
  11 H :   -0.318979
  12 N :    0.592997
  13 C :    0.062871
  14 H :   -0.354862
  15 C :    0.321157
  16 H :   -0.328554
  17 C :    0.317557
  18 H :   -0.308479
  19 C :    0.313666
  20 H :   -0.322086
  21 C :    0.055134
  22 H :   -0.349236

  Mayer bond orders larger than 0.100000
B(  0-C ,  1-H ) :   1.0468 B(  0-C ,  2-C ) :   1.1701 B(  0-C ,  6-C ) :   0.1801
B(  0-C , 10-C ) :   1.2246 B(  2-C ,  3-H ) :   1.0236 B(  2-C ,  4-C ) :   1.2262
B(  2-C ,  8-C ) :   0.1720 B(  4-C ,  5-H ) :   1.0429 B(  4-C ,  6-C ) :   1.2058
B(  4-C , 10-C ) :   0.1766 B(  6-C ,  7-H ) :   1.0134 B(  6-C ,  8-C ) :   1.2298
B(  8-C ,  9-H ) :   1.0482 B(  8-C , 10-C ) :   1.2302 B( 10-C , 11-H ) :   1.0150
B( 12-N , 13-C ) :   1.2067 B( 12-N , 14-H ) :  -0.1298 B( 12-N , 15-C ) :   0.1062
B( 12-N , 21-C ) :   1.0716 B( 12-N , 22-H ) :  -0.1539 B( 13-C , 14-H ) :   0.8858
B( 13-C , 15-C ) :   1.2248 B( 13-C , 19-C ) :   0.1291 B( 15-C , 16-H ) :   1.0109
B( 15-C , 17-C ) :   1.1621 B( 17-C , 18-H ) :   0.9434 B( 17-C , 19-C ) :   1.2232
B( 19-C , 20-H ) :   0.9677 B( 19-C , 21-C ) :   1.1520 B( 21-C , 22-H ) :   0.9097

MP2 TOTAL ENERGY:     -479.663647217 Eh
FINAL SINGLE POINT ENERGY      -479.663647217465

DIPOLE MOMENT
-------------
                                X             Y             Z
Electronic contribution:     -1.85191       0.16424       1.81508
Nuclear contribution   :      2.72874      -0.11384      -1.81367
                        -----------------------------------------
Total Dipole Moment    :      0.87683       0.05040       0.00141
                        -----------------------------------------
Magnitude (a.u.)       :      0.87828
Magnitude (Debye)      :      2.23242

Rotational constants in cm-1:     0.054298     0.020686     0.019767
Rotational constants in MHz :  1627.798550   620.157394   592.586223

                             ****ORCA TERMINATED NORMALLY****
TOTAL RUN TIME: 0 days 1 hours 23 minutes 15 seconds 662 msec
