                         Program Version 5.0.4 -  RELEASE  -
|  1> ! ri-mp2 aug-cc-pvdz aug-cc-pvdz/c tightscf
|  2> %pal nprocs 16 end
|  3> %maxcore 3800
|  4> %base "DZ_S66by10_39_0.9_dimer"
|  5>
|  6> *xyz 0 1
|  7> C    0.76554546    0.86824433    0.82099095
|  8> H    1.43747647    1.68000664    1.06510281
|  9> C    1.23765260   -0.44283807    0.79388795
| 10> H    2.27575877   -0.64853808    1.01771141
| 11> C    0.37223723   -1.48853667    0.47726862
| 12> H    0.73818789   -2.50608012    0.45705609
| 13> C   -0.96493318   -1.22297162    0.18687834
| 14> H   -1.63645949   -2.03456079   -0.05777362
| 15> C   -1.43706509    0.08840558    0.21327714
| 16> H   -2.47468432    0.29430216   -0.01146746
| 17> C   -0.57190649    1.13402416    0.53081281
| 18> H   -0.93769935    2.15171058    0.55107764
| 19> C   -0.77918427   -0.75459603    3.71219556
| 20> H   -0.88543811   -0.57964687    2.63988869
| 21> H   -1.43082185   -1.58385993    3.98534622
| 22> C    0.69035691   -1.01165912    4.05632543
| 23> H    1.18558769   -1.64924417    3.32574116
| 24> H    0.75363609   -1.51187289    5.02379207
| 25> C    1.33049396    0.39373755    4.14727829
| 26> H    1.98076228    0.58640849    3.29542537
| 27> H    1.94336114    0.48290698    5.04300365
| 28> C    0.15144784    1.39291457    4.17415033
| 29> H    0.03429635    1.85188496    3.19186499
| 30> H    0.29704143    2.19441940    4.89654893
| 31> C   -1.08232393    0.53581938    4.46979919
| 32> H   -2.01331244    1.01155683    4.16388605
| 33> H   -1.14774969    0.32649847    5.54033443
| 34> *
| 35>
| 36> $new_job
| 37> ! ri-mp2 aug-cc-pvtz aug-cc-pvtz/c tightscf
| 38> %pal nprocs 16 end
| 39> %maxcore 3800
| 40> %base "TZ_S66by10_39_0.9_dimer"
| 41>
| 42> *xyz 0 1
| 43> C    0.76554546    0.86824433    0.82099095
| 44> H    1.43747647    1.68000664    1.06510281
| 45> C    1.23765260   -0.44283807    0.79388795
| 46> H    2.27575877   -0.64853808    1.01771141
| 47> C    0.37223723   -1.48853667    0.47726862
| 48> H    0.73818789   -2.50608012    0.45705609
| 49> C   -0.96493318   -1.22297162    0.18687834
| 50> H   -1.63645949   -2.03456079   -0.05777362
| 51> C   -1.43706509    0.08840558    0.21327714
| 52> H   -2.47468432    0.29430216   -0.01146746
| 53> C   -0.57190649    1.13402416    0.53081281
| 54> H   -0.93769935    2.15171058    0.55107764
| 55> C   -0.77918427   -0.75459603    3.71219556
| 56> H   -0.88543811   -0.57964687    2.63988869
| 57> H   -1.43082185   -1.58385993    3.98534622
| 58> C    0.69035691   -1.01165912    4.05632543
| 59> H    1.18558769   -1.64924417    3.32574116
| 60> H    0.75363609   -1.51187289    5.02379207
| 61> C    1.33049396    0.39373755    4.14727829
| 62> H    1.98076228    0.58640849    3.29542537
| 63> H    1.94336114    0.48290698    5.04300365
| 64> C    0.15144784    1.39291457    4.17415033
| 65> H    0.03429635    1.85188496    3.19186499
| 66> H    0.29704143    2.19441940    4.89654893
| 67> C   -1.08232393    0.53581938    4.46979919
| 68> H   -2.01331244    1.01155683    4.16388605
| 69> H   -1.14774969    0.32649847    5.54033443
| 70> *
| 71>
| 72> $new_job
| 73> ! ri-mp2 aug-cc-pvqz aug-cc-pvqz/c tightscf
| 74> %pal nprocs 16 end
| 75> %maxcore 3800
| 76> %base "QZ_S66by10_39_0.9_dimer"
| 77>
| 78> *xyz 0 1
| 79> C    0.76554546    0.86824433    0.82099095
| 80> H    1.43747647    1.68000664    1.06510281
| 81> C    1.23765260   -0.44283807    0.79388795
| 82> H    2.27575877   -0.64853808    1.01771141
| 83> C    0.37223723   -1.48853667    0.47726862
| 84> H    0.73818789   -2.50608012    0.45705609
| 85> C   -0.96493318   -1.22297162    0.18687834
| 86> H   -1.63645949   -2.03456079   -0.05777362
| 87> C   -1.43706509    0.08840558    0.21327714
| 88> H   -2.47468432    0.29430216   -0.01146746
| 89> C   -0.57190649    1.13402416    0.53081281
| 90> H   -0.93769935    2.15171058    0.55107764
| 91> C   -0.77918427   -0.75459603    3.71219556
| 92> H   -0.88543811   -0.57964687    2.63988869
| 93> H   -1.43082185   -1.58385993    3.98534622
| 94> C    0.69035691   -1.01165912    4.05632543
| 95> H    1.18558769   -1.64924417    3.32574116
| 96> H    0.75363609   -1.51187289    5.02379207
| 97> C    1.33049396    0.39373755    4.14727829
| 98> H    1.98076228    0.58640849    3.29542537
| 99> H    1.94336114    0.48290698    5.04300365
|100> C    0.15144784    1.39291457    4.17415033
|101> H    0.03429635    1.85188496    3.19186499
|102> H    0.29704143    2.19441940    4.89654893
|103> C   -1.08232393    0.53581938    4.46979919
|104> H   -2.01331244    1.01155683    4.16388605
|105> H   -1.14774969    0.32649847    5.54033443
|106> *
|107>
|108>
|109>
|110>
|111>                          ****END OF INPUT****
 Total Charge           Charge          ....    0
 Multiplicity           Mult            ....    1
 Number of Electrons    NEL             ....   82
MP2 TOTAL ENERGY:     -427.472674521 Eh
FINAL SINGLE POINT ENERGY      -427.472674521432
MP2 TOTAL ENERGY:     -427.864424167 Eh
FINAL SINGLE POINT ENERGY      -427.864424167160

CARTESIAN COORDINATES (ANGSTROEM)
---------------------------------
  C      0.765545    0.868244    0.820991
  H      1.437476    1.680007    1.065103
  C      1.237653   -0.442838    0.793888
  H      2.275759   -0.648538    1.017711
  C      0.372237   -1.488537    0.477269
  H      0.738188   -2.506080    0.457056
  C     -0.964933   -1.222972    0.186878
  H     -1.636459   -2.034561   -0.057774
  C     -1.437065    0.088406    0.213277
  H     -2.474684    0.294302   -0.011467
  C     -0.571906    1.134024    0.530813
  H     -0.937699    2.151711    0.551078
  C     -0.779184   -0.754596    3.712196
  H     -0.885438   -0.579647    2.639889
  H     -1.430822   -1.583860    3.985346
  C      0.690357   -1.011659    4.056325
  H      1.185588   -1.649244    3.325741
  H      0.753636   -1.511873    5.023792
  C      1.330494    0.393738    4.147278
  H      1.980762    0.586408    3.295425
  H      1.943361    0.482907    5.043004
  C      0.151448    1.392915    4.174150
  H      0.034296    1.851885    3.191865
  H      0.297041    2.194419    4.896549
  C     -1.082324    0.535819    4.469799
  H     -2.013312    1.011557    4.163886
  H     -1.147750    0.326498    5.540334

 Multiplicity           Mult            ....    1
 Number of Electrons    NEL             ....   82
 Basis Dimension        Dim             .... 1616

ORBITAL ENERGIES
----------------

  NO   OCC          E(Eh)            E(eV)
   0   2.0000     -11.237126      -305.7777
   1   2.0000     -11.236445      -305.7592
   2   2.0000     -11.236371      -305.7572
   3   2.0000     -11.235292      -305.7278
   4   2.0000     -11.235116      -305.7231
   5   2.0000     -11.234483      -305.7058
   6   2.0000     -11.201971      -304.8211
   7   2.0000     -11.200654      -304.7853
   8   2.0000     -11.199973      -304.7667
   9   2.0000     -11.199642      -304.7578
  10   2.0000     -11.193639      -304.5944
  11   2.0000      -1.153743       -31.3950
  12   2.0000      -1.106978       -30.1224
  13   2.0000      -1.017757       -27.6946
  14   2.0000      -1.017552       -27.6890
  15   2.0000      -0.948010       -25.7967
  16   2.0000      -0.947062       -25.7709
  17   2.0000      -0.826915       -22.5015
  18   2.0000      -0.826899       -22.5011
  19   2.0000      -0.767910       -20.8959
  20   2.0000      -0.759266       -20.6607
  21   2.0000      -0.713078       -19.4038
  22   2.0000      -0.646985       -17.6053
  23   2.0000      -0.644391       -17.5348
  24   2.0000      -0.636077       -17.3085
  25   2.0000      -0.621688       -16.9170
  26   2.0000      -0.591163       -16.0864
  27   2.0000      -0.590932       -16.0801
  28   2.0000      -0.562479       -15.3058
  29   2.0000      -0.561993       -15.2926
  30   2.0000      -0.508681       -13.8419
  31   2.0000      -0.497494       -13.5375
  32   2.0000      -0.497440       -13.5360
  33   2.0000      -0.466527       -12.6949
  34   2.0000      -0.464957       -12.6521
  35   2.0000      -0.455593       -12.3973
  36   2.0000      -0.449765       -12.2387
  37   2.0000      -0.444422       -12.0933
  38   2.0000      -0.440643       -11.9905
  39   2.0000      -0.339513        -9.2386
  40   2.0000      -0.338917        -9.2224
  41   0.0000       0.022247         0.6054
  42   0.0000       0.028262         0.7690
  43   0.0000       0.028886         0.7860
  44   0.0000       0.033220         0.9040
  45   0.0000       0.039465         1.0739

MULLIKEN ATOMIC CHARGES
-----------------------
   0 C :   -0.079022
   1 H :    0.358990
   2 C :   -0.151207
   3 H :    0.279524
   4 C :   -0.406754
   5 H :    0.203203
   6 C :   -0.271522
   7 H :    0.263358
   8 C :   -0.347588
   9 H :    0.232555
  10 C :   -0.396217
  11 H :    0.262372
  12 C :   -0.727268
  13 H :    0.677455
  14 H :    0.307042
  15 C :   -0.640617
  16 H :    0.340384
  17 H :    0.245954
  18 C :   -0.513656
  19 H :    0.182403
  20 H :    0.323761
  21 C :   -0.693800
  22 H :    0.278318
  23 H :    0.324606
  24 C :   -0.566632
  25 H :    0.268199
  26 H :    0.246159
Sum of atomic charges:    0.0000000

LOEWDIN ATOMIC CHARGES
----------------------
   0 C :    0.320467
   1 H :   -0.307231
   2 C :    0.321920
   3 H :   -0.305630
   4 C :    0.336769
   5 H :   -0.308927
   6 C :    0.336439
   7 H :   -0.313110
   8 C :    0.340919
   9 H :   -0.314210
  10 C :    0.342259
  11 H :   -0.308604
  12 C :    0.515378
  13 H :   -0.383955
  14 H :   -0.239311
  15 C :    0.539558
  16 H :   -0.282446
  17 H :   -0.263196
  18 C :    0.549851
  19 H :   -0.307575
  20 H :   -0.261450
  21 C :    0.536778
  22 H :   -0.317265
  23 H :   -0.253636
  24 C :    0.539074
  25 H :   -0.251393
  26 H :   -0.261473

  Mayer bond orders larger than 0.100000
B(  0-C ,  1-H ) :   0.9947 B(  0-C ,  2-C ) :   1.0595 B(  0-C ,  3-H ) :  -0.1196
B(  0-C ,  6-C ) :   0.1560 B(  0-C , 10-C ) :   1.1292 B(  1-H ,  2-C ) :  -0.1264
B(  1-H , 10-C ) :  -0.1094 B(  2-C ,  3-H ) :   1.0628 B(  2-C ,  4-C ) :   1.1817
B(  2-C ,  8-C ) :   0.1756 B(  4-C ,  5-H ) :   1.1834 B(  4-C ,  6-C ) :   1.2232
B(  4-C , 10-C ) :   0.1533 B(  4-C , 13-H ) :  -0.1072 B(  6-C ,  7-H ) :   1.1112
B(  6-C ,  8-C ) :   1.1919 B(  6-C , 13-H ) :  -0.1289 B(  8-C ,  9-H ) :   1.1379
B(  8-C , 10-C ) :   1.2202 B( 10-C , 11-H ) :   1.0979 B( 12-C , 13-H ) :   0.6745
B( 12-C , 14-H ) :   0.9471 B( 12-C , 15-C ) :   0.8371 B( 12-C , 24-C ) :   0.9922
B( 13-H , 24-C ) :  -0.1076 B( 15-C , 16-H ) :   0.8594 B( 15-C , 17-H ) :   0.9876
B( 15-C , 18-C ) :   0.9585 B( 18-C , 19-H ) :   0.9952 B( 18-C , 20-H ) :   0.8943
B( 18-C , 21-C ) :   0.9701 B( 21-C , 22-H ) :   0.8428 B( 21-C , 23-H ) :   0.8963
B( 21-C , 24-C ) :   0.9953 B( 24-C , 25-H ) :   0.9020 B( 24-C , 26-H ) :   0.9480

MP2 TOTAL ENERGY:     -427.984935851 Eh
FINAL SINGLE POINT ENERGY      -427.984935851004

DIPOLE MOMENT
-------------
                                X             Y             Z
Electronic contribution:     -0.47170      -0.69595      -8.34289
Nuclear contribution   :      0.45015       0.67224       8.21496
                        -----------------------------------------
Total Dipole Moment    :     -0.02155      -0.02371      -0.12793
                        -----------------------------------------
Magnitude (a.u.)       :      0.13188
Magnitude (Debye)      :      0.33522

Rotational constants in cm-1:     0.057488     0.025836     0.025320
Rotational constants in MHz :  1723.432641   774.538822   759.070364

                             ****ORCA TERMINATED NORMALLY****
TOTAL RUN TIME: 0 days 1 hours 59 minutes 13 seconds 383 msec
