                         Program Version 5.0.4 -  RELEASE  -
|  1> ! ri-mp2 aug-cc-pvdz aug-cc-pvdz/c tightscf
|  2> %pal nprocs 16 end
|  3> %maxcore 3800
|  4> %base "DZ_S66by10_8_0.7_dimer"
|  5> %scf STABPerform true end
|  6>
|  7> *xyz 0 1
|  8> O   -0.78656202    0.04516844   -0.00718912
|  9> H    0.17770677    0.01269590   -0.00683539
| 10> C   -1.24799094   -1.29028354    0.00108362
| 11> H   -2.33427744   -1.25889710    0.00022120
| 12> H   -0.92596575   -1.84976810   -0.88044538
| 13> H   -0.92702783   -1.83846288    0.89007652
| 14> O    1.56690612   -0.03289399   -0.00534418
| 15> H    2.00611026    0.35525821   -0.76521686
| 16> H    2.00479041    0.36971029    0.74774535
| 17> *
| 18>
| 19> $new_job
| 20> ! ri-mp2 aug-cc-pvtz aug-cc-pvtz/c tightscf
| 21> %pal nprocs 16 end
| 22> %maxcore 3800
| 23> %base "TZ_S66by10_8_0.7_dimer"
| 24>
| 25> *xyz 0 1
| 26> O   -0.78656202    0.04516844   -0.00718912
| 27> H    0.17770677    0.01269590   -0.00683539
| 28> C   -1.24799094   -1.29028354    0.00108362
| 29> H   -2.33427744   -1.25889710    0.00022120
| 30> H   -0.92596575   -1.84976810   -0.88044538
| 31> H   -0.92702783   -1.83846288    0.89007652
| 32> O    1.56690612   -0.03289399   -0.00534418
| 33> H    2.00611026    0.35525821   -0.76521686
| 34> H    2.00479041    0.36971029    0.74774535
| 35> *
| 36>
| 37> $new_job
| 38> ! ri-mp2 aug-cc-pvqz aug-cc-pvqz/c tightscf
| 39> %pal nprocs 16 end
| 40> %maxcore 3800
| 41> %base "QZ_S66by10_8_0.7_dimer"
| 42>
| 43> *xyz 0 1
| 44> O   -0.78656202    0.04516844   -0.00718912
| 45> H    0.17770677    0.01269590   -0.00683539
| 46> C   -1.24799094   -1.29028354    0.00108362
| 47> H   -2.33427744   -1.25889710    0.00022120
| 48> H   -0.92596575   -1.84976810   -0.88044538
| 49> H   -0.92702783   -1.83846288    0.89007652
| 50> O    1.56690612   -0.03289399   -0.00534418
| 51> H    2.00611026    0.35525821   -0.76521686
| 52> H    2.00479041    0.36971029    0.74774535
| 53> *
| 54>
| 55>
| 56>
| 57>
| 58>                          ****END OF INPUT****
 Total Charge           Charge          ....    0
 Multiplicity           Mult            ....    1
 Number of Electrons    NEL             ....   28
MP2 TOTAL ENERGY:     -191.674279513 Eh
FINAL SINGLE POINT ENERGY      -191.674279513322
MP2 TOTAL ENERGY:     -191.850733969 Eh
FINAL SINGLE POINT ENERGY      -191.850733969336

CARTESIAN COORDINATES (ANGSTROEM)
---------------------------------
  O     -0.786562    0.045168   -0.007189
  H      0.177707    0.012696   -0.006835
  C     -1.247991   -1.290284    0.001084
  H     -2.334277   -1.258897    0.000221
  H     -0.925966   -1.849768   -0.880445
  H     -0.927028   -1.838463    0.890077
  O      1.566906   -0.032894   -0.005344
  H      2.006110    0.355258   -0.765217
  H      2.004790    0.369710    0.747745

 Multiplicity           Mult            ....    1
 Number of Electrons    NEL             ....   28
 Basis Dimension        Dim             ....  516

ORBITAL ENERGIES
----------------

  NO   OCC          E(Eh)            E(eV)
   0   2.0000     -20.609009      -560.7996
   1   2.0000     -20.491688      -557.6072
   2   2.0000     -11.237799      -305.7960
   3   2.0000      -1.414709       -38.4962
   4   2.0000      -1.308214       -35.5983
   5   2.0000      -0.894649       -24.3446
   6   2.0000      -0.766135       -20.8476
   7   2.0000      -0.722224       -19.6527
   8   2.0000      -0.606738       -16.5102
   9   2.0000      -0.584106       -15.8943
  10   2.0000      -0.571766       -15.5585
  11   2.0000      -0.538276       -14.6472
  12   2.0000      -0.450000       -12.2451
  13   2.0000      -0.405563       -11.0359
  14   0.0000       0.015841         0.4311
  15   0.0000       0.037093         1.0093
  16   0.0000       0.039195         1.0666
  17   0.0000       0.050987         1.3874
  18   0.0000       0.056577         1.5395

MULLIKEN ATOMIC CHARGES
-----------------------
   0 O :   -0.719892
   1 H :    0.244820
   2 C :   -0.473580
   3 H :    0.345696
   4 H :    0.225055
   5 H :    0.225100
   6 O :   -0.474952
   7 H :    0.313887
   8 H :    0.313865
Sum of atomic charges:    0.0000000

LOEWDIN ATOMIC CHARGES
----------------------
   0 O :    1.238911
   1 H :   -1.390428
   2 C :    0.561391
   3 H :   -0.351397
   4 H :   -0.322817
   5 H :   -0.322799
   6 O :    1.804129
   7 H :   -0.608500
   8 H :   -0.608491

  Mayer bond orders larger than 0.100000
B(  0-O ,  1-H ) :   0.9672 B(  0-O ,  2-C ) :   0.8535 B(  1-H ,  6-O ) :   0.1689
B(  2-C ,  3-H ) :   0.8857 B(  2-C ,  4-H ) :   0.9353 B(  2-C ,  5-H ) :   0.9353
B(  6-O ,  7-H ) :   0.9286 B(  6-O ,  8-H ) :   0.9286

MP2 TOTAL ENERGY:     -191.907715318 Eh
FINAL SINGLE POINT ENERGY      -191.907715317736

DIPOLE MOMENT
-------------
                                X             Y             Z
Electronic contribution:      1.22745       1.82017      -0.01045
Nuclear contribution   :      0.29581      -1.73967       0.00910
                        -----------------------------------------
Total Dipole Moment    :      1.52325       0.08050      -0.00135
                        -----------------------------------------
Magnitude (a.u.)       :      1.52538
Magnitude (Debye)      :      3.87720

Rotational constants in cm-1:     1.113482     0.178226     0.161692
Rotational constants in MHz : 33381.338124  5343.074158  4847.394331

                             ****ORCA TERMINATED NORMALLY****
TOTAL RUN TIME: 0 days 0 hours 10 minutes 15 seconds 357 msec
