                         Program Version 5.0.4 -  RELEASE  -
|  1> ! ri-mp2 aug-cc-pvdz aug-cc-pvdz/c tightscf
|  2> %pal nprocs 16 end
|  3> %maxcore 3800
|  4> %base "DZ_S66by10_21_0.7_dimer"
|  5> %scf STABPerform true end
|  6>
|  7> *xyz 0 1
|  8> C   -1.30974974    1.18017617   -0.02517034
|  9> O   -0.72530044    2.15514767    0.45271335
| 10> N   -0.66562116    0.09505470   -0.49199449
| 11> H    0.35458266    0.05144817   -0.45930922
| 12> H   -1.18362704   -0.67359969   -0.87075610
| 13> C   -2.81671934    1.15599865   -0.11060597
| 14> H   -3.22062895    1.26254146    0.89308239
| 15> H   -3.20942754    0.24863402   -0.56190009
| 16> H   -3.14315813    2.01659563   -0.68889311
| 17> C    2.23773243    1.05264940    0.10063128
| 18> O    1.65331067    0.07862897   -0.37909969
| 19> N    1.59364487    2.13739263    0.56847783
| 20> H    0.57353950    2.18183041    0.53417651
| 21> H    2.11166893    2.90535382    0.94859848
| 22> C    3.74473162    1.07693378    0.18585636
| 23> H    4.13660268    1.97658330    0.65304037
| 24> H    4.14828781    0.98938875   -0.81992395
| 25> H    4.07251038    0.20635888    0.74803670
| 26> *
| 27>
| 28> $new_job
| 29> ! ri-mp2 aug-cc-pvtz aug-cc-pvtz/c tightscf
| 30> %pal nprocs 16 end
| 31> %maxcore 3800
| 32> %base "TZ_S66by10_21_0.7_dimer"
| 33>
| 34> *xyz 0 1
| 35> C   -1.30974974    1.18017617   -0.02517034
| 36> O   -0.72530044    2.15514767    0.45271335
| 37> N   -0.66562116    0.09505470   -0.49199449
| 38> H    0.35458266    0.05144817   -0.45930922
| 39> H   -1.18362704   -0.67359969   -0.87075610
| 40> C   -2.81671934    1.15599865   -0.11060597
| 41> H   -3.22062895    1.26254146    0.89308239
| 42> H   -3.20942754    0.24863402   -0.56190009
| 43> H   -3.14315813    2.01659563   -0.68889311
| 44> C    2.23773243    1.05264940    0.10063128
| 45> O    1.65331067    0.07862897   -0.37909969
| 46> N    1.59364487    2.13739263    0.56847783
| 47> H    0.57353950    2.18183041    0.53417651
| 48> H    2.11166893    2.90535382    0.94859848
| 49> C    3.74473162    1.07693378    0.18585636
| 50> H    4.13660268    1.97658330    0.65304037
| 51> H    4.14828781    0.98938875   -0.81992395
| 52> H    4.07251038    0.20635888    0.74803670
| 53> *
| 54>
| 55> $new_job
| 56> ! ri-mp2 aug-cc-pvqz aug-cc-pvqz/c tightscf
| 57> %pal nprocs 16 end
| 58> %maxcore 3800
| 59> %base "QZ_S66by10_21_0.7_dimer"
| 60>
| 61> *xyz 0 1
| 62> C   -1.30974974    1.18017617   -0.02517034
| 63> O   -0.72530044    2.15514767    0.45271335
| 64> N   -0.66562116    0.09505470   -0.49199449
| 65> H    0.35458266    0.05144817   -0.45930922
| 66> H   -1.18362704   -0.67359969   -0.87075610
| 67> C   -2.81671934    1.15599865   -0.11060597
| 68> H   -3.22062895    1.26254146    0.89308239
| 69> H   -3.20942754    0.24863402   -0.56190009
| 70> H   -3.14315813    2.01659563   -0.68889311
| 71> C    2.23773243    1.05264940    0.10063128
| 72> O    1.65331067    0.07862897   -0.37909969
| 73> N    1.59364487    2.13739263    0.56847783
| 74> H    0.57353950    2.18183041    0.53417651
| 75> H    2.11166893    2.90535382    0.94859848
| 76> C    3.74473162    1.07693378    0.18585636
| 77> H    4.13660268    1.97658330    0.65304037
| 78> H    4.14828781    0.98938875   -0.81992395
| 79> H    4.07251038    0.20635888    0.74803670
| 80> *
| 81>
| 82>
| 83>
| 84>
| 85>                          ****END OF INPUT****
 Total Charge           Charge          ....    0
 Multiplicity           Mult            ....    1
 Number of Electrons    NEL             ....   64
MP2 TOTAL ENERGY:     -417.320647900 Eh
FINAL SINGLE POINT ENERGY      -417.320647899955
MP2 TOTAL ENERGY:     -417.693994755 Eh
FINAL SINGLE POINT ENERGY      -417.693994755256

CARTESIAN COORDINATES (ANGSTROEM)
---------------------------------
  C     -1.309750    1.180176   -0.025170
  O     -0.725300    2.155148    0.452713
  N     -0.665621    0.095055   -0.491994
  H      0.354583    0.051448   -0.459309
  H     -1.183627   -0.673600   -0.870756
  C     -2.816719    1.155999   -0.110606
  H     -3.220629    1.262541    0.893082
  H     -3.209428    0.248634   -0.561900
  H     -3.143158    2.016596   -0.688893
  C      2.237732    1.052649    0.100631
  O      1.653311    0.078629   -0.379100
  N      1.593645    2.137393    0.568478
  H      0.573539    2.181830    0.534177
  H      2.111669    2.905354    0.948598
  C      3.744732    1.076934    0.185856
  H      4.136603    1.976583    0.653040
  H      4.148288    0.989389   -0.819924
  H      4.072510    0.206359    0.748037

 Multiplicity           Mult            ....    1
 Number of Electrons    NEL             ....   64
 Basis Dimension        Dim             .... 1100

ORBITAL ENERGIES
----------------

  NO   OCC          E(Eh)            E(eV)
   0   2.0000     -20.514440      -558.2263
   1   2.0000     -20.514408      -558.2254
   2   2.0000     -15.535991      -422.7558
   3   2.0000     -15.535979      -422.7555
   4   2.0000     -11.350893      -308.8735
   5   2.0000     -11.350874      -308.8730
   6   2.0000     -11.230286      -305.5916
   7   2.0000     -11.230274      -305.5913
   8   2.0000      -1.402144       -38.1543
   9   2.0000      -1.385462       -37.7003
  10   2.0000      -1.207135       -32.8478
  11   2.0000      -1.181284       -32.1444
  12   2.0000      -1.011336       -27.5199
  13   2.0000      -0.992816       -27.0159
  14   2.0000      -0.826713       -22.4960
  15   2.0000      -0.774024       -21.0623
  16   2.0000      -0.766281       -20.8516
  17   2.0000      -0.730560       -19.8795
  18   2.0000      -0.662861       -18.0374
  19   2.0000      -0.626163       -17.0388
  20   2.0000      -0.618254       -16.8235
  21   2.0000      -0.610061       -16.6006
  22   2.0000      -0.595858       -16.2141
  23   2.0000      -0.575272       -15.6539
  24   2.0000      -0.560162       -15.2428
  25   2.0000      -0.538258       -14.6467
  26   2.0000      -0.532010       -14.4767
  27   2.0000      -0.517492       -14.0817
  28   2.0000      -0.444296       -12.0899
  29   2.0000      -0.415629       -11.3099
  30   2.0000      -0.400232       -10.8909
  31   2.0000      -0.386710       -10.5229
  32   0.0000       0.025114         0.6834
  33   0.0000       0.025971         0.7067
  34   0.0000       0.036210         0.9853
  35   0.0000       0.041881         1.1396
  36   0.0000       0.044338         1.2065

MULLIKEN ATOMIC CHARGES
-----------------------
   0 C :    0.805353
   1 O :   -0.781894
   2 N :   -0.669408
   3 H :    0.314733
   4 H :    0.221343
   5 C :   -0.669880
   6 H :    0.266765
   7 H :    0.250763
   8 H :    0.262214
   9 C :    0.805375
  10 O :   -0.781750
  11 N :   -0.669455
  12 H :    0.314695
  13 H :    0.221166
  14 C :   -0.669975
  15 H :    0.250701
  16 H :    0.269003
  17 H :    0.260249
Sum of atomic charges:   -0.0000000

LOEWDIN ATOMIC CHARGES
----------------------
   0 C :   -0.582237
   1 O :    1.043104
   2 N :    1.248393
   3 H :   -1.237692
   4 H :   -0.474159
   5 C :    0.914054
   6 H :   -0.298093
   7 H :   -0.314736
   8 H :   -0.298874
   9 C :   -0.582168
  10 O :    1.043252
  11 N :    1.248433
  12 H :   -1.237492
  13 H :   -0.474175
  14 C :    0.914079
  15 H :   -0.314726
  16 H :   -0.297585
  17 H :   -0.299378

  Mayer bond orders larger than 0.100000
B(  0-C ,  1-O ) :   1.3661 B(  0-C ,  2-N ) :   1.2100 B(  0-C ,  5-C ) :   0.7312
B(  0-C ,  7-H ) :  -0.1203 B(  1-O ,  2-N ) :   0.1153 B(  2-N ,  3-H ) :   0.8174
B(  2-N ,  4-H ) :   1.0393 B(  5-C ,  6-H ) :   0.9559 B(  5-C ,  7-H ) :   1.0176
B(  5-C ,  8-H ) :   0.9668 B(  9-C , 10-O ) :   1.3662 B(  9-C , 11-N ) :   1.2099
B(  9-C , 14-C ) :   0.7313 B(  9-C , 15-H ) :  -0.1203 B( 10-O , 11-N ) :   0.1152
B( 11-N , 12-H ) :   0.8175 B( 11-N , 13-H ) :   1.0395 B( 14-C , 15-H ) :   1.0176
B( 14-C , 16-H ) :   0.9505 B( 14-C , 17-H ) :   0.9719

MP2 TOTAL ENERGY:     -417.813696352 Eh
FINAL SINGLE POINT ENERGY      -417.813696351577

DIPOLE MOMENT
-------------
                                X             Y             Z
Electronic contribution:      0.00008      -0.00049       0.00030
Nuclear contribution   :      0.00027      -0.00002       0.00041
                        -----------------------------------------
Total Dipole Moment    :      0.00035      -0.00051       0.00071
                        -----------------------------------------
Magnitude (a.u.)       :      0.00094
Magnitude (Debye)      :      0.00239

Rotational constants in cm-1:     0.179039     0.033340     0.028400
Rotational constants in MHz :  5367.453014   999.506868   851.408287

                             ****ORCA TERMINATED NORMALLY****
TOTAL RUN TIME: 0 days 2 hours 31 minutes 43 seconds 34 msec
