                         Program Version 5.0.4 -  RELEASE  -
|  1> ! ri-mp2 aug-cc-pvdz aug-cc-pvdz/c tightscf
|  2> %pal nprocs 16 end
|  3> %maxcore 3800
|  4> %base "DZ_S66by10_1_1.5_dimer"
|  5> %scf STABPerform true end
|  6>
|  7> *xyz 0 1
|  8> O   -0.70219605   -0.05606026    0.00994226
|  9> H   -1.02219322    0.84677578   -0.01148871
| 10> H    0.25752106    0.04212150    0.00521900
| 11> O    3.27466064    0.01844862   -0.00184769
| 12> H    3.65128226   -0.41993145    0.76427669
| 13> H    3.64692496   -0.45776436   -0.74725019
| 14> *
| 15>
| 16> $new_job
| 17> ! ri-mp2 aug-cc-pvtz aug-cc-pvtz/c tightscf
| 18> %pal nprocs 16 end
| 19> %maxcore 3800
| 20> %base "TZ_S66by10_1_1.5_dimer"
| 21>
| 22> *xyz 0 1
| 23> O   -0.70219605   -0.05606026    0.00994226
| 24> H   -1.02219322    0.84677578   -0.01148871
| 25> H    0.25752106    0.04212150    0.00521900
| 26> O    3.27466064    0.01844862   -0.00184769
| 27> H    3.65128226   -0.41993145    0.76427669
| 28> H    3.64692496   -0.45776436   -0.74725019
| 29> *
| 30>
| 31> $new_job
| 32> ! ri-mp2 aug-cc-pvqz aug-cc-pvqz/c tightscf
| 33> %pal nprocs 16 end
| 34> %maxcore 3800
| 35> %base "QZ_S66by10_1_1.5_dimer"
| 36>
| 37> *xyz 0 1
| 38> O   -0.70219605   -0.05606026    0.00994226
| 39> H   -1.02219322    0.84677578   -0.01148871
| 40> H    0.25752106    0.04212150    0.00521900
| 41> O    3.27466064    0.01844862   -0.00184769
| 42> H    3.65128226   -0.41993145    0.76427669
| 43> H    3.64692496   -0.45776436   -0.74725019
| 44> *
| 45>
| 46>
| 47>
| 48>
| 49>                          ****END OF INPUT****
 Total Charge           Charge          ....    0
 Multiplicity           Mult            ....    1
 Number of Electrons    NEL             ....   20
MP2 TOTAL ENERGY:     -152.525281983 Eh
FINAL SINGLE POINT ENERGY      -152.525281982721
MP2 TOTAL ENERGY:     -152.661436942 Eh
FINAL SINGLE POINT ENERGY      -152.661436942091

CARTESIAN COORDINATES (ANGSTROEM)
---------------------------------
  O     -0.702196   -0.056060    0.009942
  H     -1.022193    0.846776   -0.011489
  H      0.257521    0.042121    0.005219
  O      3.274661    0.018449   -0.001848
  H      3.651282   -0.419931    0.764277
  H      3.646925   -0.457764   -0.747250

 Multiplicity           Mult            ....    1
 Number of Electrons    NEL             ....   20
 Basis Dimension        Dim             ....  344

ORBITAL ENERGIES
----------------

  NO   OCC          E(Eh)            E(eV)
   0   2.0000     -20.576787      -559.9228
   1   2.0000     -20.552852      -559.2715
   2   2.0000      -1.363490       -37.1024
   3   2.0000      -1.338666       -36.4269
   4   2.0000      -0.726644       -19.7730
   5   2.0000      -0.701200       -19.0806
   6   2.0000      -0.598400       -16.2833
   7   2.0000      -0.573711       -15.6115
   8   2.0000      -0.522381       -14.2147
   9   2.0000      -0.498054       -13.5527
  10   0.0000       0.021882         0.5954
  11   0.0000       0.039543         1.0760
  12   0.0000       0.041414         1.1269
  13   0.0000       0.065141         1.7726
  14   0.0000       0.104435         2.8418

MULLIKEN ATOMIC CHARGES
-----------------------
   0 O :   -0.592507
   1 H :    0.296920
   2 H :    0.298398
   3 O :   -0.620538
   4 H :    0.308858
   5 H :    0.308869
Sum of atomic charges:    0.0000000

LOEWDIN ATOMIC CHARGES
----------------------
   0 O :    1.594771
   1 H :   -0.805026
   2 H :   -0.806576
   3 O :    1.605787
   4 H :   -0.794487
   5 H :   -0.794469

  Mayer bond orders larger than 0.100000
B(  0-O ,  1-H ) :   0.9610 B(  0-O ,  2-H ) :   0.9807 B(  3-O ,  4-H ) :   0.9532
B(  3-O ,  5-H ) :   0.9532

MP2 TOTAL ENERGY:     -152.707192929 Eh
FINAL SINGLE POINT ENERGY      -152.707192929116

DIPOLE MOMENT
-------------
                                X             Y             Z
Electronic contribution:     -0.16856      -0.02112       0.00092
Nuclear contribution   :      1.15582       0.07194      -0.00452
                        -----------------------------------------
Total Dipole Moment    :      0.98726       0.05082      -0.00361
                        -----------------------------------------
Magnitude (a.u.)       :      0.98858
Magnitude (Debye)      :      2.51276

Rotational constants in cm-1:     7.357227     0.116008     0.115997
Rotational constants in MHz : 220564.106993  3477.823000  3477.507629

                             ****ORCA TERMINATED NORMALLY****
TOTAL RUN TIME: 0 days 0 hours 1 minutes 21 seconds 335 msec
