                         Program Version 5.0.4 -  RELEASE  -
|  1> ! ri-mp2 aug-cc-pvdz aug-cc-pvdz/c tightscf
|  2> %pal nprocs 16 end
|  3> %maxcore 3800
|  4> %base "DZ_S66by10_34_1.5_dimer"
|  5> %scf STABPerform true end
|  6>
|  7> *xyz 0 1
|  8> C   -2.53330865   -0.29487907    0.71314876
|  9> H   -2.56362682   -0.97708181   -0.13642264
| 10> H   -2.56697835   -0.89587590    1.62173177
| 11> H   -3.43442611    0.31595713    0.68410447
| 12> C   -1.27188487    0.55765547    0.67435468
| 13> H   -1.27102630    1.25656571    1.51431940
| 14> H   -1.26663255    1.16789581   -0.23182653
| 15> C   -0.00013504   -0.27841822    0.71960315
| 16> H   -0.00015938   -0.88722952    1.62863709
| 17> H   -0.00036543   -0.98071418   -0.11940439
| 18> C    1.27189476    0.55738219    0.67406108
| 19> H    1.27097175    1.25663331    1.51370541
| 20> H    1.26663649    1.16718250   -0.23238692
| 21> C    2.53340376   -0.29494176    0.71328015
| 22> H    2.56391919   -0.97777410   -0.13577836
| 23> H    3.43430956    0.31625432    0.68359945
| 24> H    2.56755821   -0.89520887    1.62232865
| 25> C    2.53355276    0.26655894    5.91022771
| 26> H    2.56813725    0.86636564    5.00090216
| 27> H    2.56405607    0.94976552    6.75897253
| 28> H    3.43423346   -0.34493837    5.94043665
| 29> C    1.27172656   -0.58532833    5.94953196
| 30> H    1.26628285   -1.19505604    6.85602892
| 31> H    1.27059605   -1.28468207    5.10995090
| 32> C   -0.00004843    0.25077077    5.90391552
| 33> H   -0.00020336    0.95308075    6.74290000
| 34> H    0.00002847    0.85954719    4.99484589
| 35> C   -1.27180927   -0.58537121    5.94918706
| 36> H   -1.26642703   -1.19548066    6.85543716
| 37> H   -1.27070293   -1.28439410    5.10932341
| 38> C   -2.53352850    0.26667510    5.91020936
| 39> H   -2.56772180    0.86720877    5.00133260
| 40> H   -3.43433047   -0.34462326    5.93972254
| 41> H   -2.56406803    0.94926134    6.75947075
| 42> *
| 43>
| 44> $new_job
| 45> ! ri-mp2 aug-cc-pvtz aug-cc-pvtz/c tightscf
| 46> %pal nprocs 16 end
| 47> %maxcore 3800
| 48> %base "TZ_S66by10_34_1.5_dimer"
| 49>
| 50> *xyz 0 1
| 51> C   -2.53330865   -0.29487907    0.71314876
| 52> H   -2.56362682   -0.97708181   -0.13642264
| 53> H   -2.56697835   -0.89587590    1.62173177
| 54> H   -3.43442611    0.31595713    0.68410447
| 55> C   -1.27188487    0.55765547    0.67435468
| 56> H   -1.27102630    1.25656571    1.51431940
| 57> H   -1.26663255    1.16789581   -0.23182653
| 58> C   -0.00013504   -0.27841822    0.71960315
| 59> H   -0.00015938   -0.88722952    1.62863709
| 60> H   -0.00036543   -0.98071418   -0.11940439
| 61> C    1.27189476    0.55738219    0.67406108
| 62> H    1.27097175    1.25663331    1.51370541
| 63> H    1.26663649    1.16718250   -0.23238692
| 64> C    2.53340376   -0.29494176    0.71328015
| 65> H    2.56391919   -0.97777410   -0.13577836
| 66> H    3.43430956    0.31625432    0.68359945
| 67> H    2.56755821   -0.89520887    1.62232865
| 68> C    2.53355276    0.26655894    5.91022771
| 69> H    2.56813725    0.86636564    5.00090216
| 70> H    2.56405607    0.94976552    6.75897253
| 71> H    3.43423346   -0.34493837    5.94043665
| 72> C    1.27172656   -0.58532833    5.94953196
| 73> H    1.26628285   -1.19505604    6.85602892
| 74> H    1.27059605   -1.28468207    5.10995090
| 75> C   -0.00004843    0.25077077    5.90391552
| 76> H   -0.00020336    0.95308075    6.74290000
| 77> H    0.00002847    0.85954719    4.99484589
| 78> C   -1.27180927   -0.58537121    5.94918706
| 79> H   -1.26642703   -1.19548066    6.85543716
| 80> H   -1.27070293   -1.28439410    5.10932341
| 81> C   -2.53352850    0.26667510    5.91020936
| 82> H   -2.56772180    0.86720877    5.00133260
| 83> H   -3.43433047   -0.34462326    5.93972254
| 84> H   -2.56406803    0.94926134    6.75947075
| 85> *
| 86>
| 87> $new_job
| 88> ! ri-mp2 aug-cc-pvqz aug-cc-pvqz/c tightscf
| 89> %pal nprocs 16 end
| 90> %maxcore 3800
| 91> %base "QZ_S66by10_34_1.5_dimer"
| 92>
| 93> *xyz 0 1
| 94> C   -2.53330865   -0.29487907    0.71314876
| 95> H   -2.56362682   -0.97708181   -0.13642264
| 96> H   -2.56697835   -0.89587590    1.62173177
| 97> H   -3.43442611    0.31595713    0.68410447
| 98> C   -1.27188487    0.55765547    0.67435468
| 99> H   -1.27102630    1.25656571    1.51431940
|100> H   -1.26663255    1.16789581   -0.23182653
|101> C   -0.00013504   -0.27841822    0.71960315
|102> H   -0.00015938   -0.88722952    1.62863709
|103> H   -0.00036543   -0.98071418   -0.11940439
|104> C    1.27189476    0.55738219    0.67406108
|105> H    1.27097175    1.25663331    1.51370541
|106> H    1.26663649    1.16718250   -0.23238692
|107> C    2.53340376   -0.29494176    0.71328015
|108> H    2.56391919   -0.97777410   -0.13577836
|109> H    3.43430956    0.31625432    0.68359945
|110> H    2.56755821   -0.89520887    1.62232865
|111> C    2.53355276    0.26655894    5.91022771
|112> H    2.56813725    0.86636564    5.00090216
|113> H    2.56405607    0.94976552    6.75897253
|114> H    3.43423346   -0.34493837    5.94043665
|115> C    1.27172656   -0.58532833    5.94953196
|116> H    1.26628285   -1.19505604    6.85602892
|117> H    1.27059605   -1.28468207    5.10995090
|118> C   -0.00004843    0.25077077    5.90391552
|119> H   -0.00020336    0.95308075    6.74290000
|120> H    0.00002847    0.85954719    4.99484589
|121> C   -1.27180927   -0.58537121    5.94918706
|122> H   -1.26642703   -1.19548066    6.85543716
|123> H   -1.27070293   -1.28439410    5.10932341
|124> C   -2.53352850    0.26667510    5.91020936
|125> H   -2.56772180    0.86720877    5.00133260
|126> H   -3.43433047   -0.34462326    5.93972254
|127> H   -2.56406803    0.94926134    6.75947075
|128> *
|129>
|130>
|131>
|132>
|133>                          ****END OF INPUT****
 Total Charge           Charge          ....    0
 Multiplicity           Mult            ....    1
 Number of Electrons    NEL             ....   84
MP2 TOTAL ENERGY:     -394.228413065 Eh
FINAL SINGLE POINT ENERGY      -394.228413065369
MP2 TOTAL ENERGY:     -394.622577219 Eh
FINAL SINGLE POINT ENERGY      -394.622577219201

CARTESIAN COORDINATES (ANGSTROEM)
---------------------------------
  C     -2.533309   -0.294879    0.713149
  H     -2.563627   -0.977082   -0.136423
  H     -2.566978   -0.895876    1.621732
  H     -3.434426    0.315957    0.684104
  C     -1.271885    0.557655    0.674355
  H     -1.271026    1.256566    1.514319
  H     -1.266633    1.167896   -0.231827
  C     -0.000135   -0.278418    0.719603
  H     -0.000159   -0.887230    1.628637
  H     -0.000365   -0.980714   -0.119404
  C      1.271895    0.557382    0.674061
  H      1.270972    1.256633    1.513705
  H      1.266636    1.167183   -0.232387
  C      2.533404   -0.294942    0.713280
  H      2.563919   -0.977774   -0.135778
  H      3.434310    0.316254    0.683599
  H      2.567558   -0.895209    1.622329
  C      2.533553    0.266559    5.910228
  H      2.568137    0.866366    5.000902
  H      2.564056    0.949766    6.758973
  H      3.434233   -0.344938    5.940437
  C      1.271727   -0.585328    5.949532
  H      1.266283   -1.195056    6.856029
  H      1.270596   -1.284682    5.109951
  C     -0.000048    0.250771    5.903916
  H     -0.000203    0.953081    6.742900
  H      0.000028    0.859547    4.994846
  C     -1.271809   -0.585371    5.949187
  H     -1.266427   -1.195481    6.855437
  H     -1.270703   -1.284394    5.109323
  C     -2.533529    0.266675    5.910209
  H     -2.567722    0.867209    5.001333
  H     -3.434330   -0.344623    5.939723
  H     -2.564068    0.949261    6.759471

 Multiplicity           Mult            ....    1
 Number of Electrons    NEL             ....   84
 Basis Dimension        Dim             .... 1904

ORBITAL ENERGIES
----------------

  NO   OCC          E(Eh)            E(eV)
   0   2.0000     -11.212103      -305.0968
   1   2.0000     -11.212102      -305.0968
   2   2.0000     -11.212029      -305.0948
   3   2.0000     -11.212027      -305.0948
   4   2.0000     -11.209708      -305.0317
   5   2.0000     -11.209707      -305.0316
   6   2.0000     -11.206450      -304.9430
   7   2.0000     -11.206448      -304.9430
   8   2.0000     -11.206446      -304.9429
   9   2.0000     -11.206444      -304.9428
  10   2.0000      -1.081654       -29.4333
  11   2.0000      -1.081450       -29.4278
  12   2.0000      -1.015746       -27.6399
  13   2.0000      -1.015554       -27.6346
  14   2.0000      -0.919404       -25.0183
  15   2.0000      -0.919212       -25.0130
  16   2.0000      -0.820244       -22.3200
  17   2.0000      -0.820230       -22.3196
  18   2.0000      -0.785710       -21.3803
  19   2.0000      -0.785357       -21.3707
  20   2.0000      -0.649264       -17.6674
  21   2.0000      -0.646778       -17.5997
  22   2.0000      -0.599053       -16.3011
  23   2.0000      -0.598819       -16.2947
  24   2.0000      -0.594580       -16.1793
  25   2.0000      -0.592469       -16.1219
  26   2.0000      -0.554471       -15.0879
  27   2.0000      -0.554409       -15.0862
  28   2.0000      -0.547947       -14.9104
  29   2.0000      -0.547906       -14.9093
  30   2.0000      -0.527188       -14.3455
  31   2.0000      -0.525663       -14.3040
  32   2.0000      -0.495340       -13.4789
  33   2.0000      -0.494870       -13.4661
  34   2.0000      -0.476841       -12.9755
  35   2.0000      -0.476330       -12.9616
  36   2.0000      -0.463219       -12.6048
  37   2.0000      -0.461668       -12.5626
  38   2.0000      -0.460976       -12.5438
  39   2.0000      -0.458839       -12.4856
  40   2.0000      -0.447440       -12.1755
  41   2.0000      -0.447372       -12.1736
  42   0.0000       0.025886         0.7044
  43   0.0000       0.027551         0.7497
  44   0.0000       0.029366         0.7991
  45   0.0000       0.030231         0.8226
  46   0.0000       0.037356         1.0165

MULLIKEN ATOMIC CHARGES
-----------------------
   0 C :   -1.031369
   1 H :    0.281119
   2 H :    0.299322
   3 H :    0.254006
   4 C :   -0.519860
   5 H :    0.242628
   6 H :    0.316237
   7 C :   -0.314237
   8 H :    0.314532
   9 H :    0.315627
  10 C :   -0.519866
  11 H :    0.242628
  12 H :    0.316260
  13 C :   -1.031381
  14 H :    0.281049
  15 H :    0.253845
  16 H :    0.299464
  17 C :   -1.031251
  18 H :    0.299522
  19 H :    0.280934
  20 H :    0.253794
  21 C :   -0.519670
  22 H :    0.316154
  23 H :    0.242575
  24 C :   -0.314412
  25 H :    0.315669
  26 H :    0.314594
  27 C :   -0.519719
  28 H :    0.316149
  29 H :    0.242626
  30 C :   -1.031212
  31 H :    0.299375
  32 H :    0.253872
  33 H :    0.280997
Sum of atomic charges:   -0.0000000

LOEWDIN ATOMIC CHARGES
----------------------
   0 C :    0.927129
   1 H :   -0.285340
   2 H :   -0.287927
   3 H :   -0.283036
   4 C :    0.502011
   5 H :   -0.275003
   6 H :   -0.271667
   7 C :    0.489207
   8 H :   -0.273012
   9 H :   -0.268509
  10 C :    0.502074
  11 H :   -0.275065
  12 H :   -0.271720
  13 C :    0.927126
  14 H :   -0.285321
  15 H :   -0.283042
  16 H :   -0.287907
  17 C :    0.927161
  18 H :   -0.287908
  19 H :   -0.285340
  20 H :   -0.283044
  21 C :    0.502009
  22 H :   -0.271727
  23 H :   -0.275056
  24 C :    0.489259
  25 H :   -0.268495
  26 H :   -0.272960
  27 C :    0.501993
  28 H :   -0.271711
  29 H :   -0.275039
  30 C :    0.927149
  31 H :   -0.287902
  32 H :   -0.283057
  33 H :   -0.285330

  Mayer bond orders larger than 0.100000
B(  0-C ,  1-H ) :   0.9490 B(  0-C ,  2-H ) :   0.8714 B(  0-C ,  3-H ) :   1.0398
B(  0-C ,  4-C ) :   0.9953 B(  4-C ,  5-H ) :   0.8895 B(  4-C ,  6-H ) :   0.8387
B(  4-C ,  7-C ) :   0.8075 B(  7-C ,  8-H ) :   0.8325 B(  7-C ,  9-H ) :   0.8828
B(  7-C , 10-C ) :   0.8074 B( 10-C , 11-H ) :   0.8896 B( 10-C , 12-H ) :   0.8386
B( 10-C , 13-C ) :   0.9951 B( 13-C , 14-H ) :   0.9491 B( 13-C , 15-H ) :   1.0400
B( 13-C , 16-H ) :   0.8712 B( 17-C , 18-H ) :   0.8711 B( 17-C , 19-H ) :   0.9492
B( 17-C , 20-H ) :   1.0401 B( 17-C , 21-C ) :   0.9948 B( 21-C , 22-H ) :   0.8387
B( 21-C , 23-H ) :   0.8896 B( 21-C , 24-C ) :   0.8075 B( 24-C , 25-H ) :   0.8828
B( 24-C , 26-H ) :   0.8324 B( 24-C , 27-C ) :   0.8077 B( 27-C , 28-H ) :   0.8387
B( 27-C , 29-H ) :   0.8895 B( 27-C , 30-C ) :   0.9949 B( 30-C , 31-H ) :   0.8713
B( 30-C , 32-H ) :   1.0400 B( 30-C , 33-H ) :   0.9491

MP2 TOTAL ENERGY:     -394.739077335 Eh
FINAL SINGLE POINT ENERGY      -394.739077334856

DIPOLE MOMENT
-------------
                                X             Y             Z
Electronic contribution:     -0.00030       0.00123       0.00011
Nuclear contribution   :      0.00030      -0.00124      -0.00009
                        -----------------------------------------
Total Dipole Moment    :      0.00000      -0.00001       0.00002
                        -----------------------------------------
Magnitude (a.u.)       :      0.00002
Magnitude (Debye)      :      0.00004

Rotational constants in cm-1:     0.031031     0.016140     0.011234
Rotational constants in MHz :   930.291719   483.858805   336.779238

                             ****ORCA TERMINATED NORMALLY****
TOTAL RUN TIME: 0 days 17 hours 55 minutes 49 seconds 613 msec
