                         Program Version 5.0.4 -  RELEASE  -
|  1> ! ri-mp2 aug-cc-pvdz aug-cc-pvdz/c tightscf
|  2> %pal nprocs 16 end
|  3> %maxcore 3800
|  4> %base "DZ_S66by10_33_1.05_dimer"
|  5>
|  6> *xyz 0 1
|  7> N    1.38138219   -0.00023348    0.13146374
|  8> C    0.67935079   -1.14023946    0.09207966
|  9> H    1.25871960   -2.05496223    0.12588361
| 10> C   -0.70972232   -1.19311407    0.00666426
| 11> H   -1.21408768   -2.14856163   -0.02530851
| 12> C   -1.42161357    0.00013343   -0.04081690
| 13> H   -2.50069615    0.00025757   -0.10916973
| 14> C   -0.70940120    1.19317538    0.00652198
| 15> H   -1.21351163    2.14874784   -0.02552831
| 16> C    0.67965167    1.13995623    0.09189303
| 17> H    1.25926073    2.05451090    0.12550248
| 18> C    0.02059705    0.66644415    3.59755336
| 19> H    0.93107106    1.22592987    3.43843852
| 20> H   -0.88895044    1.22884838    3.75451386
| 21> C    0.02092974   -0.66624315    3.59768560
| 22> H    0.93166543   -1.22532563    3.43867516
| 23> H   -0.88835836   -1.22906792    3.75477475
| 24> *
| 25>
| 26> $new_job
| 27> ! ri-mp2 aug-cc-pvtz aug-cc-pvtz/c tightscf
| 28> %pal nprocs 16 end
| 29> %maxcore 3800
| 30> %base "TZ_S66by10_33_1.05_dimer"
| 31>
| 32> *xyz 0 1
| 33> N    1.38138219   -0.00023348    0.13146374
| 34> C    0.67935079   -1.14023946    0.09207966
| 35> H    1.25871960   -2.05496223    0.12588361
| 36> C   -0.70972232   -1.19311407    0.00666426
| 37> H   -1.21408768   -2.14856163   -0.02530851
| 38> C   -1.42161357    0.00013343   -0.04081690
| 39> H   -2.50069615    0.00025757   -0.10916973
| 40> C   -0.70940120    1.19317538    0.00652198
| 41> H   -1.21351163    2.14874784   -0.02552831
| 42> C    0.67965167    1.13995623    0.09189303
| 43> H    1.25926073    2.05451090    0.12550248
| 44> C    0.02059705    0.66644415    3.59755336
| 45> H    0.93107106    1.22592987    3.43843852
| 46> H   -0.88895044    1.22884838    3.75451386
| 47> C    0.02092974   -0.66624315    3.59768560
| 48> H    0.93166543   -1.22532563    3.43867516
| 49> H   -0.88835836   -1.22906792    3.75477475
| 50> *
| 51>
| 52> $new_job
| 53> ! ri-mp2 aug-cc-pvqz aug-cc-pvqz/c tightscf
| 54> %pal nprocs 16 end
| 55> %maxcore 3800
| 56> %base "QZ_S66by10_33_1.05_dimer"
| 57>
| 58> *xyz 0 1
| 59> N    1.38138219   -0.00023348    0.13146374
| 60> C    0.67935079   -1.14023946    0.09207966
| 61> H    1.25871960   -2.05496223    0.12588361
| 62> C   -0.70972232   -1.19311407    0.00666426
| 63> H   -1.21408768   -2.14856163   -0.02530851
| 64> C   -1.42161357    0.00013343   -0.04081690
| 65> H   -2.50069615    0.00025757   -0.10916973
| 66> C   -0.70940120    1.19317538    0.00652198
| 67> H   -1.21351163    2.14874784   -0.02552831
| 68> C    0.67965167    1.13995623    0.09189303
| 69> H    1.25926073    2.05451090    0.12550248
| 70> C    0.02059705    0.66644415    3.59755336
| 71> H    0.93107106    1.22592987    3.43843852
| 72> H   -0.88895044    1.22884838    3.75451386
| 73> C    0.02092974   -0.66624315    3.59768560
| 74> H    0.93166543   -1.22532563    3.43867516
| 75> H   -0.88835836   -1.22906792    3.75477475
| 76> *
| 77>
| 78>
| 79>
| 80>
| 81>                          ****END OF INPUT****
 Total Charge           Charge          ....    0
 Multiplicity           Mult            ....    1
 Number of Electrons    NEL             ....   58
MP2 TOTAL ENERGY:     -325.896780836 Eh
FINAL SINGLE POINT ENERGY      -325.896780835821
MP2 TOTAL ENERGY:     -326.186908964 Eh
FINAL SINGLE POINT ENERGY      -326.186908964038

CARTESIAN COORDINATES (ANGSTROEM)
---------------------------------
  N      1.381382   -0.000233    0.131464
  C      0.679351   -1.140239    0.092080
  H      1.258720   -2.054962    0.125884
  C     -0.709722   -1.193114    0.006664
  H     -1.214088   -2.148562   -0.025309
  C     -1.421614    0.000133   -0.040817
  H     -2.500696    0.000258   -0.109170
  C     -0.709401    1.193175    0.006522
  H     -1.213512    2.148748   -0.025528
  C      0.679652    1.139956    0.091893
  H      1.259261    2.054511    0.125502
  C      0.020597    0.666444    3.597553
  H      0.931071    1.225930    3.438439
  H     -0.888950    1.228848    3.754514
  C      0.020930   -0.666243    3.597686
  H      0.931665   -1.225326    3.438675
  H     -0.888358   -1.229068    3.754775

 Multiplicity           Mult            ....    1
 Number of Electrons    NEL             ....   58
 Basis Dimension        Dim             .... 1054

ORBITAL ENERGIES
----------------

  NO   OCC          E(Eh)            E(eV)
   0   2.0000     -15.562339      -423.4728
   1   2.0000     -11.271986      -306.7263
   2   2.0000     -11.271969      -306.7259
   3   2.0000     -11.256401      -306.3022
   4   2.0000     -11.238711      -305.8209
   5   2.0000     -11.238657      -305.8194
   6   2.0000     -11.222313      -305.3747
   7   2.0000     -11.220589      -305.3278
   8   2.0000      -1.254168       -34.1276
   9   2.0000      -1.087365       -29.5887
  10   2.0000      -1.031062       -28.0566
  11   2.0000      -1.027055       -27.9476
  12   2.0000      -0.857154       -23.3244
  13   2.0000      -0.853769       -23.2322
  14   2.0000      -0.786616       -21.4049
  15   2.0000      -0.720086       -19.5945
  16   2.0000      -0.658544       -17.9199
  17   2.0000      -0.652482       -17.7549
  18   2.0000      -0.638173       -17.3656
  19   2.0000      -0.596118       -16.2212
  20   2.0000      -0.580681       -15.8011
  21   2.0000      -0.575291       -15.6545
  22   2.0000      -0.539854       -14.6902
  23   2.0000      -0.518114       -14.0986
  24   2.0000      -0.502180       -13.6650
  25   2.0000      -0.417979       -11.3738
  26   2.0000      -0.382493       -10.4082
  27   2.0000      -0.367834       -10.0093
  28   2.0000      -0.345361        -9.3978
  29   0.0000       0.022966         0.6249
  30   0.0000       0.027688         0.7534
  31   0.0000       0.032633         0.8880
  32   0.0000       0.039344         1.0706
  33   0.0000       0.042002         1.1429

MULLIKEN ATOMIC CHARGES
-----------------------
   0 N :   -0.650391
   1 C :   -0.163204
   2 H :    0.449663
   3 C :   -0.335378
   4 H :    0.319678
   5 C :   -0.275056
   6 H :    0.362802
   7 C :   -0.335457
   8 H :    0.319551
   9 C :   -0.163116
  10 H :    0.449773
  11 C :   -0.802890
  12 H :    0.407275
  13 H :    0.406192
  14 C :   -0.802814
  15 H :    0.407120
  16 H :    0.406252
Sum of atomic charges:   -0.0000000

LOEWDIN ATOMIC CHARGES
----------------------
   0 N :    0.589548
   1 C :    0.048786
   2 H :   -0.351394
   3 C :    0.314527
   4 H :   -0.326953
   5 C :    0.318727
   6 H :   -0.311911
   7 C :    0.314510
   8 H :   -0.326959
   9 C :    0.048802
  10 H :   -0.351413
  11 C :    0.740708
  12 H :   -0.362714
  13 H :   -0.361137
  14 C :    0.740707
  15 H :   -0.362716
  16 H :   -0.361118

  Mayer bond orders larger than 0.100000
B(  0-N ,  1-C ) :   1.1841 B(  0-N ,  2-H ) :  -0.1196 B(  0-N ,  9-C ) :   1.1841
B(  0-N , 10-H ) :  -0.1197 B(  1-C ,  2-H ) :   0.9067 B(  1-C ,  3-C ) :   1.1945
B(  3-C ,  4-H ) :   1.0083 B(  3-C ,  5-C ) :   1.2086 B(  5-C ,  6-H ) :   0.9667
B(  5-C ,  7-C ) :   1.2085 B(  7-C ,  8-H ) :   1.0085 B(  7-C ,  9-C ) :   1.1945
B(  9-C , 10-H ) :   0.9066 B( 11-C , 12-H ) :   0.8206 B( 11-C , 13-H ) :   0.8314
B( 11-C , 14-C ) :   2.0108 B( 14-C , 15-H ) :   0.8208 B( 14-C , 16-H ) :   0.8313

MP2 TOTAL ENERGY:     -326.278244933 Eh
FINAL SINGLE POINT ENERGY      -326.278244933357

DIPOLE MOMENT
-------------
                                X             Y             Z
Electronic contribution:      1.24522      -0.00036      -5.40668
Nuclear contribution   :     -2.15046       0.00047       5.32525
                        -----------------------------------------
Total Dipole Moment    :     -0.90524       0.00011      -0.08143
                        -----------------------------------------
Magnitude (a.u.)       :      0.90890
Magnitude (Debye)      :      2.31023

Rotational constants in cm-1:     0.088867     0.047984     0.046621
Rotational constants in MHz :  2664.175392  1438.510011  1397.670787

                             ****ORCA TERMINATED NORMALLY****
TOTAL RUN TIME: 0 days 0 hours 33 minutes 13 seconds 864 msec
