                         Program Version 5.0.4 -  RELEASE  -
|  1> ! ri-mp2 aug-cc-pvdz aug-cc-pvdz/c tightscf
|  2> %pal nprocs 16 end
|  3> %maxcore 3800
|  4> %base "DZ_S66by10_55_0.8_dimer"
|  5>
|  6> *xyz 0 1
|  7> C    0.75974918    1.03127506    0.37377239
|  8> H    1.43501626    1.87566427    0.37470462
|  9> C    1.26661779   -0.26736234    0.42127308
| 10> H    2.33491597   -0.42918019    0.45943234
| 11> C    0.39532054   -1.35599116    0.42490511
| 12> H    0.78866193   -2.36249259    0.46303549
| 13> C   -0.98220564   -1.14665441    0.38127024
| 14> H   -1.65765632   -1.99114019    0.38512100
| 15> C   -1.48934612    0.15114979    0.33757234
| 16> H   -2.55794704    0.31375049    0.30771900
| 17> C   -0.61877516    1.24033121    0.33388373
| 18> H   -1.01176161    2.24710690    0.30436922
| 19> O    0.08990513    0.33010775    3.16532801
| 20> H    0.17600534    0.37998084    2.20813447
| 21> C   -0.80624547   -0.72750632    3.44838305
| 22> H   -0.90196617   -0.78424091    4.52931919
| 23> H   -1.79839506   -0.55580858    3.02459285
| 24> H   -0.43978515   -1.69054739    3.08547154
| 25> *
| 26>
| 27> $new_job
| 28> ! ri-mp2 aug-cc-pvtz aug-cc-pvtz/c tightscf
| 29> %pal nprocs 16 end
| 30> %maxcore 3800
| 31> %base "TZ_S66by10_55_0.8_dimer"
| 32>
| 33> *xyz 0 1
| 34> C    0.75974918    1.03127506    0.37377239
| 35> H    1.43501626    1.87566427    0.37470462
| 36> C    1.26661779   -0.26736234    0.42127308
| 37> H    2.33491597   -0.42918019    0.45943234
| 38> C    0.39532054   -1.35599116    0.42490511
| 39> H    0.78866193   -2.36249259    0.46303549
| 40> C   -0.98220564   -1.14665441    0.38127024
| 41> H   -1.65765632   -1.99114019    0.38512100
| 42> C   -1.48934612    0.15114979    0.33757234
| 43> H   -2.55794704    0.31375049    0.30771900
| 44> C   -0.61877516    1.24033121    0.33388373
| 45> H   -1.01176161    2.24710690    0.30436922
| 46> O    0.08990513    0.33010775    3.16532801
| 47> H    0.17600534    0.37998084    2.20813447
| 48> C   -0.80624547   -0.72750632    3.44838305
| 49> H   -0.90196617   -0.78424091    4.52931919
| 50> H   -1.79839506   -0.55580858    3.02459285
| 51> H   -0.43978515   -1.69054739    3.08547154
| 52> *
| 53>
| 54> $new_job
| 55> ! ri-mp2 aug-cc-pvqz aug-cc-pvqz/c tightscf
| 56> %pal nprocs 16 end
| 57> %maxcore 3800
| 58> %base "QZ_S66by10_55_0.8_dimer"
| 59>
| 60> *xyz 0 1
| 61> C    0.75974918    1.03127506    0.37377239
| 62> H    1.43501626    1.87566427    0.37470462
| 63> C    1.26661779   -0.26736234    0.42127308
| 64> H    2.33491597   -0.42918019    0.45943234
| 65> C    0.39532054   -1.35599116    0.42490511
| 66> H    0.78866193   -2.36249259    0.46303549
| 67> C   -0.98220564   -1.14665441    0.38127024
| 68> H   -1.65765632   -1.99114019    0.38512100
| 69> C   -1.48934612    0.15114979    0.33757234
| 70> H   -2.55794704    0.31375049    0.30771900
| 71> C   -0.61877516    1.24033121    0.33388373
| 72> H   -1.01176161    2.24710690    0.30436922
| 73> O    0.08990513    0.33010775    3.16532801
| 74> H    0.17600534    0.37998084    2.20813447
| 75> C   -0.80624547   -0.72750632    3.44838305
| 76> H   -0.90196617   -0.78424091    4.52931919
| 77> H   -1.79839506   -0.55580858    3.02459285
| 78> H   -0.43978515   -1.69054739    3.08547154
| 79> *
| 80>
| 81>
| 82>
| 83>
| 84>                          ****END OF INPUT****
 Total Charge           Charge          ....    0
 Multiplicity           Mult            ....    1
 Number of Electrons    NEL             ....   60
MP2 TOTAL ENERGY:     -346.965527360 Eh
FINAL SINGLE POINT ENERGY      -346.965527360059
MP2 TOTAL ENERGY:     -347.277416778 Eh
FINAL SINGLE POINT ENERGY      -347.277416778127

CARTESIAN COORDINATES (ANGSTROEM)
---------------------------------
  C      0.759749    1.031275    0.373772
  H      1.435016    1.875664    0.374705
  C      1.266618   -0.267362    0.421273
  H      2.334916   -0.429180    0.459432
  C      0.395321   -1.355991    0.424905
  H      0.788662   -2.362493    0.463035
  C     -0.982206   -1.146654    0.381270
  H     -1.657656   -1.991140    0.385121
  C     -1.489346    0.151150    0.337572
  H     -2.557947    0.313750    0.307719
  C     -0.618775    1.240331    0.333884
  H     -1.011762    2.247107    0.304369
  O      0.089905    0.330108    3.165328
  H      0.176005    0.379981    2.208134
  C     -0.806245   -0.727506    3.448383
  H     -0.901966   -0.784241    4.529319
  H     -1.798395   -0.555809    3.024593
  H     -0.439785   -1.690547    3.085472

 Multiplicity           Mult            ....    1
 Number of Electrons    NEL             ....   60
 Basis Dimension        Dim             .... 1100

ORBITAL ENERGIES
----------------

  NO   OCC          E(Eh)            E(eV)
   0   2.0000     -20.525798      -558.5354
   1   2.0000     -11.249192      -306.1061
   2   2.0000     -11.247041      -306.0476
   3   2.0000     -11.246634      -306.0365
   4   2.0000     -11.246545      -306.0341
   5   2.0000     -11.244879      -305.9887
   6   2.0000     -11.244618      -305.9816
   7   2.0000     -11.244012      -305.9651
   8   2.0000      -1.334562       -36.3153
   9   2.0000      -1.165597       -31.7175
  10   2.0000      -1.029426       -28.0121
  11   2.0000      -1.027917       -27.9711
  12   2.0000      -0.905863       -24.6498
  13   2.0000      -0.836322       -22.7575
  14   2.0000      -0.836297       -22.7568
  15   2.0000      -0.723403       -19.6848
  16   2.0000      -0.679707       -18.4958
  17   2.0000      -0.655264       -17.8306
  18   2.0000      -0.631324       -17.1792
  19   2.0000      -0.601087       -16.3564
  20   2.0000      -0.600745       -16.3471
  21   2.0000      -0.600422       -16.3383
  22   2.0000      -0.572759       -15.5856
  23   2.0000      -0.511364       -13.9149
  24   2.0000      -0.506623       -13.7859
  25   2.0000      -0.506594       -13.7851
  26   2.0000      -0.483006       -13.1433
  27   2.0000      -0.428097       -11.6491
  28   2.0000      -0.350264        -9.5312
  29   2.0000      -0.348829        -9.4921
  30   0.0000       0.023436         0.6377
  31   0.0000       0.028997         0.7891
  32   0.0000       0.029289         0.7970
  33   0.0000       0.038988         1.0609
  34   0.0000       0.040973         1.1149

MULLIKEN ATOMIC CHARGES
-----------------------
   0 C :   -0.075437
   1 H :    0.318135
   2 C :   -0.538868
   3 H :    0.290244
   4 C :   -0.265332
   5 H :    0.279828
   6 C :   -0.315913
   7 H :    0.314201
   8 C :   -0.258343
   9 H :    0.282455
  10 C :   -0.535941
  11 H :    0.284354
  12 O :   -0.829180
  13 H :    0.686709
  14 C :   -0.543961
  15 H :    0.408341
  16 H :    0.250266
  17 H :    0.248441
Sum of atomic charges:    0.0000000

LOEWDIN ATOMIC CHARGES
----------------------
   0 C :    0.335364
   1 H :   -0.296952
   2 C :    0.347468
   3 H :   -0.300789
   4 C :    0.339114
   5 H :   -0.306644
   6 C :    0.315558
   7 H :   -0.305000
   8 C :    0.338099
   9 H :   -0.306933
  10 C :    0.348572
  11 H :   -0.301341
  12 O :    1.307009
  13 H :   -1.109445
  14 C :    0.572441
  15 H :   -0.325682
  16 H :   -0.325325
  17 H :   -0.325516

  Mayer bond orders larger than 0.100000
B(  0-C ,  1-H ) :   1.0452 B(  0-C ,  2-C ) :   1.1625 B(  0-C ,  6-C ) :   0.1195
B(  0-C , 10-C ) :   1.1620 B(  2-C ,  3-H ) :   1.0761 B(  2-C ,  4-C ) :   1.2739
B(  2-C ,  8-C ) :   0.1173 B(  2-C , 10-C ) :   0.1872 B(  2-C , 13-H ) :  -0.1084
B(  4-C ,  5-H ) :   1.0745 B(  4-C ,  6-C ) :   1.2006 B(  4-C , 10-C ) :   0.1188
B(  6-C ,  7-H ) :   1.0297 B(  6-C ,  8-C ) :   1.1908 B(  8-C ,  9-H ) :   1.0708
B(  8-C , 10-C ) :   1.2746 B( 10-C , 11-H ) :   1.0838 B( 10-C , 13-H ) :  -0.1070
B( 12-O , 13-H ) :   0.6974 B( 12-O , 14-C ) :   0.8161 B( 14-C , 15-H ) :   0.8301
B( 14-C , 16-H ) :   0.9246 B( 14-C , 17-H ) :   0.9259

MP2 TOTAL ENERGY:     -347.375414732 Eh
FINAL SINGLE POINT ENERGY      -347.375414732207

DIPOLE MOMENT
-------------
                                X             Y             Z
Electronic contribution:      1.41738       1.51539      -3.45553
Nuclear contribution   :     -1.70619      -1.89841       2.76913
                        -----------------------------------------
Total Dipole Moment    :     -0.28881      -0.38303      -0.68640
                        -----------------------------------------
Magnitude (a.u.)       :      0.83742
Magnitude (Debye)      :      2.12854

Rotational constants in cm-1:     0.087319     0.058240     0.055792
Rotational constants in MHz :  2617.771478  1745.996939  1672.593062

                             ****ORCA TERMINATED NORMALLY****
TOTAL RUN TIME: 0 days 0 hours 41 minutes 32 seconds 94 msec
