                         Program Version 5.0.4 -  RELEASE  -
|  1> ! ri-mp2 aug-cc-pvdz aug-cc-pvdz/c tightscf
|  2> %pal nprocs 16 end
|  3> %maxcore 3800
|  4> %base "DZ_S66by10_6_0.7_dimer"
|  5> %scf STABPerform true end
|  6>
|  7> *xyz 0 1
|  8> O   -0.70692019    0.04583037    0.00638610
|  9> H    0.26562361    0.07171014    0.00133929
| 10> C   -1.07667067   -1.31391581    0.00161428
| 11> H   -2.16292358   -1.36319577    0.00586542
| 12> H   -0.72340594   -1.84465168   -0.88774350
| 13> H   -0.71607978   -1.85282083    0.88307978
| 14> N    1.64232612   -0.00519649   -0.00198764
| 15> H    2.01294567    0.50258001    0.79114475
| 16> H    2.01306896    0.45914207   -0.82124647
| 17> C    2.12007805   -1.39122994    0.03547356
| 18> H    1.72819322   -1.92525522   -0.82671817
| 19> H    3.20678921   -1.49796511    0.03850806
| 20> H    1.72795165   -1.87796011    0.92510571
| 21> *
| 22>
| 23> $new_job
| 24> ! ri-mp2 aug-cc-pvtz aug-cc-pvtz/c tightscf
| 25> %pal nprocs 16 end
| 26> %maxcore 3800
| 27> %base "TZ_S66by10_6_0.7_dimer"
| 28>
| 29> *xyz 0 1
| 30> O   -0.70692019    0.04583037    0.00638610
| 31> H    0.26562361    0.07171014    0.00133929
| 32> C   -1.07667067   -1.31391581    0.00161428
| 33> H   -2.16292358   -1.36319577    0.00586542
| 34> H   -0.72340594   -1.84465168   -0.88774350
| 35> H   -0.71607978   -1.85282083    0.88307978
| 36> N    1.64232612   -0.00519649   -0.00198764
| 37> H    2.01294567    0.50258001    0.79114475
| 38> H    2.01306896    0.45914207   -0.82124647
| 39> C    2.12007805   -1.39122994    0.03547356
| 40> H    1.72819322   -1.92525522   -0.82671817
| 41> H    3.20678921   -1.49796511    0.03850806
| 42> H    1.72795165   -1.87796011    0.92510571
| 43> *
| 44>
| 45> $new_job
| 46> ! ri-mp2 aug-cc-pvqz aug-cc-pvqz/c tightscf
| 47> %pal nprocs 16 end
| 48> %maxcore 3800
| 49> %base "QZ_S66by10_6_0.7_dimer"
| 50>
| 51> *xyz 0 1
| 52> O   -0.70692019    0.04583037    0.00638610
| 53> H    0.26562361    0.07171014    0.00133929
| 54> C   -1.07667067   -1.31391581    0.00161428
| 55> H   -2.16292358   -1.36319577    0.00586542
| 56> H   -0.72340594   -1.84465168   -0.88774350
| 57> H   -0.71607978   -1.85282083    0.88307978
| 58> N    1.64232612   -0.00519649   -0.00198764
| 59> H    2.01294567    0.50258001    0.79114475
| 60> H    2.01306896    0.45914207   -0.82124647
| 61> C    2.12007805   -1.39122994    0.03547356
| 62> H    1.72819322   -1.92525522   -0.82671817
| 63> H    3.20678921   -1.49796511    0.03850806
| 64> H    1.72795165   -1.87796011    0.92510571
| 65> *
| 66>
| 67>
| 68>
| 69>
| 70>                          ****END OF INPUT****
 Total Charge           Charge          ....    0
 Multiplicity           Mult            ....    1
 Number of Electrons    NEL             ....   36
MP2 TOTAL ENERGY:     -210.987409808 Eh
FINAL SINGLE POINT ENERGY      -210.987409808005
MP2 TOTAL ENERGY:     -211.189086624 Eh
FINAL SINGLE POINT ENERGY      -211.189086623556

CARTESIAN COORDINATES (ANGSTROEM)
---------------------------------
  O     -0.706920    0.045830    0.006386
  H      0.265624    0.071710    0.001339
  C     -1.076671   -1.313916    0.001614
  H     -2.162924   -1.363196    0.005865
  H     -0.723406   -1.844652   -0.887743
  H     -0.716080   -1.852821    0.883080
  N      1.642326   -0.005196   -0.001988
  H      2.012946    0.502580    0.791145
  H      2.013069    0.459142   -0.821246
  C      2.120078   -1.391230    0.035474
  H      1.728193   -1.925255   -0.826718
  H      3.206789   -1.497965    0.038508
  H      1.727952   -1.877960    0.925106

 Multiplicity           Mult            ....    1
 Number of Electrons    NEL             ....   36
 Basis Dimension        Dim             ....  734

ORBITAL ENERGIES
----------------

  NO   OCC          E(Eh)            E(eV)
   0   2.0000     -20.473658      -557.1166
   1   2.0000     -15.573237      -423.7693
   2   2.0000     -11.265358      -306.5460
   3   2.0000     -11.235083      -305.7222
   4   2.0000      -1.306227       -35.5443
   5   2.0000      -1.213965       -33.0337
   6   2.0000      -0.933312       -25.3967
   7   2.0000      -0.885207       -24.0877
   8   2.0000      -0.702536       -19.1170
   9   2.0000      -0.697542       -18.9811
  10   2.0000      -0.625147       -17.0111
  11   2.0000      -0.579766       -15.7762
  12   2.0000      -0.576794       -15.6953
  13   2.0000      -0.549434       -14.9509
  14   2.0000      -0.547170       -14.8892
  15   2.0000      -0.491918       -13.3858
  16   2.0000      -0.394144       -10.7252
  17   2.0000      -0.393830       -10.7167
  18   0.0000       0.018633         0.5070
  19   0.0000       0.033216         0.9039
  20   0.0000       0.035441         0.9644
  21   0.0000       0.037015         1.0072
  22   0.0000       0.051575         1.4034

MULLIKEN ATOMIC CHARGES
-----------------------
   0 O :   -0.800263
   1 H :    0.293399
   2 C :   -0.533742
   3 H :    0.467872
   4 H :    0.181086
   5 H :    0.185004
   6 N :   -0.147333
   7 H :    0.166314
   8 H :    0.165232
   9 C :   -0.849427
  10 H :    0.246583
  11 H :    0.382512
  12 H :    0.242763
Sum of atomic charges:    0.0000000

LOEWDIN ATOMIC CHARGES
----------------------
   0 O :    1.263581
   1 H :   -1.330321
   2 C :    0.549337
   3 H :   -0.341002
   4 H :   -0.324145
   5 H :   -0.325675
   6 N :    1.306513
   7 H :   -0.394605
   8 H :   -0.394526
   9 C :    0.845443
  10 H :   -0.293828
  11 H :   -0.267693
  12 H :   -0.293078

  Mayer bond orders larger than 0.100000
B(  0-O ,  1-H ) :   0.8426 B(  0-O ,  2-C ) :   0.8455 B(  0-O ,  6-N ) :  -0.1128
B(  1-H ,  6-N ) :   0.1408 B(  2-C ,  3-H ) :   0.7640 B(  2-C ,  4-H ) :   0.9716
B(  2-C ,  5-H ) :   0.9697 B(  6-N ,  7-H ) :   1.0033 B(  6-N ,  8-H ) :   1.0023
B(  6-N ,  9-C ) :   1.0120 B(  9-C , 10-H ) :   0.9634 B(  9-C , 11-H ) :   0.8256
B(  9-C , 12-H ) :   0.9681

MP2 TOTAL ENERGY:     -211.251669797 Eh
FINAL SINGLE POINT ENERGY      -211.251669796751

DIPOLE MOMENT
-------------
                                X             Y             Z
Electronic contribution:     -0.99043       2.78502      -0.02268
Nuclear contribution   :      2.65255      -3.22014       0.01815
                        -----------------------------------------
Total Dipole Moment    :      1.66212      -0.43512      -0.00452
                        -----------------------------------------
Magnitude (a.u.)       :      1.71814
Magnitude (Debye)      :      4.36715

Rotational constants in cm-1:     0.418758     0.127024     0.102742
Rotational constants in MHz : 12554.047884  3808.072204  3080.119969

                             ****ORCA TERMINATED NORMALLY****
TOTAL RUN TIME: 0 days 0 hours 45 minutes 23 seconds 119 msec
