                         Program Version 5.0.4 -  RELEASE  -
|  1> ! ri-mp2 aug-cc-pvdz aug-cc-pvdz/c tightscf
|  2> %pal nprocs 16 end
|  3> %maxcore 3800
|  4> %base "DZ_S66by10_60_0.8_dimer"
|  5> %scf STABPerform true end
|  6>
|  7> *xyz 0 1
|  8> C   -0.61056257    0.22750310   -0.17060207
|  9> H    0.10738506    0.86143603   -0.63420924
| 10> C   -1.38627573   -0.52532550    0.37997353
| 11> H   -2.08070324   -1.17406739    0.85437937
| 12> C    2.44195894   -0.46698691    0.33772165
| 13> O    2.18777988    0.48911534   -0.36111610
| 14> O    1.49405432   -1.24132713    0.90540825
| 15> H    0.63305493   -0.87402815    0.63763711
| 16> C    3.81759409   -0.94843674    0.68787256
| 17> H    4.55597991   -0.31088665    0.21702223
| 18> H    3.94380461   -0.93658201    1.76790788
| 19> H    3.93987124   -1.97628128    0.35463823
| 20> *
| 21>
| 22> $new_job
| 23> ! ri-mp2 aug-cc-pvtz aug-cc-pvtz/c tightscf
| 24> %pal nprocs 16 end
| 25> %maxcore 3800
| 26> %base "TZ_S66by10_60_0.8_dimer"
| 27>
| 28> *xyz 0 1
| 29> C   -0.61056257    0.22750310   -0.17060207
| 30> H    0.10738506    0.86143603   -0.63420924
| 31> C   -1.38627573   -0.52532550    0.37997353
| 32> H   -2.08070324   -1.17406739    0.85437937
| 33> C    2.44195894   -0.46698691    0.33772165
| 34> O    2.18777988    0.48911534   -0.36111610
| 35> O    1.49405432   -1.24132713    0.90540825
| 36> H    0.63305493   -0.87402815    0.63763711
| 37> C    3.81759409   -0.94843674    0.68787256
| 38> H    4.55597991   -0.31088665    0.21702223
| 39> H    3.94380461   -0.93658201    1.76790788
| 40> H    3.93987124   -1.97628128    0.35463823
| 41> *
| 42>
| 43> $new_job
| 44> ! ri-mp2 aug-cc-pvqz aug-cc-pvqz/c tightscf
| 45> %pal nprocs 16 end
| 46> %maxcore 3800
| 47> %base "QZ_S66by10_60_0.8_dimer"
| 48>
| 49> *xyz 0 1
| 50> C   -0.61056257    0.22750310   -0.17060207
| 51> H    0.10738506    0.86143603   -0.63420924
| 52> C   -1.38627573   -0.52532550    0.37997353
| 53> H   -2.08070324   -1.17406739    0.85437937
| 54> C    2.44195894   -0.46698691    0.33772165
| 55> O    2.18777988    0.48911534   -0.36111610
| 56> O    1.49405432   -1.24132713    0.90540825
| 57> H    0.63305493   -0.87402815    0.63763711
| 58> C    3.81759409   -0.94843674    0.68787256
| 59> H    4.55597991   -0.31088665    0.21702223
| 60> H    3.94380461   -0.93658201    1.76790788
| 61> H    3.93987124   -1.97628128    0.35463823
| 62> *
| 63>
| 64>
| 65>
| 66>
| 67>                          ****END OF INPUT****
 Total Charge           Charge          ....    0
 Multiplicity           Mult            ....    1
 Number of Electrons    NEL             ....   46
MP2 TOTAL ENERGY:     -305.618234816 Eh
FINAL SINGLE POINT ENERGY      -305.618234815886
MP2 TOTAL ENERGY:     -305.889468727 Eh
FINAL SINGLE POINT ENERGY      -305.889468727052

CARTESIAN COORDINATES (ANGSTROEM)
---------------------------------
  C     -0.610563    0.227503   -0.170602
  H      0.107385    0.861436   -0.634209
  C     -1.386276   -0.525326    0.379974
  H     -2.080703   -1.174067    0.854379
  C      2.441959   -0.466987    0.337722
  O      2.187780    0.489115   -0.361116
  O      1.494054   -1.241327    0.905408
  H      0.633055   -0.874028    0.637637
  C      3.817594   -0.948437    0.687873
  H      4.555980   -0.310887    0.217022
  H      3.943805   -0.936582    1.767908
  H      3.939871   -1.976281    0.354638

 Multiplicity           Mult            ....    1
 Number of Electrons    NEL             ....   46
 Basis Dimension        Dim             ....  756

ORBITAL ENERGIES
----------------

  NO   OCC          E(Eh)            E(eV)
   0   2.0000     -20.589437      -560.2671
   1   2.0000     -20.543040      -559.0045
   2   2.0000     -11.384305      -309.7827
   3   2.0000     -11.257267      -306.3258
   4   2.0000     -11.251924      -306.1804
   5   2.0000     -11.238223      -305.8076
   6   2.0000      -1.455343       -39.6019
   7   2.0000      -1.354426       -36.8558
   8   2.0000      -1.051622       -28.6161
   9   2.0000      -1.021974       -27.8093
  10   2.0000      -0.816305       -22.2128
  11   2.0000      -0.780444       -21.2370
  12   2.0000      -0.710810       -19.3421
  13   2.0000      -0.692539       -18.8449
  14   2.0000      -0.665967       -18.1219
  15   2.0000      -0.643818       -17.5192
  16   2.0000      -0.578627       -15.7452
  17   2.0000      -0.570815       -15.5327
  18   2.0000      -0.554383       -15.0855
  19   2.0000      -0.478405       -13.0181
  20   2.0000      -0.458603       -12.4792
  21   2.0000      -0.424423       -11.5491
  22   2.0000      -0.419137       -11.4053
  23   0.0000       0.024037         0.6541
  24   0.0000       0.029236         0.7956
  25   0.0000       0.039150         1.0653
  26   0.0000       0.042143         1.1468
  27   0.0000       0.047234         1.2853

MULLIKEN ATOMIC CHARGES
-----------------------
   0 C :   -0.545444
   1 H :    0.663026
   2 C :   -0.711920
   3 H :    0.532011
   4 C :    0.885224
   5 O :   -0.725907
   6 O :   -0.582523
   7 H :    0.317370
   8 C :   -0.710887
   9 H :    0.303198
  10 H :    0.287977
  11 H :    0.287875
Sum of atomic charges:    0.0000000

LOEWDIN ATOMIC CHARGES
----------------------
   0 C :    0.539174
   1 H :   -0.506127
   2 C :    0.609384
   3 H :   -0.420094
   4 C :   -0.994274
   5 O :    0.735464
   6 O :    1.279828
   7 H :   -1.185920
   8 C :    0.875675
   9 H :   -0.325295
  10 H :   -0.303828
  11 H :   -0.303985

  Mayer bond orders larger than 0.100000
B(  0-C ,  1-H ) :   0.5557 B(  0-C ,  2-C ) :   2.7200 B(  2-C ,  3-H ) :   0.7519
B(  4-C ,  5-O ) :   1.4843 B(  4-C ,  6-O ) :   1.0078 B(  4-C ,  7-H ) :   0.1103
B(  4-C ,  8-C ) :   0.8214 B(  6-O ,  7-H ) :   0.8813 B(  8-C ,  9-H ) :   0.9720
B(  8-C , 10-H ) :   0.9273 B(  8-C , 11-H ) :   0.9281

MP2 TOTAL ENERGY:     -305.976074796 Eh
FINAL SINGLE POINT ENERGY      -305.976074796114

DIPOLE MOMENT
-------------
                                X             Y             Z
Electronic contribution:     -2.51515       1.17146      -0.85315
Nuclear contribution   :      2.49511      -1.71306       1.24856
                        -----------------------------------------
Total Dipole Moment    :     -0.02004      -0.54160       0.39541
                        -----------------------------------------
Magnitude (a.u.)       :      0.67088
Magnitude (Debye)      :      1.70524

Rotational constants in cm-1:     0.304360     0.060764     0.051128
Rotational constants in MHz :  9124.481022  1821.645386  1532.779733

                             ****ORCA TERMINATED NORMALLY****
TOTAL RUN TIME: 0 days 0 hours 34 minutes 33 seconds 657 msec
