                         Program Version 5.0.4 -  RELEASE  -
|  1> ! ri-mp2 aug-cc-pvdz aug-cc-pvdz/c tightscf
|  2> %pal nprocs 16 end
|  3> %maxcore 3800
|  4> %base "DZ_S66by10_37_0.7_dimer"
|  5> %scf STABPerform true end
|  6>
|  7> *xyz 0 1
|  8> C    0.79991408   -1.02205164    0.68773696
|  9> H    0.85355588   -1.12205101   -0.39801435
| 10> H    1.49140210   -1.74416936    1.11972040
| 11> C    1.11688700    0.42495279    1.09966205
| 12> H    1.83814230    0.89014504    0.43045256
| 13> H    1.55556959    0.43982464    2.09708356
| 14> C   -0.24455916    1.16568959    1.10297714
| 15> H   -0.25807760    2.00086313    0.40532333
| 16> H   -0.44880450    1.57699582    2.09098447
| 17> C   -1.29871418    0.10381191    0.73930899
| 18> H   -1.47356078    0.10524338   -0.33800545
| 19> H   -2.25673428    0.27804118    1.22715843
| 20> C   -0.64687993   -1.22006836    1.13630660
| 21> H   -1.12443918   -2.08762702    0.68299327
| 22> H   -0.68601864   -1.34528332    2.22022006
| 23> C    0.02711678    0.04994346    4.59803433
| 24> C   -0.06922742   -0.10214252    6.11367481
| 25> H    0.92331895   -0.11760872    6.56603203
| 26> H   -0.62815218    0.72574199    6.55210972
| 27> H   -0.57639211   -1.03080860    6.37902440
| 28> C    0.74117002    1.35684857    4.26240945
| 29> H    0.82268957    1.49034771    3.18272758
| 30> H    0.19769764    2.21153701    4.66791083
| 31> H    1.74877457    1.36749899    4.68064245
| 32> C   -1.37789503    0.06976811    4.00071481
| 33> H   -1.34096344    0.18695804    2.91686584
| 34> H   -1.96019457    0.89719167    4.40906073
| 35> H   -1.90779809   -0.85801874    4.22204410
| 36> C    0.81501659   -1.12354144    4.02069616
| 37> H    0.31979628   -2.07053218    4.24093930
| 38> H    0.90985977   -1.03635868    2.93756138
| 39> H    1.81973468   -1.16094608    4.44444461
| 40> *
| 41>
| 42> $new_job
| 43> ! ri-mp2 aug-cc-pvtz aug-cc-pvtz/c tightscf
| 44> %pal nprocs 16 end
| 45> %maxcore 3800
| 46> %base "TZ_S66by10_37_0.7_dimer"
| 47>
| 48> *xyz 0 1
| 49> C    0.79991408   -1.02205164    0.68773696
| 50> H    0.85355588   -1.12205101   -0.39801435
| 51> H    1.49140210   -1.74416936    1.11972040
| 52> C    1.11688700    0.42495279    1.09966205
| 53> H    1.83814230    0.89014504    0.43045256
| 54> H    1.55556959    0.43982464    2.09708356
| 55> C   -0.24455916    1.16568959    1.10297714
| 56> H   -0.25807760    2.00086313    0.40532333
| 57> H   -0.44880450    1.57699582    2.09098447
| 58> C   -1.29871418    0.10381191    0.73930899
| 59> H   -1.47356078    0.10524338   -0.33800545
| 60> H   -2.25673428    0.27804118    1.22715843
| 61> C   -0.64687993   -1.22006836    1.13630660
| 62> H   -1.12443918   -2.08762702    0.68299327
| 63> H   -0.68601864   -1.34528332    2.22022006
| 64> C    0.02711678    0.04994346    4.59803433
| 65> C   -0.06922742   -0.10214252    6.11367481
| 66> H    0.92331895   -0.11760872    6.56603203
| 67> H   -0.62815218    0.72574199    6.55210972
| 68> H   -0.57639211   -1.03080860    6.37902440
| 69> C    0.74117002    1.35684857    4.26240945
| 70> H    0.82268957    1.49034771    3.18272758
| 71> H    0.19769764    2.21153701    4.66791083
| 72> H    1.74877457    1.36749899    4.68064245
| 73> C   -1.37789503    0.06976811    4.00071481
| 74> H   -1.34096344    0.18695804    2.91686584
| 75> H   -1.96019457    0.89719167    4.40906073
| 76> H   -1.90779809   -0.85801874    4.22204410
| 77> C    0.81501659   -1.12354144    4.02069616
| 78> H    0.31979628   -2.07053218    4.24093930
| 79> H    0.90985977   -1.03635868    2.93756138
| 80> H    1.81973468   -1.16094608    4.44444461
| 81> *
| 82>
| 83> $new_job
| 84> ! ri-mp2 aug-cc-pvqz aug-cc-pvqz/c tightscf
| 85> %pal nprocs 16 end
| 86> %maxcore 3800
| 87> %base "QZ_S66by10_37_0.7_dimer"
| 88>
| 89> *xyz 0 1
| 90> C    0.79991408   -1.02205164    0.68773696
| 91> H    0.85355588   -1.12205101   -0.39801435
| 92> H    1.49140210   -1.74416936    1.11972040
| 93> C    1.11688700    0.42495279    1.09966205
| 94> H    1.83814230    0.89014504    0.43045256
| 95> H    1.55556959    0.43982464    2.09708356
| 96> C   -0.24455916    1.16568959    1.10297714
| 97> H   -0.25807760    2.00086313    0.40532333
| 98> H   -0.44880450    1.57699582    2.09098447
| 99> C   -1.29871418    0.10381191    0.73930899
|100> H   -1.47356078    0.10524338   -0.33800545
|101> H   -2.25673428    0.27804118    1.22715843
|102> C   -0.64687993   -1.22006836    1.13630660
|103> H   -1.12443918   -2.08762702    0.68299327
|104> H   -0.68601864   -1.34528332    2.22022006
|105> C    0.02711678    0.04994346    4.59803433
|106> C   -0.06922742   -0.10214252    6.11367481
|107> H    0.92331895   -0.11760872    6.56603203
|108> H   -0.62815218    0.72574199    6.55210972
|109> H   -0.57639211   -1.03080860    6.37902440
|110> C    0.74117002    1.35684857    4.26240945
|111> H    0.82268957    1.49034771    3.18272758
|112> H    0.19769764    2.21153701    4.66791083
|113> H    1.74877457    1.36749899    4.68064245
|114> C   -1.37789503    0.06976811    4.00071481
|115> H   -1.34096344    0.18695804    2.91686584
|116> H   -1.96019457    0.89719167    4.40906073
|117> H   -1.90779809   -0.85801874    4.22204410
|118> C    0.81501659   -1.12354144    4.02069616
|119> H    0.31979628   -2.07053218    4.24093930
|120> H    0.90985977   -1.03635868    2.93756138
|121> H    1.81973468   -1.16094608    4.44444461
|122> *
|123>
|124>
|125>
|126>
|127>                          ****END OF INPUT****
 Total Charge           Charge          ....    0
 Multiplicity           Mult            ....    1
 Number of Electrons    NEL             ....   82
MP2 TOTAL ENERGY:     -393.025146191 Eh
FINAL SINGLE POINT ENERGY      -393.025146190646
MP2 TOTAL ENERGY:     -393.408361164 Eh
FINAL SINGLE POINT ENERGY      -393.408361164383

CARTESIAN COORDINATES (ANGSTROEM)
---------------------------------
  C      0.799914   -1.022052    0.687737
  H      0.853556   -1.122051   -0.398014
  H      1.491402   -1.744169    1.119720
  C      1.116887    0.424953    1.099662
  H      1.838142    0.890145    0.430453
  H      1.555570    0.439825    2.097084
  C     -0.244559    1.165690    1.102977
  H     -0.258078    2.000863    0.405323
  H     -0.448804    1.576996    2.090984
  C     -1.298714    0.103812    0.739309
  H     -1.473561    0.105243   -0.338005
  H     -2.256734    0.278041    1.227158
  C     -0.646880   -1.220068    1.136307
  H     -1.124439   -2.087627    0.682993
  H     -0.686019   -1.345283    2.220220
  C      0.027117    0.049943    4.598034
  C     -0.069227   -0.102143    6.113675
  H      0.923319   -0.117609    6.566032
  H     -0.628152    0.725742    6.552110
  H     -0.576392   -1.030809    6.379024
  C      0.741170    1.356849    4.262409
  H      0.822690    1.490348    3.182728
  H      0.197698    2.211537    4.667911
  H      1.748775    1.367499    4.680642
  C     -1.377895    0.069768    4.000715
  H     -1.340963    0.186958    2.916866
  H     -1.960195    0.897192    4.409061
  H     -1.907798   -0.858019    4.222044
  C      0.815017   -1.123541    4.020696
  H      0.319796   -2.070532    4.240939
  H      0.909860   -1.036359    2.937561
  H      1.819735   -1.160946    4.444445

 Multiplicity           Mult            ....    1
 Number of Electrons    NEL             ....   82
 Basis Dimension        Dim             .... 1812

ORBITAL ENERGIES
----------------

  NO   OCC          E(Eh)            E(eV)
   0   2.0000     -11.223372      -305.4035
   1   2.0000     -11.210633      -305.0568
   2   2.0000     -11.210536      -305.0542
   3   2.0000     -11.208666      -305.0033
   4   2.0000     -11.208088      -304.9876
   5   2.0000     -11.204447      -304.8885
   6   2.0000     -11.201638      -304.8121
   7   2.0000     -11.198180      -304.7180
   8   2.0000     -11.198090      -304.7155
   9   2.0000     -11.197254      -304.6928
  10   2.0000      -1.124886       -30.6097
  11   2.0000      -1.102095       -29.9895
  12   2.0000      -0.965588       -26.2750
  13   2.0000      -0.964172       -26.2365
  14   2.0000      -0.928422       -25.2636
  15   2.0000      -0.925791       -25.1920
  16   2.0000      -0.925440       -25.1825
  17   2.0000      -0.783464       -21.3191
  18   2.0000      -0.772216       -21.0131
  19   2.0000      -0.732488       -19.9320
  20   2.0000      -0.670306       -18.2400
  21   2.0000      -0.647788       -17.6272
  22   2.0000      -0.617073       -16.7914
  23   2.0000      -0.614190       -16.7129
  24   2.0000      -0.603901       -16.4330
  25   2.0000      -0.589947       -16.0533
  26   2.0000      -0.586961       -15.9720
  27   2.0000      -0.540580       -14.7099
  28   2.0000      -0.535158       -14.5624
  29   2.0000      -0.507851       -13.8193
  30   2.0000      -0.501537       -13.6475
  31   2.0000      -0.499046       -13.5797
  32   2.0000      -0.478246       -13.0137
  33   2.0000      -0.477114       -12.9829
  34   2.0000      -0.467312       -12.7162
  35   2.0000      -0.465217       -12.6592
  36   2.0000      -0.461915       -12.5694
  37   2.0000      -0.454184       -12.3590
  38   2.0000      -0.448623       -12.2076
  39   2.0000      -0.448448       -12.2029
  40   2.0000      -0.429909       -11.6984
  41   0.0000       0.021753         0.5919
  42   0.0000       0.028560         0.7772
  43   0.0000       0.028959         0.7880
  44   0.0000       0.029376         0.7994
  45   0.0000       0.040474         1.1014

MULLIKEN ATOMIC CHARGES
-----------------------
   0 C :   -0.620901
   1 H :    0.109563
   2 H :    0.273084
   3 C :   -0.471054
   4 H :    0.218456
   5 H :    0.378439
   6 C :   -0.489330
   7 H :    0.219247
   8 H :    0.381591
   9 C :   -0.639426
  10 H :    0.111772
  11 H :    0.263856
  12 C :   -0.529031
  13 H :    0.304400
  14 H :    0.271895
  15 C :    1.913404
  16 C :   -1.197455
  17 H :    0.202216
  18 H :    0.202196
  19 H :    0.186436
  20 C :   -1.068797
  21 H :    0.317458
  22 H :    0.141295
  23 H :    0.133155
  24 C :   -0.819127
  25 H :    0.275648
  26 H :    0.045788
  27 H :    0.208231
  28 C :   -0.840814
  29 H :    0.199032
  30 H :    0.277762
  31 H :    0.041009
Sum of atomic charges:   -0.0000000

LOEWDIN ATOMIC CHARGES
----------------------
   0 C :    0.585478
   1 H :   -0.251645
   2 H :   -0.244169
   3 C :    0.607955
   4 H :   -0.229148
   5 H :   -0.370555
   6 C :    0.611745
   7 H :   -0.230389
   8 H :   -0.364221
   9 C :    0.587858
  10 H :   -0.250249
  11 H :   -0.248873
  12 C :    0.566754
  13 H :   -0.220150
  14 H :   -0.415451
  15 C :   -0.236613
  16 C :    0.916428
  17 H :   -0.270251
  18 H :   -0.270151
  19 H :   -0.269073
  20 C :    0.943598
  21 H :   -0.436267
  22 H :   -0.237678
  23 H :   -0.237802
  24 C :    0.934406
  25 H :   -0.503079
  26 H :   -0.231330
  27 H :   -0.228915
  28 C :    0.936349
  29 H :   -0.229867
  30 H :   -0.482241
  31 H :   -0.232455

  Mayer bond orders larger than 0.100000
B(  0-C ,  1-H ) :   1.1067 B(  0-C ,  2-H ) :   1.0199 B(  0-C ,  3-C ) :   0.7610
B(  0-C , 12-C ) :   0.8461 B(  3-C ,  4-H ) :   1.0527 B(  3-C ,  5-H ) :   0.9343
B(  3-C ,  6-C ) :   0.7265 B(  6-C ,  7-H ) :   1.0508 B(  6-C ,  8-H ) :   0.9240
B(  6-C ,  9-C ) :   0.7667 B(  9-C , 10-H ) :   1.1116 B(  9-C , 11-H ) :   1.0572
B(  9-C , 12-C ) :   0.8306 B(  9-C , 25-H ) :  -0.1127 B( 12-C , 13-H ) :   0.9464
B( 12-C , 14-H ) :   0.9268 B( 15-C , 16-C ) :  -0.2092 B( 15-C , 17-H ) :  -0.2342
B( 15-C , 18-H ) :  -0.2355 B( 15-C , 19-H ) :  -0.2457 B( 15-C , 20-C ) :   0.3695
B( 15-C , 22-H ) :  -0.1073 B( 15-C , 23-H ) :  -0.1086 B( 15-C , 24-C ) :   0.4141
B( 15-C , 28-C ) :   0.3962 B( 16-C , 17-H ) :   1.1454 B( 16-C , 18-H ) :   1.1478
B( 16-C , 19-H ) :   1.1703 B( 16-C , 20-C ) :   0.1505 B( 16-C , 24-C ) :   0.1203
B( 16-C , 28-C ) :   0.1179 B( 20-C , 21-H ) :   0.8610 B( 20-C , 22-H ) :   1.1653
B( 20-C , 23-H ) :   1.1780 B( 24-C , 25-H ) :   0.8916 B( 24-C , 26-H ) :   1.3004
B( 24-C , 27-H ) :   1.0860 B( 25-H , 26-H ) :  -0.1739 B( 28-C , 29-H ) :   1.0909
B( 28-C , 30-H ) :   0.9212 B( 28-C , 31-H ) :   1.3049 B( 30-H , 31-H ) :  -0.1653

MP2 TOTAL ENERGY:     -393.522373432 Eh
FINAL SINGLE POINT ENERGY      -393.522373432362

DIPOLE MOMENT
-------------
                                X             Y             Z
Electronic contribution:     -0.09310      -0.19291      -3.04037
Nuclear contribution   :      0.09597       0.19793       2.90009
                        -----------------------------------------
Total Dipole Moment    :      0.00287       0.00502      -0.14028
                        -----------------------------------------
Magnitude (a.u.)       :      0.14040
Magnitude (Debye)      :      0.35686

Rotational constants in cm-1:     0.068764     0.025404     0.025364
Rotational constants in MHz :  2061.499362   761.602127   760.384343

                             ****ORCA TERMINATED NORMALLY****
TOTAL RUN TIME: 0 days 19 hours 48 minutes 53 seconds 777 msec
