                         Program Version 5.0.4 -  RELEASE  -
|  1> ! ri-mp2 aug-cc-pvdz aug-cc-pvdz/c tightscf
|  2> %pal nprocs 16 end
|  3> %maxcore 3800
|  4> %base "DZ_S66by10_25_0.9_dimer"
|  5>
|  6> *xyz 0 1
|  7> N    1.57248145    0.25454916   -0.25648131
|  8> C    0.96935990   -0.90316032    0.04452614
|  9> H    1.61363891   -1.77218121    0.10234520
| 10> C   -0.39815811   -1.02881911    0.28096043
| 11> H   -0.81842477   -1.99173710    0.53356364
| 12> C   -1.19580525    0.10655779    0.19539732
| 13> H   -2.26068964    0.04953865    0.37344280
| 14> C   -0.58712829    1.31741239   -0.12010544
| 15> H   -1.16181223    2.22950003   -0.20046257
| 16> C    0.78854733    1.33970567   -0.33224053
| 17> H    1.28843202    2.26879436   -0.57852690
| 18> N   -0.48395649   -1.47363340    3.40973908
| 19> C   -1.41643458   -0.51300394    3.48359024
| 20> H   -2.41922383   -0.84395874    3.72578310
| 21> C   -1.15443154    0.83806448    3.27421086
| 22> H   -1.95298930    1.56256992    3.35248195
| 23> C    0.14499579    1.22730576    2.96394245
| 24> H    0.38698035    2.26630425    2.78807119
| 25> C    1.12455510    0.24440761    2.88058098
| 26> H    2.14685634    0.49115335    2.63214400
| 27> C    0.76207538   -1.08073015    3.11377398
| 28> H    1.50593614   -1.86628478    3.05732538
| 29> *
| 30>
| 31> $new_job
| 32> ! ri-mp2 aug-cc-pvtz aug-cc-pvtz/c tightscf
| 33> %pal nprocs 16 end
| 34> %maxcore 3800
| 35> %base "TZ_S66by10_25_0.9_dimer"
| 36>
| 37> *xyz 0 1
| 38> N    1.57248145    0.25454916   -0.25648131
| 39> C    0.96935990   -0.90316032    0.04452614
| 40> H    1.61363891   -1.77218121    0.10234520
| 41> C   -0.39815811   -1.02881911    0.28096043
| 42> H   -0.81842477   -1.99173710    0.53356364
| 43> C   -1.19580525    0.10655779    0.19539732
| 44> H   -2.26068964    0.04953865    0.37344280
| 45> C   -0.58712829    1.31741239   -0.12010544
| 46> H   -1.16181223    2.22950003   -0.20046257
| 47> C    0.78854733    1.33970567   -0.33224053
| 48> H    1.28843202    2.26879436   -0.57852690
| 49> N   -0.48395649   -1.47363340    3.40973908
| 50> C   -1.41643458   -0.51300394    3.48359024
| 51> H   -2.41922383   -0.84395874    3.72578310
| 52> C   -1.15443154    0.83806448    3.27421086
| 53> H   -1.95298930    1.56256992    3.35248195
| 54> C    0.14499579    1.22730576    2.96394245
| 55> H    0.38698035    2.26630425    2.78807119
| 56> C    1.12455510    0.24440761    2.88058098
| 57> H    2.14685634    0.49115335    2.63214400
| 58> C    0.76207538   -1.08073015    3.11377398
| 59> H    1.50593614   -1.86628478    3.05732538
| 60> *
| 61>
| 62> $new_job
| 63> ! ri-mp2 aug-cc-pvqz aug-cc-pvqz/c tightscf
| 64> %pal nprocs 16 end
| 65> %maxcore 3800
| 66> %base "QZ_S66by10_25_0.9_dimer"
| 67>
| 68> *xyz 0 1
| 69> N    1.57248145    0.25454916   -0.25648131
| 70> C    0.96935990   -0.90316032    0.04452614
| 71> H    1.61363891   -1.77218121    0.10234520
| 72> C   -0.39815811   -1.02881911    0.28096043
| 73> H   -0.81842477   -1.99173710    0.53356364
| 74> C   -1.19580525    0.10655779    0.19539732
| 75> H   -2.26068964    0.04953865    0.37344280
| 76> C   -0.58712829    1.31741239   -0.12010544
| 77> H   -1.16181223    2.22950003   -0.20046257
| 78> C    0.78854733    1.33970567   -0.33224053
| 79> H    1.28843202    2.26879436   -0.57852690
| 80> N   -0.48395649   -1.47363340    3.40973908
| 81> C   -1.41643458   -0.51300394    3.48359024
| 82> H   -2.41922383   -0.84395874    3.72578310
| 83> C   -1.15443154    0.83806448    3.27421086
| 84> H   -1.95298930    1.56256992    3.35248195
| 85> C    0.14499579    1.22730576    2.96394245
| 86> H    0.38698035    2.26630425    2.78807119
| 87> C    1.12455510    0.24440761    2.88058098
| 88> H    2.14685634    0.49115335    2.63214400
| 89> C    0.76207538   -1.08073015    3.11377398
| 90> H    1.50593614   -1.86628478    3.05732538
| 91> *
| 92>
| 93>
| 94>
| 95>
| 96>                          ****END OF INPUT****
 Total Charge           Charge          ....    0
 Multiplicity           Mult            ....    1
 Number of Electrons    NEL             ....   84
MP2 TOTAL ENERGY:     -495.139947600 Eh
FINAL SINGLE POINT ENERGY      -495.139947599641
MP2 TOTAL ENERGY:     -495.565494654 Eh
FINAL SINGLE POINT ENERGY      -495.565494654115

CARTESIAN COORDINATES (ANGSTROEM)
---------------------------------
  N      1.572481    0.254549   -0.256481
  C      0.969360   -0.903160    0.044526
  H      1.613639   -1.772181    0.102345
  C     -0.398158   -1.028819    0.280960
  H     -0.818425   -1.991737    0.533564
  C     -1.195805    0.106558    0.195397
  H     -2.260690    0.049539    0.373443
  C     -0.587128    1.317412   -0.120105
  H     -1.161812    2.229500   -0.200463
  C      0.788547    1.339706   -0.332241
  H      1.288432    2.268794   -0.578527
  N     -0.483956   -1.473633    3.409739
  C     -1.416435   -0.513004    3.483590
  H     -2.419224   -0.843959    3.725783
  C     -1.154432    0.838064    3.274211
  H     -1.952989    1.562570    3.352482
  C      0.144996    1.227306    2.963942
  H      0.386980    2.266304    2.788071
  C      1.124555    0.244408    2.880581
  H      2.146856    0.491153    2.632144
  C      0.762075   -1.080730    3.113774
  H      1.505936   -1.866285    3.057325

 Multiplicity           Mult            ....    1
 Number of Electrons    NEL             ....   84
 Basis Dimension        Dim             .... 1420

ORBITAL ENERGIES
----------------

  NO   OCC          E(Eh)            E(eV)
   0   2.0000     -15.560939      -423.4347
   1   2.0000     -15.560858      -423.4325
   2   2.0000     -11.271446      -306.7116
   3   2.0000     -11.271370      -306.7096
   4   2.0000     -11.270898      -306.6967
   5   2.0000     -11.270833      -306.6950
   6   2.0000     -11.255392      -306.2748
   7   2.0000     -11.255322      -306.2729
   8   2.0000     -11.237782      -305.7956
   9   2.0000     -11.237675      -305.7927
  10   2.0000     -11.236336      -305.7563
  11   2.0000     -11.236208      -305.7528
  12   2.0000      -1.256160       -34.1818
  13   2.0000      -1.251634       -34.0587
  14   2.0000      -1.089749       -29.6536
  15   2.0000      -1.084199       -29.5026
  16   2.0000      -1.033898       -28.1338
  17   2.0000      -1.028418       -27.9847
  18   2.0000      -0.857330       -23.3291
  19   2.0000      -0.856912       -23.3178
  20   2.0000      -0.853818       -23.2336
  21   2.0000      -0.852655       -23.2019
  22   2.0000      -0.722838       -19.6694
  23   2.0000      -0.717019       -19.5111
  24   2.0000      -0.658394       -17.9158
  25   2.0000      -0.657017       -17.8783
  26   2.0000      -0.653010       -17.7693
  27   2.0000      -0.651102       -17.7174
  28   2.0000      -0.597758       -16.2658
  29   2.0000      -0.594538       -16.1782
  30   2.0000      -0.575350       -15.6561
  31   2.0000      -0.574245       -15.6260
  32   2.0000      -0.566685       -15.4203
  33   2.0000      -0.518301       -14.1037
  34   2.0000      -0.517931       -14.0936
  35   2.0000      -0.514297       -13.9947
  36   2.0000      -0.418786       -11.3957
  37   2.0000      -0.416941       -11.3455
  38   2.0000      -0.394037       -10.7223
  39   2.0000      -0.377474       -10.2716
  40   2.0000      -0.352063        -9.5801
  41   2.0000      -0.326515        -8.8849
  42   0.0000       0.020700         0.5633
  43   0.0000       0.027659         0.7527
  44   0.0000       0.030447         0.8285
  45   0.0000       0.034374         0.9354
  46   0.0000       0.038957         1.0601

MULLIKEN ATOMIC CHARGES
-----------------------
   0 N :   -0.831543
   1 C :   -0.076380
   2 H :    0.410500
   3 C :   -0.140632
   4 H :    0.255700
   5 C :   -0.233209
   6 H :    0.281245
   7 C :   -0.203470
   8 H :    0.284797
   9 C :   -0.192250
  10 H :    0.445792
  11 N :   -0.831568
  12 C :   -0.191654
  13 H :    0.444930
  14 C :   -0.199149
  15 H :    0.285437
  16 C :   -0.237873
  17 H :    0.281335
  18 C :   -0.140962
  19 H :    0.254169
  20 C :   -0.075939
  21 H :    0.410724
Sum of atomic charges:    0.0000000

LOEWDIN ATOMIC CHARGES
----------------------
   0 N :    0.598188
   1 C :    0.042589
   2 H :   -0.338080
   3 C :    0.296325
   4 H :   -0.313957
   5 C :    0.303674
   6 H :   -0.298659
   7 C :    0.312328
   8 H :   -0.317144
   9 C :    0.061099
  10 H :   -0.346989
  11 N :    0.598063
  12 C :    0.060775
  13 H :   -0.346743
  14 C :    0.311954
  15 H :   -0.316930
  16 C :    0.304115
  17 H :   -0.298534
  18 C :    0.296986
  19 H :   -0.313562
  20 C :    0.042539
  21 H :   -0.338038

  Mayer bond orders larger than 0.100000
B(  0-N ,  1-C ) :   1.0275 B(  0-N ,  2-H ) :  -0.1549 B(  0-N ,  9-C ) :   1.1420
B(  0-N , 10-H ) :  -0.1430 B(  1-C ,  2-H ) :   0.9839 B(  1-C ,  3-C ) :   1.0865
B(  2-H ,  3-C ) :  -0.1374 B(  3-C ,  4-H ) :   1.0642 B(  3-C ,  5-C ) :   1.1169
B(  3-C ,  9-C ) :   0.1237 B(  5-C ,  6-H ) :   1.0058 B(  5-C ,  7-C ) :   1.1565
B(  7-C ,  8-H ) :   1.0506 B(  7-C ,  9-C ) :   1.2282 B(  9-C , 10-H ) :   0.9219
B( 11-N , 12-C ) :   1.1402 B( 11-N , 13-H ) :  -0.1431 B( 11-N , 20-C ) :   1.0262
B( 11-N , 21-H ) :  -0.1552 B( 12-C , 13-H ) :   0.9232 B( 12-C , 14-C ) :   1.2271
B( 12-C , 18-C ) :   0.1232 B( 14-C , 15-H ) :   1.0505 B( 14-C , 16-C ) :   1.1551
B( 16-C , 17-H ) :   1.0055 B( 16-C , 18-C ) :   1.1176 B( 18-C , 19-H ) :   1.0663
B( 18-C , 20-C ) :   1.0884 B( 18-C , 21-H ) :  -0.1373 B( 20-C , 21-H ) :   0.9838

MP2 TOTAL ENERGY:     -495.701384947 Eh
FINAL SINGLE POINT ENERGY      -495.701384946653

DIPOLE MOMENT
-------------
                                X             Y             Z
Electronic contribution:      1.03526      -1.23537      -0.00101
Nuclear contribution   :     -1.68087       2.00584       0.00438
                        -----------------------------------------
Total Dipole Moment    :     -0.64561       0.77047       0.00336
                        -----------------------------------------
Magnitude (a.u.)       :      1.00521
Magnitude (Debye)      :      2.55505

Rotational constants in cm-1:     0.055109     0.028513     0.027055
Rotational constants in MHz :  1652.130498   854.783873   811.092269

                             ****ORCA TERMINATED NORMALLY****
TOTAL RUN TIME: 0 days 1 hours 25 minutes 56 seconds 254 msec
