                         Program Version 5.0.4 -  RELEASE  -
|  1> ! ri-mp2 aug-cc-pvdz aug-cc-pvdz/c tightscf
|  2> %pal nprocs 16 end
|  3> %maxcore 3800
|  4> %base "DZ_S66by10_29_0.7_dimer"
|  5>
|  6> *xyz 0 1
|  7> N    1.21075533    0.02867578    0.32971111
|  8> C    0.61193497   -1.15844901    0.15345176
|  9> H    1.25147791   -2.02952340    0.21929295
| 10> C   -0.75131399   -1.30864956   -0.08883407
| 11> H   -1.17041577   -2.29686932   -0.21338320
| 12> C   -1.54786767   -0.16994027   -0.15646691
| 13> H   -2.61101275   -0.24595469   -0.33875574
| 14> C   -0.94362237    1.07063612    0.01982310
| 15> H   -1.51881431    1.98450028   -0.01164403
| 16> C    0.42771857    1.11610863    0.25734879
| 17> H    0.92469451    2.06805173    0.39754798
| 18> N   -0.80866872   -0.33864253    2.22699447
| 19> H   -1.70355774   -0.77050602    2.04239098
| 20> C   -0.80841383    1.05916726    2.32000547
| 21> O   -1.84829691    1.68736707    2.20515534
| 22> C    0.51108092    1.61824861    2.54756854
| 23> H    0.61239728    2.68547078    2.64343672
| 24> C    1.58095451    0.79955631    2.61908859
| 25> H    2.58483355    1.16822101    2.76751512
| 26> N    1.46289337   -0.55773696    2.50653393
| 27> H    2.27632936   -1.14992431    2.49836629
| 28> C    0.26244643   -1.20496938    2.28015223
| 29> O    0.17030918   -2.41038746    2.14657295
| 30> *
| 31>
| 32> $new_job
| 33> ! ri-mp2 aug-cc-pvtz aug-cc-pvtz/c tightscf
| 34> %pal nprocs 16 end
| 35> %maxcore 3800
| 36> %base "TZ_S66by10_29_0.7_dimer"
| 37>
| 38> *xyz 0 1
| 39> N    1.21075533    0.02867578    0.32971111
| 40> C    0.61193497   -1.15844901    0.15345176
| 41> H    1.25147791   -2.02952340    0.21929295
| 42> C   -0.75131399   -1.30864956   -0.08883407
| 43> H   -1.17041577   -2.29686932   -0.21338320
| 44> C   -1.54786767   -0.16994027   -0.15646691
| 45> H   -2.61101275   -0.24595469   -0.33875574
| 46> C   -0.94362237    1.07063612    0.01982310
| 47> H   -1.51881431    1.98450028   -0.01164403
| 48> C    0.42771857    1.11610863    0.25734879
| 49> H    0.92469451    2.06805173    0.39754798
| 50> N   -0.80866872   -0.33864253    2.22699447
| 51> H   -1.70355774   -0.77050602    2.04239098
| 52> C   -0.80841383    1.05916726    2.32000547
| 53> O   -1.84829691    1.68736707    2.20515534
| 54> C    0.51108092    1.61824861    2.54756854
| 55> H    0.61239728    2.68547078    2.64343672
| 56> C    1.58095451    0.79955631    2.61908859
| 57> H    2.58483355    1.16822101    2.76751512
| 58> N    1.46289337   -0.55773696    2.50653393
| 59> H    2.27632936   -1.14992431    2.49836629
| 60> C    0.26244643   -1.20496938    2.28015223
| 61> O    0.17030918   -2.41038746    2.14657295
| 62> *
| 63>
| 64> $new_job
| 65> ! ri-mp2 aug-cc-pvqz aug-cc-pvqz/c tightscf
| 66> %pal nprocs 16 end
| 67> %maxcore 3800
| 68> %base "QZ_S66by10_29_0.7_dimer"
| 69>
| 70> *xyz 0 1
| 71> N    1.21075533    0.02867578    0.32971111
| 72> C    0.61193497   -1.15844901    0.15345176
| 73> H    1.25147791   -2.02952340    0.21929295
| 74> C   -0.75131399   -1.30864956   -0.08883407
| 75> H   -1.17041577   -2.29686932   -0.21338320
| 76> C   -1.54786767   -0.16994027   -0.15646691
| 77> H   -2.61101275   -0.24595469   -0.33875574
| 78> C   -0.94362237    1.07063612    0.01982310
| 79> H   -1.51881431    1.98450028   -0.01164403
| 80> C    0.42771857    1.11610863    0.25734879
| 81> H    0.92469451    2.06805173    0.39754798
| 82> N   -0.80866872   -0.33864253    2.22699447
| 83> H   -1.70355774   -0.77050602    2.04239098
| 84> C   -0.80841383    1.05916726    2.32000547
| 85> O   -1.84829691    1.68736707    2.20515534
| 86> C    0.51108092    1.61824861    2.54756854
| 87> H    0.61239728    2.68547078    2.64343672
| 88> C    1.58095451    0.79955631    2.61908859
| 89> H    2.58483355    1.16822101    2.76751512
| 90> N    1.46289337   -0.55773696    2.50653393
| 91> H    2.27632936   -1.14992431    2.49836629
| 92> C    0.26244643   -1.20496938    2.28015223
| 93> O    0.17030918   -2.41038746    2.14657295
| 94> *
| 95>
| 96>
| 97>
| 98>
| 99>                          ****END OF INPUT****
 Total Charge           Charge          ....    0
 Multiplicity           Mult            ....    1
 Number of Electrons    NEL             ....  100
MP2 TOTAL ENERGY:     -661.247269338 Eh
FINAL SINGLE POINT ENERGY      -661.247269337594
MP2 TOTAL ENERGY:     -661.807779423 Eh
FINAL SINGLE POINT ENERGY      -661.807779422913

CARTESIAN COORDINATES (ANGSTROEM)
---------------------------------
  N      1.210755    0.028676    0.329711
  C      0.611935   -1.158449    0.153452
  H      1.251478   -2.029523    0.219293
  C     -0.751314   -1.308650   -0.088834
  H     -1.170416   -2.296869   -0.213383
  C     -1.547868   -0.169940   -0.156467
  H     -2.611013   -0.245955   -0.338756
  C     -0.943622    1.070636    0.019823
  H     -1.518814    1.984500   -0.011644
  C      0.427719    1.116109    0.257349
  H      0.924695    2.068052    0.397548
  N     -0.808669   -0.338643    2.226994
  H     -1.703558   -0.770506    2.042391
  C     -0.808414    1.059167    2.320005
  O     -1.848297    1.687367    2.205155
  C      0.511081    1.618249    2.547569
  H      0.612397    2.685471    2.643437
  C      1.580955    0.799556    2.619089
  H      2.584834    1.168221    2.767515
  N      1.462893   -0.557737    2.506534
  H      2.276329   -1.149924    2.498366
  C      0.262446   -1.204969    2.280152
  O      0.170309   -2.410387    2.146573

 Multiplicity           Mult            ....    1
 Number of Electrons    NEL             ....  100
 Basis Dimension        Dim             .... 1534

ORBITAL ENERGIES
----------------

  NO   OCC          E(Eh)            E(eV)
   0   2.0000     -20.537589      -558.8562
   1   2.0000     -20.530052      -558.6511
   2   2.0000     -15.624887      -425.1748
   3   2.0000     -15.610887      -424.7938
   4   2.0000     -15.566606      -423.5889
   5   2.0000     -11.413712      -310.5829
   6   2.0000     -11.378333      -309.6202
   7   2.0000     -11.323511      -308.1284
   8   2.0000     -11.274997      -306.8083
   9   2.0000     -11.272022      -306.7273
  10   2.0000     -11.246573      -306.0348
  11   2.0000     -11.245552      -306.0070
  12   2.0000     -11.230589      -305.5999
  13   2.0000     -11.229843      -305.5796
  14   2.0000      -1.440966       -39.2107
  15   2.0000      -1.399541       -38.0834
  16   2.0000      -1.316341       -35.8195
  17   2.0000      -1.261917       -34.3385
  18   2.0000      -1.243838       -33.8466
  19   2.0000      -1.095142       -29.8003
  20   2.0000      -1.089624       -29.6502
  21   2.0000      -1.035886       -28.1879
  22   2.0000      -0.931933       -25.3592
  23   2.0000      -0.899482       -24.4761
  24   2.0000      -0.862803       -23.4781
  25   2.0000      -0.860883       -23.4258
  26   2.0000      -0.803848       -21.8738
  27   2.0000      -0.760796       -20.7023
  28   2.0000      -0.732377       -19.9290
  29   2.0000      -0.705333       -19.1931
  30   2.0000      -0.701991       -19.1021
  31   2.0000      -0.676220       -18.4009
  32   2.0000      -0.662255       -18.0209
  33   2.0000      -0.655541       -17.8382
  34   2.0000      -0.649679       -17.6787
  35   2.0000      -0.612606       -16.6699
  36   2.0000      -0.606353       -16.4997
  37   2.0000      -0.598558       -16.2876
  38   2.0000      -0.586981       -15.9726
  39   2.0000      -0.576245       -15.6804
  40   2.0000      -0.534996       -14.5580
  41   2.0000      -0.519111       -14.1257
  42   2.0000      -0.491824       -13.3832
  43   2.0000      -0.477482       -12.9929
  44   2.0000      -0.447094       -12.1660
  45   2.0000      -0.439439       -11.9578
  46   2.0000      -0.423743       -11.5306
  47   2.0000      -0.373069       -10.1517
  48   2.0000      -0.359681        -9.7874
  49   2.0000      -0.308491        -8.3945
  50   0.0000       0.016998         0.4625
  51   0.0000       0.028766         0.7828
  52   0.0000       0.029380         0.7995
  53   0.0000       0.035198         0.9578
  54   0.0000       0.040311         1.0969

MULLIKEN ATOMIC CHARGES
-----------------------
   0 N :   -0.800403
   1 C :   -0.065150
   2 H :    0.439835
   3 C :   -0.496276
   4 H :    0.225665
   5 C :   -0.184766
   6 H :    0.260469
   7 C :   -0.445463
   8 H :    0.301854
   9 C :    0.022148
  10 H :    0.434455
  11 N :   -0.545545
  12 H :   -0.025363
  13 C :    1.589467
  14 O :   -1.126188
  15 C :   -0.538784
  16 H :    0.276335
  17 C :   -0.140127
  18 H :    0.332839
  19 N :   -0.698371
  20 H :    0.021691
  21 C :    2.263919
  22 O :   -1.102243
Sum of atomic charges:    0.0000000

LOEWDIN ATOMIC CHARGES
----------------------
   0 N :    0.615539
   1 C :   -0.056149
   2 H :   -0.354143
   3 C :    0.298098
   4 H :   -0.287072
   5 C :    0.327899
   6 H :   -0.271472
   7 C :    0.235314
   8 H :   -0.334481
   9 C :    0.009261
  10 H :   -0.340030
  11 N :    0.789342
  12 H :   -0.530030
  13 C :   -0.909874
  14 O :    0.788373
  15 C :    0.289332
  16 H :   -0.301148
  17 C :    0.207013
  18 H :   -0.258873
  19 N :    0.802424
  20 H :   -0.450420
  21 C :   -1.082830
  22 O :    0.813927

  Mayer bond orders larger than 0.100000
B(  0-N ,  1-C ) :   1.1647 B(  0-N ,  2-H ) :  -0.1669 B(  0-N ,  9-C ) :   0.9511
B(  0-N , 10-H ) :  -0.1842 B(  1-C ,  2-H ) :   0.9346 B(  1-C ,  3-C ) :   1.2832
B(  1-C , 21-C ) :  -0.1057 B(  1-C , 22-O ) :   0.1239 B(  3-C ,  4-H ) :   1.1087
B(  3-C ,  5-C ) :   1.2742 B(  5-C ,  6-H ) :   1.0727 B(  5-C ,  7-C ) :   1.2035
B(  5-C ,  8-H ) :  -0.1004 B(  6-H ,  7-C ) :  -0.1015 B(  7-C ,  8-H ) :   1.0712
B(  7-C ,  9-C ) :   1.2632 B(  7-C , 10-H ) :  -0.1415 B(  7-C , 14-O ) :   0.1534
B(  9-C , 10-H ) :   0.9967 B( 11-N , 12-H ) :   1.2410 B( 11-N , 13-C ) :   1.0500
B( 11-N , 14-O ) :   0.2870 B( 11-N , 21-C ) :   1.1144 B( 11-N , 22-O ) :   0.3566
B( 13-C , 14-O ) :   0.3614 B( 13-C , 15-C ) :   1.1518 B( 14-O , 15-C ) :   0.2742
B( 15-C , 16-H ) :   0.9883 B( 15-C , 17-C ) :   1.5676 B( 16-H , 17-C ) :  -0.1079
B( 17-C , 18-H ) :   1.0221 B( 17-C , 19-N ) :   1.0289 B( 19-N , 20-H ) :   1.2208
B( 19-N , 21-C ) :   0.9900 B( 19-N , 22-O ) :   0.2864 B( 21-C , 22-O ) :   0.2234

MP2 TOTAL ENERGY:     -661.989353960 Eh
FINAL SINGLE POINT ENERGY      -661.989353959689

DIPOLE MOMENT
-------------
                                X             Y             Z
Electronic contribution:      0.14768      -1.05746       2.62470
Nuclear contribution   :      0.94511       1.32909      -2.51801
                        -----------------------------------------
Total Dipole Moment    :      1.09279       0.27163       0.10669
                        -----------------------------------------
Magnitude (a.u.)       :      1.13109
Magnitude (Debye)      :      2.87499

Rotational constants in cm-1:     0.037013     0.033713     0.027037
Rotational constants in MHz :  1109.635681  1010.703715   810.547054

                             ****ORCA TERMINATED NORMALLY****
TOTAL RUN TIME: 0 days 3 hours 9 minutes 59 seconds 522 msec
