                         Program Version 5.0.4 -  RELEASE  -
|  1> ! ri-mp2 aug-cc-pvdz aug-cc-pvdz/c tightscf
|  2> %pal nprocs 16 end
|  3> %maxcore 3800
|  4> %base "DZ_S66by10_56_0.7_dimer"
|  5>
|  6> *xyz 0 1
|  7> C    0.69231523    1.08829204    0.32484124
|  8> H    1.28194880    1.99194678    0.25251578
|  9> C    1.31818722   -0.15687008    0.28689607
| 10> H    2.39314337   -0.21947636    0.18840681
| 11> C    0.55801841   -1.32195045    0.38139986
| 12> H    1.04391922   -2.28757380    0.35761542
| 13> C   -0.82755236   -1.24142187    0.51168501
| 14> H   -1.41670095   -2.14525152    0.58533927
| 15> C   -1.45341138    0.00367145    0.54838107
| 16> H   -2.52823255    0.06570272    0.64984254
| 17> C   -0.69346094    1.16840108    0.45622907
| 18> H   -1.17873534    2.13440989    0.48572685
| 19> N    0.35726318   -0.14664880    3.02169201
| 20> H    0.49188154   -0.10260830    2.01862065
| 21> H    0.49875575    0.79849794    3.35416428
| 22> C   -1.01883629   -0.55303221    3.29912780
| 23> H   -1.17671286   -0.58157921    4.37568333
| 24> H   -1.79013848    0.08734858    2.85900880
| 25> H   -1.17352827   -1.56260001    2.92350610
| 26> *
| 27>
| 28> $new_job
| 29> ! ri-mp2 aug-cc-pvtz aug-cc-pvtz/c tightscf
| 30> %pal nprocs 16 end
| 31> %maxcore 3800
| 32> %base "TZ_S66by10_56_0.7_dimer"
| 33>
| 34> *xyz 0 1
| 35> C    0.69231523    1.08829204    0.32484124
| 36> H    1.28194880    1.99194678    0.25251578
| 37> C    1.31818722   -0.15687008    0.28689607
| 38> H    2.39314337   -0.21947636    0.18840681
| 39> C    0.55801841   -1.32195045    0.38139986
| 40> H    1.04391922   -2.28757380    0.35761542
| 41> C   -0.82755236   -1.24142187    0.51168501
| 42> H   -1.41670095   -2.14525152    0.58533927
| 43> C   -1.45341138    0.00367145    0.54838107
| 44> H   -2.52823255    0.06570272    0.64984254
| 45> C   -0.69346094    1.16840108    0.45622907
| 46> H   -1.17873534    2.13440989    0.48572685
| 47> N    0.35726318   -0.14664880    3.02169201
| 48> H    0.49188154   -0.10260830    2.01862065
| 49> H    0.49875575    0.79849794    3.35416428
| 50> C   -1.01883629   -0.55303221    3.29912780
| 51> H   -1.17671286   -0.58157921    4.37568333
| 52> H   -1.79013848    0.08734858    2.85900880
| 53> H   -1.17352827   -1.56260001    2.92350610
| 54> *
| 55>
| 56> $new_job
| 57> ! ri-mp2 aug-cc-pvqz aug-cc-pvqz/c tightscf
| 58> %pal nprocs 16 end
| 59> %maxcore 3800
| 60> %base "QZ_S66by10_56_0.7_dimer"
| 61>
| 62> *xyz 0 1
| 63> C    0.69231523    1.08829204    0.32484124
| 64> H    1.28194880    1.99194678    0.25251578
| 65> C    1.31818722   -0.15687008    0.28689607
| 66> H    2.39314337   -0.21947636    0.18840681
| 67> C    0.55801841   -1.32195045    0.38139986
| 68> H    1.04391922   -2.28757380    0.35761542
| 69> C   -0.82755236   -1.24142187    0.51168501
| 70> H   -1.41670095   -2.14525152    0.58533927
| 71> C   -1.45341138    0.00367145    0.54838107
| 72> H   -2.52823255    0.06570272    0.64984254
| 73> C   -0.69346094    1.16840108    0.45622907
| 74> H   -1.17873534    2.13440989    0.48572685
| 75> N    0.35726318   -0.14664880    3.02169201
| 76> H    0.49188154   -0.10260830    2.01862065
| 77> H    0.49875575    0.79849794    3.35416428
| 78> C   -1.01883629   -0.55303221    3.29912780
| 79> H   -1.17671286   -0.58157921    4.37568333
| 80> H   -1.79013848    0.08734858    2.85900880
| 81> H   -1.17352827   -1.56260001    2.92350610
| 82> *
| 83>
| 84>
| 85>
| 86>
| 87>                          ****END OF INPUT****
 Total Charge           Charge          ....    0
 Multiplicity           Mult            ....    1
 Number of Electrons    NEL             ....   60
MP2 TOTAL ENERGY:     -327.100207486 Eh
FINAL SINGLE POINT ENERGY      -327.100207485778
MP2 TOTAL ENERGY:     -327.398473817 Eh
FINAL SINGLE POINT ENERGY      -327.398473816946

CARTESIAN COORDINATES (ANGSTROEM)
---------------------------------
  C      0.692315    1.088292    0.324841
  H      1.281949    1.991947    0.252516
  C      1.318187   -0.156870    0.286896
  H      2.393143   -0.219476    0.188407
  C      0.558018   -1.321950    0.381400
  H      1.043919   -2.287574    0.357615
  C     -0.827552   -1.241422    0.511685
  H     -1.416701   -2.145252    0.585339
  C     -1.453411    0.003671    0.548381
  H     -2.528233    0.065703    0.649843
  C     -0.693461    1.168401    0.456229
  H     -1.178735    2.134410    0.485727
  N      0.357263   -0.146649    3.021692
  H      0.491882   -0.102608    2.018621
  H      0.498756    0.798498    3.354164
  C     -1.018836   -0.553032    3.299128
  H     -1.176713   -0.581579    4.375683
  H     -1.790138    0.087349    2.859009
  H     -1.173528   -1.562600    2.923506

 Multiplicity           Mult            ....    1
 Number of Electrons    NEL             ....   60
 Basis Dimension        Dim             .... 1146

ORBITAL ENERGIES
----------------

  NO   OCC          E(Eh)            E(eV)
   0   2.0000     -15.506002      -421.9398
   1   2.0000     -11.241918      -305.9081
   2   2.0000     -11.241296      -305.8912
   3   2.0000     -11.240590      -305.8720
   4   2.0000     -11.240052      -305.8574
   5   2.0000     -11.239041      -305.8299
   6   2.0000     -11.237976      -305.8009
   7   2.0000     -11.220758      -305.3323
   8   2.0000      -1.175892       -31.9976
   9   2.0000      -1.138277       -30.9741
  10   2.0000      -1.026381       -27.9293
  11   2.0000      -1.024076       -27.8665
  12   2.0000      -0.880204       -23.9516
  13   2.0000      -0.832550       -22.6548
  14   2.0000      -0.831804       -22.6345
  15   2.0000      -0.720590       -19.6082
  16   2.0000      -0.657011       -17.8782
  17   2.0000      -0.651844       -17.7376
  18   2.0000      -0.626627       -17.0514
  19   2.0000      -0.600648       -16.3445
  20   2.0000      -0.596789       -16.2395
  21   2.0000      -0.590867       -16.0783
  22   2.0000      -0.540399       -14.7050
  23   2.0000      -0.508600       -13.8397
  24   2.0000      -0.502320       -13.6688
  25   2.0000      -0.502111       -13.6631
  26   2.0000      -0.479562       -13.0495
  27   2.0000      -0.375334       -10.2134
  28   2.0000      -0.343227        -9.3397
  29   2.0000      -0.338532        -9.2119
  30   0.0000       0.023307         0.6342
  31   0.0000       0.028621         0.7788
  32   0.0000       0.029924         0.8143
  33   0.0000       0.038333         1.0431
  34   0.0000       0.041255         1.1226

MULLIKEN ATOMIC CHARGES
-----------------------
   0 C :   -0.399142
   1 H :    0.247028
   2 C :   -0.276608
   3 H :    0.283726
   4 C :   -0.497749
   5 H :    0.259565
   6 C :   -0.223751
   7 H :    0.303797
   8 C :   -0.135193
   9 H :    0.292456
  10 C :   -0.516739
  11 H :    0.255442
  12 N :   -0.783530
  13 H :    0.968078
  14 H :    0.182368
  15 C :   -0.845184
  16 H :    0.352828
  17 H :    0.259100
  18 H :    0.273507
Sum of atomic charges:    0.0000000

LOEWDIN ATOMIC CHARGES
----------------------
   0 C :    0.355570
   1 H :   -0.298343
   2 C :    0.347485
   3 H :   -0.289735
   4 C :    0.359005
   5 H :   -0.288820
   6 C :    0.325457
   7 H :   -0.292874
   8 C :    0.310372
   9 H :   -0.295078
  10 C :    0.363587
  11 H :   -0.300848
  12 N :    1.298542
  13 H :   -0.918521
  14 H :   -0.476375
  15 C :    0.750670
  16 H :   -0.288260
  17 H :   -0.331630
  18 H :   -0.330204

  Mayer bond orders larger than 0.100000
B(  0-C ,  1-H ) :   1.1144 B(  0-C ,  2-C ) :   1.2085 B(  0-C ,  4-C ) :   0.1143
B(  0-C ,  6-C ) :   0.1052 B(  0-C , 10-C ) :   1.3203 B(  0-C , 13-H ) :  -0.2071
B(  2-C ,  3-H ) :   1.0724 B(  2-C ,  4-C ) :   1.2890 B(  2-C ,  8-C ) :   0.1153
B(  2-C , 13-H ) :  -0.1721 B(  4-C ,  5-H ) :   1.1113 B(  4-C ,  6-C ) :   1.2718
B(  4-C , 10-C ) :   0.1932 B(  4-C , 13-H ) :  -0.2086 B(  6-C ,  7-H ) :   1.0335
B(  6-C ,  8-C ) :   1.1179 B(  6-C , 13-H ) :  -0.1233 B(  8-C ,  9-H ) :   1.0520
B(  8-C , 10-C ) :   1.2288 B( 10-C , 11-H ) :   1.1058 B( 10-C , 13-H ) :  -0.2004
B( 12-N , 13-H ) :   0.5630 B( 12-N , 14-H ) :   1.0015 B( 12-N , 15-C ) :   0.9677
B( 15-C , 16-H ) :   0.8970 B( 15-C , 17-H ) :   0.9326 B( 15-C , 18-H ) :   0.9523

MP2 TOTAL ENERGY:     -327.490925156 Eh
FINAL SINGLE POINT ENERGY      -327.490925156413

DIPOLE MOMENT
-------------
                                X             Y             Z
Electronic contribution:      1.50389       0.52115      -5.02079
Nuclear contribution   :     -1.84862      -0.19084       4.62870
                        -----------------------------------------
Total Dipole Moment    :     -0.34473       0.33031      -0.39209
                        -----------------------------------------
Magnitude (a.u.)       :      0.61780
Magnitude (Debye)      :      1.57033

Rotational constants in cm-1:     0.090652     0.061494     0.060253
Rotational constants in MHz :  2717.677130  1843.545573  1806.341615

                             ****ORCA TERMINATED NORMALLY****
TOTAL RUN TIME: 0 days 0 hours 43 minutes 5 seconds 652 msec
