                         Program Version 5.0.4 -  RELEASE  -
|  1> ! ri-mp2 aug-cc-pvdz aug-cc-pvdz/c tightscf
|  2> %pal nprocs 16 end
|  3> %maxcore 3800
|  4> %base "DZ_S66by10_55_1.25_dimer"
|  5>
|  6> *xyz 0 1
|  7> C    0.75974918    1.03127506    0.37377239
|  8> H    1.43501626    1.87566427    0.37470462
|  9> C    1.26661779   -0.26736234    0.42127308
| 10> H    2.33491597   -0.42918019    0.45943234
| 11> C    0.39532054   -1.35599116    0.42490511
| 12> H    0.78866193   -2.36249259    0.46303549
| 13> C   -0.98220564   -1.14665441    0.38127024
| 14> H   -1.65765632   -1.99114019    0.38512100
| 15> C   -1.48934612    0.15114979    0.33757234
| 16> H   -2.55794704    0.31375049    0.30771900
| 17> C   -0.61877516    1.24033121    0.33388373
| 18> H   -1.01176161    2.24710690    0.30436922
| 19> O   -0.00749614    0.27577627    4.34584227
| 20> H    0.07860408    0.32564936    3.38864872
| 21> C   -0.90364674   -0.78183781    4.62889731
| 22> H   -0.99936743   -0.83857239    5.70983344
| 23> H   -1.89579633   -0.61014007    4.20510710
| 24> H   -0.53718642   -1.74487888    4.26598579
| 25> *
| 26>
| 27> $new_job
| 28> ! ri-mp2 aug-cc-pvtz aug-cc-pvtz/c tightscf
| 29> %pal nprocs 16 end
| 30> %maxcore 3800
| 31> %base "TZ_S66by10_55_1.25_dimer"
| 32>
| 33> *xyz 0 1
| 34> C    0.75974918    1.03127506    0.37377239
| 35> H    1.43501626    1.87566427    0.37470462
| 36> C    1.26661779   -0.26736234    0.42127308
| 37> H    2.33491597   -0.42918019    0.45943234
| 38> C    0.39532054   -1.35599116    0.42490511
| 39> H    0.78866193   -2.36249259    0.46303549
| 40> C   -0.98220564   -1.14665441    0.38127024
| 41> H   -1.65765632   -1.99114019    0.38512100
| 42> C   -1.48934612    0.15114979    0.33757234
| 43> H   -2.55794704    0.31375049    0.30771900
| 44> C   -0.61877516    1.24033121    0.33388373
| 45> H   -1.01176161    2.24710690    0.30436922
| 46> O   -0.00749614    0.27577627    4.34584227
| 47> H    0.07860408    0.32564936    3.38864872
| 48> C   -0.90364674   -0.78183781    4.62889731
| 49> H   -0.99936743   -0.83857239    5.70983344
| 50> H   -1.89579633   -0.61014007    4.20510710
| 51> H   -0.53718642   -1.74487888    4.26598579
| 52> *
| 53>
| 54> $new_job
| 55> ! ri-mp2 aug-cc-pvqz aug-cc-pvqz/c tightscf
| 56> %pal nprocs 16 end
| 57> %maxcore 3800
| 58> %base "QZ_S66by10_55_1.25_dimer"
| 59>
| 60> *xyz 0 1
| 61> C    0.75974918    1.03127506    0.37377239
| 62> H    1.43501626    1.87566427    0.37470462
| 63> C    1.26661779   -0.26736234    0.42127308
| 64> H    2.33491597   -0.42918019    0.45943234
| 65> C    0.39532054   -1.35599116    0.42490511
| 66> H    0.78866193   -2.36249259    0.46303549
| 67> C   -0.98220564   -1.14665441    0.38127024
| 68> H   -1.65765632   -1.99114019    0.38512100
| 69> C   -1.48934612    0.15114979    0.33757234
| 70> H   -2.55794704    0.31375049    0.30771900
| 71> C   -0.61877516    1.24033121    0.33388373
| 72> H   -1.01176161    2.24710690    0.30436922
| 73> O   -0.00749614    0.27577627    4.34584227
| 74> H    0.07860408    0.32564936    3.38864872
| 75> C   -0.90364674   -0.78183781    4.62889731
| 76> H   -0.99936743   -0.83857239    5.70983344
| 77> H   -1.89579633   -0.61014007    4.20510710
| 78> H   -0.53718642   -1.74487888    4.26598579
| 79> *
| 80>
| 81>
| 82>
| 83>
| 84>                          ****END OF INPUT****
 Total Charge           Charge          ....    0
 Multiplicity           Mult            ....    1
 Number of Electrons    NEL             ....   60
MP2 TOTAL ENERGY:     -346.966208545 Eh
FINAL SINGLE POINT ENERGY      -346.966208544534
MP2 TOTAL ENERGY:     -347.279100888 Eh
FINAL SINGLE POINT ENERGY      -347.279100888256

CARTESIAN COORDINATES (ANGSTROEM)
---------------------------------
  C      0.759749    1.031275    0.373772
  H      1.435016    1.875664    0.374705
  C      1.266618   -0.267362    0.421273
  H      2.334916   -0.429180    0.459432
  C      0.395321   -1.355991    0.424905
  H      0.788662   -2.362493    0.463035
  C     -0.982206   -1.146654    0.381270
  H     -1.657656   -1.991140    0.385121
  C     -1.489346    0.151150    0.337572
  H     -2.557947    0.313750    0.307719
  C     -0.618775    1.240331    0.333884
  H     -1.011762    2.247107    0.304369
  O     -0.007496    0.275776    4.345842
  H      0.078604    0.325649    3.388649
  C     -0.903647   -0.781838    4.628897
  H     -0.999367   -0.838572    5.709833
  H     -1.895796   -0.610140    4.205107
  H     -0.537186   -1.744879    4.265986

 Multiplicity           Mult            ....    1
 Number of Electrons    NEL             ....   60
 Basis Dimension        Dim             .... 1100

ORBITAL ENERGIES
----------------

  NO   OCC          E(Eh)            E(eV)
   0   2.0000     -20.545167      -559.0624
   1   2.0000     -11.260171      -306.4048
   2   2.0000     -11.243861      -305.9610
   3   2.0000     -11.243279      -305.9452
   4   2.0000     -11.243269      -305.9449
   5   2.0000     -11.242041      -305.9115
   6   2.0000     -11.242027      -305.9111
   7   2.0000     -11.241416      -305.8945
   8   2.0000      -1.347464       -36.6664
   9   2.0000      -1.158904       -31.5354
  10   2.0000      -1.023161       -27.8416
  11   2.0000      -1.023111       -27.8403
  12   2.0000      -0.915490       -24.9117
  13   2.0000      -0.832362       -22.6497
  14   2.0000      -0.832339       -22.6491
  15   2.0000      -0.717988       -19.5374
  16   2.0000      -0.681731       -18.5508
  17   2.0000      -0.652239       -17.7483
  18   2.0000      -0.627505       -17.0753
  19   2.0000      -0.610767       -16.6198
  20   2.0000      -0.596430       -16.2297
  21   2.0000      -0.596396       -16.2288
  22   2.0000      -0.584299       -15.8996
  23   2.0000      -0.512353       -13.9418
  24   2.0000      -0.503201       -13.6928
  25   2.0000      -0.503138       -13.6911
  26   2.0000      -0.494731       -13.4623
  27   2.0000      -0.440601       -11.9894
  28   2.0000      -0.346294        -9.4231
  29   2.0000      -0.346129        -9.4186
  30   0.0000       0.023729         0.6457
  31   0.0000       0.028829         0.7845
  32   0.0000       0.029105         0.7920
  33   0.0000       0.037698         1.0258
  34   0.0000       0.041043         1.1168

MULLIKEN ATOMIC CHARGES
-----------------------
   0 C :   -0.334437
   1 H :    0.310097
   2 C :   -0.308317
   3 H :    0.350194
   4 C :   -0.358736
   5 H :    0.310093
   6 C :   -0.271440
   7 H :    0.298179
   8 C :   -0.360343
   9 H :    0.309903
  10 C :   -0.307967
  11 H :    0.351266
  12 O :   -0.744867
  13 H :    0.371568
  14 C :   -0.625230
  15 H :    0.480136
  16 H :    0.265351
  17 H :    0.264549
Sum of atomic charges:    0.0000000

LOEWDIN ATOMIC CHARGES
----------------------
   0 C :    0.327480
   1 H :   -0.323511
   2 C :    0.327528
   3 H :   -0.323678
   4 C :    0.325389
   5 H :   -0.324541
   6 C :    0.322667
   7 H :   -0.324559
   8 C :    0.325373
   9 H :   -0.324576
  10 C :    0.327639
  11 H :   -0.323718
  12 O :    1.240123
  13 H :   -0.839259
  14 C :    0.565633
  15 H :   -0.341389
  16 H :   -0.318276
  17 H :   -0.318324

  Mayer bond orders larger than 0.100000
B(  0-C ,  1-H ) :   1.0585 B(  0-C ,  2-C ) :   1.2174 B(  0-C ,  6-C ) :   0.1422
B(  0-C , 10-C ) :   1.2196 B(  2-C ,  3-H ) :   1.0027 B(  2-C ,  4-C ) :   1.2240
B(  2-C ,  8-C ) :   0.1405 B(  4-C ,  5-H ) :   1.0369 B(  4-C ,  6-C ) :   1.2130
B(  4-C , 10-C ) :   0.1409 B(  6-C ,  7-H ) :   1.0392 B(  6-C ,  8-C ) :   1.2131
B(  8-C ,  9-H ) :   1.0366 B(  8-C , 10-C ) :   1.2223 B( 10-C , 11-H ) :   1.0007
B( 12-O , 13-H ) :   0.8846 B( 12-O , 14-C ) :   0.8400 B( 14-C , 15-H ) :   0.7541
B( 14-C , 16-H ) :   0.9198 B( 14-C , 17-H ) :   0.9198

MP2 TOTAL ENERGY:     -347.377913723 Eh
FINAL SINGLE POINT ENERGY      -347.377913723498

DIPOLE MOMENT
-------------
                                X             Y             Z
Electronic contribution:      1.50718       1.56207      -4.60815
Nuclear contribution   :     -1.80693      -1.95460       3.99007
                        -----------------------------------------
Total Dipole Moment    :     -0.29975      -0.39254      -0.61808
                        -----------------------------------------
Magnitude (a.u.)       :      0.79117
Magnitude (Debye)      :      2.01100

Rotational constants in cm-1:     0.086779     0.035336     0.034335
Rotational constants in MHz :  2601.583936  1059.350971  1029.351956

                             ****ORCA TERMINATED NORMALLY****
TOTAL RUN TIME: 0 days 0 hours 29 minutes 6 seconds 51 msec
