                         Program Version 5.0.4 -  RELEASE  -
|  1> ! ri-mp2 aug-cc-pvdz aug-cc-pvdz/c tightscf
|  2> %pal nprocs 16 end
|  3> %maxcore 3800
|  4> %base "DZ_S66by10_18_2.0_dimer"
|  5>
|  6> *xyz 0 1
|  7> O   -0.55283102   -0.10169749   -0.00049879
|  8> H   -0.87175963    0.80179220    0.00014440
|  9> H    0.41265950   -0.00183225   -0.00025181
| 10> N    4.39872888    0.19928281    0.00056244
| 11> C    5.09463552    0.16531202    1.14531028
| 12> H    4.50996296    0.18892296    2.05617831
| 13> C    6.48365911    0.10012959    1.19530635
| 14> H    6.98956549    0.07527543    2.14963547
| 15> C    7.19482225    0.06700379    0.00039520
| 16> H    8.27466220    0.01523024    0.00031477
| 17> C    6.48351395    0.10006293   -1.19440609
| 18> H    6.98931090    0.07518991   -2.14880470
| 19> C    5.09448394    0.16525792   -1.14425983
| 20> H    4.50971506    0.18885858   -2.05505239
| 21> *
| 22>
| 23> $new_job
| 24> ! ri-mp2 aug-cc-pvtz aug-cc-pvtz/c tightscf
| 25> %pal nprocs 16 end
| 26> %maxcore 3800
| 27> %base "TZ_S66by10_18_2.0_dimer"
| 28>
| 29> *xyz 0 1
| 30> O   -0.55283102   -0.10169749   -0.00049879
| 31> H   -0.87175963    0.80179220    0.00014440
| 32> H    0.41265950   -0.00183225   -0.00025181
| 33> N    4.39872888    0.19928281    0.00056244
| 34> C    5.09463552    0.16531202    1.14531028
| 35> H    4.50996296    0.18892296    2.05617831
| 36> C    6.48365911    0.10012959    1.19530635
| 37> H    6.98956549    0.07527543    2.14963547
| 38> C    7.19482225    0.06700379    0.00039520
| 39> H    8.27466220    0.01523024    0.00031477
| 40> C    6.48351395    0.10006293   -1.19440609
| 41> H    6.98931090    0.07518991   -2.14880470
| 42> C    5.09448394    0.16525792   -1.14425983
| 43> H    4.50971506    0.18885858   -2.05505239
| 44> *
| 45>
| 46> $new_job
| 47> ! ri-mp2 aug-cc-pvqz aug-cc-pvqz/c tightscf
| 48> %pal nprocs 16 end
| 49> %maxcore 3800
| 50> %base "QZ_S66by10_18_2.0_dimer"
| 51>
| 52> *xyz 0 1
| 53> O   -0.55283102   -0.10169749   -0.00049879
| 54> H   -0.87175963    0.80179220    0.00014440
| 55> H    0.41265950   -0.00183225   -0.00025181
| 56> N    4.39872888    0.19928281    0.00056244
| 57> C    5.09463552    0.16531202    1.14531028
| 58> H    4.50996296    0.18892296    2.05617831
| 59> C    6.48365911    0.10012959    1.19530635
| 60> H    6.98956549    0.07527543    2.14963547
| 61> C    7.19482225    0.06700379    0.00039520
| 62> H    8.27466220    0.01523024    0.00031477
| 63> C    6.48351395    0.10006293   -1.19440609
| 64> H    6.98931090    0.07518991   -2.14880470
| 65> C    5.09448394    0.16525792   -1.14425983
| 66> H    4.50971506    0.18885858   -2.05505239
| 67> *
| 68>
| 69>
| 70>
| 71>
| 72>                          ****END OF INPUT****
 Total Charge           Charge          ....    0
 Multiplicity           Mult            ....    1
 Number of Electrons    NEL             ....   52
MP2 TOTAL ENERGY:     -323.825654530 Eh
FINAL SINGLE POINT ENERGY      -323.825654529557
MP2 TOTAL ENERGY:     -324.108296833 Eh
FINAL SINGLE POINT ENERGY      -324.108296833330

CARTESIAN COORDINATES (ANGSTROEM)
---------------------------------
  O     -0.552831   -0.101697   -0.000499
  H     -0.871760    0.801792    0.000144
  H      0.412659   -0.001832   -0.000252
  N      4.398729    0.199283    0.000562
  C      5.094636    0.165312    1.145310
  H      4.509963    0.188923    2.056178
  C      6.483659    0.100130    1.195306
  H      6.989565    0.075275    2.149635
  C      7.194822    0.067004    0.000395
  H      8.274662    0.015230    0.000315
  C      6.483514    0.100063   -1.194406
  H      6.989311    0.075190   -2.148805
  C      5.094484    0.165258   -1.144260
  H      4.509715    0.188859   -2.055052

 Multiplicity           Mult            ....    1
 Number of Electrons    NEL             ....   52
 Basis Dimension        Dim             ....  882

ORBITAL ENERGIES
----------------

  NO   OCC          E(Eh)            E(eV)
   0   2.0000     -20.555637      -559.3473
   1   2.0000     -15.569972      -423.6805
   2   2.0000     -11.278794      -306.9116
   3   2.0000     -11.278777      -306.9111
   4   2.0000     -11.263402      -306.4927
   5   2.0000     -11.245312      -306.0005
   6   2.0000     -11.245259      -305.9991
   7   2.0000      -1.339304       -36.4443
   8   2.0000      -1.261041       -34.3147
   9   2.0000      -1.093564       -29.7574
  10   2.0000      -1.038668       -28.2636
  11   2.0000      -0.863649       -23.5011
  12   2.0000      -0.860745       -23.4221
  13   2.0000      -0.726863       -19.7790
  14   2.0000      -0.701295       -19.0832
  15   2.0000      -0.665330       -18.1046
  16   2.0000      -0.658787       -17.9265
  17   2.0000      -0.603864       -16.4320
  18   2.0000      -0.581706       -15.8290
  19   2.0000      -0.575212       -15.6523
  20   2.0000      -0.546239       -14.8639
  21   2.0000      -0.525269       -14.2933
  22   2.0000      -0.499751       -13.5989
  23   2.0000      -0.424534       -11.5522
  24   2.0000      -0.388476       -10.5710
  25   2.0000      -0.352731        -9.5983
  26   0.0000       0.021183         0.5764
  27   0.0000       0.027488         0.7480
  28   0.0000       0.028532         0.7764
  29   0.0000       0.038698         1.0530
  30   0.0000       0.042351         1.1524

MULLIKEN ATOMIC CHARGES
-----------------------
   0 O :   -0.611654
   1 H :    0.293020
   2 H :    0.318032
   3 N :   -0.500115
   4 C :   -0.321796
   5 H :    0.433054
   6 C :   -0.256780
   7 H :    0.354352
   8 C :   -0.257678
   9 H :    0.340677
  10 C :   -0.256773
  11 H :    0.354338
  12 C :   -0.321753
  13 H :    0.433077
Sum of atomic charges:   -0.0000000

LOEWDIN ATOMIC CHARGES
----------------------
   0 O :    1.588721
   1 H :   -0.808286
   2 H :   -0.781760
   3 N :    0.580481
   4 C :    0.067272
   5 H :   -0.357007
   6 C :    0.326105
   7 H :   -0.331524
   8 C :    0.326484
   9 H :   -0.315323
  10 C :    0.326094
  11 H :   -0.331513
  12 C :    0.067275
  13 H :   -0.357018

  Mayer bond orders larger than 0.100000
B(  0-O ,  1-H ) :   0.9674 B(  0-O ,  2-H ) :   0.9374 B(  3-N ,  4-C ) :   1.2922
B(  3-N , 12-C ) :   1.2923 B(  4-C ,  5-H ) :   0.8880 B(  4-C ,  6-C ) :   1.2387
B(  4-C , 10-C ) :   0.1036 B(  6-C ,  7-H ) :   0.9529 B(  6-C ,  8-C ) :   1.1830
B(  6-C , 12-C ) :   0.1035 B(  8-C ,  9-H ) :   0.9723 B(  8-C , 10-C ) :   1.1831
B( 10-C , 11-H ) :   0.9529 B( 10-C , 12-C ) :   1.2386 B( 12-C , 13-H ) :   0.8879

MP2 TOTAL ENERGY:     -324.199789178 Eh
FINAL SINGLE POINT ENERGY      -324.199789178442

DIPOLE MOMENT
-------------
                                X             Y             Z
Electronic contribution:      2.90399       0.00351       0.00054
Nuclear contribution   :     -1.48862       0.60213      -0.00003
                        -----------------------------------------
Total Dipole Moment    :      1.41537       0.60564       0.00051
                        -----------------------------------------
Magnitude (a.u.)       :      1.53950
Magnitude (Debye)      :      3.91311

Rotational constants in cm-1:     0.198743     0.025095     0.022354
Rotational constants in MHz :  5958.172980   752.342106   670.142824

                             ****ORCA TERMINATED NORMALLY****
TOTAL RUN TIME: 0 days 0 hours 12 minutes 11 seconds 952 msec
