                         Program Version 5.0.4 -  RELEASE  -
|  1> ! ri-mp2 aug-cc-pvdz aug-cc-pvdz/c tightscf
|  2> %pal nprocs 16 end
|  3> %maxcore 3800
|  4> %base "DZ_S66by10_23_0.8_dimer"
|  5> %scf STABPerform true end
|  6>
|  7> *xyz 0 1
|  8> C   -1.23272700    1.21163896   -0.14162406
|  9> O   -0.57127667    2.24201573    0.02561679
| 10> N   -0.67058051    0.00388878   -0.31428147
| 11> H    0.34384695   -0.09056011   -0.30832667
| 12> H   -1.24421373   -0.80632370   -0.44668271
| 13> C   -2.73824495    1.26675766   -0.15588657
| 14> H   -3.07797534    1.64660511    0.80450159
| 15> H   -3.20211503    0.30286549   -0.34621112
| 16> H   -3.04998747    1.97549049   -0.91859737
| 17> N    3.85363137    1.11228803   -0.12384319
| 18> H    4.34366082    0.23633084   -0.24178166
| 19> C    4.65725738    2.25513296    0.02663851
| 20> O    5.87281941    2.15951064    0.01145373
| 21> C    3.88466521    3.47044945    0.18978244
| 22> H    4.40642820    4.40364231    0.31281757
| 23> C    2.53550449    3.40877392    0.18410569
| 24> H    1.91510044    4.28513430    0.30178259
| 25> N    1.85042239    2.23649241    0.02953992
| 26> H    0.81763191    2.22743135    0.02870260
| 27> C    2.48131235    1.03202291   -0.13272011
| 28> O    1.88412362   -0.03189305   -0.27452760
| 29> *
| 30>
| 31> $new_job
| 32> ! ri-mp2 aug-cc-pvtz aug-cc-pvtz/c tightscf
| 33> %pal nprocs 16 end
| 34> %maxcore 3800
| 35> %base "TZ_S66by10_23_0.8_dimer"
| 36>
| 37> *xyz 0 1
| 38> C   -1.23272700    1.21163896   -0.14162406
| 39> O   -0.57127667    2.24201573    0.02561679
| 40> N   -0.67058051    0.00388878   -0.31428147
| 41> H    0.34384695   -0.09056011   -0.30832667
| 42> H   -1.24421373   -0.80632370   -0.44668271
| 43> C   -2.73824495    1.26675766   -0.15588657
| 44> H   -3.07797534    1.64660511    0.80450159
| 45> H   -3.20211503    0.30286549   -0.34621112
| 46> H   -3.04998747    1.97549049   -0.91859737
| 47> N    3.85363137    1.11228803   -0.12384319
| 48> H    4.34366082    0.23633084   -0.24178166
| 49> C    4.65725738    2.25513296    0.02663851
| 50> O    5.87281941    2.15951064    0.01145373
| 51> C    3.88466521    3.47044945    0.18978244
| 52> H    4.40642820    4.40364231    0.31281757
| 53> C    2.53550449    3.40877392    0.18410569
| 54> H    1.91510044    4.28513430    0.30178259
| 55> N    1.85042239    2.23649241    0.02953992
| 56> H    0.81763191    2.22743135    0.02870260
| 57> C    2.48131235    1.03202291   -0.13272011
| 58> O    1.88412362   -0.03189305   -0.27452760
| 59> *
| 60>
| 61> $new_job
| 62> ! ri-mp2 aug-cc-pvqz aug-cc-pvqz/c tightscf
| 63> %pal nprocs 16 end
| 64> %maxcore 3800
| 65> %base "QZ_S66by10_23_0.8_dimer"
| 66>
| 67> *xyz 0 1
| 68> C   -1.23272700    1.21163896   -0.14162406
| 69> O   -0.57127667    2.24201573    0.02561679
| 70> N   -0.67058051    0.00388878   -0.31428147
| 71> H    0.34384695   -0.09056011   -0.30832667
| 72> H   -1.24421373   -0.80632370   -0.44668271
| 73> C   -2.73824495    1.26675766   -0.15588657
| 74> H   -3.07797534    1.64660511    0.80450159
| 75> H   -3.20211503    0.30286549   -0.34621112
| 76> H   -3.04998747    1.97549049   -0.91859737
| 77> N    3.85363137    1.11228803   -0.12384319
| 78> H    4.34366082    0.23633084   -0.24178166
| 79> C    4.65725738    2.25513296    0.02663851
| 80> O    5.87281941    2.15951064    0.01145373
| 81> C    3.88466521    3.47044945    0.18978244
| 82> H    4.40642820    4.40364231    0.31281757
| 83> C    2.53550449    3.40877392    0.18410569
| 84> H    1.91510044    4.28513430    0.30178259
| 85> N    1.85042239    2.23649241    0.02953992
| 86> H    0.81763191    2.22743135    0.02870260
| 87> C    2.48131235    1.03202291   -0.13272011
| 88> O    1.88412362   -0.03189305   -0.27452760
| 89> *
| 90>
| 91>
| 92>
| 93>
| 94>                          ****END OF INPUT****
 Total Charge           Charge          ....    0
 Multiplicity           Mult            ....    1
 Number of Electrons    NEL             ....   90
MP2 TOTAL ENERGY:     -622.463530897 Eh
FINAL SINGLE POINT ENERGY      -622.463530897250
MP2 TOTAL ENERGY:     -622.997550789 Eh
FINAL SINGLE POINT ENERGY      -622.997550789107

CARTESIAN COORDINATES (ANGSTROEM)
---------------------------------
  C     -1.232727    1.211639   -0.141624
  O     -0.571277    2.242016    0.025617
  N     -0.670581    0.003889   -0.314281
  H      0.343847   -0.090560   -0.308327
  H     -1.244214   -0.806324   -0.446683
  C     -2.738245    1.266758   -0.155887
  H     -3.077975    1.646605    0.804502
  H     -3.202115    0.302865   -0.346211
  H     -3.049987    1.975490   -0.918597
  N      3.853631    1.112288   -0.123843
  H      4.343661    0.236331   -0.241782
  C      4.657257    2.255133    0.026639
  O      5.872819    2.159511    0.011454
  C      3.884665    3.470449    0.189782
  H      4.406428    4.403642    0.312818
  C      2.535504    3.408774    0.184106
  H      1.915100    4.285134    0.301783
  N      1.850422    2.236492    0.029540
  H      0.817632    2.227431    0.028703
  C      2.481312    1.032023   -0.132720
  O      1.884124   -0.031893   -0.274528

 Multiplicity           Mult            ....    1
 Number of Electrons    NEL             ....   90
 Basis Dimension        Dim             .... 1374

ORBITAL ENERGIES
----------------

  NO   OCC          E(Eh)            E(eV)
   0   2.0000     -20.542422      -558.9877
   1   2.0000     -20.541359      -558.9588
   2   2.0000     -20.524724      -558.5061
   3   2.0000     -15.615871      -424.9294
   4   2.0000     -15.592200      -424.2853
   5   2.0000     -15.578672      -423.9172
   6   2.0000     -11.410039      -310.4829
   7   2.0000     -11.377427      -309.5955
   8   2.0000     -11.365603      -309.2738
   9   2.0000     -11.316128      -307.9275
  10   2.0000     -11.250420      -306.1395
  11   2.0000     -11.233451      -305.6777
  12   2.0000      -1.433440       -39.0059
  13   2.0000      -1.411848       -38.4183
  14   2.0000      -1.385605       -37.7042
  15   2.0000      -1.295538       -35.2534
  16   2.0000      -1.229328       -33.4517
  17   2.0000      -1.224400       -33.3176
  18   2.0000      -1.068115       -29.0649
  19   2.0000      -1.023867       -27.8608
  20   2.0000      -0.914303       -24.8794
  21   2.0000      -0.893228       -24.3060
  22   2.0000      -0.820899       -22.3378
  23   2.0000      -0.800098       -21.7718
  24   2.0000      -0.759051       -20.6548
  25   2.0000      -0.741814       -20.1858
  26   2.0000      -0.717762       -19.5313
  27   2.0000      -0.682675       -18.5765
  28   2.0000      -0.663972       -18.0676
  29   2.0000      -0.656862       -17.8741
  30   2.0000      -0.635664       -17.2973
  31   2.0000      -0.633795       -17.2464
  32   2.0000      -0.609527       -16.5861
  33   2.0000      -0.593849       -16.1595
  34   2.0000      -0.584385       -15.9019
  35   2.0000      -0.569840       -15.5061
  36   2.0000      -0.560486       -15.2516
  37   2.0000      -0.545468       -14.8429
  38   2.0000      -0.505880       -13.7657
  39   2.0000      -0.486592       -13.2409
  40   2.0000      -0.447901       -12.1880
  41   2.0000      -0.436688       -11.8829
  42   2.0000      -0.436241       -11.8707
  43   2.0000      -0.429347       -11.6831
  44   2.0000      -0.347349        -9.4518
  45   0.0000       0.015925         0.4334
  46   0.0000       0.026606         0.7240
  47   0.0000       0.031074         0.8456
  48   0.0000       0.036145         0.9836
  49   0.0000       0.039413         1.0725

MULLIKEN ATOMIC CHARGES
-----------------------
   0 C :    0.857045
   1 O :   -0.772892
   2 N :   -0.724541
   3 H :    0.386583
   4 H :    0.216209
   5 C :   -0.642223
   6 H :    0.279756
   7 H :    0.256311
   8 H :    0.271589
   9 N :   -0.658905
  10 H :    0.118671
  11 C :    1.137345
  12 O :   -0.845709
  13 C :   -0.403706
  14 H :    0.269245
  15 C :   -0.326450
  16 H :    0.315556
  17 N :   -0.563073
  18 H :    0.284689
  19 C :    1.335395
  20 O :   -0.790897
Sum of atomic charges:   -0.0000000

LOEWDIN ATOMIC CHARGES
----------------------
   0 C :   -0.613002
   1 O :    0.998327
   2 N :    1.273185
   3 H :   -0.976567
   4 H :   -0.476164
   5 C :    0.916629
   6 H :   -0.294181
   7 H :   -0.310943
   8 H :   -0.296392
   9 N :    0.793234
  10 H :   -0.518560
  11 C :   -0.867783
  12 O :    0.674306
  13 C :    0.333928
  14 H :   -0.358642
  15 C :    0.251404
  16 H :   -0.290998
  17 N :    0.800301
  18 H :   -1.134845
  19 C :   -0.825208
  20 O :    0.921972

  Mayer bond orders larger than 0.100000
B(  0-C ,  1-O ) :   1.3786 B(  0-C ,  2-N ) :   1.1405 B(  0-C ,  5-C ) :   0.6829
B(  0-C ,  7-H ) :  -0.1422 B(  1-O ,  2-N ) :   0.1340 B(  1-O , 17-N ) :  -0.1198
B(  2-N ,  3-H ) :   0.8130 B(  2-N ,  4-H ) :   1.0679 B(  5-C ,  6-H ) :   0.9446
B(  5-C ,  7-H ) :   1.0201 B(  5-C ,  8-H ) :   0.9653 B(  9-N , 10-H ) :   1.1972
B(  9-N , 11-C ) :   1.0255 B(  9-N , 12-O ) :   0.1506 B(  9-N , 19-C ) :   1.0487
B(  9-N , 20-O ) :   0.1095 B( 10-H , 19-C ) :  -0.1036 B( 11-C , 12-O ) :   1.0011
B( 11-C , 13-C ) :   1.1716 B( 12-O , 13-C ) :   0.2854 B( 13-C , 14-H ) :   1.0201
B( 13-C , 15-C ) :   1.4399 B( 14-H , 15-C ) :  -0.1046 B( 15-C , 16-H ) :   0.9772
B( 15-C , 17-N ) :   1.1515 B( 17-N , 18-H ) :   0.8943 B( 17-N , 19-C ) :   1.2518
B( 17-N , 20-O ) :   0.1900 B( 19-C , 20-O ) :   1.2260

MP2 TOTAL ENERGY:     -623.172026565 Eh
FINAL SINGLE POINT ENERGY      -623.172026564907

DIPOLE MOMENT
-------------
                                X             Y             Z
Electronic contribution:     11.10349       0.44016       0.17213
Nuclear contribution   :    -13.69143      -0.67687      -0.23762
                        -----------------------------------------
Total Dipole Moment    :     -2.58794      -0.23670      -0.06549
                        -----------------------------------------
Magnitude (a.u.)       :      2.59957
Magnitude (Debye)      :      6.60757

Rotational constants in cm-1:     0.089200     0.014568     0.012552
Rotational constants in MHz :  2674.138038   436.724999   376.297875

                             ****ORCA TERMINATED NORMALLY****
TOTAL RUN TIME: 0 days 8 hours 6 minutes 46 seconds 108 msec
