                         Program Version 5.0.4 -  RELEASE  -
|  1> ! ri-mp2 aug-cc-pvdz aug-cc-pvdz/c tightscf
|  2> %pal nprocs 16 end
|  3> %maxcore 3800
|  4> %base "DZ_S66by10_44_1.25_dimer"
|  5> %scf STABPerform true end
|  6>
|  7> *xyz 0 1
|  8> C    0.66640038    0.18381078    0.41973683
|  9> H    1.22888182   -0.32988301    1.18625971
| 10> H    1.22803556    0.69720813   -0.34760989
| 11> C   -0.66597358    0.18297343    0.41961191
| 12> H   -1.22792171   -0.33149890    1.18610334
| 13> H   -1.22818427    0.69564575   -0.34774808
| 14> C   -2.53281904   -0.44497273    4.93467191
| 15> H   -2.56231249   -1.05799351    4.03348203
| 16> H   -2.56895299   -1.11919335    5.79028893
| 17> H   -3.43399040    0.16604370    4.95191786
| 18> C   -1.27138256    0.40770269    4.97048985
| 19> H   -1.27178842    1.02779626    5.86988379
| 20> H   -1.26299421    1.09461100    4.12142944
| 21> C   -0.00010830   -0.42985488    4.94354664
| 22> H   -0.00026235   -1.11652759    5.79537866
| 23> H    0.00003277   -1.05743272    4.04690415
| 24> C    1.27111211    0.40773155    4.97095118
| 25> H    1.27138511    1.02754230    5.87043659
| 26> H    1.26291728    1.09480620    4.12204355
| 27> C    2.53256349   -0.44499297    4.93512700
| 28> H    2.56218696   -1.05784946    4.03381782
| 29> H    3.43374160    0.16594320    4.95270504
| 30> H    2.56848185   -1.11944905    5.79063271
| 31> *
| 32>
| 33> $new_job
| 34> ! ri-mp2 aug-cc-pvtz aug-cc-pvtz/c tightscf
| 35> %pal nprocs 16 end
| 36> %maxcore 3800
| 37> %base "TZ_S66by10_44_1.25_dimer"
| 38>
| 39> *xyz 0 1
| 40> C    0.66640038    0.18381078    0.41973683
| 41> H    1.22888182   -0.32988301    1.18625971
| 42> H    1.22803556    0.69720813   -0.34760989
| 43> C   -0.66597358    0.18297343    0.41961191
| 44> H   -1.22792171   -0.33149890    1.18610334
| 45> H   -1.22818427    0.69564575   -0.34774808
| 46> C   -2.53281904   -0.44497273    4.93467191
| 47> H   -2.56231249   -1.05799351    4.03348203
| 48> H   -2.56895299   -1.11919335    5.79028893
| 49> H   -3.43399040    0.16604370    4.95191786
| 50> C   -1.27138256    0.40770269    4.97048985
| 51> H   -1.27178842    1.02779626    5.86988379
| 52> H   -1.26299421    1.09461100    4.12142944
| 53> C   -0.00010830   -0.42985488    4.94354664
| 54> H   -0.00026235   -1.11652759    5.79537866
| 55> H    0.00003277   -1.05743272    4.04690415
| 56> C    1.27111211    0.40773155    4.97095118
| 57> H    1.27138511    1.02754230    5.87043659
| 58> H    1.26291728    1.09480620    4.12204355
| 59> C    2.53256349   -0.44499297    4.93512700
| 60> H    2.56218696   -1.05784946    4.03381782
| 61> H    3.43374160    0.16594320    4.95270504
| 62> H    2.56848185   -1.11944905    5.79063271
| 63> *
| 64>
| 65> $new_job
| 66> ! ri-mp2 aug-cc-pvqz aug-cc-pvqz/c tightscf
| 67> %pal nprocs 16 end
| 68> %maxcore 3800
| 69> %base "QZ_S66by10_44_1.25_dimer"
| 70>
| 71> *xyz 0 1
| 72> C    0.66640038    0.18381078    0.41973683
| 73> H    1.22888182   -0.32988301    1.18625971
| 74> H    1.22803556    0.69720813   -0.34760989
| 75> C   -0.66597358    0.18297343    0.41961191
| 76> H   -1.22792171   -0.33149890    1.18610334
| 77> H   -1.22818427    0.69564575   -0.34774808
| 78> C   -2.53281904   -0.44497273    4.93467191
| 79> H   -2.56231249   -1.05799351    4.03348203
| 80> H   -2.56895299   -1.11919335    5.79028893
| 81> H   -3.43399040    0.16604370    4.95191786
| 82> C   -1.27138256    0.40770269    4.97048985
| 83> H   -1.27178842    1.02779626    5.86988379
| 84> H   -1.26299421    1.09461100    4.12142944
| 85> C   -0.00010830   -0.42985488    4.94354664
| 86> H   -0.00026235   -1.11652759    5.79537866
| 87> H    0.00003277   -1.05743272    4.04690415
| 88> C    1.27111211    0.40773155    4.97095118
| 89> H    1.27138511    1.02754230    5.87043659
| 90> H    1.26291728    1.09480620    4.12204355
| 91> C    2.53256349   -0.44499297    4.93512700
| 92> H    2.56218696   -1.05784946    4.03381782
| 93> H    3.43374160    0.16594320    4.95270504
| 94> H    2.56848185   -1.11944905    5.79063271
| 95> *
| 96>
| 97>
| 98>
| 99>
|100>                          ****END OF INPUT****
 Total Charge           Charge          ....    0
 Multiplicity           Mult            ....    1
 Number of Electrons    NEL             ....   58
MP2 TOTAL ENERGY:     -275.443638611 Eh
FINAL SINGLE POINT ENERGY      -275.443638611228
MP2 TOTAL ENERGY:     -275.716904589 Eh
FINAL SINGLE POINT ENERGY      -275.716904589239

CARTESIAN COORDINATES (ANGSTROEM)
---------------------------------
  C      0.666400    0.183811    0.419737
  H      1.228882   -0.329883    1.186260
  H      1.228036    0.697208   -0.347610
  C     -0.665974    0.182973    0.419612
  H     -1.227922   -0.331499    1.186103
  H     -1.228184    0.695646   -0.347748
  C     -2.532819   -0.444973    4.934672
  H     -2.562312   -1.057994    4.033482
  H     -2.568953   -1.119193    5.790289
  H     -3.433990    0.166044    4.951918
  C     -1.271383    0.407703    4.970490
  H     -1.271788    1.027796    5.869884
  H     -1.262994    1.094611    4.121429
  C     -0.000108   -0.429855    4.943547
  H     -0.000262   -1.116528    5.795379
  H      0.000033   -1.057433    4.046904
  C      1.271112    0.407732    4.970951
  H      1.271385    1.027542    5.870437
  H      1.262917    1.094806    4.122044
  C      2.532563   -0.444993    4.935127
  H      2.562187   -1.057849    4.033818
  H      3.433742    0.165943    4.952705
  H      2.568482   -1.119449    5.790633

 Multiplicity           Mult            ....    1
 Number of Electrons    NEL             ....   58
 Basis Dimension        Dim             .... 1296

ORBITAL ENERGIES
----------------

  NO   OCC          E(Eh)            E(eV)
   0   2.0000     -11.230982      -305.6106
   1   2.0000     -11.229256      -305.5636
   2   2.0000     -11.211241      -305.0734
   3   2.0000     -11.211139      -305.0706
   4   2.0000     -11.209380      -305.0227
   5   2.0000     -11.206702      -304.9499
   6   2.0000     -11.206697      -304.9497
   7   2.0000      -1.081196       -29.4208
   8   2.0000      -1.035427       -28.1754
   9   2.0000      -1.015420       -27.6310
  10   2.0000      -0.919262       -25.0144
  11   2.0000      -0.820055       -22.3148
  12   2.0000      -0.794361       -21.6157
  13   2.0000      -0.785141       -21.3648
  14   2.0000      -0.649887       -17.6843
  15   2.0000      -0.643819       -17.5192
  16   2.0000      -0.598721       -16.2920
  17   2.0000      -0.593300       -16.1445
  18   2.0000      -0.588764       -16.0211
  19   2.0000      -0.554448       -15.0873
  20   2.0000      -0.548096       -14.9144
  21   2.0000      -0.526160       -14.3175
  22   2.0000      -0.509726       -13.8704
  23   2.0000      -0.495002       -13.4697
  24   2.0000      -0.476286       -12.9604
  25   2.0000      -0.462158       -12.5760
  26   2.0000      -0.459507       -12.5038
  27   2.0000      -0.446977       -12.1628
  28   2.0000      -0.378241       -10.2925
  29   0.0000       0.026363         0.7174
  30   0.0000       0.028649         0.7796
  31   0.0000       0.031643         0.8611
  32   0.0000       0.034355         0.9349
  33   0.0000       0.041736         1.1357

MULLIKEN ATOMIC CHARGES
-----------------------
   0 C :   -1.005771
   1 H :    0.564309
   2 H :    0.438091
   3 C :   -1.005795
   4 H :    0.564406
   5 H :    0.438087
   6 C :   -0.947665
   7 H :    0.253955
   8 H :    0.235368
   9 H :    0.263413
  10 C :   -0.493570
  11 H :    0.293420
  12 H :    0.255359
  13 C :   -0.278694
  14 H :    0.303117
  15 H :    0.261750
  16 C :   -0.493675
  17 H :    0.293524
  18 H :    0.255345
  19 C :   -0.947735
  20 H :    0.253980
  21 H :    0.263431
  22 H :    0.235349
Sum of atomic charges:   -0.0000000

LOEWDIN ATOMIC CHARGES
----------------------
   0 C :    0.754631
   1 H :   -0.375833
   2 H :   -0.370421
   3 C :    0.754623
   4 H :   -0.375762
   5 H :   -0.370456
   6 C :    0.925774
   7 H :   -0.288895
   8 H :   -0.285451
   9 H :   -0.282776
  10 C :    0.500575
  11 H :   -0.270907
  12 H :   -0.276896
  13 C :    0.484252
  14 H :   -0.267473
  15 H :   -0.276389
  16 C :    0.500613
  17 H :   -0.270987
  18 H :   -0.276906
  19 C :    0.925788
  20 H :   -0.288888
  21 H :   -0.282814
  22 H :   -0.285402

  Mayer bond orders larger than 0.100000
B(  0-C ,  1-H ) :   0.6134 B(  0-C ,  2-H ) :   0.8374 B(  0-C ,  3-C ) :   2.0209
B(  3-C ,  4-H ) :   0.6133 B(  3-C ,  5-H ) :   0.8374 B(  6-C ,  7-H ) :   0.9157
B(  6-C ,  8-H ) :   0.9764 B(  6-C ,  9-H ) :   1.0256 B(  6-C , 10-C ) :   0.9917
B( 10-C , 11-H ) :   0.8633 B( 10-C , 12-H ) :   0.8747 B( 10-C , 13-C ) :   0.8225
B( 13-C , 14-H ) :   0.8808 B( 13-C , 15-H ) :   0.8640 B( 13-C , 16-C ) :   0.8225
B( 16-C , 17-H ) :   0.8632 B( 16-C , 18-H ) :   0.8747 B( 16-C , 19-C ) :   0.9917
B( 19-C , 20-H ) :   0.9157 B( 19-C , 21-H ) :   1.0256 B( 19-C , 22-H ) :   0.9764

MP2 TOTAL ENERGY:     -275.798217437 Eh
FINAL SINGLE POINT ENERGY      -275.798217437029

DIPOLE MOMENT
-------------
                                X             Y             Z
Electronic contribution:      0.00020       0.77111      -2.00687
Nuclear contribution   :     -0.00021      -0.71296       2.01127
                        -----------------------------------------
Total Dipole Moment    :     -0.00001       0.05816       0.00440
                        -----------------------------------------
Magnitude (a.u.)       :      0.05832
Magnitude (Debye)      :      0.14824

Rotational constants in cm-1:     0.058301     0.037505     0.024318
Rotational constants in MHz :  1747.817943  1124.371250   729.045654

                             ****ORCA TERMINATED NORMALLY****
TOTAL RUN TIME: 0 days 2 hours 37 minutes 26 seconds 249 msec
