                         Program Version 5.0.4 -  RELEASE  -
|  1> ! ri-mp2 aug-cc-pvdz aug-cc-pvdz/c tightscf
|  2> %pal nprocs 16 end
|  3> %maxcore 3800
|  4> %base "DZ_S66by10_2_1.5_dimer"
|  5> %scf STABPerform true end
|  6>
|  7> *xyz 0 1
|  8> O   -0.52532979   -0.05097108   -0.31451686
|  9> H   -0.94200663    0.74790163    0.01125282
| 10> H    0.40369652    0.05978598   -0.07356837
| 11> O    3.33876579    0.03786793    0.14956374
| 12> H    3.70674861   -0.53420948    0.82709206
| 13> C    3.80377086   -0.43376199   -1.11259537
| 14> H    3.37295376    0.21733170   -1.86570941
| 15> H    4.88973455   -0.38296913   -1.18690730
| 16> H    3.47542824   -1.45363149   -1.31167601
| 17> *
| 18>
| 19> $new_job
| 20> ! ri-mp2 aug-cc-pvtz aug-cc-pvtz/c tightscf
| 21> %pal nprocs 16 end
| 22> %maxcore 3800
| 23> %base "TZ_S66by10_2_1.5_dimer"
| 24>
| 25> *xyz 0 1
| 26> O   -0.52532979   -0.05097108   -0.31451686
| 27> H   -0.94200663    0.74790163    0.01125282
| 28> H    0.40369652    0.05978598   -0.07356837
| 29> O    3.33876579    0.03786793    0.14956374
| 30> H    3.70674861   -0.53420948    0.82709206
| 31> C    3.80377086   -0.43376199   -1.11259537
| 32> H    3.37295376    0.21733170   -1.86570941
| 33> H    4.88973455   -0.38296913   -1.18690730
| 34> H    3.47542824   -1.45363149   -1.31167601
| 35> *
| 36>
| 37> $new_job
| 38> ! ri-mp2 aug-cc-pvqz aug-cc-pvqz/c tightscf
| 39> %pal nprocs 16 end
| 40> %maxcore 3800
| 41> %base "QZ_S66by10_2_1.5_dimer"
| 42>
| 43> *xyz 0 1
| 44> O   -0.52532979   -0.05097108   -0.31451686
| 45> H   -0.94200663    0.74790163    0.01125282
| 46> H    0.40369652    0.05978598   -0.07356837
| 47> O    3.33876579    0.03786793    0.14956374
| 48> H    3.70674861   -0.53420948    0.82709206
| 49> C    3.80377086   -0.43376199   -1.11259537
| 50> H    3.37295376    0.21733170   -1.86570941
| 51> H    4.88973455   -0.38296913   -1.18690730
| 52> H    3.47542824   -1.45363149   -1.31167601
| 53> *
| 54>
| 55>
| 56>
| 57>
| 58>                          ****END OF INPUT****
 Total Charge           Charge          ....    0
 Multiplicity           Mult            ....    1
 Number of Electrons    NEL             ....   28
MP2 TOTAL ENERGY:     -191.686505464 Eh
FINAL SINGLE POINT ENERGY      -191.686505464228
MP2 TOTAL ENERGY:     -191.861926735 Eh
FINAL SINGLE POINT ENERGY      -191.861926735007

CARTESIAN COORDINATES (ANGSTROEM)
---------------------------------
  O     -0.525330   -0.050971   -0.314517
  H     -0.942007    0.747902    0.011253
  H      0.403697    0.059786   -0.073568
  O      3.338766    0.037868    0.149564
  H      3.706749   -0.534209    0.827092
  C      3.803771   -0.433762   -1.112595
  H      3.372954    0.217332   -1.865709
  H      4.889735   -0.382969   -1.186907
  H      3.475428   -1.453631   -1.311676

 Multiplicity           Mult            ....    1
 Number of Electrons    NEL             ....   28
 Basis Dimension        Dim             ....  516

ORBITAL ENERGIES
----------------

  NO   OCC          E(Eh)            E(eV)
   0   2.0000     -20.566558      -559.6445
   1   2.0000     -20.553337      -559.2847
   2   2.0000     -11.275712      -306.8277
   3   2.0000      -1.365519       -37.1577
   4   2.0000      -1.338708       -36.4281
   5   2.0000      -0.933487       -25.4015
   6   2.0000      -0.702165       -19.1069
   7   2.0000      -0.698688       -19.0123
   8   2.0000      -0.628681       -17.1073
   9   2.0000      -0.600875       -16.3506
  10   2.0000      -0.573956       -15.6181
  11   2.0000      -0.514071       -13.9886
  12   2.0000      -0.498438       -13.5632
  13   2.0000      -0.461921       -12.5695
  14   0.0000       0.023351         0.6354
  15   0.0000       0.035162         0.9568
  16   0.0000       0.037697         1.0258
  17   0.0000       0.043450         1.1823
  18   0.0000       0.053731         1.4621

MULLIKEN ATOMIC CHARGES
-----------------------
   0 O :   -0.603601
   1 H :    0.302482
   2 H :    0.303738
   3 O :   -0.714656
   4 H :    0.343403
   5 C :   -0.492454
   6 H :    0.287755
   7 H :    0.321768
   8 H :    0.251567
Sum of atomic charges:   -0.0000000

LOEWDIN ATOMIC CHARGES
----------------------
   0 O :    1.595817
   1 H :   -0.804310
   2 H :   -0.805766
   3 O :    1.226029
   4 H :   -0.813009
   5 C :    0.584097
   6 H :   -0.343199
   7 H :   -0.319764
   8 H :   -0.319894

  Mayer bond orders larger than 0.100000
B(  0-O ,  1-H ) :   0.9556 B(  0-O ,  2-H ) :   0.9676 B(  3-O ,  4-H ) :   0.8938
B(  3-O ,  5-C ) :   0.8320 B(  5-C ,  6-H ) :   0.9058 B(  5-C ,  7-H ) :   0.8811
B(  5-C ,  8-H ) :   0.9256

MP2 TOTAL ENERGY:     -191.918820726 Eh
FINAL SINGLE POINT ENERGY      -191.918820725905

DIPOLE MOMENT
-------------
                                X             Y             Z
Electronic contribution:     -1.23133       0.52388       1.39227
Nuclear contribution   :      2.07502      -0.49679      -1.16028
                        -----------------------------------------
Total Dipole Moment    :      0.84368       0.02709       0.23199
                        -----------------------------------------
Magnitude (a.u.)       :      0.87542
Magnitude (Debye)      :      2.22513

Rotational constants in cm-1:     0.868563     0.084278     0.078601
Rotational constants in MHz : 26038.855430  2526.603982  2356.386516

                             ****ORCA TERMINATED NORMALLY****
TOTAL RUN TIME: 0 days 0 hours 9 minutes 43 seconds 372 msec
