                         Program Version 5.0.4 -  RELEASE  -
|  1> ! ri-mp2 aug-cc-pvdz aug-cc-pvdz/c tightscf
|  2> %pal nprocs 16 end
|  3> %maxcore 3800
|  4> %base "DZ_S66by10_38_0.8_dimer"
|  5> %scf STABPerform true end
|  6>
|  7> *xyz 0 1
|  8> C    0.95688019   -0.89184563    1.14195000
|  9> H    1.50456597   -1.27835762    0.28342019
| 10> H    1.42138447   -1.31477793    2.03102546
| 11> C    0.99094943    0.65850830    1.14550384
| 12> H    1.51059446    1.02309646    0.25994788
| 13> H    1.51625823    1.05981813    2.01053703
| 14> C   -0.47945194    1.10231879    1.10387910
| 15> H   -0.61626861    2.06487722    0.61356737
| 16> H   -0.87474223    1.18907144    2.11806960
| 17> C   -1.18210650   -0.05279656    0.39334575
| 18> H   -0.94888216   -0.02683030   -0.67380459
| 19> H   -2.26566452   -0.03356474    0.50127403
| 20> C   -0.53065958   -1.27488954    1.03930959
| 21> H   -0.69039061   -2.19702093    0.48299221
| 22> H   -0.95084939   -1.41541197    2.03674782
| 23> C   -1.14471203   -0.40950155    4.47488814
| 24> H   -1.47784652   -0.17280294    3.46230377
| 25> H   -1.94950043   -0.95260001    4.96787464
| 26> C    0.16889442   -1.20504646    4.42712694
| 27> H    0.21883936   -1.86278915    3.56099312
| 28> H    0.24918204   -1.83640409    5.31151223
| 29> C    1.29820965   -0.14234064    4.42772303
| 30> H    1.91947460   -0.20301949    3.53584941
| 31> H    1.95561914   -0.29222368    5.28312820
| 32> C    0.58803628    1.21932811    4.53558986
| 33> H    0.40817310    1.62781990    3.53959074
| 34> H    1.16842023    1.95373161    5.09156313
| 35> C   -0.75401618    0.88485567    5.18540172
| 36> H   -1.49368475    1.67736744    5.08052042
| 37> H   -0.61397626    0.69321562    6.25195068
| 38> *
| 39>
| 40> $new_job
| 41> ! ri-mp2 aug-cc-pvtz aug-cc-pvtz/c tightscf
| 42> %pal nprocs 16 end
| 43> %maxcore 3800
| 44> %base "TZ_S66by10_38_0.8_dimer"
| 45>
| 46> *xyz 0 1
| 47> C    0.95688019   -0.89184563    1.14195000
| 48> H    1.50456597   -1.27835762    0.28342019
| 49> H    1.42138447   -1.31477793    2.03102546
| 50> C    0.99094943    0.65850830    1.14550384
| 51> H    1.51059446    1.02309646    0.25994788
| 52> H    1.51625823    1.05981813    2.01053703
| 53> C   -0.47945194    1.10231879    1.10387910
| 54> H   -0.61626861    2.06487722    0.61356737
| 55> H   -0.87474223    1.18907144    2.11806960
| 56> C   -1.18210650   -0.05279656    0.39334575
| 57> H   -0.94888216   -0.02683030   -0.67380459
| 58> H   -2.26566452   -0.03356474    0.50127403
| 59> C   -0.53065958   -1.27488954    1.03930959
| 60> H   -0.69039061   -2.19702093    0.48299221
| 61> H   -0.95084939   -1.41541197    2.03674782
| 62> C   -1.14471203   -0.40950155    4.47488814
| 63> H   -1.47784652   -0.17280294    3.46230377
| 64> H   -1.94950043   -0.95260001    4.96787464
| 65> C    0.16889442   -1.20504646    4.42712694
| 66> H    0.21883936   -1.86278915    3.56099312
| 67> H    0.24918204   -1.83640409    5.31151223
| 68> C    1.29820965   -0.14234064    4.42772303
| 69> H    1.91947460   -0.20301949    3.53584941
| 70> H    1.95561914   -0.29222368    5.28312820
| 71> C    0.58803628    1.21932811    4.53558986
| 72> H    0.40817310    1.62781990    3.53959074
| 73> H    1.16842023    1.95373161    5.09156313
| 74> C   -0.75401618    0.88485567    5.18540172
| 75> H   -1.49368475    1.67736744    5.08052042
| 76> H   -0.61397626    0.69321562    6.25195068
| 77> *
| 78>
| 79> $new_job
| 80> ! ri-mp2 aug-cc-pvqz aug-cc-pvqz/c tightscf
| 81> %pal nprocs 16 end
| 82> %maxcore 3800
| 83> %base "QZ_S66by10_38_0.8_dimer"
| 84>
| 85> *xyz 0 1
| 86> C    0.95688019   -0.89184563    1.14195000
| 87> H    1.50456597   -1.27835762    0.28342019
| 88> H    1.42138447   -1.31477793    2.03102546
| 89> C    0.99094943    0.65850830    1.14550384
| 90> H    1.51059446    1.02309646    0.25994788
| 91> H    1.51625823    1.05981813    2.01053703
| 92> C   -0.47945194    1.10231879    1.10387910
| 93> H   -0.61626861    2.06487722    0.61356737
| 94> H   -0.87474223    1.18907144    2.11806960
| 95> C   -1.18210650   -0.05279656    0.39334575
| 96> H   -0.94888216   -0.02683030   -0.67380459
| 97> H   -2.26566452   -0.03356474    0.50127403
| 98> C   -0.53065958   -1.27488954    1.03930959
| 99> H   -0.69039061   -2.19702093    0.48299221
|100> H   -0.95084939   -1.41541197    2.03674782
|101> C   -1.14471203   -0.40950155    4.47488814
|102> H   -1.47784652   -0.17280294    3.46230377
|103> H   -1.94950043   -0.95260001    4.96787464
|104> C    0.16889442   -1.20504646    4.42712694
|105> H    0.21883936   -1.86278915    3.56099312
|106> H    0.24918204   -1.83640409    5.31151223
|107> C    1.29820965   -0.14234064    4.42772303
|108> H    1.91947460   -0.20301949    3.53584941
|109> H    1.95561914   -0.29222368    5.28312820
|110> C    0.58803628    1.21932811    4.53558986
|111> H    0.40817310    1.62781990    3.53959074
|112> H    1.16842023    1.95373161    5.09156313
|113> C   -0.75401618    0.88485567    5.18540172
|114> H   -1.49368475    1.67736744    5.08052042
|115> H   -0.61397626    0.69321562    6.25195068
|116> *
|117>
|118>
|119>
|120>
|121>                          ****END OF INPUT****
 Total Charge           Charge          ....    0
 Multiplicity           Mult            ....    1
 Number of Electrons    NEL             ....   80
MP2 TOTAL ENERGY:     -391.845580533 Eh
FINAL SINGLE POINT ENERGY      -391.845580532672
MP2 TOTAL ENERGY:     -392.221827775 Eh
FINAL SINGLE POINT ENERGY      -392.221827774518

CARTESIAN COORDINATES (ANGSTROEM)
---------------------------------
  C      0.956880   -0.891846    1.141950
  H      1.504566   -1.278358    0.283420
  H      1.421384   -1.314778    2.031025
  C      0.990949    0.658508    1.145504
  H      1.510594    1.023096    0.259948
  H      1.516258    1.059818    2.010537
  C     -0.479452    1.102319    1.103879
  H     -0.616269    2.064877    0.613567
  H     -0.874742    1.189071    2.118070
  C     -1.182106   -0.052797    0.393346
  H     -0.948882   -0.026830   -0.673805
  H     -2.265665   -0.033565    0.501274
  C     -0.530660   -1.274890    1.039310
  H     -0.690391   -2.197021    0.482992
  H     -0.950849   -1.415412    2.036748
  C     -1.144712   -0.409502    4.474888
  H     -1.477847   -0.172803    3.462304
  H     -1.949500   -0.952600    4.967875
  C      0.168894   -1.205046    4.427127
  H      0.218839   -1.862789    3.560993
  H      0.249182   -1.836404    5.311512
  C      1.298210   -0.142341    4.427723
  H      1.919475   -0.203019    3.535849
  H      1.955619   -0.292224    5.283128
  C      0.588036    1.219328    4.535590
  H      0.408173    1.627820    3.539591
  H      1.168420    1.953732    5.091563
  C     -0.754016    0.884856    5.185402
  H     -1.493685    1.677367    5.080520
  H     -0.613976    0.693216    6.251951

 Multiplicity           Mult            ....    1
 Number of Electrons    NEL             ....   80
 Basis Dimension        Dim             .... 1720

ORBITAL ENERGIES
----------------

  NO   OCC          E(Eh)            E(eV)
   0   2.0000     -11.208989      -305.0121
   1   2.0000     -11.208988      -305.0121
   2   2.0000     -11.208230      -304.9914
   3   2.0000     -11.208228      -304.9914
   4   2.0000     -11.207709      -304.9773
   5   2.0000     -11.207706      -304.9772
   6   2.0000     -11.207169      -304.9626
   7   2.0000     -11.207164      -304.9624
   8   2.0000     -11.206291      -304.9387
   9   2.0000     -11.206290      -304.9387
  10   2.0000      -1.121823       -30.5264
  11   2.0000      -1.112294       -30.2671
  12   2.0000      -0.964128       -26.2353
  13   2.0000      -0.962794       -26.1990
  14   2.0000      -0.951423       -25.8895
  15   2.0000      -0.950966       -25.8771
  16   2.0000      -0.787082       -21.4176
  17   2.0000      -0.774623       -21.0786
  18   2.0000      -0.768042       -20.8995
  19   2.0000      -0.765315       -20.8253
  20   2.0000      -0.676496       -18.4084
  21   2.0000      -0.648128       -17.6365
  22   2.0000      -0.644605       -17.5406
  23   2.0000      -0.626078       -17.0364
  24   2.0000      -0.594682       -16.1821
  25   2.0000      -0.586664       -15.9639
  26   2.0000      -0.552937       -15.0462
  27   2.0000      -0.547258       -14.8917
  28   2.0000      -0.481893       -13.1130
  29   2.0000      -0.479277       -13.0418
  30   2.0000      -0.479063       -13.0360
  31   2.0000      -0.469044       -12.7633
  32   2.0000      -0.468592       -12.7510
  33   2.0000      -0.466704       -12.6997
  34   2.0000      -0.464762       -12.6468
  35   2.0000      -0.459390       -12.5006
  36   2.0000      -0.457511       -12.4495
  37   2.0000      -0.451350       -12.2819
  38   2.0000      -0.447936       -12.1890
  39   2.0000      -0.437819       -11.9137
  40   0.0000       0.023627         0.6429
  41   0.0000       0.028406         0.7730
  42   0.0000       0.029071         0.7911
  43   0.0000       0.029807         0.8111
  44   0.0000       0.039959         1.0873

MULLIKEN ATOMIC CHARGES
-----------------------
   0 C :   -0.580943
   1 H :    0.252485
   2 H :    0.339619
   3 C :   -0.615122
   4 H :    0.219887
   5 H :    0.442510
   6 C :   -0.572840
   7 H :    0.284556
   8 H :    0.341817
   9 C :   -0.618355
  10 H :    0.224386
  11 H :    0.288242
  12 C :   -0.629212
  13 H :    0.294996
  14 H :    0.327707
  15 C :   -0.572938
  16 H :    0.342100
  17 H :    0.284691
  18 C :   -0.615094
  19 H :    0.441921
  20 H :    0.219909
  21 C :   -0.580325
  22 H :    0.339636
  23 H :    0.252549
  24 C :   -0.629356
  25 H :    0.327946
  26 H :    0.295098
  27 C :   -0.618429
  28 H :    0.288239
  29 H :    0.224319
Sum of atomic charges:   -0.0000000

LOEWDIN ATOMIC CHARGES
----------------------
   0 C :    0.584358
   1 H :   -0.249924
   2 H :   -0.335636
   3 C :    0.581927
   4 H :   -0.250508
   5 H :   -0.328251
   6 C :    0.556592
   7 H :   -0.236837
   8 H :   -0.333363
   9 C :    0.556241
  10 H :   -0.257949
  11 H :   -0.247416
  12 C :    0.557605
  13 H :   -0.238361
  14 H :   -0.358518
  15 C :    0.556605
  16 H :   -0.333419
  17 H :   -0.236848
  18 C :    0.581918
  19 H :   -0.328078
  20 H :   -0.250520
  21 C :    0.584387
  22 H :   -0.335793
  23 H :   -0.249936
  24 C :    0.557666
  25 H :   -0.358392
  26 H :   -0.238426
  27 C :    0.556245
  28 H :   -0.247425
  29 H :   -0.257941

  Mayer bond orders larger than 0.100000
B(  0-C ,  1-H ) :   0.9719 B(  0-C ,  2-H ) :   0.8681 B(  0-C ,  3-C ) :   0.9547
B(  0-C ,  9-C ) :  -0.1201 B(  0-C , 12-C ) :   0.8875 B(  3-C ,  4-H ) :   1.0162
B(  3-C ,  5-H ) :   0.7471 B(  3-C ,  6-C ) :   0.8700 B(  3-C ,  9-C ) :  -0.1129
B(  6-C ,  7-H ) :   0.9671 B(  6-C ,  8-H ) :   0.8702 B(  6-C ,  9-C ) :   0.9566
B(  9-C , 10-H ) :   0.9824 B(  9-C , 11-H ) :   0.8888 B(  9-C , 12-C ) :   0.9801
B( 12-C , 13-H ) :   0.9468 B( 12-C , 14-H ) :   0.8127 B( 15-C , 16-H ) :   0.8700
B( 15-C , 17-H ) :   0.9669 B( 15-C , 18-C ) :   0.8697 B( 15-C , 27-C ) :   0.9567
B( 18-C , 19-H ) :   0.7477 B( 18-C , 20-H ) :   1.0162 B( 18-C , 21-C ) :   0.9551
B( 18-C , 27-C ) :  -0.1129 B( 21-C , 22-H ) :   0.8679 B( 21-C , 23-H ) :   0.9718
B( 21-C , 24-C ) :   0.8875 B( 21-C , 27-C ) :  -0.1201 B( 24-C , 25-H ) :   0.8125
B( 24-C , 26-H ) :   0.9466 B( 24-C , 27-C ) :   0.9800 B( 27-C , 28-H ) :   0.8888
B( 27-C , 29-H ) :   0.9825

MP2 TOTAL ENERGY:     -392.334711923 Eh
FINAL SINGLE POINT ENERGY      -392.334711923045

DIPOLE MOMENT
-------------
                                X             Y             Z
Electronic contribution:     -0.13643       0.06057       0.00036
Nuclear contribution   :      0.13388      -0.05944      -0.00030
                        -----------------------------------------
Total Dipole Moment    :     -0.00255       0.00114       0.00006
                        -----------------------------------------
Magnitude (a.u.)       :      0.00279
Magnitude (Debye)      :      0.00709

Rotational constants in cm-1:     0.065600     0.026980     0.026899
Rotational constants in MHz :  1966.632607   808.827447   806.404765

                             ****ORCA TERMINATED NORMALLY****
TOTAL RUN TIME: 0 days 16 hours 17 minutes 22 seconds 289 msec
