                         Program Version 5.0.4 -  RELEASE  -
|  1> ! ri-mp2 aug-cc-pvdz aug-cc-pvdz/c tightscf
|  2> %pal nprocs 16 end
|  3> %maxcore 3800
|  4> %base "DZ_S66by10_26_0.9_dimer"
|  5> %scf STABPerform true end
|  6>
|  7> *xyz 0 1
|  8> N    1.37690111    0.83974747    0.73462494
|  9> H    1.05181240    1.38622385    1.52335563
| 10> C    1.30898271    1.45752981   -0.52065500
| 11> O    0.92056136    2.61107777   -0.62597673
| 12> N    2.01142293   -1.21320830   -0.09807182
| 13> H    1.72728551    0.99084268   -2.61199556
| 14> C    2.02573687   -0.69717123   -1.36439740
| 15> H    2.29751698   -1.39106004   -2.14564531
| 16> C    1.71451235    0.59193780   -1.61248722
| 17> H    2.12945422   -2.20152091    0.05682913
| 18> C    1.64594503   -0.48520598    1.01871830
| 19> O    1.56111602   -0.97181638    2.12980905
| 20> N   -1.10176386   -0.79224660    0.73462494
| 21> H   -0.77667515   -1.33872298    1.52335563
| 22> C   -1.03384546   -1.41002895   -0.52065500
| 23> O   -0.64542411   -2.56357690   -0.62597673
| 24> N   -1.73628568    1.26070917   -0.09807182
| 25> H   -1.45214826   -0.94334182   -2.61199556
| 26> C   -1.75059962    0.74467209   -1.36439740
| 27> H   -2.02237973    1.43856090   -2.14564531
| 28> C   -1.43937509   -0.54443693   -1.61248722
| 29> H   -1.85431696    2.24902177    0.05682913
| 30> C   -1.37080778    0.53270684    1.01871830
| 31> O   -1.28597876    1.01931724    2.12980905
| 32> *
| 33>
| 34> $new_job
| 35> ! ri-mp2 aug-cc-pvtz aug-cc-pvtz/c tightscf
| 36> %pal nprocs 16 end
| 37> %maxcore 3800
| 38> %base "TZ_S66by10_26_0.9_dimer"
| 39>
| 40> *xyz 0 1
| 41> N    1.37690111    0.83974747    0.73462494
| 42> H    1.05181240    1.38622385    1.52335563
| 43> C    1.30898271    1.45752981   -0.52065500
| 44> O    0.92056136    2.61107777   -0.62597673
| 45> N    2.01142293   -1.21320830   -0.09807182
| 46> H    1.72728551    0.99084268   -2.61199556
| 47> C    2.02573687   -0.69717123   -1.36439740
| 48> H    2.29751698   -1.39106004   -2.14564531
| 49> C    1.71451235    0.59193780   -1.61248722
| 50> H    2.12945422   -2.20152091    0.05682913
| 51> C    1.64594503   -0.48520598    1.01871830
| 52> O    1.56111602   -0.97181638    2.12980905
| 53> N   -1.10176386   -0.79224660    0.73462494
| 54> H   -0.77667515   -1.33872298    1.52335563
| 55> C   -1.03384546   -1.41002895   -0.52065500
| 56> O   -0.64542411   -2.56357690   -0.62597673
| 57> N   -1.73628568    1.26070917   -0.09807182
| 58> H   -1.45214826   -0.94334182   -2.61199556
| 59> C   -1.75059962    0.74467209   -1.36439740
| 60> H   -2.02237973    1.43856090   -2.14564531
| 61> C   -1.43937509   -0.54443693   -1.61248722
| 62> H   -1.85431696    2.24902177    0.05682913
| 63> C   -1.37080778    0.53270684    1.01871830
| 64> O   -1.28597876    1.01931724    2.12980905
| 65> *
| 66>
| 67> $new_job
| 68> ! ri-mp2 aug-cc-pvqz aug-cc-pvqz/c tightscf
| 69> %pal nprocs 16 end
| 70> %maxcore 3800
| 71> %base "QZ_S66by10_26_0.9_dimer"
| 72>
| 73> *xyz 0 1
| 74> N    1.37690111    0.83974747    0.73462494
| 75> H    1.05181240    1.38622385    1.52335563
| 76> C    1.30898271    1.45752981   -0.52065500
| 77> O    0.92056136    2.61107777   -0.62597673
| 78> N    2.01142293   -1.21320830   -0.09807182
| 79> H    1.72728551    0.99084268   -2.61199556
| 80> C    2.02573687   -0.69717123   -1.36439740
| 81> H    2.29751698   -1.39106004   -2.14564531
| 82> C    1.71451235    0.59193780   -1.61248722
| 83> H    2.12945422   -2.20152091    0.05682913
| 84> C    1.64594503   -0.48520598    1.01871830
| 85> O    1.56111602   -0.97181638    2.12980905
| 86> N   -1.10176386   -0.79224660    0.73462494
| 87> H   -0.77667515   -1.33872298    1.52335563
| 88> C   -1.03384546   -1.41002895   -0.52065500
| 89> O   -0.64542411   -2.56357690   -0.62597673
| 90> N   -1.73628568    1.26070917   -0.09807182
| 91> H   -1.45214826   -0.94334182   -2.61199556
| 92> C   -1.75059962    0.74467209   -1.36439740
| 93> H   -2.02237973    1.43856090   -2.14564531
| 94> C   -1.43937509   -0.54443693   -1.61248722
| 95> H   -1.85431696    2.24902177    0.05682913
| 96> C   -1.37080778    0.53270684    1.01871830
| 97> O   -1.28597876    1.01931724    2.12980905
| 98> *
| 99>
|100>
|101>
|102>
|103>                          ****END OF INPUT****
 Total Charge           Charge          ....    0
 Multiplicity           Mult            ....    1
 Number of Electrons    NEL             ....  116
MP2 TOTAL ENERGY:     -827.578840514 Eh
FINAL SINGLE POINT ENERGY      -827.578840514355
MP2 TOTAL ENERGY:     -828.269526954 Eh
FINAL SINGLE POINT ENERGY      -828.269526954413

CARTESIAN COORDINATES (ANGSTROEM)
---------------------------------
  N      1.376901    0.839747    0.734625
  H      1.051812    1.386224    1.523356
  C      1.308983    1.457530   -0.520655
  O      0.920561    2.611078   -0.625977
  N      2.011423   -1.213208   -0.098072
  H      1.727286    0.990843   -2.611996
  C      2.025737   -0.697171   -1.364397
  H      2.297517   -1.391060   -2.145645
  C      1.714512    0.591938   -1.612487
  H      2.129454   -2.201521    0.056829
  C      1.645945   -0.485206    1.018718
  O      1.561116   -0.971816    2.129809
  N     -1.101764   -0.792247    0.734625
  H     -0.776675   -1.338723    1.523356
  C     -1.033845   -1.410029   -0.520655
  O     -0.645424   -2.563577   -0.625977
  N     -1.736286    1.260709   -0.098072
  H     -1.452148   -0.943342   -2.611996
  C     -1.750600    0.744672   -1.364397
  H     -2.022380    1.438561   -2.145645
  C     -1.439375   -0.544437   -1.612487
  H     -1.854317    2.249022    0.056829
  C     -1.370808    0.532707    1.018718
  O     -1.285979    1.019317    2.129809

 Multiplicity           Mult            ....    1
 Number of Electrons    NEL             ....  116
 Basis Dimension        Dim             .... 1648

ORBITAL ENERGIES
----------------

  NO   OCC          E(Eh)            E(eV)
   0   2.0000     -20.545637      -559.0752
   1   2.0000     -20.545637      -559.0752
   2   2.0000     -20.545560      -559.0731
   3   2.0000     -20.545559      -559.0731
   4   2.0000     -15.639500      -425.5724
   5   2.0000     -15.639500      -425.5724
   6   2.0000     -15.626078      -425.2072
   7   2.0000     -15.626073      -425.2071
   8   2.0000     -11.418956      -310.7256
   9   2.0000     -11.418955      -310.7256
  10   2.0000     -11.386043      -309.8300
  11   2.0000     -11.386043      -309.8300
  12   2.0000     -11.339852      -308.5730
  13   2.0000     -11.339851      -308.5730
  14   2.0000     -11.255142      -306.2680
  15   2.0000     -11.255140      -306.2679
  16   2.0000      -1.443317       -39.2746
  17   2.0000      -1.434361       -39.0310
  18   2.0000      -1.404925       -38.2299
  19   2.0000      -1.403049       -38.1789
  20   2.0000      -1.314279       -35.7633
  21   2.0000      -1.314205       -35.7613
  22   2.0000      -1.250339       -34.0235
  23   2.0000      -1.246555       -33.9205
  24   2.0000      -1.092682       -29.7334
  25   2.0000      -1.087397       -29.5896
  26   2.0000      -0.935817       -25.4649
  27   2.0000      -0.934374       -25.4256
  28   2.0000      -0.904293       -24.6071
  29   2.0000      -0.902918       -24.5696
  30   2.0000      -0.808027       -21.9875
  31   2.0000      -0.806716       -21.9518
  32   2.0000      -0.768349       -20.9078
  33   2.0000      -0.766434       -20.8557
  34   2.0000      -0.715949       -19.4820
  35   2.0000      -0.715605       -19.4726
  36   2.0000      -0.703180       -19.1345
  37   2.0000      -0.683220       -18.5914
  38   2.0000      -0.680809       -18.5258
  39   2.0000      -0.655732       -17.8434
  40   2.0000      -0.654876       -17.8201
  41   2.0000      -0.643311       -17.5054
  42   2.0000      -0.618189       -16.8218
  43   2.0000      -0.617980       -16.8161
  44   2.0000      -0.605474       -16.4758
  45   2.0000      -0.604527       -16.4500
  46   2.0000      -0.594925       -16.1887
  47   2.0000      -0.568271       -15.4634
  48   2.0000      -0.533325       -14.5125
  49   2.0000      -0.513552       -13.9745
  50   2.0000      -0.487848       -13.2750
  51   2.0000      -0.484804       -13.1922
  52   2.0000      -0.457083       -12.4379
  53   2.0000      -0.455216       -12.3871
  54   2.0000      -0.444877       -12.1057
  55   2.0000      -0.440462       -11.9856
  56   2.0000      -0.389111       -10.5883
  57   2.0000      -0.354178        -9.6377
  58   0.0000       0.014431         0.3927
  59   0.0000       0.021211         0.5772
  60   0.0000       0.031520         0.8577
  61   0.0000       0.032046         0.8720
  62   0.0000       0.041764         1.1365

MULLIKEN ATOMIC CHARGES
-----------------------
   0 N :   -0.709734
   1 H :    0.092136
   2 C :    1.442980
   3 O :   -1.006816
   4 N :   -0.721931
   5 H :    0.208527
   6 C :   -0.086582
   7 H :    0.395160
   8 C :   -0.449507
   9 H :    0.084584
  10 C :    1.720512
  11 O :   -0.969329
  12 N :   -0.709734
  13 H :    0.092136
  14 C :    1.442980
  15 O :   -1.006816
  16 N :   -0.721930
  17 H :    0.208527
  18 C :   -0.086583
  19 H :    0.395160
  20 C :   -0.449507
  21 H :    0.084584
  22 C :    1.720512
  23 O :   -0.969329
Sum of atomic charges:   -0.0000000

LOEWDIN ATOMIC CHARGES
----------------------
   0 N :    0.774574
   1 H :   -0.562864
   2 C :   -0.891281
   3 O :    0.708005
   4 N :    0.815041
   5 H :   -0.342435
   6 C :    0.224133
   7 H :   -0.281721
   8 C :    0.323066
   9 H :   -0.487109
  10 C :   -1.022775
  11 O :    0.743365
  12 N :    0.774574
  13 H :   -0.562864
  14 C :   -0.891281
  15 O :    0.708005
  16 N :    0.815041
  17 H :   -0.342435
  18 C :    0.224133
  19 H :   -0.281721
  20 C :    0.323066
  21 H :   -0.487109
  22 C :   -1.022775
  23 O :    0.743365

  Mayer bond orders larger than 0.100000
B(  0-N ,  1-H ) :   1.1505 B(  0-N ,  2-C ) :   1.0141 B(  0-N ,  3-O ) :   0.2032
B(  0-N , 10-C ) :   1.0416 B(  0-N , 11-O ) :   0.2450 B(  2-C ,  3-O ) :   0.7235
B(  2-C ,  8-C ) :   1.0693 B(  3-O ,  8-C ) :   0.2245 B(  4-N ,  6-C ) :   0.9381
B(  4-N ,  9-H ) :   1.1335 B(  4-N , 10-C ) :   1.0084 B(  4-N , 11-O ) :   0.2251
B(  5-H ,  8-C ) :   1.0759 B(  6-C ,  7-H ) :   0.9827 B(  6-C ,  8-C ) :   1.4974
B( 10-C , 11-O ) :   0.7162 B( 12-N , 13-H ) :   1.1505 B( 12-N , 14-C ) :   1.0141
B( 12-N , 15-O ) :   0.2032 B( 12-N , 22-C ) :   1.0416 B( 12-N , 23-O ) :   0.2450
B( 14-C , 15-O ) :   0.7235 B( 14-C , 20-C ) :   1.0693 B( 15-O , 20-C ) :   0.2245
B( 16-N , 18-C ) :   0.9381 B( 16-N , 21-H ) :   1.1335 B( 16-N , 22-C ) :   1.0084
B( 16-N , 23-O ) :   0.2251 B( 17-H , 20-C ) :   1.0759 B( 18-C , 19-H ) :   0.9827
B( 18-C , 20-C ) :   1.4974 B( 22-C , 23-O ) :   0.7162

MP2 TOTAL ENERGY:     -828.497765846 Eh
FINAL SINGLE POINT ENERGY      -828.497765846143

DIPOLE MOMENT
-------------
                                X             Y             Z
Electronic contribution:      0.00000      -0.00000       3.66527
Nuclear contribution   :     -0.00000      -0.00000      -5.91054
                        -----------------------------------------
Total Dipole Moment    :      0.00000      -0.00000      -2.24527
                        -----------------------------------------
Magnitude (a.u.)       :      2.24527
Magnitude (Debye)      :      5.70703

Rotational constants in cm-1:     0.022802     0.020422     0.019027
Rotational constants in MHz :   683.588557   612.221800   570.429856

                             ****ORCA TERMINATED NORMALLY****
TOTAL RUN TIME: 0 days 13 hours 57 minutes 46 seconds 222 msec
