                         Program Version 5.0.4 -  RELEASE  -
|  1> ! ri-mp2 aug-cc-pvdz aug-cc-pvdz/c tightscf
|  2> %pal nprocs 16 end
|  3> %maxcore 3800
|  4> %base "DZ_S66by10_11_1.0_dimer"
|  5> %scf STABPerform true end
|  6>
|  7> *xyz 0 1
|  8> N   -0.56970824    0.81437245    0.10109775
|  9> H    0.13087774    0.56141065   -0.58761455
| 10> H   -1.46125215    0.52691480   -0.28042996
| 11> C   -0.30551437    0.06571030    1.32879173
| 12> H   -1.05714948    0.31427017    2.07595940
| 13> H   -0.28802353   -1.02229248    1.21484626
| 14> H    0.66045772    0.36850913    1.73024224
| 15> C    2.29387868    2.68747033   -0.15439800
| 16> H    2.41849715    3.09864706   -1.15344233
| 17> H    2.80045005    3.32846288    0.56338652
| 18> H    1.22746692    2.66094080    0.06402343
| 19> C    2.80587037    1.26967265   -0.15210397
| 20> O    2.34589048    0.40393623   -0.89127858
| 21> N    3.79235334    0.99664030    0.74022674
| 22> H    4.19211436    1.75157308    1.26557950
| 23> C    4.38079868   -0.32295024    0.81772631
| 24> H    3.59262206   -1.06428039    0.72470571
| 25> H    5.10205846   -0.49494561    0.01918192
| 26> H    4.87545219   -0.43881843    1.77766584
| 27> *
| 28>
| 29> $new_job
| 30> ! ri-mp2 aug-cc-pvtz aug-cc-pvtz/c tightscf
| 31> %pal nprocs 16 end
| 32> %maxcore 3800
| 33> %base "TZ_S66by10_11_1.0_dimer"
| 34>
| 35> *xyz 0 1
| 36> N   -0.56970824    0.81437245    0.10109775
| 37> H    0.13087774    0.56141065   -0.58761455
| 38> H   -1.46125215    0.52691480   -0.28042996
| 39> C   -0.30551437    0.06571030    1.32879173
| 40> H   -1.05714948    0.31427017    2.07595940
| 41> H   -0.28802353   -1.02229248    1.21484626
| 42> H    0.66045772    0.36850913    1.73024224
| 43> C    2.29387868    2.68747033   -0.15439800
| 44> H    2.41849715    3.09864706   -1.15344233
| 45> H    2.80045005    3.32846288    0.56338652
| 46> H    1.22746692    2.66094080    0.06402343
| 47> C    2.80587037    1.26967265   -0.15210397
| 48> O    2.34589048    0.40393623   -0.89127858
| 49> N    3.79235334    0.99664030    0.74022674
| 50> H    4.19211436    1.75157308    1.26557950
| 51> C    4.38079868   -0.32295024    0.81772631
| 52> H    3.59262206   -1.06428039    0.72470571
| 53> H    5.10205846   -0.49494561    0.01918192
| 54> H    4.87545219   -0.43881843    1.77766584
| 55> *
| 56>
| 57> $new_job
| 58> ! ri-mp2 aug-cc-pvqz aug-cc-pvqz/c tightscf
| 59> %pal nprocs 16 end
| 60> %maxcore 3800
| 61> %base "QZ_S66by10_11_1.0_dimer"
| 62>
| 63> *xyz 0 1
| 64> N   -0.56970824    0.81437245    0.10109775
| 65> H    0.13087774    0.56141065   -0.58761455
| 66> H   -1.46125215    0.52691480   -0.28042996
| 67> C   -0.30551437    0.06571030    1.32879173
| 68> H   -1.05714948    0.31427017    2.07595940
| 69> H   -0.28802353   -1.02229248    1.21484626
| 70> H    0.66045772    0.36850913    1.73024224
| 71> C    2.29387868    2.68747033   -0.15439800
| 72> H    2.41849715    3.09864706   -1.15344233
| 73> H    2.80045005    3.32846288    0.56338652
| 74> H    1.22746692    2.66094080    0.06402343
| 75> C    2.80587037    1.26967265   -0.15210397
| 76> O    2.34589048    0.40393623   -0.89127858
| 77> N    3.79235334    0.99664030    0.74022674
| 78> H    4.19211436    1.75157308    1.26557950
| 79> C    4.38079868   -0.32295024    0.81772631
| 80> H    3.59262206   -1.06428039    0.72470571
| 81> H    5.10205846   -0.49494561    0.01918192
| 82> H    4.87545219   -0.43881843    1.77766584
| 83> *
| 84>
| 85>
| 86>
| 87>
| 88>                          ****END OF INPUT****
 Total Charge           Charge          ....    0
 Multiplicity           Mult            ....    1
 Number of Electrons    NEL             ....   58
MP2 TOTAL ENERGY:     -343.430496904 Eh
FINAL SINGLE POINT ENERGY      -343.430496904297
MP2 TOTAL ENERGY:     -343.747258679 Eh
FINAL SINGLE POINT ENERGY      -343.747258679311

CARTESIAN COORDINATES (ANGSTROEM)
---------------------------------
  N     -0.569708    0.814372    0.101098
  H      0.130878    0.561411   -0.587615
  H     -1.461252    0.526915   -0.280430
  C     -0.305514    0.065710    1.328792
  H     -1.057149    0.314270    2.075959
  H     -0.288024   -1.022292    1.214846
  H      0.660458    0.368509    1.730242
  C      2.293879    2.687470   -0.154398
  H      2.418497    3.098647   -1.153442
  H      2.800450    3.328463    0.563387
  H      1.227467    2.660941    0.064023
  C      2.805870    1.269673   -0.152104
  O      2.345890    0.403936   -0.891279
  N      3.792353    0.996640    0.740227
  H      4.192114    1.751573    1.265580
  C      4.380799   -0.322950    0.817726
  H      3.592622   -1.064280    0.724706
  H      5.102058   -0.494946    0.019182
  H      4.875452   -0.438818    1.777666

 Multiplicity           Mult            ....    1
 Number of Electrons    NEL             ....   58
 Basis Dimension        Dim             .... 1112

ORBITAL ENERGIES
----------------

  NO   OCC          E(Eh)            E(eV)
   0   2.0000     -20.511339      -558.1419
   1   2.0000     -15.586526      -424.1309
   2   2.0000     -15.519367      -422.3035
   3   2.0000     -11.347228      -308.7738
   4   2.0000     -11.258438      -306.3577
   5   2.0000     -11.228216      -305.5353
   6   2.0000     -11.226629      -305.4921
   7   2.0000      -1.376553       -37.4579
   8   2.0000      -1.231767       -33.5181
   9   2.0000      -1.155304       -31.4374
  10   2.0000      -1.016539       -27.6614
  11   2.0000      -0.932642       -25.3785
  12   2.0000      -0.882986       -24.0273
  13   2.0000      -0.792624       -21.5684
  14   2.0000      -0.689571       -18.7642
  15   2.0000      -0.656219       -17.8566
  16   2.0000      -0.654256       -17.8032
  17   2.0000      -0.629794       -17.1376
  18   2.0000      -0.592552       -16.1242
  19   2.0000      -0.581168       -15.8144
  20   2.0000      -0.580199       -15.7880
  21   2.0000      -0.556754       -15.1500
  22   2.0000      -0.547325       -14.8935
  23   2.0000      -0.540051       -14.6955
  24   2.0000      -0.504555       -13.7296
  25   2.0000      -0.502001       -13.6602
  26   2.0000      -0.424292       -11.5456
  27   2.0000      -0.396034       -10.7766
  28   2.0000      -0.379324       -10.3219
  29   0.0000       0.020053         0.5457
  30   0.0000       0.031093         0.8461
  31   0.0000       0.034064         0.9269
  32   0.0000       0.035476         0.9653
  33   0.0000       0.047439         1.2909

MULLIKEN ATOMIC CHARGES
-----------------------
   0 N :   -0.614027
   1 H :    0.326512
   2 H :    0.164654
   3 C :   -0.872829
   4 H :    0.374443
   5 H :    0.268544
   6 H :    0.316316
   7 C :   -0.829896
   8 H :    0.303726
   9 H :    0.249921
  10 H :    0.320011
  11 C :    1.150770
  12 O :   -0.966483
  13 N :   -0.576044
  14 H :    0.275118
  15 C :   -0.856958
  16 H :    0.307829
  17 H :    0.307658
  18 H :    0.350735
Sum of atomic charges:    0.0000000

LOEWDIN ATOMIC CHARGES
----------------------
   0 N :    1.255439
   1 H :   -0.638520
   2 H :   -0.512232
   3 C :    0.745996
   4 H :   -0.309414
   5 H :   -0.285688
   6 H :   -0.326006
   7 C :    0.899235
   8 H :   -0.289029
   9 H :   -0.307058
  10 H :   -0.339534
  11 C :   -0.837257
  12 O :    0.744002
  13 N :    0.825267
  14 H :   -0.504145
  15 C :    0.777605
  16 H :   -0.324086
  17 H :   -0.280412
  18 H :   -0.294163

  Mayer bond orders larger than 0.100000
B(  0-N ,  1-H ) :   0.8372 B(  0-N ,  2-H ) :   1.0227 B(  0-N ,  3-C ) :   0.9596
B(  3-C ,  4-H ) :   0.8661 B(  3-C ,  5-H ) :   0.9325 B(  3-C ,  6-H ) :   0.8717
B(  7-C ,  8-H ) :   0.9169 B(  7-C ,  9-H ) :   1.0050 B(  7-C , 10-H ) :   0.9010
B(  7-C , 11-C ) :   0.8223 B( 11-C , 12-O ) :   1.0708 B( 11-C , 13-N ) :   1.0481
B( 12-O , 13-N ) :   0.1723 B( 13-N , 14-H ) :   0.9531 B( 13-N , 15-C ) :   0.8401
B( 15-C , 16-H ) :   0.9486 B( 15-C , 17-H ) :   0.9411 B( 15-C , 18-H ) :   0.9054

MP2 TOTAL ENERGY:     -343.846784487 Eh
FINAL SINGLE POINT ENERGY      -343.846784486893

DIPOLE MOMENT
-------------
                                X             Y             Z
Electronic contribution:      3.32947       0.67183      -3.13660
Nuclear contribution   :     -2.44557      -0.29688       4.01132
                        -----------------------------------------
Total Dipole Moment    :      0.88390       0.37496       0.87472
                        -----------------------------------------
Magnitude (a.u.)       :      1.29884
Magnitude (Debye)      :      3.30140

Rotational constants in cm-1:     0.107938     0.043913     0.037452
Rotational constants in MHz :  3235.886660  1316.487818  1122.777972

                             ****ORCA TERMINATED NORMALLY****
TOTAL RUN TIME: 0 days 3 hours 31 minutes 53 seconds 484 msec
