                         Program Version 5.0.4 -  RELEASE  -
|  1> ! ri-mp2 aug-cc-pvdz aug-cc-pvdz/c tightscf
|  2> %pal nprocs 16 end
|  3> %maxcore 3800
|  4> %base "DZ_S66by10_45_0.95_dimer"
|  5> %scf STABPerform true end
|  6>
|  7> *xyz 0 1
|  8> C   -0.60618936    0.05587406    0.58900491
|  9> H   -1.66803667    0.05577624    0.58901162
| 10> C    0.60584873    0.05554087    0.58926624
| 11> H    1.66767817    0.05486328    0.58972794
| 12> C   -2.53041320   -0.34440529    4.05594940
| 13> H   -2.53877983   -1.00635883    3.18953881
| 14> H   -2.58233153   -0.97067451    4.94654017
| 15> H   -3.43282783    0.26449877    4.02318778
| 16> C   -1.26988108    0.51019543    4.06701867
| 17> H   -1.28653275    1.18319465    4.92742779
| 18> H   -1.24461409    1.14441143    3.17822256
| 19> C    0.00003754   -0.32813558    4.10747401
| 20> H    0.00004027   -0.94592522    5.01053540
| 21> H    0.00010464   -1.01643473    3.25823282
| 22> C    1.26993610    0.51024049    4.06710555
| 23> H    1.28656392    1.18320761    4.92752685
| 24> H    1.24479118    1.14441281    3.17830435
| 25> C    2.53045859   -0.34439609    4.05615913
| 26> H    2.53883836   -1.00637884    3.18978006
| 27> H    3.43283736    0.26453526    4.02343277
| 28> H    2.58227582   -0.97061082    4.94679268
| 29> *
| 30>
| 31> $new_job
| 32> ! ri-mp2 aug-cc-pvtz aug-cc-pvtz/c tightscf
| 33> %pal nprocs 16 end
| 34> %maxcore 3800
| 35> %base "TZ_S66by10_45_0.95_dimer"
| 36>
| 37> *xyz 0 1
| 38> C   -0.60618936    0.05587406    0.58900491
| 39> H   -1.66803667    0.05577624    0.58901162
| 40> C    0.60584873    0.05554087    0.58926624
| 41> H    1.66767817    0.05486328    0.58972794
| 42> C   -2.53041320   -0.34440529    4.05594940
| 43> H   -2.53877983   -1.00635883    3.18953881
| 44> H   -2.58233153   -0.97067451    4.94654017
| 45> H   -3.43282783    0.26449877    4.02318778
| 46> C   -1.26988108    0.51019543    4.06701867
| 47> H   -1.28653275    1.18319465    4.92742779
| 48> H   -1.24461409    1.14441143    3.17822256
| 49> C    0.00003754   -0.32813558    4.10747401
| 50> H    0.00004027   -0.94592522    5.01053540
| 51> H    0.00010464   -1.01643473    3.25823282
| 52> C    1.26993610    0.51024049    4.06710555
| 53> H    1.28656392    1.18320761    4.92752685
| 54> H    1.24479118    1.14441281    3.17830435
| 55> C    2.53045859   -0.34439609    4.05615913
| 56> H    2.53883836   -1.00637884    3.18978006
| 57> H    3.43283736    0.26453526    4.02343277
| 58> H    2.58227582   -0.97061082    4.94679268
| 59> *
| 60>
| 61> $new_job
| 62> ! ri-mp2 aug-cc-pvqz aug-cc-pvqz/c tightscf
| 63> %pal nprocs 16 end
| 64> %maxcore 3800
| 65> %base "QZ_S66by10_45_0.95_dimer"
| 66>
| 67> *xyz 0 1
| 68> C   -0.60618936    0.05587406    0.58900491
| 69> H   -1.66803667    0.05577624    0.58901162
| 70> C    0.60584873    0.05554087    0.58926624
| 71> H    1.66767817    0.05486328    0.58972794
| 72> C   -2.53041320   -0.34440529    4.05594940
| 73> H   -2.53877983   -1.00635883    3.18953881
| 74> H   -2.58233153   -0.97067451    4.94654017
| 75> H   -3.43282783    0.26449877    4.02318778
| 76> C   -1.26988108    0.51019543    4.06701867
| 77> H   -1.28653275    1.18319465    4.92742779
| 78> H   -1.24461409    1.14441143    3.17822256
| 79> C    0.00003754   -0.32813558    4.10747401
| 80> H    0.00004027   -0.94592522    5.01053540
| 81> H    0.00010464   -1.01643473    3.25823282
| 82> C    1.26993610    0.51024049    4.06710555
| 83> H    1.28656392    1.18320761    4.92752685
| 84> H    1.24479118    1.14441281    3.17830435
| 85> C    2.53045859   -0.34439609    4.05615913
| 86> H    2.53883836   -1.00637884    3.18978006
| 87> H    3.43283736    0.26453526    4.02343277
| 88> H    2.58227582   -0.97061082    4.94679268
| 89> *
| 90>
| 91>
| 92>
| 93>
| 94>                          ****END OF INPUT****
 Total Charge           Charge          ....    0
 Multiplicity           Mult            ....    1
 Number of Electrons    NEL             ....   56
MP2 TOTAL ENERGY:     -274.209841058 Eh
FINAL SINGLE POINT ENERGY      -274.209841057535
MP2 TOTAL ENERGY:     -274.478252341 Eh
FINAL SINGLE POINT ENERGY      -274.478252341308

CARTESIAN COORDINATES (ANGSTROEM)
---------------------------------
  C     -0.606189    0.055874    0.589005
  H     -1.668037    0.055776    0.589012
  C      0.605849    0.055541    0.589266
  H      1.667678    0.054863    0.589728
  C     -2.530413   -0.344405    4.055949
  H     -2.538780   -1.006359    3.189539
  H     -2.582332   -0.970675    4.946540
  H     -3.432828    0.264499    4.023188
  C     -1.269881    0.510195    4.067019
  H     -1.286533    1.183195    4.927428
  H     -1.244614    1.144411    3.178223
  C      0.000038   -0.328136    4.107474
  H      0.000040   -0.945925    5.010535
  H      0.000105   -1.016435    3.258233
  C      1.269936    0.510240    4.067106
  H      1.286564    1.183208    4.927527
  H      1.244791    1.144413    3.178304
  C      2.530459   -0.344396    4.056159
  H      2.538838   -1.006379    3.189780
  H      3.432837    0.264535    4.023433
  H      2.582276   -0.970611    4.946793

 Multiplicity           Mult            ....    1
 Number of Electrons    NEL             ....   56
 Basis Dimension        Dim             .... 1204

ORBITAL ENERGIES
----------------

  NO   OCC          E(Eh)            E(eV)
   0   2.0000     -11.245908      -306.0167
   1   2.0000     -11.242293      -305.9184
   2   2.0000     -11.207725      -304.9777
   3   2.0000     -11.207694      -304.9769
   4   2.0000     -11.205716      -304.9230
   5   2.0000     -11.205715      -304.9230
   6   2.0000     -11.202985      -304.8487
   7   2.0000      -1.078097       -29.3365
   8   2.0000      -1.029259       -28.0076
   9   2.0000      -1.013552       -27.5801
  10   2.0000      -0.917008       -24.9531
  11   2.0000      -0.817899       -22.2562
  12   2.0000      -0.781417       -21.2634
  13   2.0000      -0.771215       -20.9858
  14   2.0000      -0.683386       -18.5959
  15   2.0000      -0.644796       -17.5458
  16   2.0000      -0.596726       -16.2377
  17   2.0000      -0.591471       -16.0947
  18   2.0000      -0.551400       -15.0043
  19   2.0000      -0.547154       -14.8888
  20   2.0000      -0.524411       -14.2700
  21   2.0000      -0.493060       -13.4168
  22   2.0000      -0.474371       -12.9083
  23   2.0000      -0.459702       -12.5091
  24   2.0000      -0.457494       -12.4490
  25   2.0000      -0.443991       -12.0816
  26   2.0000      -0.409044       -11.1306
  27   2.0000      -0.408284       -11.1100
  28   0.0000       0.026593         0.7236
  29   0.0000       0.027285         0.7425
  30   0.0000       0.034038         0.9262
  31   0.0000       0.034470         0.9380
  32   0.0000       0.040360         1.0983

MULLIKEN ATOMIC CHARGES
-----------------------
   0 C :   -0.559175
   1 H :    0.541131
   2 C :   -0.559044
   3 H :    0.541127
   4 C :   -0.942933
   5 H :    0.227522
   6 H :    0.253906
   7 H :    0.254795
   8 C :   -0.529110
   9 H :    0.291446
  10 H :    0.254150
  11 C :   -0.177443
  12 H :    0.297748
  13 H :    0.296039
  14 C :   -0.529065
  15 H :    0.291449
  16 H :    0.254123
  17 C :   -0.942933
  18 H :    0.227567
  19 H :    0.254793
  20 H :    0.253905
Sum of atomic charges:    0.0000000

LOEWDIN ATOMIC CHARGES
----------------------
   0 C :    0.508434
   1 H :   -0.445207
   2 C :    0.508420
   3 H :   -0.445226
   4 C :    0.923858
   5 H :   -0.292456
   6 H :   -0.283606
   7 H :   -0.281609
   8 C :    0.489966
   9 H :   -0.266936
  10 H :   -0.302527
  11 C :    0.472100
  12 H :   -0.263296
  13 H :   -0.308612
  14 C :    0.489980
  15 H :   -0.266938
  16 H :   -0.302530
  17 C :    0.923868
  18 H :   -0.292463
  19 H :   -0.281619
  20 H :   -0.283600

  Mayer bond orders larger than 0.100000
B(  0-C ,  1-H ) :   0.7183 B(  0-C ,  2-C ) :   2.5734 B(  2-C ,  3-H ) :   0.7183
B(  4-C ,  5-H ) :   0.9433 B(  4-C ,  6-H ) :   0.9609 B(  4-C ,  7-H ) :   1.0340
B(  4-C ,  8-C ) :   0.9857 B(  4-C , 11-C ) :  -0.1079 B(  8-C ,  9-H ) :   0.8669
B(  8-C , 10-H ) :   0.8828 B(  8-C , 11-C ) :   0.7991 B( 11-C , 12-H ) :   0.8776
B( 11-C , 13-H ) :   0.8636 B( 11-C , 14-C ) :   0.7991 B( 11-C , 17-C ) :  -0.1079
B( 14-C , 15-H ) :   0.8669 B( 14-C , 16-H ) :   0.8828 B( 14-C , 17-C ) :   0.9857
B( 17-C , 18-H ) :   0.9433 B( 17-C , 19-H ) :   1.0340 B( 17-C , 20-H ) :   0.9609

MP2 TOTAL ENERGY:     -274.557900694 Eh
FINAL SINGLE POINT ENERGY      -274.557900694167

DIPOLE MOMENT
-------------
                                X             Y             Z
Electronic contribution:     -0.00036       0.71876      -5.56789
Nuclear contribution   :      0.00033      -0.68389       5.55453
                        -----------------------------------------
Total Dipole Moment    :     -0.00002       0.03487      -0.01336
                        -----------------------------------------
Magnitude (a.u.)       :      0.03734
Magnitude (Debye)      :      0.09491

Rotational constants in cm-1:     0.064448     0.059044     0.033492
Rotational constants in MHz :  1932.112290  1770.103711  1004.050983

                             ****ORCA TERMINATED NORMALLY****
TOTAL RUN TIME: 0 days 3 hours 47 minutes 2 seconds 16 msec
