                         Program Version 5.0.4 -  RELEASE  -
|  1> ! ri-mp2 aug-cc-pvdz aug-cc-pvdz/c tightscf
|  2> %pal nprocs 16 end
|  3> %maxcore 3800
|  4> %base "DZ_S66by10_62_0.95_dimer"
|  5> %scf STABPerform true end
|  6>
|  7> *xyz 0 1
|  8> C   -2.58777605   -0.32310566    0.46945828
|  9> H   -2.61038910   -0.87636604   -0.46961946
| 10> H   -2.65974410   -1.05188654    1.27771411
| 11> H   -3.47603507    0.30562460    0.50896129
| 12> C   -1.30955982    0.49739424    0.58506260
| 13> H   -1.31725060    1.08326190    1.50634108
| 14> H   -1.26237673    1.21557375   -0.23677617
| 15> C   -0.05682966   -0.36826029    0.55844017
| 16> H   -0.08617526   -1.07335882    1.39587537
| 17> H   -0.05380919   -0.97684333   -0.35147393
| 18> C    1.23159606    0.44006559    0.63203246
| 19> H    1.21328340    1.05356193    1.53459305
| 20> H    1.26629733    1.13137662   -0.21310563
| 21> C    2.47257523   -0.44314441    0.61922148
| 22> H    2.52071888   -1.03526342   -0.29489695
| 23> H    3.38773437    0.14408974    0.68390871
| 24> H    2.45929703   -1.13936423    1.45861821
| 25> C    0.04079603    0.19832017    4.05225321
| 26> O    0.06770830    1.38339365    3.76041202
| 27> N    1.17337630   -0.55355748    4.15507316
| 28> H    2.04431656   -0.13097696    3.88641090
| 29> H    1.13443834   -1.54544414    4.28649608
| 30> C   -1.24942495   -0.54061732    4.31670704
| 31> H   -1.10217495   -1.50133868    4.80383141
| 32> H   -1.75565247   -0.69892625    3.36589369
| 33> H   -1.88736890    0.08661911    4.93197889
| 34> *
| 35>
| 36> $new_job
| 37> ! ri-mp2 aug-cc-pvtz aug-cc-pvtz/c tightscf
| 38> %pal nprocs 16 end
| 39> %maxcore 3800
| 40> %base "TZ_S66by10_62_0.95_dimer"
| 41>
| 42> *xyz 0 1
| 43> C   -2.58777605   -0.32310566    0.46945828
| 44> H   -2.61038910   -0.87636604   -0.46961946
| 45> H   -2.65974410   -1.05188654    1.27771411
| 46> H   -3.47603507    0.30562460    0.50896129
| 47> C   -1.30955982    0.49739424    0.58506260
| 48> H   -1.31725060    1.08326190    1.50634108
| 49> H   -1.26237673    1.21557375   -0.23677617
| 50> C   -0.05682966   -0.36826029    0.55844017
| 51> H   -0.08617526   -1.07335882    1.39587537
| 52> H   -0.05380919   -0.97684333   -0.35147393
| 53> C    1.23159606    0.44006559    0.63203246
| 54> H    1.21328340    1.05356193    1.53459305
| 55> H    1.26629733    1.13137662   -0.21310563
| 56> C    2.47257523   -0.44314441    0.61922148
| 57> H    2.52071888   -1.03526342   -0.29489695
| 58> H    3.38773437    0.14408974    0.68390871
| 59> H    2.45929703   -1.13936423    1.45861821
| 60> C    0.04079603    0.19832017    4.05225321
| 61> O    0.06770830    1.38339365    3.76041202
| 62> N    1.17337630   -0.55355748    4.15507316
| 63> H    2.04431656   -0.13097696    3.88641090
| 64> H    1.13443834   -1.54544414    4.28649608
| 65> C   -1.24942495   -0.54061732    4.31670704
| 66> H   -1.10217495   -1.50133868    4.80383141
| 67> H   -1.75565247   -0.69892625    3.36589369
| 68> H   -1.88736890    0.08661911    4.93197889
| 69> *
| 70>
| 71> $new_job
| 72> ! ri-mp2 aug-cc-pvqz aug-cc-pvqz/c tightscf
| 73> %pal nprocs 16 end
| 74> %maxcore 3800
| 75> %base "QZ_S66by10_62_0.95_dimer"
| 76>
| 77> *xyz 0 1
| 78> C   -2.58777605   -0.32310566    0.46945828
| 79> H   -2.61038910   -0.87636604   -0.46961946
| 80> H   -2.65974410   -1.05188654    1.27771411
| 81> H   -3.47603507    0.30562460    0.50896129
| 82> C   -1.30955982    0.49739424    0.58506260
| 83> H   -1.31725060    1.08326190    1.50634108
| 84> H   -1.26237673    1.21557375   -0.23677617
| 85> C   -0.05682966   -0.36826029    0.55844017
| 86> H   -0.08617526   -1.07335882    1.39587537
| 87> H   -0.05380919   -0.97684333   -0.35147393
| 88> C    1.23159606    0.44006559    0.63203246
| 89> H    1.21328340    1.05356193    1.53459305
| 90> H    1.26629733    1.13137662   -0.21310563
| 91> C    2.47257523   -0.44314441    0.61922148
| 92> H    2.52071888   -1.03526342   -0.29489695
| 93> H    3.38773437    0.14408974    0.68390871
| 94> H    2.45929703   -1.13936423    1.45861821
| 95> C    0.04079603    0.19832017    4.05225321
| 96> O    0.06770830    1.38339365    3.76041202
| 97> N    1.17337630   -0.55355748    4.15507316
| 98> H    2.04431656   -0.13097696    3.88641090
| 99> H    1.13443834   -1.54544414    4.28649608
|100> C   -1.24942495   -0.54061732    4.31670704
|101> H   -1.10217495   -1.50133868    4.80383141
|102> H   -1.75565247   -0.69892625    3.36589369
|103> H   -1.88736890    0.08661911    4.93197889
|104> *
|105>
|106>
|107>
|108>
|109>                          ****END OF INPUT****
 Total Charge           Charge          ....    0
 Multiplicity           Mult            ....    1
 Number of Electrons    NEL             ....   74
MP2 TOTAL ENERGY:     -405.790723016 Eh
FINAL SINGLE POINT ENERGY      -405.790723015836
MP2 TOTAL ENERGY:     -406.171888047 Eh
FINAL SINGLE POINT ENERGY      -406.171888047323

CARTESIAN COORDINATES (ANGSTROEM)
---------------------------------
  C     -2.587776   -0.323106    0.469458
  H     -2.610389   -0.876366   -0.469619
  H     -2.659744   -1.051887    1.277714
  H     -3.476035    0.305625    0.508961
  C     -1.309560    0.497394    0.585063
  H     -1.317251    1.083262    1.506341
  H     -1.262377    1.215574   -0.236776
  C     -0.056830   -0.368260    0.558440
  H     -0.086175   -1.073359    1.395875
  H     -0.053809   -0.976843   -0.351474
  C      1.231596    0.440066    0.632032
  H      1.213283    1.053562    1.534593
  H      1.266297    1.131377   -0.213106
  C      2.472575   -0.443144    0.619221
  H      2.520719   -1.035263   -0.294897
  H      3.387734    0.144090    0.683909
  H      2.459297   -1.139364    1.458618
  C      0.040796    0.198320    4.052253
  O      0.067708    1.383394    3.760412
  N      1.173376   -0.553557    4.155073
  H      2.044317   -0.130977    3.886411
  H      1.134438   -1.545444    4.286496
  C     -1.249425   -0.540617    4.316707
  H     -1.102175   -1.501339    4.803831
  H     -1.755652   -0.698926    3.365894
  H     -1.887369    0.086619    4.931979

 Multiplicity           Mult            ....    1
 Number of Electrons    NEL             ....   74
 Basis Dimension        Dim             .... 1502

ORBITAL ENERGIES
----------------

  NO   OCC          E(Eh)            E(eV)
   0   2.0000     -20.516596      -558.2850
   1   2.0000     -15.586927      -424.1418
   2   2.0000     -11.355248      -308.9920
   3   2.0000     -11.237533      -305.7888
   4   2.0000     -11.206315      -304.9393
   5   2.0000     -11.205786      -304.9249
   6   2.0000     -11.205021      -304.9041
   7   2.0000     -11.203253      -304.8560
   8   2.0000     -11.202555      -304.8370
   9   2.0000      -1.381026       -37.5796
  10   2.0000      -1.216186       -33.0941
  11   2.0000      -1.076614       -29.2961
  12   2.0000      -1.012690       -27.5567
  13   2.0000      -1.007666       -27.4200
  14   2.0000      -0.917045       -24.9541
  15   2.0000      -0.816144       -22.2084
  16   2.0000      -0.802868       -21.8472
  17   2.0000      -0.780281       -21.2325
  18   2.0000      -0.730674       -19.8827
  19   2.0000      -0.668260       -18.1843
  20   2.0000      -0.651344       -17.7240
  21   2.0000      -0.611754       -16.6467
  22   2.0000      -0.595400       -16.2017
  23   2.0000      -0.591532       -16.0964
  24   2.0000      -0.589493       -16.0409
  25   2.0000      -0.564219       -15.3532
  26   2.0000      -0.550792       -14.9878
  27   2.0000      -0.546534       -14.8720
  28   2.0000      -0.530288       -14.4299
  29   2.0000      -0.521829       -14.1997
  30   2.0000      -0.491208       -13.3665
  31   2.0000      -0.472314       -12.8523
  32   2.0000      -0.457698       -12.4546
  33   2.0000      -0.455556       -12.3963
  34   2.0000      -0.442809       -12.0494
  35   2.0000      -0.427968       -11.6456
  36   2.0000      -0.416160       -11.3243
  37   0.0000       0.018898         0.5143
  38   0.0000       0.027934         0.7601
  39   0.0000       0.030794         0.8379
  40   0.0000       0.033701         0.9171
  41   0.0000       0.040574         1.1041

MULLIKEN ATOMIC CHARGES
-----------------------
   0 C :   -0.994481
   1 H :    0.235232
   2 H :    0.246216
   3 H :    0.237296
   4 C :   -0.508414
   5 H :    0.291397
   6 H :    0.289630
   7 C :   -0.215150
   8 H :    0.233551
   9 H :    0.305815
  10 C :   -0.573256
  11 H :    0.297050
  12 H :    0.301417
  13 C :   -0.997302
  14 H :    0.267133
  15 H :    0.253776
  16 H :    0.260032
  17 C :    1.298720
  18 O :   -0.976164
  19 N :   -0.832315
  20 H :    0.275747
  21 H :    0.287084
  22 C :   -0.861033
  23 H :    0.272252
  24 H :    0.322963
  25 H :    0.282803
Sum of atomic charges:   -0.0000000

LOEWDIN ATOMIC CHARGES
----------------------
   0 C :    0.930508
   1 H :   -0.282281
   2 H :   -0.300867
   3 H :   -0.277247
   4 C :    0.504172
   5 H :   -0.307478
   6 H :   -0.266010
   7 C :    0.484099
   8 H :   -0.292939
   9 H :   -0.263278
  10 C :    0.499977
  11 H :   -0.328416
  12 H :   -0.265721
  13 C :    0.924645
  14 H :   -0.283423
  15 H :   -0.279758
  16 H :   -0.302704
  17 C :   -0.844194
  18 O :    0.721238
  19 N :    1.253783
  20 H :   -0.501418
  21 H :   -0.494031
  22 C :    0.898009
  23 H :   -0.300087
  24 H :   -0.330796
  25 H :   -0.295781

  Mayer bond orders larger than 0.100000
B(  0-C ,  1-H ) :   0.9963 B(  0-C ,  2-H ) :   0.9179 B(  0-C ,  3-H ) :   1.0542
B(  0-C ,  4-C ) :   0.9708 B(  0-C ,  7-C ) :  -0.1241 B(  3-H ,  4-C ) :  -0.1040
B(  4-C ,  5-H ) :   0.8610 B(  4-C ,  6-H ) :   0.8821 B(  4-C ,  7-C ) :   0.7744
B(  7-C ,  8-H ) :   0.8475 B(  7-C ,  9-H ) :   0.8933 B(  7-C , 10-C ) :   0.8141
B(  7-C , 13-C ) :  -0.1012 B( 10-C , 11-H ) :   0.8583 B( 10-C , 12-H ) :   0.8547
B( 10-C , 13-C ) :   0.9906 B( 13-C , 14-H ) :   0.9521 B( 13-C , 15-H ) :   1.0382
B( 13-C , 16-H ) :   0.9297 B( 17-C , 18-O ) :   1.0568 B( 17-C , 19-N ) :   0.9636
B( 17-C , 22-C ) :   0.8869 B( 18-O , 19-N ) :   0.1372 B( 19-N , 20-H ) :   0.9288
B( 19-N , 21-H ) :   0.9268 B( 22-C , 23-H ) :   1.0003 B( 22-C , 24-H ) :   0.7923
B( 22-C , 25-H ) :   0.9806

MP2 TOTAL ENERGY:     -406.289331197 Eh
FINAL SINGLE POINT ENERGY      -406.289331197384

DIPOLE MOMENT
-------------
                                X             Y             Z
Electronic contribution:      1.93702       3.60606       8.14455
Nuclear contribution   :     -1.77423      -5.02955      -7.85108
                        -----------------------------------------
Total Dipole Moment    :      0.16280      -1.42349       0.29347
                        -----------------------------------------
Magnitude (a.u.)       :      1.46252
Magnitude (Debye)      :      3.71742

Rotational constants in cm-1:     0.046086     0.035371     0.023721
Rotational constants in MHz :  1381.630240  1060.405065   711.151282

                             ****ORCA TERMINATED NORMALLY****
TOTAL RUN TIME: 0 days 8 hours 57 minutes 24 seconds 302 msec
