                         Program Version 5.0.4 -  RELEASE  -
|  1> ! ri-mp2 aug-cc-pvdz aug-cc-pvdz/c tightscf
|  2> %pal nprocs 16 end
|  3> %maxcore 3800
|  4> %base "DZ_S66by10_44_0.95_dimer"
|  5> %scf STABPerform true end
|  6>
|  7> *xyz 0 1
|  8> C    0.66640038    0.18381078    0.41973683
|  9> H    1.22888182   -0.32988301    1.18625971
| 10> H    1.22803556    0.69720813   -0.34760989
| 11> C   -0.66597358    0.18297343    0.41961191
| 12> H   -1.22792171   -0.33149890    1.18610334
| 13> H   -1.22818427    0.69564575   -0.34774808
| 14> C   -2.53275360   -0.38814618    4.06053820
| 15> H   -2.56224704   -1.00116696    3.15934832
| 16> H   -2.56888755   -1.06236680    4.91615521
| 17> H   -3.43392496    0.22287025    4.07778414
| 18> C   -1.27131712    0.46452924    4.09635614
| 19> H   -1.27172298    1.08462281    4.99575008
| 20> H   -1.26292877    1.15143755    3.24729572
| 21> C   -0.00004286   -0.37302833    4.06941293
| 22> H   -0.00019691   -1.05970104    4.92124494
| 23> H    0.00009821   -1.00060617    3.17277044
| 24> C    1.27117755    0.46455810    4.09681747
| 25> H    1.27145055    1.08436885    4.99630288
| 26> H    1.26298273    1.15163274    3.24790984
| 27> C    2.53262893   -0.38816642    4.06099328
| 28> H    2.56225240   -1.00102292    3.15968411
| 29> H    3.43380704    0.22276975    4.07857132
| 30> H    2.56854729   -1.06262250    4.91649899
| 31> *
| 32>
| 33> $new_job
| 34> ! ri-mp2 aug-cc-pvtz aug-cc-pvtz/c tightscf
| 35> %pal nprocs 16 end
| 36> %maxcore 3800
| 37> %base "TZ_S66by10_44_0.95_dimer"
| 38>
| 39> *xyz 0 1
| 40> C    0.66640038    0.18381078    0.41973683
| 41> H    1.22888182   -0.32988301    1.18625971
| 42> H    1.22803556    0.69720813   -0.34760989
| 43> C   -0.66597358    0.18297343    0.41961191
| 44> H   -1.22792171   -0.33149890    1.18610334
| 45> H   -1.22818427    0.69564575   -0.34774808
| 46> C   -2.53275360   -0.38814618    4.06053820
| 47> H   -2.56224704   -1.00116696    3.15934832
| 48> H   -2.56888755   -1.06236680    4.91615521
| 49> H   -3.43392496    0.22287025    4.07778414
| 50> C   -1.27131712    0.46452924    4.09635614
| 51> H   -1.27172298    1.08462281    4.99575008
| 52> H   -1.26292877    1.15143755    3.24729572
| 53> C   -0.00004286   -0.37302833    4.06941293
| 54> H   -0.00019691   -1.05970104    4.92124494
| 55> H    0.00009821   -1.00060617    3.17277044
| 56> C    1.27117755    0.46455810    4.09681747
| 57> H    1.27145055    1.08436885    4.99630288
| 58> H    1.26298273    1.15163274    3.24790984
| 59> C    2.53262893   -0.38816642    4.06099328
| 60> H    2.56225240   -1.00102292    3.15968411
| 61> H    3.43380704    0.22276975    4.07857132
| 62> H    2.56854729   -1.06262250    4.91649899
| 63> *
| 64>
| 65> $new_job
| 66> ! ri-mp2 aug-cc-pvqz aug-cc-pvqz/c tightscf
| 67> %pal nprocs 16 end
| 68> %maxcore 3800
| 69> %base "QZ_S66by10_44_0.95_dimer"
| 70>
| 71> *xyz 0 1
| 72> C    0.66640038    0.18381078    0.41973683
| 73> H    1.22888182   -0.32988301    1.18625971
| 74> H    1.22803556    0.69720813   -0.34760989
| 75> C   -0.66597358    0.18297343    0.41961191
| 76> H   -1.22792171   -0.33149890    1.18610334
| 77> H   -1.22818427    0.69564575   -0.34774808
| 78> C   -2.53275360   -0.38814618    4.06053820
| 79> H   -2.56224704   -1.00116696    3.15934832
| 80> H   -2.56888755   -1.06236680    4.91615521
| 81> H   -3.43392496    0.22287025    4.07778414
| 82> C   -1.27131712    0.46452924    4.09635614
| 83> H   -1.27172298    1.08462281    4.99575008
| 84> H   -1.26292877    1.15143755    3.24729572
| 85> C   -0.00004286   -0.37302833    4.06941293
| 86> H   -0.00019691   -1.05970104    4.92124494
| 87> H    0.00009821   -1.00060617    3.17277044
| 88> C    1.27117755    0.46455810    4.09681747
| 89> H    1.27145055    1.08436885    4.99630288
| 90> H    1.26298273    1.15163274    3.24790984
| 91> C    2.53262893   -0.38816642    4.06099328
| 92> H    2.56225240   -1.00102292    3.15968411
| 93> H    3.43380704    0.22276975    4.07857132
| 94> H    2.56854729   -1.06262250    4.91649899
| 95> *
| 96>
| 97>
| 98>
| 99>
|100>                          ****END OF INPUT****
 Total Charge           Charge          ....    0
 Multiplicity           Mult            ....    1
 Number of Electrons    NEL             ....   58
MP2 TOTAL ENERGY:     -275.446186486 Eh
FINAL SINGLE POINT ENERGY      -275.446186486316
MP2 TOTAL ENERGY:     -275.719049006 Eh
FINAL SINGLE POINT ENERGY      -275.719049005958

CARTESIAN COORDINATES (ANGSTROEM)
---------------------------------
  C      0.666400    0.183811    0.419737
  H      1.228882   -0.329883    1.186260
  H      1.228036    0.697208   -0.347610
  C     -0.665974    0.182973    0.419612
  H     -1.227922   -0.331499    1.186103
  H     -1.228184    0.695646   -0.347748
  C     -2.532754   -0.388146    4.060538
  H     -2.562247   -1.001167    3.159348
  H     -2.568888   -1.062367    4.916155
  H     -3.433925    0.222870    4.077784
  C     -1.271317    0.464529    4.096356
  H     -1.271723    1.084623    4.995750
  H     -1.262929    1.151438    3.247296
  C     -0.000043   -0.373028    4.069413
  H     -0.000197   -1.059701    4.921245
  H      0.000098   -1.000606    3.172770
  C      1.271178    0.464558    4.096817
  H      1.271451    1.084369    4.996303
  H      1.262983    1.151633    3.247910
  C      2.532629   -0.388166    4.060993
  H      2.562252   -1.001023    3.159684
  H      3.433807    0.222770    4.078571
  H      2.568547   -1.062623    4.916499

 Multiplicity           Mult            ....    1
 Number of Electrons    NEL             ....   58
 Basis Dimension        Dim             .... 1296

ORBITAL ENERGIES
----------------

  NO   OCC          E(Eh)            E(eV)
   0   2.0000     -11.229690      -305.5754
   1   2.0000     -11.227964      -305.5284
   2   2.0000     -11.210700      -305.0587
   3   2.0000     -11.210549      -305.0546
   4   2.0000     -11.209321      -305.0211
   5   2.0000     -11.207331      -304.9670
   6   2.0000     -11.207324      -304.9668
   7   2.0000      -1.081654       -29.4333
   8   2.0000      -1.034878       -28.1605
   9   2.0000      -1.015927       -27.6448
  10   2.0000      -0.919835       -25.0300
  11   2.0000      -0.820370       -22.3234
  12   2.0000      -0.794218       -21.6118
  13   2.0000      -0.785377       -21.3712
  14   2.0000      -0.660221       -17.9655
  15   2.0000      -0.634457       -17.2645
  16   2.0000      -0.599204       -16.3052
  17   2.0000      -0.594754       -16.1841
  18   2.0000      -0.587478       -15.9861
  19   2.0000      -0.554693       -15.0940
  20   2.0000      -0.548727       -14.9316
  21   2.0000      -0.527110       -14.3434
  22   2.0000      -0.508964       -13.8496
  23   2.0000      -0.494614       -13.4591
  24   2.0000      -0.476663       -12.9706
  25   2.0000      -0.462022       -12.5723
  26   2.0000      -0.460122       -12.5206
  27   2.0000      -0.447173       -12.1682
  28   2.0000      -0.377109       -10.2617
  29   0.0000       0.026258         0.7145
  30   0.0000       0.028654         0.7797
  31   0.0000       0.031567         0.8590
  32   0.0000       0.034307         0.9335
  33   0.0000       0.043083         1.1723

MULLIKEN ATOMIC CHARGES
-----------------------
   0 C :   -1.027774
   1 H :    0.600699
   2 H :    0.399500
   3 C :   -1.027704
   4 H :    0.600836
   5 H :    0.399609
   6 C :   -0.964180
   7 H :    0.256452
   8 H :    0.225954
   9 H :    0.250773
  10 C :   -0.495236
  11 H :    0.296485
  12 H :    0.250607
  13 C :   -0.182125
  14 H :    0.290264
  15 H :    0.304995
  16 C :   -0.495260
  17 H :    0.296575
  18 H :    0.250598
  19 C :   -0.964244
  20 H :    0.256500
  21 H :    0.250789
  22 H :    0.225887
Sum of atomic charges:    0.0000000

LOEWDIN ATOMIC CHARGES
----------------------
   0 C :    0.774549
   1 H :   -0.393559
   2 H :   -0.355054
   3 C :    0.774533
   4 H :   -0.393490
   5 H :   -0.355084
   6 C :    0.929501
   7 H :   -0.293825
   8 H :   -0.282645
   9 H :   -0.278920
  10 C :    0.499619
  11 H :   -0.267566
  12 H :   -0.290638
  13 C :    0.481963
  14 H :   -0.262561
  15 H :   -0.302337
  16 C :    0.499660
  17 H :   -0.267646
  18 H :   -0.290649
  19 C :    0.929517
  20 H :   -0.293814
  21 H :   -0.278957
  22 H :   -0.282595

  Mayer bond orders larger than 0.100000
B(  0-C ,  1-H ) :   0.5054 B(  0-C ,  2-H ) :   0.9138 B(  0-C ,  3-C ) :   2.1085
B(  3-C ,  4-H ) :   0.5052 B(  3-C ,  5-H ) :   0.9137 B(  6-C ,  7-H ) :   0.9150
B(  6-C ,  8-H ) :   0.9907 B(  6-C ,  9-H ) :   1.0382 B(  6-C , 10-C ) :   0.9907
B(  6-C , 13-C ) :  -0.1186 B( 10-C , 11-H ) :   0.8709 B( 10-C , 12-H ) :   0.8846
B( 10-C , 13-C ) :   0.8079 B( 13-C , 14-H ) :   0.8813 B( 13-C , 15-H ) :   0.8461
B( 13-C , 16-C ) :   0.8079 B( 13-C , 19-C ) :  -0.1187 B( 16-C , 17-H ) :   0.8709
B( 16-C , 18-H ) :   0.8846 B( 16-C , 19-C ) :   0.9906 B( 19-C , 20-H ) :   0.9149
B( 19-C , 21-H ) :   1.0382 B( 19-C , 22-H ) :   0.9908

MP2 TOTAL ENERGY:     -275.800057269 Eh
FINAL SINGLE POINT ENERGY      -275.800057269078

DIPOLE MOMENT
-------------
                                X             Y             Z
Electronic contribution:      0.00017       0.76674      -1.59511
Nuclear contribution   :     -0.00018      -0.68739       1.61807
                        -----------------------------------------
Total Dipole Moment    :     -0.00002       0.07934       0.02296
                        -----------------------------------------
Magnitude (a.u.)       :      0.08260
Magnitude (Debye)      :      0.20995

Rotational constants in cm-1:     0.058302     0.055399     0.030761
Rotational constants in MHz :  1747.846871  1660.824651   922.177249

                             ****ORCA TERMINATED NORMALLY****
TOTAL RUN TIME: 0 days 3 hours 9 minutes 7 seconds 52 msec
