                         Program Version 5.0.4 -  RELEASE  -
|  1> ! ri-mp2 aug-cc-pvdz aug-cc-pvdz/c tightscf
|  2> %pal nprocs 16 end
|  3> %maxcore 3800
|  4> %base "DZ_S66by10_38_1.05_dimer"
|  5> %scf STABPerform true end
|  6>
|  7> *xyz 0 1
|  8> C    0.95688019   -0.89184563    1.14195000
|  9> H    1.50456597   -1.27835762    0.28342019
| 10> H    1.42138447   -1.31477793    2.03102546
| 11> C    0.99094943    0.65850830    1.14550384
| 12> H    1.51059446    1.02309646    0.25994788
| 13> H    1.51625823    1.05981813    2.01053703
| 14> C   -0.47945194    1.10231879    1.10387910
| 15> H   -0.61626861    2.06487722    0.61356737
| 16> H   -0.87474223    1.18907144    2.11806960
| 17> C   -1.18210650   -0.05279656    0.39334575
| 18> H   -0.94888216   -0.02683030   -0.67380459
| 19> H   -2.26566452   -0.03356474    0.50127403
| 20> C   -0.53065958   -1.27488954    1.03930959
| 21> H   -0.69039061   -2.19702093    0.48299221
| 22> H   -0.95084939   -1.41541197    2.03674782
| 23> C   -1.12837924   -0.37667008    5.22060416
| 24> H   -1.46151374   -0.13997147    4.20801980
| 25> H   -1.93316764   -0.91976855    5.71359066
| 26> C    0.18522721   -1.17221500    5.17284296
| 27> H    0.23517215   -1.82995769    4.30670914
| 28> H    0.26551483   -1.80357263    6.05722825
| 29> C    1.31454243   -0.10950917    5.17343905
| 30> H    1.93580739   -0.17018802    4.28156544
| 31> H    1.97195192   -0.25939221    6.02884422
| 32> C    0.60436906    1.25215958    5.28130589
| 33> H    0.42450589    1.66065136    4.28530676
| 34> H    1.18475302    1.98656308    5.83727916
| 35> C   -0.73768340    0.91768714    5.93111775
| 36> H   -1.47735196    1.71019891    5.82623645
| 37> H   -0.59764347    0.72604709    6.99766671
| 38> *
| 39>
| 40> $new_job
| 41> ! ri-mp2 aug-cc-pvtz aug-cc-pvtz/c tightscf
| 42> %pal nprocs 16 end
| 43> %maxcore 3800
| 44> %base "TZ_S66by10_38_1.05_dimer"
| 45>
| 46> *xyz 0 1
| 47> C    0.95688019   -0.89184563    1.14195000
| 48> H    1.50456597   -1.27835762    0.28342019
| 49> H    1.42138447   -1.31477793    2.03102546
| 50> C    0.99094943    0.65850830    1.14550384
| 51> H    1.51059446    1.02309646    0.25994788
| 52> H    1.51625823    1.05981813    2.01053703
| 53> C   -0.47945194    1.10231879    1.10387910
| 54> H   -0.61626861    2.06487722    0.61356737
| 55> H   -0.87474223    1.18907144    2.11806960
| 56> C   -1.18210650   -0.05279656    0.39334575
| 57> H   -0.94888216   -0.02683030   -0.67380459
| 58> H   -2.26566452   -0.03356474    0.50127403
| 59> C   -0.53065958   -1.27488954    1.03930959
| 60> H   -0.69039061   -2.19702093    0.48299221
| 61> H   -0.95084939   -1.41541197    2.03674782
| 62> C   -1.12837924   -0.37667008    5.22060416
| 63> H   -1.46151374   -0.13997147    4.20801980
| 64> H   -1.93316764   -0.91976855    5.71359066
| 65> C    0.18522721   -1.17221500    5.17284296
| 66> H    0.23517215   -1.82995769    4.30670914
| 67> H    0.26551483   -1.80357263    6.05722825
| 68> C    1.31454243   -0.10950917    5.17343905
| 69> H    1.93580739   -0.17018802    4.28156544
| 70> H    1.97195192   -0.25939221    6.02884422
| 71> C    0.60436906    1.25215958    5.28130589
| 72> H    0.42450589    1.66065136    4.28530676
| 73> H    1.18475302    1.98656308    5.83727916
| 74> C   -0.73768340    0.91768714    5.93111775
| 75> H   -1.47735196    1.71019891    5.82623645
| 76> H   -0.59764347    0.72604709    6.99766671
| 77> *
| 78>
| 79> $new_job
| 80> ! ri-mp2 aug-cc-pvqz aug-cc-pvqz/c tightscf
| 81> %pal nprocs 16 end
| 82> %maxcore 3800
| 83> %base "QZ_S66by10_38_1.05_dimer"
| 84>
| 85> *xyz 0 1
| 86> C    0.95688019   -0.89184563    1.14195000
| 87> H    1.50456597   -1.27835762    0.28342019
| 88> H    1.42138447   -1.31477793    2.03102546
| 89> C    0.99094943    0.65850830    1.14550384
| 90> H    1.51059446    1.02309646    0.25994788
| 91> H    1.51625823    1.05981813    2.01053703
| 92> C   -0.47945194    1.10231879    1.10387910
| 93> H   -0.61626861    2.06487722    0.61356737
| 94> H   -0.87474223    1.18907144    2.11806960
| 95> C   -1.18210650   -0.05279656    0.39334575
| 96> H   -0.94888216   -0.02683030   -0.67380459
| 97> H   -2.26566452   -0.03356474    0.50127403
| 98> C   -0.53065958   -1.27488954    1.03930959
| 99> H   -0.69039061   -2.19702093    0.48299221
|100> H   -0.95084939   -1.41541197    2.03674782
|101> C   -1.12837924   -0.37667008    5.22060416
|102> H   -1.46151374   -0.13997147    4.20801980
|103> H   -1.93316764   -0.91976855    5.71359066
|104> C    0.18522721   -1.17221500    5.17284296
|105> H    0.23517215   -1.82995769    4.30670914
|106> H    0.26551483   -1.80357263    6.05722825
|107> C    1.31454243   -0.10950917    5.17343905
|108> H    1.93580739   -0.17018802    4.28156544
|109> H    1.97195192   -0.25939221    6.02884422
|110> C    0.60436906    1.25215958    5.28130589
|111> H    0.42450589    1.66065136    4.28530676
|112> H    1.18475302    1.98656308    5.83727916
|113> C   -0.73768340    0.91768714    5.93111775
|114> H   -1.47735196    1.71019891    5.82623645
|115> H   -0.59764347    0.72604709    6.99766671
|116> *
|117>
|118>
|119>
|120>
|121>                          ****END OF INPUT****
 Total Charge           Charge          ....    0
 Multiplicity           Mult            ....    1
 Number of Electrons    NEL             ....   80
MP2 TOTAL ENERGY:     -391.851321259 Eh
FINAL SINGLE POINT ENERGY      -391.851321259279
MP2 TOTAL ENERGY:     -392.227809535 Eh
FINAL SINGLE POINT ENERGY      -392.227809534711

CARTESIAN COORDINATES (ANGSTROEM)
---------------------------------
  C      0.956880   -0.891846    1.141950
  H      1.504566   -1.278358    0.283420
  H      1.421384   -1.314778    2.031025
  C      0.990949    0.658508    1.145504
  H      1.510594    1.023096    0.259948
  H      1.516258    1.059818    2.010537
  C     -0.479452    1.102319    1.103879
  H     -0.616269    2.064877    0.613567
  H     -0.874742    1.189071    2.118070
  C     -1.182106   -0.052797    0.393346
  H     -0.948882   -0.026830   -0.673805
  H     -2.265665   -0.033565    0.501274
  C     -0.530660   -1.274890    1.039310
  H     -0.690391   -2.197021    0.482992
  H     -0.950849   -1.415412    2.036748
  C     -1.128379   -0.376670    5.220604
  H     -1.461514   -0.139971    4.208020
  H     -1.933168   -0.919769    5.713591
  C      0.185227   -1.172215    5.172843
  H      0.235172   -1.829958    4.306709
  H      0.265515   -1.803573    6.057228
  C      1.314542   -0.109509    5.173439
  H      1.935807   -0.170188    4.281565
  H      1.971952   -0.259392    6.028844
  C      0.604369    1.252160    5.281306
  H      0.424506    1.660651    4.285307
  H      1.184753    1.986563    5.837279
  C     -0.737683    0.917687    5.931118
  H     -1.477352    1.710199    5.826236
  H     -0.597643    0.726047    6.997667

 Multiplicity           Mult            ....    1
 Number of Electrons    NEL             ....   80
 Basis Dimension        Dim             .... 1720

ORBITAL ENERGIES
----------------

  NO   OCC          E(Eh)            E(eV)
   0   2.0000     -11.209881      -305.0364
   1   2.0000     -11.209878      -305.0363
   2   2.0000     -11.209504      -305.0261
   3   2.0000     -11.209500      -305.0260
   4   2.0000     -11.209401      -305.0233
   5   2.0000     -11.209398      -305.0232
   6   2.0000     -11.208869      -305.0088
   7   2.0000     -11.208866      -305.0087
   8   2.0000     -11.208623      -305.0021
   9   2.0000     -11.208621      -305.0021
  10   2.0000      -1.117700       -30.4142
  11   2.0000      -1.115878       -30.3646
  12   2.0000      -0.958457       -26.0809
  13   2.0000      -0.957689       -26.0600
  14   2.0000      -0.955941       -26.0125
  15   2.0000      -0.955233       -25.9932
  16   2.0000      -0.779778       -21.2188
  17   2.0000      -0.775862       -21.1123
  18   2.0000      -0.767887       -20.8953
  19   2.0000      -0.767810       -20.8932
  20   2.0000      -0.658145       -17.9090
  21   2.0000      -0.646920       -17.6036
  22   2.0000      -0.646512       -17.5925
  23   2.0000      -0.641048       -17.4438
  24   2.0000      -0.576347       -15.6832
  25   2.0000      -0.575568       -15.6620
  26   2.0000      -0.565591       -15.3905
  27   2.0000      -0.562377       -15.3031
  28   2.0000      -0.477213       -12.9856
  29   2.0000      -0.477083       -12.9821
  30   2.0000      -0.475605       -12.9419
  31   2.0000      -0.473140       -12.8748
  32   2.0000      -0.467081       -12.7099
  33   2.0000      -0.464473       -12.6389
  34   2.0000      -0.464317       -12.6347
  35   2.0000      -0.459990       -12.5170
  36   2.0000      -0.459599       -12.5063
  37   2.0000      -0.454654       -12.3718
  38   2.0000      -0.449837       -12.2407
  39   2.0000      -0.449105       -12.2208
  40   0.0000       0.024187         0.6581
  41   0.0000       0.028395         0.7727
  42   0.0000       0.029327         0.7980
  43   0.0000       0.030553         0.8314
  44   0.0000       0.039205         1.0668

MULLIKEN ATOMIC CHARGES
-----------------------
   0 C :   -0.602671
   1 H :    0.297228
   2 H :    0.320819
   3 C :   -0.613050
   4 H :    0.285752
   5 H :    0.365798
   6 C :   -0.729205
   7 H :    0.342678
   8 H :    0.358250
   9 C :   -0.527607
  10 H :    0.226229
  11 H :    0.324377
  12 C :   -0.726537
  13 H :    0.336846
  14 H :    0.341092
  15 C :   -0.729260
  16 H :    0.358295
  17 H :    0.342842
  18 C :   -0.612998
  19 H :    0.365382
  20 H :    0.285796
  21 C :   -0.602619
  22 H :    0.320804
  23 H :    0.297345
  24 C :   -0.726589
  25 H :    0.340941
  26 H :    0.337160
  27 C :   -0.527732
  28 H :    0.324329
  29 H :    0.226304
Sum of atomic charges:   -0.0000000

LOEWDIN ATOMIC CHARGES
----------------------
   0 C :    0.550572
   1 H :   -0.265994
   2 H :   -0.280845
   3 C :    0.547827
   4 H :   -0.266408
   5 H :   -0.278062
   6 C :    0.526758
   7 H :   -0.251881
   8 H :   -0.285884
   9 C :    0.529833
  10 H :   -0.261087
  11 H :   -0.253249
  12 C :    0.529861
  13 H :   -0.253160
  14 H :   -0.288285
  15 C :    0.526763
  16 H :   -0.285891
  17 H :   -0.251900
  18 C :    0.547817
  19 H :   -0.278021
  20 H :   -0.266402
  21 C :    0.550603
  22 H :   -0.280910
  23 H :   -0.266014
  24 C :    0.529922
  25 H :   -0.288225
  26 H :   -0.253223
  27 C :    0.529833
  28 H :   -0.253266
  29 H :   -0.261082

  Mayer bond orders larger than 0.100000
B(  0-C ,  1-H ) :   0.9227 B(  0-C ,  2-H ) :   0.8644 B(  0-C ,  3-C ) :   0.9988
B(  0-C ,  9-C ) :  -0.1131 B(  0-C , 12-C ) :   0.9760 B(  3-C ,  4-H ) :   0.9433
B(  3-C ,  5-H ) :   0.8105 B(  3-C ,  6-C ) :   0.9687 B(  3-C ,  9-C ) :  -0.1179
B(  6-C ,  7-H ) :   0.8648 B(  6-C ,  8-H ) :   0.8346 B(  6-C ,  9-C ) :   1.0136
B(  9-C , 10-H ) :   0.9555 B(  9-C , 11-H ) :   0.8292 B(  9-C , 12-C ) :   1.0090
B( 12-C , 13-H ) :   0.8693 B( 12-C , 14-H ) :   0.8373 B( 15-C , 16-H ) :   0.8345
B( 15-C , 17-H ) :   0.8647 B( 15-C , 18-C ) :   0.9686 B( 15-C , 27-C ) :   1.0133
B( 18-C , 19-H ) :   0.8109 B( 18-C , 20-H ) :   0.9433 B( 18-C , 21-C ) :   0.9989
B( 18-C , 27-C ) :  -0.1179 B( 21-C , 22-H ) :   0.8644 B( 21-C , 23-H ) :   0.9225
B( 21-C , 24-C ) :   0.9760 B( 21-C , 27-C ) :  -0.1130 B( 24-C , 25-H ) :   0.8373
B( 24-C , 26-H ) :   0.8690 B( 24-C , 27-C ) :   1.0090 B( 27-C , 28-H ) :   0.8293
B( 27-C , 29-H ) :   0.9555

MP2 TOTAL ENERGY:     -392.341043000 Eh
FINAL SINGLE POINT ENERGY      -392.341043000054

DIPOLE MOMENT
-------------
                                X             Y             Z
Electronic contribution:     -0.14242       0.06323       0.00033
Nuclear contribution   :      0.13388      -0.05944      -0.00030
                        -----------------------------------------
Total Dipole Moment    :     -0.00853       0.00380       0.00003
                        -----------------------------------------
Magnitude (a.u.)       :      0.00934
Magnitude (Debye)      :      0.02374

Rotational constants in cm-1:     0.065527     0.020184     0.020132
Rotational constants in MHz :  1964.438676   605.112818   603.548867

                             ****ORCA TERMINATED NORMALLY****
TOTAL RUN TIME: 0 days 14 hours 26 minutes 39 seconds 11 msec
