                         Program Version 5.0.4 -  RELEASE  -
|  1> ! ri-mp2 aug-cc-pvdz aug-cc-pvdz/c tightscf
|  2> %pal nprocs 16 end
|  3> %maxcore 3800
|  4> %base "DZ_S66by10_27_0.8_dimer"
|  5>
|  6> *xyz 0 1
|  7> C    0.81874699    0.86417234    0.18828612
|  8> H    1.46611361    1.71666767    0.34472141
|  9> C    1.36899712   -0.39052394   -0.06669818
| 10> H    2.44303637   -0.51186194   -0.11057444
| 11> C    0.53437860   -1.48849320   -0.27188804
| 12> H    0.96084825   -2.46156422   -0.47550749
| 13> C   -0.84911561   -1.33050735   -0.21989643
| 14> H   -1.49706942   -2.18186028   -0.37955321
| 15> C   -1.39948546   -0.07603020    0.04043417
| 16> H   -2.47268667    0.04490778    0.09338206
| 17> C   -0.56529230    1.02140336    0.24227921
| 18> H   -0.99255667    1.99366131    0.44625817
| 19> N   -2.17896100    0.05471297    2.72207610
| 20> C   -1.56407507    1.21238078    3.00214029
| 21> H   -2.21167913    2.06555223    3.16465238
| 22> C   -0.18186017    1.35322852    3.09231110
| 23> H    0.24998858    2.31687863    3.32352740
| 24> C    0.61909122    0.23624921    2.87809719
| 25> H    1.69666039    0.30663349    2.93293170
| 26> C   -0.00146069   -0.97240583    2.58443761
| 27> H    0.57431382   -1.86802771    2.40036268
| 28> C   -1.39197496   -1.01044371    2.51898820
| 29> H   -1.90082789   -1.93889709    2.29014552
| 30> *
| 31>
| 32> $new_job
| 33> ! ri-mp2 aug-cc-pvtz aug-cc-pvtz/c tightscf
| 34> %pal nprocs 16 end
| 35> %maxcore 3800
| 36> %base "TZ_S66by10_27_0.8_dimer"
| 37>
| 38> *xyz 0 1
| 39> C    0.81874699    0.86417234    0.18828612
| 40> H    1.46611361    1.71666767    0.34472141
| 41> C    1.36899712   -0.39052394   -0.06669818
| 42> H    2.44303637   -0.51186194   -0.11057444
| 43> C    0.53437860   -1.48849320   -0.27188804
| 44> H    0.96084825   -2.46156422   -0.47550749
| 45> C   -0.84911561   -1.33050735   -0.21989643
| 46> H   -1.49706942   -2.18186028   -0.37955321
| 47> C   -1.39948546   -0.07603020    0.04043417
| 48> H   -2.47268667    0.04490778    0.09338206
| 49> C   -0.56529230    1.02140336    0.24227921
| 50> H   -0.99255667    1.99366131    0.44625817
| 51> N   -2.17896100    0.05471297    2.72207610
| 52> C   -1.56407507    1.21238078    3.00214029
| 53> H   -2.21167913    2.06555223    3.16465238
| 54> C   -0.18186017    1.35322852    3.09231110
| 55> H    0.24998858    2.31687863    3.32352740
| 56> C    0.61909122    0.23624921    2.87809719
| 57> H    1.69666039    0.30663349    2.93293170
| 58> C   -0.00146069   -0.97240583    2.58443761
| 59> H    0.57431382   -1.86802771    2.40036268
| 60> C   -1.39197496   -1.01044371    2.51898820
| 61> H   -1.90082789   -1.93889709    2.29014552
| 62> *
| 63>
| 64> $new_job
| 65> ! ri-mp2 aug-cc-pvqz aug-cc-pvqz/c tightscf
| 66> %pal nprocs 16 end
| 67> %maxcore 3800
| 68> %base "QZ_S66by10_27_0.8_dimer"
| 69>
| 70> *xyz 0 1
| 71> C    0.81874699    0.86417234    0.18828612
| 72> H    1.46611361    1.71666767    0.34472141
| 73> C    1.36899712   -0.39052394   -0.06669818
| 74> H    2.44303637   -0.51186194   -0.11057444
| 75> C    0.53437860   -1.48849320   -0.27188804
| 76> H    0.96084825   -2.46156422   -0.47550749
| 77> C   -0.84911561   -1.33050735   -0.21989643
| 78> H   -1.49706942   -2.18186028   -0.37955321
| 79> C   -1.39948546   -0.07603020    0.04043417
| 80> H   -2.47268667    0.04490778    0.09338206
| 81> C   -0.56529230    1.02140336    0.24227921
| 82> H   -0.99255667    1.99366131    0.44625817
| 83> N   -2.17896100    0.05471297    2.72207610
| 84> C   -1.56407507    1.21238078    3.00214029
| 85> H   -2.21167913    2.06555223    3.16465238
| 86> C   -0.18186017    1.35322852    3.09231110
| 87> H    0.24998858    2.31687863    3.32352740
| 88> C    0.61909122    0.23624921    2.87809719
| 89> H    1.69666039    0.30663349    2.93293170
| 90> C   -0.00146069   -0.97240583    2.58443761
| 91> H    0.57431382   -1.86802771    2.40036268
| 92> C   -1.39197496   -1.01044371    2.51898820
| 93> H   -1.90082789   -1.93889709    2.29014552
| 94> *
| 95>
| 96>
| 97>
| 98>
| 99>                          ****END OF INPUT****
 Total Charge           Charge          ....    0
 Multiplicity           Mult            ....    1
 Number of Electrons    NEL             ....   84
MP2 TOTAL ENERGY:     -479.100400831 Eh
FINAL SINGLE POINT ENERGY      -479.100400831429
MP2 TOTAL ENERGY:     -479.516768637 Eh
FINAL SINGLE POINT ENERGY      -479.516768636864

CARTESIAN COORDINATES (ANGSTROEM)
---------------------------------
  C      0.818747    0.864172    0.188286
  H      1.466114    1.716668    0.344721
  C      1.368997   -0.390524   -0.066698
  H      2.443036   -0.511862   -0.110574
  C      0.534379   -1.488493   -0.271888
  H      0.960848   -2.461564   -0.475507
  C     -0.849116   -1.330507   -0.219896
  H     -1.497069   -2.181860   -0.379553
  C     -1.399485   -0.076030    0.040434
  H     -2.472687    0.044908    0.093382
  C     -0.565292    1.021403    0.242279
  H     -0.992557    1.993661    0.446258
  N     -2.178961    0.054713    2.722076
  C     -1.564075    1.212381    3.002140
  H     -2.211679    2.065552    3.164652
  C     -0.181860    1.353229    3.092311
  H      0.249989    2.316879    3.323527
  C      0.619091    0.236249    2.878097
  H      1.696660    0.306633    2.932932
  C     -0.001461   -0.972406    2.584438
  H      0.574314   -1.868028    2.400363
  C     -1.391975   -1.010444    2.518988
  H     -1.900828   -1.938897    2.290146

 Multiplicity           Mult            ....    1
 Number of Electrons    NEL             ....   84
 Basis Dimension        Dim             .... 1466

ORBITAL ENERGIES
----------------

  NO   OCC          E(Eh)            E(eV)
   0   2.0000     -15.550861      -423.1604
   1   2.0000     -11.267441      -306.6027
   2   2.0000     -11.263254      -306.4887
   3   2.0000     -11.250852      -306.1512
   4   2.0000     -11.232449      -305.6505
   5   2.0000     -11.231048      -305.6123
   6   2.0000     -11.229756      -305.5772
   7   2.0000     -11.229629      -305.5737
   8   2.0000     -11.228821      -305.5518
   9   2.0000     -11.228703      -305.5485
  10   2.0000     -11.228317      -305.5380
  11   2.0000     -11.227994      -305.5292
  12   2.0000      -1.249047       -33.9883
  13   2.0000      -1.150125       -31.2965
  14   2.0000      -1.081937       -29.4410
  15   2.0000      -1.029685       -28.0192
  16   2.0000      -1.013681       -27.5837
  17   2.0000      -1.010506       -27.4973
  18   2.0000      -0.852606       -23.2006
  19   2.0000      -0.848761       -23.0959
  20   2.0000      -0.823065       -22.3967
  21   2.0000      -0.822627       -22.3848
  22   2.0000      -0.718680       -19.5563
  23   2.0000      -0.705844       -19.2070
  24   2.0000      -0.652051       -17.7432
  25   2.0000      -0.648852       -17.6562
  26   2.0000      -0.642325       -17.4785
  27   2.0000      -0.617155       -16.7937
  28   2.0000      -0.593145       -16.1403
  29   2.0000      -0.588096       -16.0029
  30   2.0000      -0.586669       -15.9641
  31   2.0000      -0.569002       -15.4833
  32   2.0000      -0.564839       -15.3701
  33   2.0000      -0.512551       -13.9472
  34   2.0000      -0.493712       -13.4346
  35   2.0000      -0.492989       -13.4149
  36   2.0000      -0.473524       -12.8852
  37   2.0000      -0.411073       -11.1859
  38   2.0000      -0.394609       -10.7378
  39   2.0000      -0.353506        -9.6194
  40   2.0000      -0.324200        -8.8219
  41   2.0000      -0.302899        -8.2423
  42   0.0000       0.022151         0.6028
  43   0.0000       0.026449         0.7197
  44   0.0000       0.029877         0.8130
  45   0.0000       0.036056         0.9811
  46   0.0000       0.038832         1.0567

MULLIKEN ATOMIC CHARGES
-----------------------
   0 C :   -0.222551
   1 H :    0.200215
   2 C :   -0.458043
   3 H :    0.231057
   4 C :   -0.305367
   5 H :    0.240749
   6 C :   -0.348745
   7 H :    0.255933
   8 C :   -0.061304
   9 H :    0.260220
  10 C :   -0.093538
  11 H :    0.275440
  12 N :   -0.869069
  13 C :   -0.232572
  14 H :    0.438312
  15 C :   -0.298549
  16 H :    0.249863
  17 C :   -0.122811
  18 H :    0.237012
  19 C :   -0.144000
  20 H :    0.278348
  21 C :    0.107133
  22 H :    0.382269
Sum of atomic charges:   -0.0000000

LOEWDIN ATOMIC CHARGES
----------------------
   0 C :    0.302470
   1 H :   -0.299326
   2 C :    0.323900
   3 H :   -0.309797
   4 C :    0.318158
   5 H :   -0.310005
   6 C :    0.308971
   7 H :   -0.301889
   8 C :    0.280083
   9 H :   -0.305521
  10 C :    0.289240
  11 H :   -0.308983
  12 N :    0.608574
  13 C :    0.058353
  14 H :   -0.337347
  15 C :    0.311626
  16 H :   -0.309428
  17 C :    0.296112
  18 H :   -0.288475
  19 C :    0.289329
  20 H :   -0.312128
  21 C :    0.024421
  22 H :   -0.328338

  Mayer bond orders larger than 0.100000
B(  0-C ,  1-H ) :   1.1738 B(  0-C ,  2-C ) :   1.2508 B(  0-C ,  6-C ) :   0.1726
B(  0-C , 10-C ) :   0.9997 B(  0-C , 11-H ) :  -0.1327 B(  1-H , 10-C ) :  -0.1070
B(  2-C ,  3-H ) :   1.1303 B(  2-C ,  4-C ) :   1.2912 B(  2-C ,  8-C ) :   0.1642
B(  4-C ,  5-H ) :   1.1256 B(  4-C ,  6-C ) :   1.2140 B(  4-C , 10-C ) :   0.1290
B(  6-C ,  7-H ) :   1.0829 B(  6-C ,  8-C ) :   1.1286 B(  6-C ,  9-H ) :  -0.1054
B(  7-H ,  8-C ) :  -0.1139 B(  8-C ,  9-H ) :   1.1070 B(  8-C , 10-C ) :   1.0341
B(  8-C , 11-H ) :  -0.1384 B(  9-H , 10-C ) :  -0.1342 B( 10-C , 11-H ) :   1.0371
B( 12-N , 13-C ) :   1.1218 B( 12-N , 14-H ) :  -0.1588 B( 12-N , 21-C ) :   0.9521
B( 12-N , 22-H ) :  -0.1609 B( 13-C , 14-H ) :   0.9308 B( 13-C , 15-C ) :   1.2536
B( 13-C , 19-C ) :   0.1013 B( 15-C , 16-H ) :   1.0813 B( 15-C , 17-C ) :   1.1942
B( 17-C , 18-H ) :   1.0739 B( 17-C , 19-C ) :   1.0706 B( 17-C , 20-H ) :  -0.1432
B( 18-H , 19-C ) :  -0.1131 B( 19-C , 20-H ) :   1.0155 B( 19-C , 21-C ) :   1.0623
B( 19-C , 22-H ) :  -0.1534 B( 20-H , 21-C ) :  -0.1302 B( 21-C , 22-H ) :   1.0141

MP2 TOTAL ENERGY:     -479.648669610 Eh
FINAL SINGLE POINT ENERGY      -479.648669609855

DIPOLE MOMENT
-------------
                                X             Y             Z
Electronic contribution:     -1.74017       0.08092       1.26943
Nuclear contribution   :      2.58472      -0.04334      -1.28979
                        -----------------------------------------
Total Dipole Moment    :      0.84455       0.03758      -0.02035
                        -----------------------------------------
Magnitude (a.u.)       :      0.84563
Magnitude (Debye)      :      2.14942

Rotational constants in cm-1:     0.055991     0.032831     0.030064
Rotational constants in MHz :  1678.553942   984.257209   901.303121

                             ****ORCA TERMINATED NORMALLY****
TOTAL RUN TIME: 0 days 1 hours 52 minutes 13 seconds 808 msec
