                         Program Version 5.0.4 -  RELEASE  -
|  1> ! ri-mp2 aug-cc-pvdz aug-cc-pvdz/c tightscf
|  2> %pal nprocs 16 end
|  3> %maxcore 3800
|  4> %base "DZ_S66by10_11_1.05_dimer"
|  5> %scf STABPerform true end
|  6>
|  7> *xyz 0 1
|  8> N   -0.56970824    0.81437245    0.10109775
|  9> H    0.13087774    0.56141065   -0.58761455
| 10> H   -1.46125215    0.52691480   -0.28042996
| 11> C   -0.30551437    0.06571030    1.32879173
| 12> H   -1.05714948    0.31427017    2.07595940
| 13> H   -0.28802353   -1.02229248    1.21484626
| 14> H    0.66045772    0.36850913    1.73024224
| 15> C    2.40472814    2.67958958   -0.16959475
| 16> H    2.52934661    3.09076631   -1.16863908
| 17> H    2.91129952    3.32058213    0.54818977
| 18> H    1.33831639    2.65306006    0.04882668
| 19> C    2.91671983    1.26179190   -0.16730071
| 20> O    2.45673995    0.39605548   -0.90647533
| 21> N    3.90320280    0.98875956    0.72502999
| 22> H    4.30296382    1.74369233    1.25038275
| 23> C    4.49164814   -0.33083099    0.80252956
| 24> H    3.70347153   -1.07216114    0.70950896
| 25> H    5.21290792   -0.50282636    0.00398517
| 26> H    4.98630166   -0.44669918    1.76246909
| 27> *
| 28>
| 29> $new_job
| 30> ! ri-mp2 aug-cc-pvtz aug-cc-pvtz/c tightscf
| 31> %pal nprocs 16 end
| 32> %maxcore 3800
| 33> %base "TZ_S66by10_11_1.05_dimer"
| 34>
| 35> *xyz 0 1
| 36> N   -0.56970824    0.81437245    0.10109775
| 37> H    0.13087774    0.56141065   -0.58761455
| 38> H   -1.46125215    0.52691480   -0.28042996
| 39> C   -0.30551437    0.06571030    1.32879173
| 40> H   -1.05714948    0.31427017    2.07595940
| 41> H   -0.28802353   -1.02229248    1.21484626
| 42> H    0.66045772    0.36850913    1.73024224
| 43> C    2.40472814    2.67958958   -0.16959475
| 44> H    2.52934661    3.09076631   -1.16863908
| 45> H    2.91129952    3.32058213    0.54818977
| 46> H    1.33831639    2.65306006    0.04882668
| 47> C    2.91671983    1.26179190   -0.16730071
| 48> O    2.45673995    0.39605548   -0.90647533
| 49> N    3.90320280    0.98875956    0.72502999
| 50> H    4.30296382    1.74369233    1.25038275
| 51> C    4.49164814   -0.33083099    0.80252956
| 52> H    3.70347153   -1.07216114    0.70950896
| 53> H    5.21290792   -0.50282636    0.00398517
| 54> H    4.98630166   -0.44669918    1.76246909
| 55> *
| 56>
| 57> $new_job
| 58> ! ri-mp2 aug-cc-pvqz aug-cc-pvqz/c tightscf
| 59> %pal nprocs 16 end
| 60> %maxcore 3800
| 61> %base "QZ_S66by10_11_1.05_dimer"
| 62>
| 63> *xyz 0 1
| 64> N   -0.56970824    0.81437245    0.10109775
| 65> H    0.13087774    0.56141065   -0.58761455
| 66> H   -1.46125215    0.52691480   -0.28042996
| 67> C   -0.30551437    0.06571030    1.32879173
| 68> H   -1.05714948    0.31427017    2.07595940
| 69> H   -0.28802353   -1.02229248    1.21484626
| 70> H    0.66045772    0.36850913    1.73024224
| 71> C    2.40472814    2.67958958   -0.16959475
| 72> H    2.52934661    3.09076631   -1.16863908
| 73> H    2.91129952    3.32058213    0.54818977
| 74> H    1.33831639    2.65306006    0.04882668
| 75> C    2.91671983    1.26179190   -0.16730071
| 76> O    2.45673995    0.39605548   -0.90647533
| 77> N    3.90320280    0.98875956    0.72502999
| 78> H    4.30296382    1.74369233    1.25038275
| 79> C    4.49164814   -0.33083099    0.80252956
| 80> H    3.70347153   -1.07216114    0.70950896
| 81> H    5.21290792   -0.50282636    0.00398517
| 82> H    4.98630166   -0.44669918    1.76246909
| 83> *
| 84>
| 85>
| 86>
| 87>
| 88>                          ****END OF INPUT****
 Total Charge           Charge          ....    0
 Multiplicity           Mult            ....    1
 Number of Electrons    NEL             ....   58
MP2 TOTAL ENERGY:     -343.430103595 Eh
FINAL SINGLE POINT ENERGY      -343.430103594643
MP2 TOTAL ENERGY:     -343.746884956 Eh
FINAL SINGLE POINT ENERGY      -343.746884955557

CARTESIAN COORDINATES (ANGSTROEM)
---------------------------------
  N     -0.569708    0.814372    0.101098
  H      0.130878    0.561411   -0.587615
  H     -1.461252    0.526915   -0.280430
  C     -0.305514    0.065710    1.328792
  H     -1.057149    0.314270    2.075959
  H     -0.288024   -1.022292    1.214846
  H      0.660458    0.368509    1.730242
  C      2.404728    2.679590   -0.169595
  H      2.529347    3.090766   -1.168639
  H      2.911300    3.320582    0.548190
  H      1.338316    2.653060    0.048827
  C      2.916720    1.261792   -0.167301
  O      2.456740    0.396055   -0.906475
  N      3.903203    0.988760    0.725030
  H      4.302964    1.743692    1.250383
  C      4.491648   -0.330831    0.802530
  H      3.703472   -1.072161    0.709509
  H      5.212908   -0.502826    0.003985
  H      4.986302   -0.446699    1.762469

 Multiplicity           Mult            ....    1
 Number of Electrons    NEL             ....   58
 Basis Dimension        Dim             .... 1112

ORBITAL ENERGIES
----------------

  NO   OCC          E(Eh)            E(eV)
   0   2.0000     -20.511064      -558.1344
   1   2.0000     -15.586309      -424.1250
   2   2.0000     -15.521404      -422.3589
   3   2.0000     -11.346934      -308.7658
   4   2.0000     -11.258266      -306.3530
   5   2.0000     -11.228910      -305.5542
   6   2.0000     -11.227521      -305.5164
   7   2.0000      -1.375843       -37.4386
   8   2.0000      -1.231435       -33.5090
   9   2.0000      -1.156555       -31.4715
  10   2.0000      -1.016782       -27.6680
  11   2.0000      -0.932663       -25.3791
  12   2.0000      -0.883758       -24.0483
  13   2.0000      -0.792292       -21.5593
  14   2.0000      -0.689566       -18.7640
  15   2.0000      -0.655037       -17.8245
  16   2.0000      -0.653955       -17.7950
  17   2.0000      -0.630971       -17.1696
  18   2.0000      -0.592900       -16.1336
  19   2.0000      -0.581927       -15.8350
  20   2.0000      -0.580350       -15.7921
  21   2.0000      -0.556720       -15.1491
  22   2.0000      -0.547468       -14.8974
  23   2.0000      -0.541281       -14.7290
  24   2.0000      -0.505305       -13.7501
  25   2.0000      -0.501684       -13.6515
  26   2.0000      -0.423969       -11.5368
  27   2.0000      -0.395708       -10.7678
  28   2.0000      -0.380673       -10.3586
  29   0.0000       0.020051         0.5456
  30   0.0000       0.031112         0.8466
  31   0.0000       0.033894         0.9223
  32   0.0000       0.035519         0.9665
  33   0.0000       0.047313         1.2875

MULLIKEN ATOMIC CHARGES
-----------------------
   0 N :   -0.620826
   1 H :    0.328913
   2 H :    0.169518
   3 C :   -0.870826
   4 H :    0.372927
   5 H :    0.268502
   6 H :    0.323112
   7 C :   -0.823065
   8 H :    0.304587
   9 H :    0.248538
  10 H :    0.325037
  11 C :    1.119234
  12 O :   -0.958570
  13 N :   -0.571089
  14 H :    0.272291
  15 C :   -0.850909
  16 H :    0.307228
  17 H :    0.306464
  18 H :    0.348936
Sum of atomic charges:   -0.0000000

LOEWDIN ATOMIC CHARGES
----------------------
   0 N :    1.255808
   1 H :   -0.612469
   2 H :   -0.515549
   3 C :    0.744665
   4 H :   -0.310415
   5 H :   -0.286963
   6 H :   -0.324049
   7 C :    0.896989
   8 H :   -0.290246
   9 H :   -0.308034
  10 H :   -0.333971
  11 C :   -0.843021
  12 O :    0.731426
  13 N :    0.823470
  14 H :   -0.504813
  15 C :    0.776797
  16 H :   -0.324545
  17 H :   -0.280658
  18 H :   -0.294422

  Mayer bond orders larger than 0.100000
B(  0-N ,  1-H ) :   0.8359 B(  0-N ,  2-H ) :   1.0171 B(  0-N ,  3-C ) :   0.9586
B(  3-C ,  4-H ) :   0.8654 B(  3-C ,  5-H ) :   0.9323 B(  3-C ,  6-H ) :   0.8678
B(  7-C ,  8-H ) :   0.9158 B(  7-C ,  9-H ) :   1.0068 B(  7-C , 10-H ) :   0.8960
B(  7-C , 11-C ) :   0.8310 B( 11-C , 12-O ) :   1.0902 B( 11-C , 13-N ) :   1.0496
B( 12-O , 13-N ) :   0.1781 B( 13-N , 14-H ) :   0.9578 B( 13-N , 15-C ) :   0.8359
B( 15-C , 16-H ) :   0.9477 B( 15-C , 17-H ) :   0.9425 B( 15-C , 18-H ) :   0.9063

MP2 TOTAL ENERGY:     -343.846423933 Eh
FINAL SINGLE POINT ENERGY      -343.846423933336

DIPOLE MOMENT
-------------
                                X             Y             Z
Electronic contribution:      3.47043       0.66079      -3.15024
Nuclear contribution   :     -2.59317      -0.28638       4.03155
                        -----------------------------------------
Total Dipole Moment    :      0.87726       0.37441       0.88131
                        -----------------------------------------
Magnitude (a.u.)       :      1.29864
Magnitude (Debye)      :      3.30089

Rotational constants in cm-1:     0.107909     0.041964     0.036041
Rotational constants in MHz :  3235.035350  1258.037637  1080.489142

                             ****ORCA TERMINATED NORMALLY****
TOTAL RUN TIME: 0 days 2 hours 55 minutes 46 seconds 830 msec
