                         Program Version 5.0.4 -  RELEASE  -
|  1> ! ri-mp2 aug-cc-pvdz aug-cc-pvdz/c tightscf
|  2> %pal nprocs 16 end
|  3> %maxcore 3800
|  4> %base "DZ_S66by10_32_1.1_dimer"
|  5> %scf STABPerform true end
|  6>
|  7> *xyz 0 1
|  8> N   -0.05545357   -0.94799090    0.01001028
|  9> H   -0.05731609   -1.95771330    0.05505287
| 10> C   -1.31395971   -0.33514498   -0.06458622
| 11> O   -2.32889664   -1.00790087   -0.12310273
| 12> C   -1.24835877    1.11605191   -0.06650860
| 13> H   -2.16434937    1.67533298   -0.14710244
| 14> C   -0.05308010    1.73142748    0.03419541
| 15> H    0.04811054    2.80642986    0.04341968
| 16> N    1.11592628    1.02759107    0.13516893
| 17> H    1.99665515    1.49727976    0.26162029
| 18> C    1.17534700   -0.35380470    0.17616616
| 19> O    2.21463146   -0.96646542    0.33517250
| 20> C    0.72454354   -0.16997685    3.58845416
| 21> H    1.72036181   -0.52396270    3.47423543
| 22> C   -0.42006054    0.21648084    3.69464600
| 23> H   -1.42494309    0.54518118    3.79501017
| 24> *
| 25>
| 26> $new_job
| 27> ! ri-mp2 aug-cc-pvtz aug-cc-pvtz/c tightscf
| 28> %pal nprocs 16 end
| 29> %maxcore 3800
| 30> %base "TZ_S66by10_32_1.1_dimer"
| 31>
| 32> *xyz 0 1
| 33> N   -0.05545357   -0.94799090    0.01001028
| 34> H   -0.05731609   -1.95771330    0.05505287
| 35> C   -1.31395971   -0.33514498   -0.06458622
| 36> O   -2.32889664   -1.00790087   -0.12310273
| 37> C   -1.24835877    1.11605191   -0.06650860
| 38> H   -2.16434937    1.67533298   -0.14710244
| 39> C   -0.05308010    1.73142748    0.03419541
| 40> H    0.04811054    2.80642986    0.04341968
| 41> N    1.11592628    1.02759107    0.13516893
| 42> H    1.99665515    1.49727976    0.26162029
| 43> C    1.17534700   -0.35380470    0.17616616
| 44> O    2.21463146   -0.96646542    0.33517250
| 45> C    0.72454354   -0.16997685    3.58845416
| 46> H    1.72036181   -0.52396270    3.47423543
| 47> C   -0.42006054    0.21648084    3.69464600
| 48> H   -1.42494309    0.54518118    3.79501017
| 49> *
| 50>
| 51> $new_job
| 52> ! ri-mp2 aug-cc-pvqz aug-cc-pvqz/c tightscf
| 53> %pal nprocs 16 end
| 54> %maxcore 3800
| 55> %base "QZ_S66by10_32_1.1_dimer"
| 56>
| 57> *xyz 0 1
| 58> N   -0.05545357   -0.94799090    0.01001028
| 59> H   -0.05731609   -1.95771330    0.05505287
| 60> C   -1.31395971   -0.33514498   -0.06458622
| 61> O   -2.32889664   -1.00790087   -0.12310273
| 62> C   -1.24835877    1.11605191   -0.06650860
| 63> H   -2.16434937    1.67533298   -0.14710244
| 64> C   -0.05308010    1.73142748    0.03419541
| 65> H    0.04811054    2.80642986    0.04341968
| 66> N    1.11592628    1.02759107    0.13516893
| 67> H    1.99665515    1.49727976    0.26162029
| 68> C    1.17534700   -0.35380470    0.17616616
| 69> O    2.21463146   -0.96646542    0.33517250
| 70> C    0.72454354   -0.16997685    3.58845416
| 71> H    1.72036181   -0.52396270    3.47423543
| 72> C   -0.42006054    0.21648084    3.69464600
| 73> H   -1.42494309    0.54518118    3.79501017
| 74> *
| 75>
| 76>
| 77>
| 78>
| 79>                          ****END OF INPUT****
 Total Charge           Charge          ....    0
 Multiplicity           Mult            ....    1
 Number of Electrons    NEL             ....   72
MP2 TOTAL ENERGY:     -490.876937383 Eh
FINAL SINGLE POINT ENERGY      -490.876937382898
MP2 TOTAL ENERGY:     -491.295853487 Eh
FINAL SINGLE POINT ENERGY      -491.295853487140

CARTESIAN COORDINATES (ANGSTROEM)
---------------------------------
  N     -0.055454   -0.947991    0.010010
  H     -0.057316   -1.957713    0.055053
  C     -1.313960   -0.335145   -0.064586
  O     -2.328897   -1.007901   -0.123103
  C     -1.248359    1.116052   -0.066509
  H     -2.164349    1.675333   -0.147102
  C     -0.053080    1.731427    0.034195
  H      0.048111    2.806430    0.043420
  N      1.115926    1.027591    0.135169
  H      1.996655    1.497280    0.261620
  C      1.175347   -0.353805    0.176166
  O      2.214631   -0.966465    0.335172
  C      0.724544   -0.169977    3.588454
  H      1.720362   -0.523963    3.474235
  C     -0.420061    0.216481    3.694646
  H     -1.424943    0.545181    3.795010

 Multiplicity           Mult            ....    1
 Number of Electrons    NEL             ....   72
 Basis Dimension        Dim             .... 1076

ORBITAL ENERGIES
----------------

  NO   OCC          E(Eh)            E(eV)
   0   2.0000     -20.543171      -559.0081
   1   2.0000     -20.536846      -558.8360
   2   2.0000     -15.639437      -425.5707
   3   2.0000     -15.622282      -425.1039
   4   2.0000     -11.415892      -310.6422
   5   2.0000     -11.377269      -309.5912
   6   2.0000     -11.336842      -308.4912
   7   2.0000     -11.251421      -306.1667
   8   2.0000     -11.249798      -306.1226
   9   2.0000     -11.246179      -306.0241
  10   2.0000      -1.433862       -39.0174
  11   2.0000      -1.395292       -37.9678
  12   2.0000      -1.310800       -35.6687
  13   2.0000      -1.243333       -33.8328
  14   2.0000      -1.085448       -29.5366
  15   2.0000      -1.032753       -28.1027
  16   2.0000      -0.931003       -25.3339
  17   2.0000      -0.899127       -24.4665
  18   2.0000      -0.804766       -21.8988
  19   2.0000      -0.772833       -21.0299
  20   2.0000      -0.763032       -20.7632
  21   2.0000      -0.712097       -19.3771
  22   2.0000      -0.685215       -18.6456
  23   2.0000      -0.675836       -18.3904
  24   2.0000      -0.666611       -18.1394
  25   2.0000      -0.651190       -17.7198
  26   2.0000      -0.612985       -16.6802
  27   2.0000      -0.599629       -16.3167
  28   2.0000      -0.568553       -15.4711
  29   2.0000      -0.524023       -14.2594
  30   2.0000      -0.482706       -13.1351
  31   2.0000      -0.447766       -12.1843
  32   2.0000      -0.435774       -11.8580
  33   2.0000      -0.414470       -11.2783
  34   2.0000      -0.413593       -11.2544
  35   2.0000      -0.366641        -9.9768
  36   0.0000       0.013563         0.3691
  37   0.0000       0.027136         0.7384
  38   0.0000       0.033687         0.9167
  39   0.0000       0.037436         1.0187
  40   0.0000       0.042800         1.1647

MULLIKEN ATOMIC CHARGES
-----------------------
   0 N :   -0.676757
   1 H :    0.093169
   2 C :    1.217927
   3 O :   -0.840574
   4 C :   -0.483902
   5 H :    0.261616
   6 C :   -0.107168
   7 H :    0.431908
   8 N :   -0.619355
   9 H :    0.090530
  10 C :    1.465573
  11 O :   -0.835754
  12 C :   -0.564915
  13 H :    0.559620
  14 C :   -0.546021
  15 H :    0.554101
Sum of atomic charges:   -0.0000000

LOEWDIN ATOMIC CHARGES
----------------------
   0 N :    0.773659
   1 H :   -0.517725
   2 C :   -0.878886
   3 O :    0.685203
   4 C :    0.320910
   5 H :   -0.353758
   6 C :    0.223816
   7 H :   -0.295666
   8 N :    0.804293
   9 H :   -0.491067
  10 C :   -1.028936
  11 O :    0.691943
  12 C :    0.489326
  13 H :   -0.460097
  14 C :    0.498686
  15 H :   -0.461699

  Mayer bond orders larger than 0.100000
B(  0-N ,  1-H ) :   1.1764 B(  0-N ,  2-C ) :   0.9777 B(  0-N ,  3-O ) :   0.2018
B(  0-N , 10-C ) :   1.0507 B(  0-N , 11-O ) :   0.2119 B(  2-C ,  3-O ) :   1.0173
B(  2-C ,  4-C ) :   1.1486 B(  3-O ,  4-C ) :   0.2511 B(  4-C ,  5-H ) :   1.0333
B(  4-C ,  6-C ) :   1.4768 B(  6-C ,  7-H ) :   0.9007 B(  6-C ,  8-N ) :   0.8971
B(  8-N ,  9-H ) :   1.1663 B(  8-N , 10-C ) :   1.1216 B(  8-N , 11-O ) :   0.2040
B( 10-C , 11-O ) :   1.0527 B( 12-C , 13-H ) :   0.7034 B( 12-C , 14-C ) :   2.5538
B( 14-C , 15-H ) :   0.7214

MP2 TOTAL ENERGY:     -491.432340218 Eh
FINAL SINGLE POINT ENERGY      -491.432340218454

DIPOLE MOMENT
-------------
                                X             Y             Z
Electronic contribution:      0.36858      -1.89528      -2.79498
Nuclear contribution   :      0.13562       3.76031       2.86152
                        -----------------------------------------
Total Dipole Moment    :      0.50419       1.86503       0.06654
                        -----------------------------------------
Magnitude (a.u.)       :      1.93312
Magnitude (Debye)      :      4.91361

Rotational constants in cm-1:     0.046802     0.038658     0.031521
Rotational constants in MHz :  1403.089283  1158.933668   944.978674

                             ****ORCA TERMINATED NORMALLY****
TOTAL RUN TIME: 0 days 2 hours 35 minutes 7 seconds 788 msec
