                         Program Version 5.0.4 -  RELEASE  -
|  1> ! ri-mp2 aug-cc-pvdz aug-cc-pvdz/c tightscf
|  2> %pal nprocs 16 end
|  3> %maxcore 3800
|  4> %base "DZ_S66by10_66_0.95_dimer"
|  5>
|  6> *xyz 0 1
|  7> N   -0.54105920    0.02957620   -0.20899508
|  8> H    0.05555335   -0.78611810   -0.13029335
|  9> H   -1.46966940   -0.27470845    0.05314338
| 10> C   -0.07879927    1.04239036    0.73845886
| 11> H   -0.72015294    1.91941377    0.67198026
| 12> H   -0.05075819    0.72382293    1.78551453
| 13> H    0.92643072    1.35660379    0.46199919
| 14> N    2.24358438   -1.23657002    0.02325696
| 15> C    2.58202070   -0.42422596   -0.98845552
| 16> H    2.03935348   -0.56876394   -1.91383688
| 17> C    3.55334996    0.56790784   -0.88808851
| 18> H    3.77820240    1.19224812   -1.74093921
| 19> C    4.21419002    0.73744927    0.32417592
| 20> H    4.97204397    1.49968661    0.44056005
| 21> C    3.87405711   -0.09751325    1.38329888
| 22> H    4.35664552   -0.00705101    2.34599953
| 23> C    2.89027555   -1.06230226    1.18411549
| 24> H    2.60419122   -1.72604987    1.99072615
| 25> *
| 26>
| 27> $new_job
| 28> ! ri-mp2 aug-cc-pvtz aug-cc-pvtz/c tightscf
| 29> %pal nprocs 16 end
| 30> %maxcore 3800
| 31> %base "TZ_S66by10_66_0.95_dimer"
| 32>
| 33> *xyz 0 1
| 34> N   -0.54105920    0.02957620   -0.20899508
| 35> H    0.05555335   -0.78611810   -0.13029335
| 36> H   -1.46966940   -0.27470845    0.05314338
| 37> C   -0.07879927    1.04239036    0.73845886
| 38> H   -0.72015294    1.91941377    0.67198026
| 39> H   -0.05075819    0.72382293    1.78551453
| 40> H    0.92643072    1.35660379    0.46199919
| 41> N    2.24358438   -1.23657002    0.02325696
| 42> C    2.58202070   -0.42422596   -0.98845552
| 43> H    2.03935348   -0.56876394   -1.91383688
| 44> C    3.55334996    0.56790784   -0.88808851
| 45> H    3.77820240    1.19224812   -1.74093921
| 46> C    4.21419002    0.73744927    0.32417592
| 47> H    4.97204397    1.49968661    0.44056005
| 48> C    3.87405711   -0.09751325    1.38329888
| 49> H    4.35664552   -0.00705101    2.34599953
| 50> C    2.89027555   -1.06230226    1.18411549
| 51> H    2.60419122   -1.72604987    1.99072615
| 52> *
| 53>
| 54> $new_job
| 55> ! ri-mp2 aug-cc-pvqz aug-cc-pvqz/c tightscf
| 56> %pal nprocs 16 end
| 57> %maxcore 3800
| 58> %base "QZ_S66by10_66_0.95_dimer"
| 59>
| 60> *xyz 0 1
| 61> N   -0.54105920    0.02957620   -0.20899508
| 62> H    0.05555335   -0.78611810   -0.13029335
| 63> H   -1.46966940   -0.27470845    0.05314338
| 64> C   -0.07879927    1.04239036    0.73845886
| 65> H   -0.72015294    1.91941377    0.67198026
| 66> H   -0.05075819    0.72382293    1.78551453
| 67> H    0.92643072    1.35660379    0.46199919
| 68> N    2.24358438   -1.23657002    0.02325696
| 69> C    2.58202070   -0.42422596   -0.98845552
| 70> H    2.03935348   -0.56876394   -1.91383688
| 71> C    3.55334996    0.56790784   -0.88808851
| 72> H    3.77820240    1.19224812   -1.74093921
| 73> C    4.21419002    0.73744927    0.32417592
| 74> H    4.97204397    1.49968661    0.44056005
| 75> C    3.87405711   -0.09751325    1.38329888
| 76> H    4.35664552   -0.00705101    2.34599953
| 77> C    2.89027555   -1.06230226    1.18411549
| 78> H    2.60419122   -1.72604987    1.99072615
| 79> *
| 80>
| 81>
| 82>
| 83>
| 84>                          ****END OF INPUT****
 Total Charge           Charge          ....    0
 Multiplicity           Mult            ....    1
 Number of Electrons    NEL             ....   60
MP2 TOTAL ENERGY:     -343.145527570 Eh
FINAL SINGLE POINT ENERGY      -343.145527569892
MP2 TOTAL ENERGY:     -343.452828046 Eh
FINAL SINGLE POINT ENERGY      -343.452828045811

CARTESIAN COORDINATES (ANGSTROEM)
---------------------------------
  N     -0.541059    0.029576   -0.208995
  H      0.055553   -0.786118   -0.130293
  H     -1.469669   -0.274708    0.053143
  C     -0.078799    1.042390    0.738459
  H     -0.720153    1.919414    0.671980
  H     -0.050758    0.723823    1.785515
  H      0.926431    1.356604    0.461999
  N      2.243584   -1.236570    0.023257
  C      2.582021   -0.424226   -0.988456
  H      2.039353   -0.568764   -1.913837
  C      3.553350    0.567908   -0.888089
  H      3.778202    1.192248   -1.740939
  C      4.214190    0.737449    0.324176
  H      4.972044    1.499687    0.440560
  C      3.874057   -0.097513    1.383299
  H      4.356646   -0.007051    2.346000
  C      2.890276   -1.062302    1.184115
  H      2.604191   -1.726050    1.990726

 Multiplicity           Mult            ....    1
 Number of Electrons    NEL             ....   60
 Basis Dimension        Dim             .... 1100

ORBITAL ENERGIES
----------------

  NO   OCC          E(Eh)            E(eV)
   0   2.0000     -15.568438      -423.6387
   1   2.0000     -15.518981      -422.2929
   2   2.0000     -11.279016      -306.9176
   3   2.0000     -11.276633      -306.8528
   4   2.0000     -11.263092      -306.4843
   5   2.0000     -11.244470      -305.9776
   6   2.0000     -11.243352      -305.9472
   7   2.0000     -11.225896      -305.4722
   8   2.0000      -1.261310       -34.3220
   9   2.0000      -1.154562       -31.4172
  10   2.0000      -1.093353       -29.7516
  11   2.0000      -1.037158       -28.2225
  12   2.0000      -0.881777       -23.9944
  13   2.0000      -0.862822       -23.4786
  14   2.0000      -0.859659       -23.3925
  15   2.0000      -0.726243       -19.7621
  16   2.0000      -0.664739       -18.0885
  17   2.0000      -0.657317       -17.8865
  18   2.0000      -0.650535       -17.7019
  19   2.0000      -0.601765       -16.3749
  20   2.0000      -0.590859       -16.0781
  21   2.0000      -0.580619       -15.7995
  22   2.0000      -0.548101       -14.9146
  23   2.0000      -0.536127       -14.5888
  24   2.0000      -0.523327       -14.2404
  25   2.0000      -0.502246       -13.6668
  26   2.0000      -0.425724       -11.5845
  27   2.0000      -0.388785       -10.5794
  28   2.0000      -0.377479       -10.2717
  29   2.0000      -0.351152        -9.5553
  30   0.0000       0.021747         0.5918
  31   0.0000       0.028464         0.7746
  32   0.0000       0.031714         0.8630
  33   0.0000       0.038104         1.0369
  34   0.0000       0.043259         1.1771

MULLIKEN ATOMIC CHARGES
-----------------------
   0 N :   -0.686403
   1 H :    0.255482
   2 H :    0.211646
   3 C :   -0.781455
   4 H :    0.367926
   5 H :    0.247111
   6 H :    0.316451
   7 N :   -0.544176
   8 C :    0.000611
   9 H :    0.445187
  10 C :   -0.387938
  11 H :    0.332002
  12 C :   -0.352203
  13 H :    0.377103
  14 C :   -0.371225
  15 H :    0.318810
  16 C :   -0.223792
  17 H :    0.474861
Sum of atomic charges:    0.0000000

LOEWDIN ATOMIC CHARGES
----------------------
   0 N :    1.261163
   1 H :   -0.642206
   2 H :   -0.515832
   3 C :    0.736090
   4 H :   -0.305843
   5 H :   -0.283408
   6 H :   -0.344737
   7 N :    0.593132
   8 C :    0.063238
   9 H :   -0.336525
  10 C :    0.337242
  11 H :   -0.323857
  12 C :    0.332401
  13 H :   -0.311704
  14 C :    0.332407
  15 H :   -0.328274
  16 C :    0.081036
  17 H :   -0.344323

  Mayer bond orders larger than 0.100000
B(  0-N ,  1-H ) :   0.8879 B(  0-N ,  2-H ) :   0.9710 B(  0-N ,  3-C ) :   0.9570
B(  3-C ,  4-H ) :   0.8686 B(  3-C ,  5-H ) :   0.9389 B(  3-C ,  6-H ) :   0.8612
B(  7-N ,  8-C ) :   1.1237 B(  7-N ,  9-H ) :  -0.1276 B(  7-N , 16-C ) :   1.2139
B(  7-N , 17-H ) :  -0.1152 B(  8-C ,  9-H ) :   0.8921 B(  8-C , 10-C ) :   1.1944
B(  8-C , 14-C ) :   0.1314 B( 10-C , 11-H ) :   0.9897 B( 10-C , 12-C ) :   1.2338
B( 12-C , 13-H ) :   0.9524 B( 12-C , 14-C ) :   1.2628 B( 14-C , 15-H ) :   1.0149
B( 14-C , 16-C ) :   1.1944 B( 16-C , 17-H ) :   0.8770

MP2 TOTAL ENERGY:     -343.549592169 Eh
FINAL SINGLE POINT ENERGY      -343.549592168804

DIPOLE MOMENT
-------------
                                X             Y             Z
Electronic contribution:      6.17003      -3.10847      -1.24249
Nuclear contribution   :     -5.41504       3.48989       1.80398
                        -----------------------------------------
Total Dipole Moment    :      0.75498       0.38142       0.56149
                        -----------------------------------------
Magnitude (a.u.)       :      1.01526
Magnitude (Debye)      :      2.58059

Rotational constants in cm-1:     0.106749     0.042010     0.040491
Rotational constants in MHz :  3200.252885  1259.432820  1213.901727

                             ****ORCA TERMINATED NORMALLY****
TOTAL RUN TIME: 0 days 0 hours 29 minutes 0 seconds 360 msec
