                         Program Version 5.0.4 -  RELEASE  -
|  1> ! ri-mp2 aug-cc-pvdz aug-cc-pvdz/c tightscf
|  2> %pal nprocs 16 end
|  3> %maxcore 3800
|  4> %base "DZ_S66by10_58_0.7_dimer"
|  5>
|  6> *xyz 0 1
|  7> N   -0.94121124    0.79004136    0.01171891
|  8> C   -0.92275524   -0.55237814    0.03537875
|  9> H    0.05724051   -1.01558800    0.05135491
| 10> C   -2.07651907   -1.33301813    0.03929035
| 11> H   -1.99652895   -2.41058573    0.05887720
| 12> C   -3.31631294   -0.70333955    0.01759905
| 13> H   -4.23157489   -1.27908429    0.01979377
| 14> C   -3.34889528    0.68701881   -0.00708596
| 15> H   -4.28544414    1.22610455   -0.02465899
| 16> C   -2.14310382    1.38263356   -0.00889005
| 17> H   -2.13809974    2.46565258   -0.02778297
| 18> N    1.54209625   -0.97634955    0.04384929
| 19> C    2.74387506   -1.56952579    0.04592913
| 20> H    2.73865121   -2.65248824    0.06781829
| 21> C    3.94981130   -0.87456723    0.02192775
| 22> H    4.88624963   -1.41410241    0.02502176
| 23> C    3.91749369    0.51573723   -0.00581896
| 24> H    4.83286863    1.09098828   -0.02500047
| 25> C    2.67781336    1.14602336   -0.00829607
| 26> H    2.59804063    2.22358194   -0.02938463
| 27> C    1.52389979    0.36601374    0.01689760
| 28> H    0.54398939    0.82967632    0.01523475
| 29> *
| 30>
| 31> $new_job
| 32> ! ri-mp2 aug-cc-pvtz aug-cc-pvtz/c tightscf
| 33> %pal nprocs 16 end
| 34> %maxcore 3800
| 35> %base "TZ_S66by10_58_0.7_dimer"
| 36>
| 37> *xyz 0 1
| 38> N   -0.94121124    0.79004136    0.01171891
| 39> C   -0.92275524   -0.55237814    0.03537875
| 40> H    0.05724051   -1.01558800    0.05135491
| 41> C   -2.07651907   -1.33301813    0.03929035
| 42> H   -1.99652895   -2.41058573    0.05887720
| 43> C   -3.31631294   -0.70333955    0.01759905
| 44> H   -4.23157489   -1.27908429    0.01979377
| 45> C   -3.34889528    0.68701881   -0.00708596
| 46> H   -4.28544414    1.22610455   -0.02465899
| 47> C   -2.14310382    1.38263356   -0.00889005
| 48> H   -2.13809974    2.46565258   -0.02778297
| 49> N    1.54209625   -0.97634955    0.04384929
| 50> C    2.74387506   -1.56952579    0.04592913
| 51> H    2.73865121   -2.65248824    0.06781829
| 52> C    3.94981130   -0.87456723    0.02192775
| 53> H    4.88624963   -1.41410241    0.02502176
| 54> C    3.91749369    0.51573723   -0.00581896
| 55> H    4.83286863    1.09098828   -0.02500047
| 56> C    2.67781336    1.14602336   -0.00829607
| 57> H    2.59804063    2.22358194   -0.02938463
| 58> C    1.52389979    0.36601374    0.01689760
| 59> H    0.54398939    0.82967632    0.01523475
| 60> *
| 61>
| 62> $new_job
| 63> ! ri-mp2 aug-cc-pvqz aug-cc-pvqz/c tightscf
| 64> %pal nprocs 16 end
| 65> %maxcore 3800
| 66> %base "QZ_S66by10_58_0.7_dimer"
| 67>
| 68> *xyz 0 1
| 69> N   -0.94121124    0.79004136    0.01171891
| 70> C   -0.92275524   -0.55237814    0.03537875
| 71> H    0.05724051   -1.01558800    0.05135491
| 72> C   -2.07651907   -1.33301813    0.03929035
| 73> H   -1.99652895   -2.41058573    0.05887720
| 74> C   -3.31631294   -0.70333955    0.01759905
| 75> H   -4.23157489   -1.27908429    0.01979377
| 76> C   -3.34889528    0.68701881   -0.00708596
| 77> H   -4.28544414    1.22610455   -0.02465899
| 78> C   -2.14310382    1.38263356   -0.00889005
| 79> H   -2.13809974    2.46565258   -0.02778297
| 80> N    1.54209625   -0.97634955    0.04384929
| 81> C    2.74387506   -1.56952579    0.04592913
| 82> H    2.73865121   -2.65248824    0.06781829
| 83> C    3.94981130   -0.87456723    0.02192775
| 84> H    4.88624963   -1.41410241    0.02502176
| 85> C    3.91749369    0.51573723   -0.00581896
| 86> H    4.83286863    1.09098828   -0.02500047
| 87> C    2.67781336    1.14602336   -0.00829607
| 88> H    2.59804063    2.22358194   -0.02938463
| 89> C    1.52389979    0.36601374    0.01689760
| 90> H    0.54398939    0.82967632    0.01523475
| 91> *
| 92>
| 93>
| 94>
| 95>
| 96>                          ****END OF INPUT****
 Total Charge           Charge          ....    0
 Multiplicity           Mult            ....    1
 Number of Electrons    NEL             ....   84
MP2 TOTAL ENERGY:     -495.070040351 Eh
FINAL SINGLE POINT ENERGY      -495.070040350679
MP2 TOTAL ENERGY:     -495.500602660 Eh
FINAL SINGLE POINT ENERGY      -495.500602659920

CARTESIAN COORDINATES (ANGSTROEM)
---------------------------------
  N     -0.941211    0.790041    0.011719
  C     -0.922755   -0.552378    0.035379
  H      0.057241   -1.015588    0.051355
  C     -2.076519   -1.333018    0.039290
  H     -1.996529   -2.410586    0.058877
  C     -3.316313   -0.703340    0.017599
  H     -4.231575   -1.279084    0.019794
  C     -3.348895    0.687019   -0.007086
  H     -4.285444    1.226105   -0.024659
  C     -2.143104    1.382634   -0.008890
  H     -2.138100    2.465653   -0.027783
  N      1.542096   -0.976350    0.043849
  C      2.743875   -1.569526    0.045929
  H      2.738651   -2.652488    0.067818
  C      3.949811   -0.874567    0.021928
  H      4.886250   -1.414102    0.025022
  C      3.917494    0.515737   -0.005819
  H      4.832869    1.090988   -0.025000
  C      2.677813    1.146023   -0.008296
  H      2.598041    2.223582   -0.029385
  C      1.523900    0.366014    0.016898
  H      0.543989    0.829676    0.015235

 Multiplicity           Mult            ....    1
 Number of Electrons    NEL             ....   84
 Basis Dimension        Dim             .... 1420

ORBITAL ENERGIES
----------------

  NO   OCC          E(Eh)            E(eV)
   0   2.0000     -15.550739      -423.1571
   1   2.0000     -15.550719      -423.1566
   2   2.0000     -11.269278      -306.6526
   3   2.0000     -11.269256      -306.6520
   4   2.0000     -11.251747      -306.1756
   5   2.0000     -11.251727      -306.1751
   6   2.0000     -11.232609      -305.6548
   7   2.0000     -11.232564      -305.6536
   8   2.0000     -11.231249      -305.6178
   9   2.0000     -11.231231      -305.6173
  10   2.0000     -11.224927      -305.4458
  11   2.0000     -11.224905      -305.4452
  12   2.0000      -1.261780       -34.3348
  13   2.0000      -1.244873       -33.8747
  14   2.0000      -1.085981       -29.5510
  15   2.0000      -1.081840       -29.4384
  16   2.0000      -1.029376       -28.0107
  17   2.0000      -1.016001       -27.6468
  18   2.0000      -0.872145       -23.7323
  19   2.0000      -0.861682       -23.4476
  20   2.0000      -0.841673       -22.9031
  21   2.0000      -0.834009       -22.6945
  22   2.0000      -0.745897       -20.2969
  23   2.0000      -0.693458       -18.8700
  24   2.0000      -0.673586       -18.3292
  25   2.0000      -0.656714       -17.8701
  26   2.0000      -0.641794       -17.4641
  27   2.0000      -0.635166       -17.2837
  28   2.0000      -0.606845       -16.5131
  29   2.0000      -0.599438       -16.3115
  30   2.0000      -0.573227       -15.5983
  31   2.0000      -0.540773       -14.7152
  32   2.0000      -0.539447       -14.6791
  33   2.0000      -0.528728       -14.3874
  34   2.0000      -0.512738       -13.9523
  35   2.0000      -0.505819       -13.7640
  36   2.0000      -0.426024       -11.5927
  37   2.0000      -0.385198       -10.4818
  38   2.0000      -0.377636       -10.2760
  39   2.0000      -0.359796        -9.7905
  40   2.0000      -0.337509        -9.1841
  41   2.0000      -0.330295        -8.9878
  42   0.0000       0.022245         0.6053
  43   0.0000       0.024845         0.6761
  44   0.0000       0.027608         0.7512
  45   0.0000       0.034936         0.9507
  46   0.0000       0.035597         0.9686

MULLIKEN ATOMIC CHARGES
-----------------------
   0 N :   -0.399837
   1 C :   -0.156970
   2 H :    0.834582
   3 C :   -0.466770
   4 H :    0.267852
   5 C :   -0.260913
   6 H :    0.279902
   7 C :   -0.248030
   8 H :    0.300267
   9 C :   -0.541970
  10 H :    0.391900
  11 N :   -0.399717
  12 C :   -0.541757
  13 H :    0.391891
  14 C :   -0.248106
  15 H :    0.300324
  16 C :   -0.261097
  17 H :    0.280003
  18 C :   -0.466621
  19 H :    0.267874
  20 C :   -0.157261
  21 H :    0.834454
Sum of atomic charges:   -0.0000000

LOEWDIN ATOMIC CHARGES
----------------------
   0 N :    0.715727
   1 C :    0.136593
   2 H :   -0.796829
   3 C :    0.398949
   4 H :   -0.321161
   5 C :    0.337724
   6 H :   -0.314978
   7 C :    0.339646
   8 H :   -0.334754
   9 C :    0.175092
  10 H :   -0.336320
  11 N :    0.715785
  12 C :    0.175167
  13 H :   -0.336299
  14 C :    0.339674
  15 H :   -0.334759
  16 C :    0.337740
  17 H :   -0.314972
  18 C :    0.398961
  19 H :   -0.321156
  20 C :    0.136692
  21 H :   -0.796521

  Mayer bond orders larger than 0.100000
B(  0-N ,  1-C ) :   1.3769 B(  0-N ,  2-H ) :  -0.1424 B(  0-N ,  9-C ) :   1.3834
B(  0-N , 21-H ) :   0.2030 B(  1-C ,  3-C ) :   1.1404 B(  1-C ,  5-C ) :  -0.4791
B(  1-C , 21-H ) :   0.1080 B(  2-H ,  3-C ) :  -0.3049 B(  2-H , 11-N ) :   0.2027
B(  2-H , 20-C ) :   0.1082 B(  3-C ,  4-H ) :   0.9955 B(  3-C ,  5-C ) :   1.3560
B(  3-C ,  6-H ) :  -0.1324 B(  3-C ,  9-C ) :   0.1123 B(  5-C ,  6-H ) :   1.0886
B(  5-C ,  7-C ) :   1.2176 B(  7-C ,  8-H ) :   1.0442 B(  7-C ,  9-C ) :   1.2409
B(  8-H ,  9-C ) :  -0.1566 B(  9-C , 10-H ) :   0.9542 B( 11-N , 12-C ) :   1.3830
B( 11-N , 20-C ) :   1.3769 B( 11-N , 21-H ) :  -0.1422 B( 12-C , 13-H ) :   0.9543
B( 12-C , 14-C ) :   1.2408 B( 12-C , 15-H ) :  -0.1566 B( 12-C , 18-C ) :   0.1123
B( 14-C , 15-H ) :   1.0442 B( 14-C , 16-C ) :   1.2177 B( 16-C , 17-H ) :   1.0885
B( 16-C , 18-C ) :   1.3560 B( 16-C , 20-C ) :  -0.4791 B( 17-H , 18-C ) :  -0.1323
B( 18-C , 19-H ) :   0.9955 B( 18-C , 20-C ) :   1.1402 B( 18-C , 21-H ) :  -0.3048

MP2 TOTAL ENERGY:     -495.637481430 Eh
FINAL SINGLE POINT ENERGY      -495.637481430360

DIPOLE MOMENT
-------------
                                X             Y             Z
Electronic contribution:      0.00041       0.00059       0.02294
Nuclear contribution   :      0.00022      -0.00103      -0.03538
                        -----------------------------------------
Total Dipole Moment    :      0.00063      -0.00044      -0.01244
                        -----------------------------------------
Magnitude (a.u.)       :      0.01247
Magnitude (Debye)      :      0.03169

Rotational constants in cm-1:     0.099715     0.015299     0.013264
Rotational constants in MHz :  2989.385419   458.648624   397.648169

                             ****ORCA TERMINATED NORMALLY****
TOTAL RUN TIME: 0 days 1 hours 21 minutes 56 seconds 452 msec
