                         Program Version 5.0.4 -  RELEASE  -
|  1> ! ri-mp2 aug-cc-pvdz aug-cc-pvdz/c tightscf
|  2> %pal nprocs 16 end
|  3> %maxcore 3800
|  4> %base "DZ_S66by10_52_1.0_dimer"
|  5>
|  6> *xyz 0 1
|  7> C    0.96408039    0.87509331    0.37801364
|  8> H    1.65982961    1.69993082    0.44604227
|  9> C    1.43105709   -0.41313344    0.11899152
| 10> H    2.48952453   -0.58720917   -0.01701261
| 11> C    0.53412766   -1.47763890    0.04241755
| 12> H    0.89696129   -2.47738838   -0.15201199
| 13> C   -0.83032682   -1.25360409    0.22085611
| 14> H   -1.52576001   -2.07962435    0.16411655
| 15> C   -1.29758715    0.03441261    0.48024263
| 16> H   -2.35439607    0.20801612    0.62856096
| 17> C   -0.40044509    1.09977921    0.56160137
| 18> H   -0.76045514    2.09376880    0.78475698
| 19> C   -0.11837072    0.53139822    4.38017689
| 20> O   -0.58656031    1.58084484    4.00091651
| 21> O    0.28484186   -0.44616505    3.54089163
| 22> H    0.11613704   -0.12025146    2.63948638
| 23> C    0.09158358    0.13441113    5.81158269
| 24> H   -0.21838257    0.94374771    6.46157157
| 25> H   -0.48449715   -0.76221284    6.02853380
| 26> H    1.14008100   -0.10172096    5.97660127
| 27> *
| 28>
| 29> $new_job
| 30> ! ri-mp2 aug-cc-pvtz aug-cc-pvtz/c tightscf
| 31> %pal nprocs 16 end
| 32> %maxcore 3800
| 33> %base "TZ_S66by10_52_1.0_dimer"
| 34>
| 35> *xyz 0 1
| 36> C    0.96408039    0.87509331    0.37801364
| 37> H    1.65982961    1.69993082    0.44604227
| 38> C    1.43105709   -0.41313344    0.11899152
| 39> H    2.48952453   -0.58720917   -0.01701261
| 40> C    0.53412766   -1.47763890    0.04241755
| 41> H    0.89696129   -2.47738838   -0.15201199
| 42> C   -0.83032682   -1.25360409    0.22085611
| 43> H   -1.52576001   -2.07962435    0.16411655
| 44> C   -1.29758715    0.03441261    0.48024263
| 45> H   -2.35439607    0.20801612    0.62856096
| 46> C   -0.40044509    1.09977921    0.56160137
| 47> H   -0.76045514    2.09376880    0.78475698
| 48> C   -0.11837072    0.53139822    4.38017689
| 49> O   -0.58656031    1.58084484    4.00091651
| 50> O    0.28484186   -0.44616505    3.54089163
| 51> H    0.11613704   -0.12025146    2.63948638
| 52> C    0.09158358    0.13441113    5.81158269
| 53> H   -0.21838257    0.94374771    6.46157157
| 54> H   -0.48449715   -0.76221284    6.02853380
| 55> H    1.14008100   -0.10172096    5.97660127
| 56> *
| 57>
| 58> $new_job
| 59> ! ri-mp2 aug-cc-pvqz aug-cc-pvqz/c tightscf
| 60> %pal nprocs 16 end
| 61> %maxcore 3800
| 62> %base "QZ_S66by10_52_1.0_dimer"
| 63>
| 64> *xyz 0 1
| 65> C    0.96408039    0.87509331    0.37801364
| 66> H    1.65982961    1.69993082    0.44604227
| 67> C    1.43105709   -0.41313344    0.11899152
| 68> H    2.48952453   -0.58720917   -0.01701261
| 69> C    0.53412766   -1.47763890    0.04241755
| 70> H    0.89696129   -2.47738838   -0.15201199
| 71> C   -0.83032682   -1.25360409    0.22085611
| 72> H   -1.52576001   -2.07962435    0.16411655
| 73> C   -1.29758715    0.03441261    0.48024263
| 74> H   -2.35439607    0.20801612    0.62856096
| 75> C   -0.40044509    1.09977921    0.56160137
| 76> H   -0.76045514    2.09376880    0.78475698
| 77> C   -0.11837072    0.53139822    4.38017689
| 78> O   -0.58656031    1.58084484    4.00091651
| 79> O    0.28484186   -0.44616505    3.54089163
| 80> H    0.11613704   -0.12025146    2.63948638
| 81> C    0.09158358    0.13441113    5.81158269
| 82> H   -0.21838257    0.94374771    6.46157157
| 83> H   -0.48449715   -0.76221284    6.02853380
| 84> H    1.14008100   -0.10172096    5.97660127
| 85> *
| 86>
| 87>
| 88>
| 89>
| 90>                          ****END OF INPUT****
 Total Charge           Charge          ....    0
 Multiplicity           Mult            ....    1
 Number of Electrons    NEL             ....   74
MP2 TOTAL ENERGY:     -460.073402293 Eh
FINAL SINGLE POINT ENERGY      -460.073402292706
MP2 TOTAL ENERGY:     -460.477047249 Eh
FINAL SINGLE POINT ENERGY      -460.477047248792

CARTESIAN COORDINATES (ANGSTROEM)
---------------------------------
  C      0.964080    0.875093    0.378014
  H      1.659830    1.699931    0.446042
  C      1.431057   -0.413133    0.118992
  H      2.489525   -0.587209   -0.017013
  C      0.534128   -1.477639    0.042418
  H      0.896961   -2.477388   -0.152012
  C     -0.830327   -1.253604    0.220856
  H     -1.525760   -2.079624    0.164117
  C     -1.297587    0.034413    0.480243
  H     -2.354396    0.208016    0.628561
  C     -0.400445    1.099779    0.561601
  H     -0.760455    2.093769    0.784757
  C     -0.118371    0.531398    4.380177
  O     -0.586560    1.580845    4.000917
  O      0.284842   -0.446165    3.540892
  H      0.116137   -0.120251    2.639486
  C      0.091584    0.134411    5.811583
  H     -0.218383    0.943748    6.461572
  H     -0.484497   -0.762213    6.028534
  H      1.140081   -0.101721    5.976601

 Multiplicity           Mult            ....    1
 Number of Electrons    NEL             ....   74
 Basis Dimension        Dim             .... 1260

ORBITAL ENERGIES
----------------

  NO   OCC          E(Eh)            E(eV)
   0   2.0000     -20.594784      -560.4126
   1   2.0000     -20.537153      -558.8443
   2   2.0000     -11.377619      -309.6008
   3   2.0000     -11.242725      -305.9301
   4   2.0000     -11.242240      -305.9169
   5   2.0000     -11.241414      -305.8944
   6   2.0000     -11.240660      -305.8739
   7   2.0000     -11.240562      -305.8713
   8   2.0000     -11.239487      -305.8420
   9   2.0000     -11.235816      -305.7421
  10   2.0000      -1.451040       -39.4848
  11   2.0000      -1.348488       -36.6942
  12   2.0000      -1.158841       -31.5337
  13   2.0000      -1.022456       -27.8224
  14   2.0000      -1.022378       -27.8203
  15   2.0000      -1.019442       -27.7404
  16   2.0000      -0.830951       -22.6113
  17   2.0000      -0.830682       -22.6040
  18   2.0000      -0.811173       -22.0731
  19   2.0000      -0.716819       -19.5056
  20   2.0000      -0.695587       -18.9279
  21   2.0000      -0.669916       -18.2293
  22   2.0000      -0.650064       -17.6891
  23   2.0000      -0.640525       -17.4296
  24   2.0000      -0.626035       -17.0353
  25   2.0000      -0.595264       -16.1980
  26   2.0000      -0.594612       -16.1802
  27   2.0000      -0.574812       -15.6414
  28   2.0000      -0.566605       -15.4181
  29   2.0000      -0.552476       -15.0336
  30   2.0000      -0.510542       -13.8926
  31   2.0000      -0.501501       -13.6465
  32   2.0000      -0.501223       -13.6390
  33   2.0000      -0.472319       -12.8524
  34   2.0000      -0.444983       -12.1086
  35   2.0000      -0.346381        -9.4255
  36   2.0000      -0.345408        -9.3990
  37   0.0000       0.022590         0.6147
  38   0.0000       0.029309         0.7975
  39   0.0000       0.030679         0.8348
  40   0.0000       0.033531         0.9124
  41   0.0000       0.043276         1.1776

MULLIKEN ATOMIC CHARGES
-----------------------
   0 C :   -0.369690
   1 H :    0.280669
   2 C :   -0.332994
   3 H :    0.306646
   4 C :   -0.259984
   5 H :    0.324259
   6 C :   -0.339735
   7 H :    0.304398
   8 C :   -0.354261
   9 H :    0.280834
  10 C :   -0.226377
  11 H :    0.310655
  12 C :    0.937049
  13 O :   -0.770733
  14 O :   -0.674833
  15 H :    0.386072
  16 C :   -0.715536
  17 H :    0.313353
  18 H :    0.302727
  19 H :    0.297482
Sum of atomic charges:    0.0000000

LOEWDIN ATOMIC CHARGES
----------------------
   0 C :    0.331346
   1 H :   -0.316252
   2 C :    0.334208
   3 H :   -0.320674
   4 C :    0.334099
   5 H :   -0.322096
   6 C :    0.334204
   7 H :   -0.320384
   8 C :    0.329834
   9 H :   -0.315350
  10 C :    0.317311
  11 H :   -0.314578
  12 C :   -1.024870
  13 O :    0.699163
  14 O :    1.275397
  15 H :   -0.954633
  16 C :    0.869300
  17 H :   -0.326099
  18 H :   -0.304460
  19 H :   -0.305465

  Mayer bond orders larger than 0.100000
B(  0-C ,  1-H ) :   1.0815 B(  0-C ,  2-C ) :   1.2419 B(  0-C ,  6-C ) :   0.1597
B(  0-C , 10-C ) :   1.1876 B(  2-C ,  3-H ) :   1.0502 B(  2-C ,  4-C ) :   1.1799
B(  2-C ,  8-C ) :   0.1536 B(  4-C ,  5-H ) :   1.0388 B(  4-C ,  6-C ) :   1.1847
B(  4-C , 10-C ) :   0.1030 B(  6-C ,  7-H ) :   1.0518 B(  6-C ,  8-C ) :   1.2473
B(  8-C ,  9-H ) :   1.0806 B(  8-C , 10-C ) :   1.1783 B( 10-C , 11-H ) :   1.0339
B( 12-C , 13-O ) :   1.4153 B( 12-C , 14-O ) :   0.9998 B( 12-C , 16-C ) :   0.8174
B( 13-O , 15-H ) :   0.1501 B( 14-O , 15-H ) :   0.7620 B( 16-C , 17-H ) :   0.9696
B( 16-C , 18-H ) :   0.9153 B( 16-C , 19-H ) :   0.9250

MP2 TOTAL ENERGY:     -460.606377507 Eh
FINAL SINGLE POINT ENERGY      -460.606377507366

DIPOLE MOMENT
-------------
                                X             Y             Z
Electronic contribution:     -0.57000       1.21064      -2.00721
Nuclear contribution   :      0.85217      -1.86443       2.04446
                        -----------------------------------------
Total Dipole Moment    :      0.28217      -0.65379       0.03724
                        -----------------------------------------
Magnitude (a.u.)       :      0.71305
Magnitude (Debye)      :      1.81243

Rotational constants in cm-1:     0.079539     0.022890     0.021945
Rotational constants in MHz :  2384.524889   686.230417   657.905503

                             ****ORCA TERMINATED NORMALLY****
TOTAL RUN TIME: 0 days 0 hours 37 minutes 32 seconds 792 msec
