                         Program Version 5.0.4 -  RELEASE  -
|  1> ! ri-mp2 aug-cc-pvdz aug-cc-pvdz/c tightscf
|  2> %pal nprocs 16 end
|  3> %maxcore 3800
|  4> %base "DZ_S66by10_24_0.8_dimer"
|  5>
|  6> *xyz 0 1
|  7> C    0.71264532    1.12099570    0.06054078
|  8> H    1.35784165    1.98639917    0.12773717
|  9> C    1.25823573   -0.15925190    0.12423352
| 10> H    2.32495428   -0.28709988    0.24674303
| 11> C    0.42688496   -1.27452666    0.04265043
| 12> H    0.85044465   -2.26843268    0.09474995
| 13> C   -0.94957784   -1.11007406   -0.10031360
| 14> H   -1.59445570   -1.97627370   -0.16371348
| 15> C   -1.49552564    0.17105056   -0.16154602
| 16> H   -2.56378279    0.29922115   -0.27370311
| 17> C   -0.66382760    1.28664289   -0.08340143
| 18> H   -1.08690070    2.28100020   -0.13288613
| 19> C    1.70552689    1.11240529    2.90292943
| 20> H    2.35037201    1.97858903    2.96668014
| 21> C    2.25148002   -0.16874581    2.96444916
| 22> H    3.31968690   -0.29689286    3.07719338
| 23> C    1.41983054   -1.28434591    2.88579873
| 24> H    1.84291224   -2.27869834    2.93545239
| 25> C    0.04342898   -1.11871088    2.74108198
| 26> H   -0.60167362   -1.98412112    2.67344935
| 27> C   -0.50213089    0.16152187    2.67711615
| 28> H   -1.56875893    0.28935108    2.55393739
| 29> C    0.32914605    1.27680263    2.75918710
| 30> H   -0.09437883    2.27070766    2.70681817
| 31> *
| 32>
| 33> $new_job
| 34> ! ri-mp2 aug-cc-pvtz aug-cc-pvtz/c tightscf
| 35> %pal nprocs 16 end
| 36> %maxcore 3800
| 37> %base "TZ_S66by10_24_0.8_dimer"
| 38>
| 39> *xyz 0 1
| 40> C    0.71264532    1.12099570    0.06054078
| 41> H    1.35784165    1.98639917    0.12773717
| 42> C    1.25823573   -0.15925190    0.12423352
| 43> H    2.32495428   -0.28709988    0.24674303
| 44> C    0.42688496   -1.27452666    0.04265043
| 45> H    0.85044465   -2.26843268    0.09474995
| 46> C   -0.94957784   -1.11007406   -0.10031360
| 47> H   -1.59445570   -1.97627370   -0.16371348
| 48> C   -1.49552564    0.17105056   -0.16154602
| 49> H   -2.56378279    0.29922115   -0.27370311
| 50> C   -0.66382760    1.28664289   -0.08340143
| 51> H   -1.08690070    2.28100020   -0.13288613
| 52> C    1.70552689    1.11240529    2.90292943
| 53> H    2.35037201    1.97858903    2.96668014
| 54> C    2.25148002   -0.16874581    2.96444916
| 55> H    3.31968690   -0.29689286    3.07719338
| 56> C    1.41983054   -1.28434591    2.88579873
| 57> H    1.84291224   -2.27869834    2.93545239
| 58> C    0.04342898   -1.11871088    2.74108198
| 59> H   -0.60167362   -1.98412112    2.67344935
| 60> C   -0.50213089    0.16152187    2.67711615
| 61> H   -1.56875893    0.28935108    2.55393739
| 62> C    0.32914605    1.27680263    2.75918710
| 63> H   -0.09437883    2.27070766    2.70681817
| 64> *
| 65>
| 66> $new_job
| 67> ! ri-mp2 aug-cc-pvqz aug-cc-pvqz/c tightscf
| 68> %pal nprocs 16 end
| 69> %maxcore 3800
| 70> %base "QZ_S66by10_24_0.8_dimer"
| 71>
| 72> *xyz 0 1
| 73> C    0.71264532    1.12099570    0.06054078
| 74> H    1.35784165    1.98639917    0.12773717
| 75> C    1.25823573   -0.15925190    0.12423352
| 76> H    2.32495428   -0.28709988    0.24674303
| 77> C    0.42688496   -1.27452666    0.04265043
| 78> H    0.85044465   -2.26843268    0.09474995
| 79> C   -0.94957784   -1.11007406   -0.10031360
| 80> H   -1.59445570   -1.97627370   -0.16371348
| 81> C   -1.49552564    0.17105056   -0.16154602
| 82> H   -2.56378279    0.29922115   -0.27370311
| 83> C   -0.66382760    1.28664289   -0.08340143
| 84> H   -1.08690070    2.28100020   -0.13288613
| 85> C    1.70552689    1.11240529    2.90292943
| 86> H    2.35037201    1.97858903    2.96668014
| 87> C    2.25148002   -0.16874581    2.96444916
| 88> H    3.31968690   -0.29689286    3.07719338
| 89> C    1.41983054   -1.28434591    2.88579873
| 90> H    1.84291224   -2.27869834    2.93545239
| 91> C    0.04342898   -1.11871088    2.74108198
| 92> H   -0.60167362   -1.98412112    2.67344935
| 93> C   -0.50213089    0.16152187    2.67711615
| 94> H   -1.56875893    0.28935108    2.55393739
| 95> C    0.32914605    1.27680263    2.75918710
| 96> H   -0.09437883    2.27070766    2.70681817
| 97> *
| 98>
| 99>
|100>
|101>
|102>                          ****END OF INPUT****
 Total Charge           Charge          ....    0
 Multiplicity           Mult            ....    1
 Number of Electrons    NEL             ....   84
MP2 TOTAL ENERGY:     -463.076874682 Eh
FINAL SINGLE POINT ENERGY      -463.076874682265
MP2 TOTAL ENERGY:     -463.484571453 Eh
FINAL SINGLE POINT ENERGY      -463.484571452854

CARTESIAN COORDINATES (ANGSTROEM)
---------------------------------
  C      0.712645    1.120996    0.060541
  H      1.357842    1.986399    0.127737
  C      1.258236   -0.159252    0.124234
  H      2.324954   -0.287100    0.246743
  C      0.426885   -1.274527    0.042650
  H      0.850445   -2.268433    0.094750
  C     -0.949578   -1.110074   -0.100314
  H     -1.594456   -1.976274   -0.163713
  C     -1.495526    0.171051   -0.161546
  H     -2.563783    0.299221   -0.273703
  C     -0.663828    1.286643   -0.083401
  H     -1.086901    2.281000   -0.132886
  C      1.705527    1.112405    2.902929
  H      2.350372    1.978589    2.966680
  C      2.251480   -0.168746    2.964449
  H      3.319687   -0.296893    3.077193
  C      1.419831   -1.284346    2.885799
  H      1.842912   -2.278698    2.935452
  C      0.043429   -1.118711    2.741082
  H     -0.601674   -1.984121    2.673449
  C     -0.502131    0.161522    2.677116
  H     -1.568759    0.289351    2.553937
  C      0.329146    1.276803    2.759187
  H     -0.094379    2.270708    2.706818

 Multiplicity           Mult            ....    1
 Number of Electrons    NEL             ....   84
 Basis Dimension        Dim             .... 1512

ORBITAL ENERGIES
----------------

  NO   OCC          E(Eh)            E(eV)
   0   2.0000     -11.228018      -305.5299
   1   2.0000     -11.228001      -305.5295
   2   2.0000     -11.227847      -305.5253
   3   2.0000     -11.227831      -305.5248
   4   2.0000     -11.225662      -305.4658
   5   2.0000     -11.225655      -305.4656
   6   2.0000     -11.223522      -305.4076
   7   2.0000     -11.223502      -305.4070
   8   2.0000     -11.223126      -305.3968
   9   2.0000     -11.223115      -305.3965
  10   2.0000     -11.222692      -305.3850
  11   2.0000     -11.222682      -305.3847
  12   2.0000      -1.155401       -31.4401
  13   2.0000      -1.134058       -30.8593
  14   2.0000      -1.018828       -27.7237
  15   2.0000      -1.012459       -27.5504
  16   2.0000      -1.004476       -27.3332
  17   2.0000      -0.999965       -27.2104
  18   2.0000      -0.822740       -22.3879
  19   2.0000      -0.820493       -22.3267
  20   2.0000      -0.816378       -22.2148
  21   2.0000      -0.814090       -22.1525
  22   2.0000      -0.708480       -19.2787
  23   2.0000      -0.700237       -19.0544
  24   2.0000      -0.641070       -17.4444
  25   2.0000      -0.637141       -17.3375
  26   2.0000      -0.612677       -16.6718
  27   2.0000      -0.612383       -16.6638
  28   2.0000      -0.586590       -15.9619
  29   2.0000      -0.583464       -15.8769
  30   2.0000      -0.581910       -15.8346
  31   2.0000      -0.577867       -15.7246
  32   2.0000      -0.541761       -14.7421
  33   2.0000      -0.490357       -13.3433
  34   2.0000      -0.489872       -13.3301
  35   2.0000      -0.487876       -13.2758
  36   2.0000      -0.487475       -13.2649
  37   2.0000      -0.452213       -12.3053
  38   2.0000      -0.371291       -10.1033
  39   2.0000      -0.338721        -9.2171
  40   2.0000      -0.312814        -8.5121
  41   2.0000      -0.290170        -7.8959
  42   0.0000       0.024131         0.6566
  43   0.0000       0.027524         0.7490
  44   0.0000       0.027910         0.7595
  45   0.0000       0.037922         1.0319
  46   0.0000       0.038201         1.0395

MULLIKEN ATOMIC CHARGES
-----------------------
   0 C :   -0.045526
   1 H :    0.210802
   2 C :   -0.027987
   3 H :    0.258901
   4 C :   -0.124587
   5 H :    0.202687
   6 C :   -0.444980
   7 H :    0.234032
   8 C :   -0.288869
   9 H :    0.248046
  10 C :   -0.447905
  11 H :    0.225385
  12 C :   -0.444928
  13 H :    0.234286
  14 C :   -0.289600
  15 H :    0.248128
  16 C :   -0.447972
  17 H :    0.225419
  18 C :   -0.045807
  19 H :    0.210658
  20 C :   -0.026903
  21 H :    0.259624
  22 C :   -0.125282
  23 H :    0.202378
Sum of atomic charges:    0.0000000

LOEWDIN ATOMIC CHARGES
----------------------
   0 C :    0.292301
   1 H :   -0.301249
   2 C :    0.292689
   3 H :   -0.310474
   4 C :    0.295065
   5 H :   -0.299331
   6 C :    0.320922
   7 H :   -0.308946
   8 C :    0.319684
   9 H :   -0.311500
  10 C :    0.317566
  11 H :   -0.306600
  12 C :    0.321014
  13 H :   -0.309001
  14 C :    0.319796
  15 H :   -0.311550
  16 C :    0.317631
  17 H :   -0.306627
  18 C :    0.292262
  19 H :   -0.301305
  20 C :    0.292540
  21 H :   -0.310602
  22 C :    0.295068
  23 H :   -0.299354

  Mayer bond orders larger than 0.100000
B(  0-C ,  1-H ) :   1.1481 B(  0-C ,  2-C ) :   0.9867 B(  0-C ,  3-H ) :  -0.1383
B(  0-C ,  6-C ) :   0.1620 B(  0-C , 10-C ) :   1.1720 B(  1-H ,  2-C ) :  -0.1425
B(  2-C ,  3-H ) :   0.9968 B(  2-C ,  4-C ) :   0.9990 B(  2-C ,  5-H ) :  -0.1281
B(  2-C ,  8-C ) :   0.1354 B(  3-H ,  4-C ) :  -0.1424 B(  4-C ,  5-H ) :   1.1671
B(  4-C ,  6-C ) :   1.2119 B(  4-C , 10-C ) :   0.1565 B(  6-C ,  7-H ) :   1.1156
B(  6-C ,  8-C ) :   1.2702 B(  8-C ,  9-H ) :   1.1100 B(  8-C , 10-C ) :   1.2680
B( 10-C , 11-H ) :   1.1221 B( 12-C , 13-H ) :   1.1153 B( 12-C , 14-C ) :   1.2705
B( 12-C , 18-C ) :   0.1620 B( 12-C , 22-C ) :   1.2121 B( 14-C , 15-H ) :   1.1099
B( 14-C , 16-C ) :   1.2683 B( 14-C , 20-C ) :   0.1353 B( 16-C , 17-H ) :   1.1221
B( 16-C , 18-C ) :   1.1720 B( 16-C , 22-C ) :   0.1564 B( 18-C , 19-H ) :   1.1482
B( 18-C , 20-C ) :   0.9864 B( 18-C , 21-H ) :  -0.1384 B( 19-H , 20-C ) :  -0.1425
B( 20-C , 21-H ) :   0.9963 B( 20-C , 22-C ) :   0.9986 B( 20-C , 23-H ) :  -0.1280
B( 21-H , 22-C ) :  -0.1425 B( 22-C , 23-H ) :   1.1673

MP2 TOTAL ENERGY:     -463.612906368 Eh
FINAL SINGLE POINT ENERGY      -463.612906367742

DIPOLE MOMENT
-------------
                                X             Y             Z
Electronic contribution:     -0.00017       0.00001      -0.00004
Nuclear contribution   :      0.00013      -0.00001      -0.00023
                        -----------------------------------------
Total Dipole Moment    :     -0.00004       0.00000      -0.00027
                        -----------------------------------------
Magnitude (a.u.)       :      0.00027
Magnitude (Debye)      :      0.00070

Rotational constants in cm-1:     0.055472     0.031755     0.029024
Rotational constants in MHz :  1663.019597   951.998642   870.109439

                             ****ORCA TERMINATED NORMALLY****
TOTAL RUN TIME: 0 days 1 hours 40 minutes 51 seconds 906 msec
