                         Program Version 5.0.4 -  RELEASE  -
|  1> ! ri-mp2 aug-cc-pvdz aug-cc-pvdz/c tightscf
|  2> %pal nprocs 16 end
|  3> %maxcore 3800
|  4> %base "DZ_S66by10_25_1.25_dimer"
|  5>
|  6> *xyz 0 1
|  7> N    1.57248145    0.25454916   -0.25648131
|  8> C    0.96935990   -0.90316032    0.04452614
|  9> H    1.61363891   -1.77218121    0.10234520
| 10> C   -0.39815811   -1.02881911    0.28096043
| 11> H   -0.81842477   -1.99173710    0.53356364
| 12> C   -1.19580525    0.10655779    0.19539732
| 13> H   -2.26068964    0.04953865    0.37344280
| 14> C   -0.58712829    1.31741239   -0.12010544
| 15> H   -1.16181223    2.22950003   -0.20046257
| 16> C    0.78854733    1.33970567   -0.33224053
| 17> H    1.28843202    2.26879436   -0.57852690
| 18> N   -0.61965508   -1.58877669    4.59422594
| 19> C   -1.55213318   -0.62814724    4.66807710
| 20> H   -2.55492242   -0.95910204    4.91026997
| 21> C   -1.29013014    0.72292119    4.45869772
| 22> H   -2.08868789    1.44742662    4.53696881
| 23> C    0.00929720    1.11216247    4.14842931
| 24> H    0.25128175    2.15116095    3.97255806
| 25> C    0.98885650    0.12926431    4.06506785
| 26> H    2.01115774    0.37601006    3.81663087
| 27> C    0.62637678   -1.19587344    4.29826084
| 28> H    1.37023755   -1.98142808    4.24181224
| 29> *
| 30>
| 31> $new_job
| 32> ! ri-mp2 aug-cc-pvtz aug-cc-pvtz/c tightscf
| 33> %pal nprocs 16 end
| 34> %maxcore 3800
| 35> %base "TZ_S66by10_25_1.25_dimer"
| 36>
| 37> *xyz 0 1
| 38> N    1.57248145    0.25454916   -0.25648131
| 39> C    0.96935990   -0.90316032    0.04452614
| 40> H    1.61363891   -1.77218121    0.10234520
| 41> C   -0.39815811   -1.02881911    0.28096043
| 42> H   -0.81842477   -1.99173710    0.53356364
| 43> C   -1.19580525    0.10655779    0.19539732
| 44> H   -2.26068964    0.04953865    0.37344280
| 45> C   -0.58712829    1.31741239   -0.12010544
| 46> H   -1.16181223    2.22950003   -0.20046257
| 47> C    0.78854733    1.33970567   -0.33224053
| 48> H    1.28843202    2.26879436   -0.57852690
| 49> N   -0.61965508   -1.58877669    4.59422594
| 50> C   -1.55213318   -0.62814724    4.66807710
| 51> H   -2.55492242   -0.95910204    4.91026997
| 52> C   -1.29013014    0.72292119    4.45869772
| 53> H   -2.08868789    1.44742662    4.53696881
| 54> C    0.00929720    1.11216247    4.14842931
| 55> H    0.25128175    2.15116095    3.97255806
| 56> C    0.98885650    0.12926431    4.06506785
| 57> H    2.01115774    0.37601006    3.81663087
| 58> C    0.62637678   -1.19587344    4.29826084
| 59> H    1.37023755   -1.98142808    4.24181224
| 60> *
| 61>
| 62> $new_job
| 63> ! ri-mp2 aug-cc-pvqz aug-cc-pvqz/c tightscf
| 64> %pal nprocs 16 end
| 65> %maxcore 3800
| 66> %base "QZ_S66by10_25_1.25_dimer"
| 67>
| 68> *xyz 0 1
| 69> N    1.57248145    0.25454916   -0.25648131
| 70> C    0.96935990   -0.90316032    0.04452614
| 71> H    1.61363891   -1.77218121    0.10234520
| 72> C   -0.39815811   -1.02881911    0.28096043
| 73> H   -0.81842477   -1.99173710    0.53356364
| 74> C   -1.19580525    0.10655779    0.19539732
| 75> H   -2.26068964    0.04953865    0.37344280
| 76> C   -0.58712829    1.31741239   -0.12010544
| 77> H   -1.16181223    2.22950003   -0.20046257
| 78> C    0.78854733    1.33970567   -0.33224053
| 79> H    1.28843202    2.26879436   -0.57852690
| 80> N   -0.61965508   -1.58877669    4.59422594
| 81> C   -1.55213318   -0.62814724    4.66807710
| 82> H   -2.55492242   -0.95910204    4.91026997
| 83> C   -1.29013014    0.72292119    4.45869772
| 84> H   -2.08868789    1.44742662    4.53696881
| 85> C    0.00929720    1.11216247    4.14842931
| 86> H    0.25128175    2.15116095    3.97255806
| 87> C    0.98885650    0.12926431    4.06506785
| 88> H    2.01115774    0.37601006    3.81663087
| 89> C    0.62637678   -1.19587344    4.29826084
| 90> H    1.37023755   -1.98142808    4.24181224
| 91> *
| 92>
| 93>
| 94>
| 95>
| 96>                          ****END OF INPUT****
 Total Charge           Charge          ....    0
 Multiplicity           Mult            ....    1
 Number of Electrons    NEL             ....   84
MP2 TOTAL ENERGY:     -495.132757281 Eh
FINAL SINGLE POINT ENERGY      -495.132757280538
MP2 TOTAL ENERGY:     -495.560809685 Eh
FINAL SINGLE POINT ENERGY      -495.560809685203

CARTESIAN COORDINATES (ANGSTROEM)
---------------------------------
  N      1.572481    0.254549   -0.256481
  C      0.969360   -0.903160    0.044526
  H      1.613639   -1.772181    0.102345
  C     -0.398158   -1.028819    0.280960
  H     -0.818425   -1.991737    0.533564
  C     -1.195805    0.106558    0.195397
  H     -2.260690    0.049539    0.373443
  C     -0.587128    1.317412   -0.120105
  H     -1.161812    2.229500   -0.200463
  C      0.788547    1.339706   -0.332241
  H      1.288432    2.268794   -0.578527
  N     -0.619655   -1.588777    4.594226
  C     -1.552133   -0.628147    4.668077
  H     -2.554922   -0.959102    4.910270
  C     -1.290130    0.722921    4.458698
  H     -2.088688    1.447427    4.536969
  C      0.009297    1.112162    4.148429
  H      0.251282    2.151161    3.972558
  C      0.988856    0.129264    4.065068
  H      2.011158    0.376010    3.816631
  C      0.626377   -1.195873    4.298261
  H      1.370238   -1.981428    4.241812

 Multiplicity           Mult            ....    1
 Number of Electrons    NEL             ....   84
 Basis Dimension        Dim             .... 1420

ORBITAL ENERGIES
----------------

  NO   OCC          E(Eh)            E(eV)
   0   2.0000     -15.564492      -423.5314
   1   2.0000     -15.564462      -423.5305
   2   2.0000     -11.273600      -306.7703
   3   2.0000     -11.273574      -306.7696
   4   2.0000     -11.272915      -306.7516
   5   2.0000     -11.272881      -306.7507
   6   2.0000     -11.257703      -306.3377
   7   2.0000     -11.257669      -306.3367
   8   2.0000     -11.240486      -305.8692
   9   2.0000     -11.240453      -305.8683
  10   2.0000     -11.239003      -305.8288
  11   2.0000     -11.238961      -305.8277
  12   2.0000      -1.255533       -34.1648
  13   2.0000      -1.255275       -34.1578
  14   2.0000      -1.088569       -29.6215
  15   2.0000      -1.088011       -29.6063
  16   2.0000      -1.032367       -28.0921
  17   2.0000      -1.031935       -28.0804
  18   2.0000      -0.858149       -23.3514
  19   2.0000      -0.858019       -23.3479
  20   2.0000      -0.854661       -23.2565
  21   2.0000      -0.854625       -23.2555
  22   2.0000      -0.721146       -19.6234
  23   2.0000      -0.720669       -19.6104
  24   2.0000      -0.659537       -17.9469
  25   2.0000      -0.659379       -17.9426
  26   2.0000      -0.653114       -17.7721
  27   2.0000      -0.653011       -17.7693
  28   2.0000      -0.597224       -16.2513
  29   2.0000      -0.596920       -16.2430
  30   2.0000      -0.576151       -15.6779
  31   2.0000      -0.576114       -15.6769
  32   2.0000      -0.545020       -14.8307
  33   2.0000      -0.536117       -14.5885
  34   2.0000      -0.518888       -14.1197
  35   2.0000      -0.518839       -14.1183
  36   2.0000      -0.419680       -11.4201
  37   2.0000      -0.419428       -11.4132
  38   2.0000      -0.385205       -10.4820
  39   2.0000      -0.380662       -10.3583
  40   2.0000      -0.349974        -9.5233
  41   2.0000      -0.343274        -9.3410
  42   0.0000       0.020482         0.5573
  43   0.0000       0.027368         0.7447
  44   0.0000       0.029914         0.8140
  45   0.0000       0.033298         0.9061
  46   0.0000       0.038655         1.0518

MULLIKEN ATOMIC CHARGES
-----------------------
   0 N :   -0.669616
   1 C :   -0.122656
   2 H :    0.464615
   3 C :   -0.305448
   4 H :    0.345977
   5 C :   -0.324681
   6 H :    0.335568
   7 C :   -0.270434
   8 H :    0.336769
   9 C :   -0.260437
  10 H :    0.470405
  11 N :   -0.669980
  12 C :   -0.258791
  13 H :    0.470333
  14 C :   -0.271212
  15 H :    0.336092
  16 C :   -0.324465
  17 H :    0.335612
  18 C :   -0.304686
  19 H :    0.345806
  20 C :   -0.123274
  21 H :    0.464502
Sum of atomic charges:    0.0000000

LOEWDIN ATOMIC CHARGES
----------------------
   0 N :    0.589740
   1 C :    0.062226
   2 H :   -0.353781
   3 C :    0.320690
   4 H :   -0.325595
   5 C :    0.320550
   6 H :   -0.311815
   7 C :    0.321386
   8 H :   -0.330336
   9 C :    0.063316
  10 H :   -0.356382
  11 N :    0.589709
  12 C :    0.063207
  13 H :   -0.356342
  14 C :    0.321277
  15 H :   -0.330253
  16 C :    0.320611
  17 H :   -0.311755
  18 C :    0.320746
  19 H :   -0.325579
  20 C :    0.062165
  21 H :   -0.353784

  Mayer bond orders larger than 0.100000
B(  0-N ,  1-C ) :   1.1484 B(  0-N ,  2-H ) :  -0.1305 B(  0-N ,  9-C ) :   1.2237
B(  0-N , 10-H ) :  -0.1180 B(  1-C ,  2-H ) :   0.8846 B(  1-C ,  3-C ) :   1.2267
B(  1-C ,  7-C ) :   0.1313 B(  3-C ,  4-H ) :   0.9658 B(  3-C ,  5-C ) :   1.2071
B(  3-C ,  9-C ) :   0.1109 B(  5-C ,  6-H ) :   0.9637 B(  5-C ,  7-C ) :   1.2002
B(  7-C ,  8-H ) :   0.9799 B(  7-C ,  9-C ) :   1.2329 B(  9-C , 10-H ) :   0.8755
B( 11-N , 12-C ) :   1.2228 B( 11-N , 13-H ) :  -0.1182 B( 11-N , 20-C ) :   1.1490
B( 11-N , 21-H ) :  -0.1305 B( 12-C , 13-H ) :   0.8758 B( 12-C , 14-C ) :   1.2326
B( 12-C , 18-C ) :   0.1110 B( 14-C , 15-H ) :   0.9807 B( 14-C , 16-C ) :   1.2002
B( 14-C , 20-C ) :   0.1309 B( 16-C , 17-H ) :   0.9638 B( 16-C , 18-C ) :   1.2071
B( 18-C , 19-H ) :   0.9662 B( 18-C , 20-C ) :   1.2258 B( 20-C , 21-H ) :   0.8853

MP2 TOTAL ENERGY:     -495.697440457 Eh
FINAL SINGLE POINT ENERGY      -495.697440456915

DIPOLE MOMENT
-------------
                                X             Y             Z
Electronic contribution:      1.01040      -1.20546      -0.00202
Nuclear contribution   :     -1.68087       2.00584       0.00438
                        -----------------------------------------
Total Dipole Moment    :     -0.67048       0.80039       0.00236
                        -----------------------------------------
Magnitude (a.u.)       :      1.04411
Magnitude (Debye)      :      2.65392

Rotational constants in cm-1:     0.054036     0.017624     0.017161
Rotational constants in MHz :  1619.959569   528.345777   514.483055

                             ****ORCA TERMINATED NORMALLY****
TOTAL RUN TIME: 0 days 1 hours 6 minutes 35 seconds 740 msec
