                         Program Version 5.0.4 -  RELEASE  -
|  1> ! ri-mp2 aug-cc-pvdz aug-cc-pvdz/c tightscf
|  2> %pal nprocs 16 end
|  3> %maxcore 3800
|  4> %base "DZ_S66by10_5_2.0_dimer"
|  5> %scf STABPerform true end
|  6>
|  7> *xyz 0 1
|  8> O   -0.63613493   -0.02328241    0.28059932
|  9> H    0.30809737   -0.04707875    0.07646369
| 10> C   -1.15206541   -1.31128778    0.01525955
| 11> H   -2.20994502   -1.29626539    0.26395586
| 12> H   -1.05661024   -1.59267086   -1.03619061
| 13> H   -0.67483575   -2.08627276    0.62051145
| 14> O    4.17449046   -0.19960069   -0.10354395
| 15> H    4.64327977    0.41478384   -0.67320991
| 16> C    4.68332439   -0.04258175    1.21817337
| 17> H    4.12975531   -0.73077818    1.84830425
| 18> H    5.74232049   -0.29302065    1.27489651
| 19> H    4.53088475    0.96811230    1.59606592
| 20> *
| 21>
| 22> $new_job
| 23> ! ri-mp2 aug-cc-pvtz aug-cc-pvtz/c tightscf
| 24> %pal nprocs 16 end
| 25> %maxcore 3800
| 26> %base "TZ_S66by10_5_2.0_dimer"
| 27>
| 28> *xyz 0 1
| 29> O   -0.63613493   -0.02328241    0.28059932
| 30> H    0.30809737   -0.04707875    0.07646369
| 31> C   -1.15206541   -1.31128778    0.01525955
| 32> H   -2.20994502   -1.29626539    0.26395586
| 33> H   -1.05661024   -1.59267086   -1.03619061
| 34> H   -0.67483575   -2.08627276    0.62051145
| 35> O    4.17449046   -0.19960069   -0.10354395
| 36> H    4.64327977    0.41478384   -0.67320991
| 37> C    4.68332439   -0.04258175    1.21817337
| 38> H    4.12975531   -0.73077818    1.84830425
| 39> H    5.74232049   -0.29302065    1.27489651
| 40> H    4.53088475    0.96811230    1.59606592
| 41> *
| 42>
| 43> $new_job
| 44> ! ri-mp2 aug-cc-pvqz aug-cc-pvqz/c tightscf
| 45> %pal nprocs 16 end
| 46> %maxcore 3800
| 47> %base "QZ_S66by10_5_2.0_dimer"
| 48>
| 49> *xyz 0 1
| 50> O   -0.63613493   -0.02328241    0.28059932
| 51> H    0.30809737   -0.04707875    0.07646369
| 52> C   -1.15206541   -1.31128778    0.01525955
| 53> H   -2.20994502   -1.29626539    0.26395586
| 54> H   -1.05661024   -1.59267086   -1.03619061
| 55> H   -0.67483575   -2.08627276    0.62051145
| 56> O    4.17449046   -0.19960069   -0.10354395
| 57> H    4.64327977    0.41478384   -0.67320991
| 58> C    4.68332439   -0.04258175    1.21817337
| 59> H    4.12975531   -0.73077818    1.84830425
| 60> H    5.74232049   -0.29302065    1.27489651
| 61> H    4.53088475    0.96811230    1.59606592
| 62> *
| 63>
| 64>
| 65>
| 66>
| 67>                          ****END OF INPUT****
 Total Charge           Charge          ....    0
 Multiplicity           Mult            ....    1
 Number of Electrons    NEL             ....   36
MP2 TOTAL ENERGY:     -230.844605427 Eh
FINAL SINGLE POINT ENERGY      -230.844605427195
MP2 TOTAL ENERGY:     -231.059458809 Eh
FINAL SINGLE POINT ENERGY      -231.059458808991

CARTESIAN COORDINATES (ANGSTROEM)
---------------------------------
  O     -0.636135   -0.023282    0.280599
  H      0.308097   -0.047079    0.076464
  C     -1.152065   -1.311288    0.015260
  H     -2.209945   -1.296265    0.263956
  H     -1.056610   -1.592671   -1.036191
  H     -0.674836   -2.086273    0.620511
  O      4.174490   -0.199601   -0.103544
  H      4.643280    0.414784   -0.673210
  C      4.683324   -0.042582    1.218173
  H      4.129755   -0.730778    1.848304
  H      5.742320   -0.293021    1.274897
  H      4.530885    0.968112    1.596066

 Multiplicity           Mult            ....    1
 Number of Electrons    NEL             ....   36
 Basis Dimension        Dim             ....  688

ORBITAL ENERGIES
----------------

  NO   OCC          E(Eh)            E(eV)
   0   2.0000     -20.562609      -559.5370
   1   2.0000     -20.550981      -559.2206
   2   2.0000     -11.274280      -306.7887
   3   2.0000     -11.263180      -306.4867
   4   2.0000      -1.361766       -37.0555
   5   2.0000      -1.352303       -36.7980
   6   2.0000      -0.931612       -25.3504
   7   2.0000      -0.918623       -24.9970
   8   2.0000      -0.696218       -18.9451
   9   2.0000      -0.685419       -18.6512
  10   2.0000      -0.626342       -17.0436
  11   2.0000      -0.614453       -16.7201
  12   2.0000      -0.598153       -16.2766
  13   2.0000      -0.589093       -16.0300
  14   2.0000      -0.511105       -13.9079
  15   2.0000      -0.497944       -13.5497
  16   2.0000      -0.458592       -12.4789
  17   2.0000      -0.444595       -12.0980
  18   0.0000       0.023041         0.6270
  19   0.0000       0.033409         0.9091
  20   0.0000       0.035895         0.9768
  21   0.0000       0.040222         1.0945
  22   0.0000       0.046638         1.2691

MULLIKEN ATOMIC CHARGES
-----------------------
   0 O :   -0.713412
   1 H :    0.342925
   2 C :   -0.407690
   3 H :    0.302422
   4 H :    0.238856
   5 H :    0.234547
   6 O :   -0.707866
   7 H :    0.346206
   8 C :   -0.449448
   9 H :    0.286031
  10 H :    0.279213
  11 H :    0.248215
Sum of atomic charges:   -0.0000000

LOEWDIN ATOMIC CHARGES
----------------------
   0 O :    1.223976
   1 H :   -0.803665
   2 C :    0.562881
   3 H :   -0.343630
   4 H :   -0.320478
   5 H :   -0.320557
   6 O :    1.224604
   7 H :   -0.816252
   8 C :    0.581755
   9 H :   -0.345143
  10 H :   -0.321530
  11 H :   -0.321959

  Mayer bond orders larger than 0.100000
B(  0-O ,  1-H ) :   0.8971 B(  0-O ,  2-C ) :   0.8233 B(  2-C ,  3-H ) :   0.9015
B(  2-C ,  4-H ) :   0.9319 B(  2-C ,  5-H ) :   0.9288 B(  6-O ,  7-H ) :   0.8948
B(  6-O ,  8-C ) :   0.8223 B(  8-C ,  9-H ) :   0.9060 B(  8-C , 10-H ) :   0.9104
B(  8-C , 11-H ) :   0.9288

MP2 TOTAL ENERGY:     -231.127640994 Eh
FINAL SINGLE POINT ENERGY      -231.127640993954

DIPOLE MOMENT
-------------
                                X             Y             Z
Electronic contribution:     -0.11437       1.39566      -1.19500
Nuclear contribution   :      1.04240      -1.49422       1.18232
                        -----------------------------------------
Total Dipole Moment    :      0.92803      -0.09857      -0.01268
                        -----------------------------------------
Magnitude (a.u.)       :      0.93334
Magnitude (Debye)      :      2.37235

Rotational constants in cm-1:     0.499005     0.034853     0.034473
Rotational constants in MHz : 14959.783867  1044.857822  1033.465639

                             ****ORCA TERMINATED NORMALLY****
TOTAL RUN TIME: 0 days 0 hours 11 minutes 39 seconds 789 msec
