                         Program Version 5.0.4 -  RELEASE  -
|  1> ! ri-mp2 aug-cc-pvdz aug-cc-pvdz/c tightscf
|  2> %pal nprocs 16 end
|  3> %maxcore 3800
|  4> %base "DZ_S66by10_56_1.1_dimer"
|  5>
|  6> *xyz 0 1
|  7> C    0.69231523    1.08829204    0.32484124
|  8> H    1.28194880    1.99194678    0.25251578
|  9> C    1.31818722   -0.15687008    0.28689607
| 10> H    2.39314337   -0.21947636    0.18840681
| 11> C    0.55801841   -1.32195045    0.38139986
| 12> H    1.04391922   -2.28757380    0.35761542
| 13> C   -0.82755236   -1.24142187    0.51168501
| 14> H   -1.41670095   -2.14525152    0.58533927
| 15> C   -1.45341138    0.00367145    0.54838107
| 16> H   -2.52823255    0.06570272    0.64984254
| 17> C   -0.69346094    1.16840108    0.45622907
| 18> H   -1.17873534    2.13440989    0.48572685
| 19> N    0.24491651   -0.25061722    4.16597624
| 20> H    0.37953487   -0.20657672    3.16290488
| 21> H    0.38640908    0.69452952    4.49844851
| 22> C   -1.13118296   -0.65700063    4.44341203
| 23> H   -1.28905953   -0.68554763    5.51996756
| 24> H   -1.90248515   -0.01661984    4.00329303
| 25> H   -1.28587494   -1.66656843    4.06779033
| 26> *
| 27>
| 28> $new_job
| 29> ! ri-mp2 aug-cc-pvtz aug-cc-pvtz/c tightscf
| 30> %pal nprocs 16 end
| 31> %maxcore 3800
| 32> %base "TZ_S66by10_56_1.1_dimer"
| 33>
| 34> *xyz 0 1
| 35> C    0.69231523    1.08829204    0.32484124
| 36> H    1.28194880    1.99194678    0.25251578
| 37> C    1.31818722   -0.15687008    0.28689607
| 38> H    2.39314337   -0.21947636    0.18840681
| 39> C    0.55801841   -1.32195045    0.38139986
| 40> H    1.04391922   -2.28757380    0.35761542
| 41> C   -0.82755236   -1.24142187    0.51168501
| 42> H   -1.41670095   -2.14525152    0.58533927
| 43> C   -1.45341138    0.00367145    0.54838107
| 44> H   -2.52823255    0.06570272    0.64984254
| 45> C   -0.69346094    1.16840108    0.45622907
| 46> H   -1.17873534    2.13440989    0.48572685
| 47> N    0.24491651   -0.25061722    4.16597624
| 48> H    0.37953487   -0.20657672    3.16290488
| 49> H    0.38640908    0.69452952    4.49844851
| 50> C   -1.13118296   -0.65700063    4.44341203
| 51> H   -1.28905953   -0.68554763    5.51996756
| 52> H   -1.90248515   -0.01661984    4.00329303
| 53> H   -1.28587494   -1.66656843    4.06779033
| 54> *
| 55>
| 56> $new_job
| 57> ! ri-mp2 aug-cc-pvqz aug-cc-pvqz/c tightscf
| 58> %pal nprocs 16 end
| 59> %maxcore 3800
| 60> %base "QZ_S66by10_56_1.1_dimer"
| 61>
| 62> *xyz 0 1
| 63> C    0.69231523    1.08829204    0.32484124
| 64> H    1.28194880    1.99194678    0.25251578
| 65> C    1.31818722   -0.15687008    0.28689607
| 66> H    2.39314337   -0.21947636    0.18840681
| 67> C    0.55801841   -1.32195045    0.38139986
| 68> H    1.04391922   -2.28757380    0.35761542
| 69> C   -0.82755236   -1.24142187    0.51168501
| 70> H   -1.41670095   -2.14525152    0.58533927
| 71> C   -1.45341138    0.00367145    0.54838107
| 72> H   -2.52823255    0.06570272    0.64984254
| 73> C   -0.69346094    1.16840108    0.45622907
| 74> H   -1.17873534    2.13440989    0.48572685
| 75> N    0.24491651   -0.25061722    4.16597624
| 76> H    0.37953487   -0.20657672    3.16290488
| 77> H    0.38640908    0.69452952    4.49844851
| 78> C   -1.13118296   -0.65700063    4.44341203
| 79> H   -1.28905953   -0.68554763    5.51996756
| 80> H   -1.90248515   -0.01661984    4.00329303
| 81> H   -1.28587494   -1.66656843    4.06779033
| 82> *
| 83>
| 84>
| 85>
| 86>
| 87>                          ****END OF INPUT****
 Total Charge           Charge          ....    0
 Multiplicity           Mult            ....    1
 Number of Electrons    NEL             ....   60
MP2 TOTAL ENERGY:     -327.119030663 Eh
FINAL SINGLE POINT ENERGY      -327.119030663353
MP2 TOTAL ENERGY:     -327.417893726 Eh
FINAL SINGLE POINT ENERGY      -327.417893726279

CARTESIAN COORDINATES (ANGSTROEM)
---------------------------------
  C      0.692315    1.088292    0.324841
  H      1.281949    1.991947    0.252516
  C      1.318187   -0.156870    0.286896
  H      2.393143   -0.219476    0.188407
  C      0.558018   -1.321950    0.381400
  H      1.043919   -2.287574    0.357615
  C     -0.827552   -1.241422    0.511685
  H     -1.416701   -2.145252    0.585339
  C     -1.453411    0.003671    0.548381
  H     -2.528233    0.065703    0.649843
  C     -0.693461    1.168401    0.456229
  H     -1.178735    2.134410    0.485727
  N      0.244917   -0.250617    4.165976
  H      0.379535   -0.206577    3.162905
  H      0.386409    0.694530    4.498449
  C     -1.131183   -0.657001    4.443412
  H     -1.289060   -0.685548    5.519968
  H     -1.902485   -0.016620    4.003293
  H     -1.285875   -1.666568    4.067790

 Multiplicity           Mult            ....    1
 Number of Electrons    NEL             ....   60
 Basis Dimension        Dim             .... 1146

ORBITAL ENERGIES
----------------

  NO   OCC          E(Eh)            E(eV)
   0   2.0000     -15.525839      -422.4795
   1   2.0000     -11.240873      -305.8797
   2   2.0000     -11.240234      -305.8623
   3   2.0000     -11.240144      -305.8599
   4   2.0000     -11.239042      -305.8299
   5   2.0000     -11.238918      -305.8265
   6   2.0000     -11.238277      -305.8091
   7   2.0000     -11.230350      -305.5934
   8   2.0000      -1.160413       -31.5765
   9   2.0000      -1.155641       -31.4466
  10   2.0000      -1.020314       -27.7642
  11   2.0000      -1.020241       -27.7622
  12   2.0000      -0.885985       -24.1089
  13   2.0000      -0.829527       -22.5726
  14   2.0000      -0.829478       -22.5712
  15   2.0000      -0.715234       -19.4625
  16   2.0000      -0.651080       -17.7168
  17   2.0000      -0.649399       -17.6711
  18   2.0000      -0.624678       -16.9984
  19   2.0000      -0.595385       -16.2013
  20   2.0000      -0.593599       -16.1526
  21   2.0000      -0.593389       -16.1469
  22   2.0000      -0.545451       -14.8425
  23   2.0000      -0.511117       -13.9082
  24   2.0000      -0.503678       -13.7058
  25   2.0000      -0.500356       -13.6154
  26   2.0000      -0.500306       -13.6140
  27   2.0000      -0.383406       -10.4330
  28   2.0000      -0.343289        -9.3414
  29   2.0000      -0.343101        -9.3363
  30   0.0000       0.023827         0.6484
  31   0.0000       0.028830         0.7845
  32   0.0000       0.029936         0.8146
  33   0.0000       0.037189         1.0120
  34   0.0000       0.041456         1.1281

MULLIKEN ATOMIC CHARGES
-----------------------
   0 C :   -0.326909
   1 H :    0.357714
   2 C :   -0.335554
   3 H :    0.315808
   4 C :   -0.291357
   5 H :    0.320802
   6 C :   -0.369155
   7 H :    0.329908
   8 C :   -0.349540
   9 H :    0.281963
  10 C :   -0.289883
  11 H :    0.331953
  12 N :   -0.728505
  13 H :    0.379713
  14 H :    0.249288
  15 C :   -0.863868
  16 H :    0.431739
  17 H :    0.266690
  18 H :    0.289196
Sum of atomic charges:   -0.0000000

LOEWDIN ATOMIC CHARGES
----------------------
   0 C :    0.328269
   1 H :   -0.323710
   2 C :    0.328346
   3 H :   -0.322196
   4 C :    0.327514
   5 H :   -0.320873
   6 C :    0.321704
   7 H :   -0.321184
   8 C :    0.319890
   9 H :   -0.322108
  10 C :    0.326932
  11 H :   -0.323581
  12 N :    1.262931
  13 H :   -0.578007
  14 H :   -0.521789
  15 C :    0.739558
  16 H :   -0.312624
  17 H :   -0.294448
  18 H :   -0.314624

  Mayer bond orders larger than 0.100000
B(  0-C ,  1-H ) :   1.0038 B(  0-C ,  2-C ) :   1.1600 B(  0-C ,  6-C ) :   0.1290
B(  0-C , 10-C ) :   1.2247 B(  2-C ,  3-H ) :   1.0570 B(  2-C ,  4-C ) :   1.2254
B(  2-C ,  8-C ) :   0.1153 B(  4-C ,  5-H ) :   1.0482 B(  4-C ,  6-C ) :   1.2342
B(  4-C , 10-C ) :   0.1968 B(  6-C ,  7-H ) :   1.0250 B(  6-C ,  8-C ) :   1.1809
B(  8-C ,  9-H ) :   1.0688 B(  8-C , 10-C ) :   1.2314 B( 10-C , 11-H ) :   1.0156
B( 12-N , 13-H ) :   0.7878 B( 12-N , 14-H ) :   0.9239 B( 12-N , 15-C ) :   1.0076
B( 15-C , 16-H ) :   0.8043 B( 15-C , 17-H ) :   0.9125 B( 15-C , 18-H ) :   0.9183

MP2 TOTAL ENERGY:     -327.511176899 Eh
FINAL SINGLE POINT ENERGY      -327.511176899348

DIPOLE MOMENT
-------------
                                X             Y             Z
Electronic contribution:      1.71934       0.73289      -7.01981
Nuclear contribution   :     -2.04623      -0.37371       6.64142
                        -----------------------------------------
Total Dipole Moment    :     -0.32689       0.35918      -0.37839
                        -----------------------------------------
Magnitude (a.u.)       :      0.61567
Magnitude (Debye)      :      1.56491

Rotational constants in cm-1:     0.088342     0.038285     0.037459
Rotational constants in MHz :  2648.426997  1147.743713  1122.992579

                             ****ORCA TERMINATED NORMALLY****
TOTAL RUN TIME: 0 days 0 hours 27 minutes 39 seconds 864 msec
