                         Program Version 5.0.4 -  RELEASE  -
|  1> ! ri-mp2 aug-cc-pvdz aug-cc-pvdz/c tightscf
|  2> %pal nprocs 16 end
|  3> %maxcore 3800
|  4> %base "DZ_S66by10_19_0.95_dimer"
|  5>
|  6> *xyz 0 1
|  7> O   -0.62765177    0.08746727    0.00147128
|  8> H    0.34360203    0.12230333   -0.00060045
|  9> C   -0.97793123   -1.27855601    0.00123841
| 10> H   -2.06339209   -1.34204332    0.00500898
| 11> H   -0.61488369   -1.80637584   -0.88538395
| 12> H   -0.60864033   -1.80823682    0.88417273
| 13> N    2.19606418    0.02061901   -0.00158625
| 14> C    2.89243256   -0.00381632   -1.14630585
| 15> H    2.30795397    0.01940721   -2.05728129
| 16> C    4.28206963   -0.05355919   -1.19499110
| 17> H    4.78942197   -0.07085122   -2.14877383
| 18> C    4.99244286   -0.07927180    0.00062192
| 19> H    6.07277886   -0.11703656    0.00147122
| 20> C    4.28019540   -0.05425070    1.19516178
| 21> H    4.78599414   -0.07207502    2.14964747
| 22> C    2.89064176   -0.00450101    1.14420769
| 23> H    2.30463597    0.01817342    2.05432638
| 24> *
| 25>
| 26> $new_job
| 27> ! ri-mp2 aug-cc-pvtz aug-cc-pvtz/c tightscf
| 28> %pal nprocs 16 end
| 29> %maxcore 3800
| 30> %base "TZ_S66by10_19_0.95_dimer"
| 31>
| 32> *xyz 0 1
| 33> O   -0.62765177    0.08746727    0.00147128
| 34> H    0.34360203    0.12230333   -0.00060045
| 35> C   -0.97793123   -1.27855601    0.00123841
| 36> H   -2.06339209   -1.34204332    0.00500898
| 37> H   -0.61488369   -1.80637584   -0.88538395
| 38> H   -0.60864033   -1.80823682    0.88417273
| 39> N    2.19606418    0.02061901   -0.00158625
| 40> C    2.89243256   -0.00381632   -1.14630585
| 41> H    2.30795397    0.01940721   -2.05728129
| 42> C    4.28206963   -0.05355919   -1.19499110
| 43> H    4.78942197   -0.07085122   -2.14877383
| 44> C    4.99244286   -0.07927180    0.00062192
| 45> H    6.07277886   -0.11703656    0.00147122
| 46> C    4.28019540   -0.05425070    1.19516178
| 47> H    4.78599414   -0.07207502    2.14964747
| 48> C    2.89064176   -0.00450101    1.14420769
| 49> H    2.30463597    0.01817342    2.05432638
| 50> *
| 51>
| 52> $new_job
| 53> ! ri-mp2 aug-cc-pvqz aug-cc-pvqz/c tightscf
| 54> %pal nprocs 16 end
| 55> %maxcore 3800
| 56> %base "QZ_S66by10_19_0.95_dimer"
| 57>
| 58> *xyz 0 1
| 59> O   -0.62765177    0.08746727    0.00147128
| 60> H    0.34360203    0.12230333   -0.00060045
| 61> C   -0.97793123   -1.27855601    0.00123841
| 62> H   -2.06339209   -1.34204332    0.00500898
| 63> H   -0.61488369   -1.80637584   -0.88538395
| 64> H   -0.60864033   -1.80823682    0.88417273
| 65> N    2.19606418    0.02061901   -0.00158625
| 66> C    2.89243256   -0.00381632   -1.14630585
| 67> H    2.30795397    0.01940721   -2.05728129
| 68> C    4.28206963   -0.05355919   -1.19499110
| 69> H    4.78942197   -0.07085122   -2.14877383
| 70> C    4.99244286   -0.07927180    0.00062192
| 71> H    6.07277886   -0.11703656    0.00147122
| 72> C    4.28019540   -0.05425070    1.19516178
| 73> H    4.78599414   -0.07207502    2.14964747
| 74> C    2.89064176   -0.00450101    1.14420769
| 75> H    2.30463597    0.01817342    2.05432638
| 76> *
| 77>
| 78>
| 79>
| 80>
| 81>                          ****END OF INPUT****
 Total Charge           Charge          ....    0
 Multiplicity           Mult            ....    1
 Number of Electrons    NEL             ....   60
MP2 TOTAL ENERGY:     -362.997322924 Eh
FINAL SINGLE POINT ENERGY      -362.997322924237
MP2 TOTAL ENERGY:     -363.319122751 Eh
FINAL SINGLE POINT ENERGY      -363.319122751106

CARTESIAN COORDINATES (ANGSTROEM)
---------------------------------
  O     -0.627652    0.087467    0.001471
  H      0.343602    0.122303   -0.000600
  C     -0.977931   -1.278556    0.001238
  H     -2.063392   -1.342043    0.005009
  H     -0.614884   -1.806376   -0.885384
  H     -0.608640   -1.808237    0.884173
  N      2.196064    0.020619   -0.001586
  C      2.892433   -0.003816   -1.146306
  H      2.307954    0.019407   -2.057281
  C      4.282070   -0.053559   -1.194991
  H      4.789422   -0.070851   -2.148774
  C      4.992443   -0.079272    0.000622
  H      6.072779   -0.117037    0.001471
  C      4.280195   -0.054251    1.195162
  H      4.785994   -0.072075    2.149647
  C      2.890642   -0.004501    1.144208
  H      2.304636    0.018173    2.054326

 Multiplicity           Mult            ....    1
 Number of Electrons    NEL             ....   60
 Basis Dimension        Dim             .... 1054

ORBITAL ENERGIES
----------------

  NO   OCC          E(Eh)            E(eV)
   0   2.0000     -20.511180      -558.1376
   1   2.0000     -15.583544      -424.0498
   2   2.0000     -11.290494      -307.2300
   3   2.0000     -11.290476      -307.2295
   4   2.0000     -11.273449      -306.7661
   5   2.0000     -11.254271      -306.2443
   6   2.0000     -11.254220      -306.2429
   7   2.0000     -11.243221      -305.9436
   8   2.0000      -1.319830       -35.9144
   9   2.0000      -1.274907       -34.6920
  10   2.0000      -1.104466       -30.0540
  11   2.0000      -1.049138       -28.5485
  12   2.0000      -0.895919       -24.3792
  13   2.0000      -0.874111       -23.7858
  14   2.0000      -0.872185       -23.7334
  15   2.0000      -0.739587       -20.1252
  16   2.0000      -0.676796       -18.4166
  17   2.0000      -0.670293       -18.2396
  18   2.0000      -0.662173       -18.0187
  19   2.0000      -0.613618       -16.6974
  20   2.0000      -0.590806       -16.0767
  21   2.0000      -0.590337       -16.0639
  22   2.0000      -0.563427       -15.3316
  23   2.0000      -0.557114       -15.1598
  24   2.0000      -0.535057       -14.5596
  25   2.0000      -0.481561       -13.1039
  26   2.0000      -0.432374       -11.7655
  27   2.0000      -0.414513       -11.2795
  28   2.0000      -0.400869       -10.9082
  29   2.0000      -0.362079        -9.8527
  30   0.0000       0.018534         0.5043
  31   0.0000       0.025847         0.7033
  32   0.0000       0.031190         0.8487
  33   0.0000       0.040708         1.1077
  34   0.0000       0.042661         1.1609

MULLIKEN ATOMIC CHARGES
-----------------------
   0 O :   -0.766727
   1 H :    0.298051
   2 C :   -0.608441
   3 H :    0.445029
   4 H :    0.252274
   5 H :    0.252383
   6 N :   -0.448283
   7 C :   -0.302119
   8 H :    0.371201
   9 C :   -0.167634
  10 H :    0.299074
  11 C :   -0.158052
  12 H :    0.332353
  13 C :   -0.167421
  14 H :    0.299294
  15 C :   -0.301852
  16 H :    0.370870
Sum of atomic charges:    0.0000000

LOEWDIN ATOMIC CHARGES
----------------------
   0 O :    1.237144
   1 H :   -1.069919
   2 C :    0.549056
   3 H :   -0.345754
   4 H :   -0.319803
   5 H :   -0.319842
   6 N :    0.622171
   7 C :    0.128943
   8 H :   -0.334922
   9 C :    0.344196
  10 H :   -0.327881
  11 C :    0.337873
  12 H :   -0.311676
  13 C :    0.344291
  14 H :   -0.327977
  15 C :    0.128882
  16 H :   -0.334784

  Mayer bond orders larger than 0.100000
B(  0-O ,  1-H ) :   0.8948 B(  0-O ,  2-C ) :   0.8696 B(  1-H ,  6-N ) :   0.1044
B(  2-C ,  3-H ) :   0.8051 B(  2-C ,  4-H ) :   0.9182 B(  2-C ,  5-H ) :   0.9179
B(  6-N ,  7-C ) :   1.4301 B(  6-N , 15-C ) :   1.4301 B(  7-C ,  8-H ) :   0.9522
B(  7-C ,  9-C ) :   1.1814 B(  7-C , 10-H ) :  -0.1007 B(  7-C , 11-C ) :  -0.1066
B(  7-C , 13-C ) :   0.1102 B(  9-C , 10-H ) :   1.0138 B(  9-C , 11-C ) :   1.1733
B(  9-C , 13-C ) :  -0.1050 B(  9-C , 15-C ) :   0.1101 B( 11-C , 12-H ) :   0.9854
B( 11-C , 13-C ) :   1.1735 B( 11-C , 15-C ) :  -0.1069 B( 13-C , 14-H ) :   1.0136
B( 13-C , 15-C ) :   1.1809 B( 14-H , 15-C ) :  -0.1007 B( 15-C , 16-H ) :   0.9525

MP2 TOTAL ENERGY:     -363.421416313 Eh
FINAL SINGLE POINT ENERGY      -363.421416312516

DIPOLE MOMENT
-------------
                                X             Y             Z
Electronic contribution:      5.31998       2.65549      -0.00303
Nuclear contribution   :     -3.45057      -3.13492       0.00220
                        -----------------------------------------
Total Dipole Moment    :      1.86941      -0.47943      -0.00082
                        -----------------------------------------
Magnitude (a.u.)       :      1.92991
Magnitude (Debye)      :      4.90545

Rotational constants in cm-1:     0.163482     0.030800     0.027426
Rotational constants in MHz :  4901.074214   923.375305   822.216809

                             ****ORCA TERMINATED NORMALLY****
TOTAL RUN TIME: 0 days 0 hours 26 minutes 21 seconds 644 msec
