                         Program Version 5.0.4 -  RELEASE  -
|  1> ! ri-mp2 aug-cc-pvdz aug-cc-pvdz/c tightscf
|  2> %pal nprocs 16 end
|  3> %maxcore 3800
|  4> %base "DZ_S66by10_56_1.25_dimer"
|  5>
|  6> *xyz 0 1
|  7> C    0.69231523    1.08829204    0.32484124
|  8> H    1.28194880    1.99194678    0.25251578
|  9> C    1.31818722   -0.15687008    0.28689607
| 10> H    2.39314337   -0.21947636    0.18840681
| 11> C    0.55801841   -1.32195045    0.38139986
| 12> H    1.04391922   -2.28757380    0.35761542
| 13> C   -0.82755236   -1.24142187    0.51168501
| 14> H   -1.41670095   -2.14525152    0.58533927
| 15> C   -1.45341138    0.00367145    0.54838107
| 16> H   -2.52823255    0.06570272    0.64984254
| 17> C   -0.69346094    1.16840108    0.45622907
| 18> H   -1.17873534    2.13440989    0.48572685
| 19> N    0.20086761   -0.29138118    4.61462745
| 20> H    0.33548596   -0.24734068    3.61155609
| 21> H    0.34236018    0.65376556    4.94709973
| 22> C   -1.17523187   -0.69776459    4.89206324
| 23> H   -1.33310843   -0.72631160    5.96861878
| 24> H   -1.94653406   -0.05738380    4.45194424
| 25> H   -1.32992385   -1.70733239    4.51644154
| 26> *
| 27>
| 28> $new_job
| 29> ! ri-mp2 aug-cc-pvtz aug-cc-pvtz/c tightscf
| 30> %pal nprocs 16 end
| 31> %maxcore 3800
| 32> %base "TZ_S66by10_56_1.25_dimer"
| 33>
| 34> *xyz 0 1
| 35> C    0.69231523    1.08829204    0.32484124
| 36> H    1.28194880    1.99194678    0.25251578
| 37> C    1.31818722   -0.15687008    0.28689607
| 38> H    2.39314337   -0.21947636    0.18840681
| 39> C    0.55801841   -1.32195045    0.38139986
| 40> H    1.04391922   -2.28757380    0.35761542
| 41> C   -0.82755236   -1.24142187    0.51168501
| 42> H   -1.41670095   -2.14525152    0.58533927
| 43> C   -1.45341138    0.00367145    0.54838107
| 44> H   -2.52823255    0.06570272    0.64984254
| 45> C   -0.69346094    1.16840108    0.45622907
| 46> H   -1.17873534    2.13440989    0.48572685
| 47> N    0.20086761   -0.29138118    4.61462745
| 48> H    0.33548596   -0.24734068    3.61155609
| 49> H    0.34236018    0.65376556    4.94709973
| 50> C   -1.17523187   -0.69776459    4.89206324
| 51> H   -1.33310843   -0.72631160    5.96861878
| 52> H   -1.94653406   -0.05738380    4.45194424
| 53> H   -1.32992385   -1.70733239    4.51644154
| 54> *
| 55>
| 56> $new_job
| 57> ! ri-mp2 aug-cc-pvqz aug-cc-pvqz/c tightscf
| 58> %pal nprocs 16 end
| 59> %maxcore 3800
| 60> %base "QZ_S66by10_56_1.25_dimer"
| 61>
| 62> *xyz 0 1
| 63> C    0.69231523    1.08829204    0.32484124
| 64> H    1.28194880    1.99194678    0.25251578
| 65> C    1.31818722   -0.15687008    0.28689607
| 66> H    2.39314337   -0.21947636    0.18840681
| 67> C    0.55801841   -1.32195045    0.38139986
| 68> H    1.04391922   -2.28757380    0.35761542
| 69> C   -0.82755236   -1.24142187    0.51168501
| 70> H   -1.41670095   -2.14525152    0.58533927
| 71> C   -1.45341138    0.00367145    0.54838107
| 72> H   -2.52823255    0.06570272    0.64984254
| 73> C   -0.69346094    1.16840108    0.45622907
| 74> H   -1.17873534    2.13440989    0.48572685
| 75> N    0.20086761   -0.29138118    4.61462745
| 76> H    0.33548596   -0.24734068    3.61155609
| 77> H    0.34236018    0.65376556    4.94709973
| 78> C   -1.17523187   -0.69776459    4.89206324
| 79> H   -1.33310843   -0.72631160    5.96861878
| 80> H   -1.94653406   -0.05738380    4.45194424
| 81> H   -1.32992385   -1.70733239    4.51644154
| 82> *
| 83>
| 84>
| 85>
| 86>
| 87>                          ****END OF INPUT****
 Total Charge           Charge          ....    0
 Multiplicity           Mult            ....    1
 Number of Electrons    NEL             ....   60
MP2 TOTAL ENERGY:     -327.116340232 Eh
FINAL SINGLE POINT ENERGY      -327.116340232469
MP2 TOTAL ENERGY:     -327.415798948 Eh
FINAL SINGLE POINT ENERGY      -327.415798947867

CARTESIAN COORDINATES (ANGSTROEM)
---------------------------------
  C      0.692315    1.088292    0.324841
  H      1.281949    1.991947    0.252516
  C      1.318187   -0.156870    0.286896
  H      2.393143   -0.219476    0.188407
  C      0.558018   -1.321950    0.381400
  H      1.043919   -2.287574    0.357615
  C     -0.827552   -1.241422    0.511685
  H     -1.416701   -2.145252    0.585339
  C     -1.453411    0.003671    0.548381
  H     -2.528233    0.065703    0.649843
  C     -0.693461    1.168401    0.456229
  H     -1.178735    2.134410    0.485727
  N      0.200868   -0.291381    4.614627
  H      0.335486   -0.247341    3.611556
  H      0.342360    0.653766    4.947100
  C     -1.175232   -0.697765    4.892063
  H     -1.333108   -0.726312    5.968619
  H     -1.946534   -0.057384    4.451944
  H     -1.329924   -1.707332    4.516442

 Multiplicity           Mult            ....    1
 Number of Electrons    NEL             ....   60
 Basis Dimension        Dim             .... 1146

ORBITAL ENERGIES
----------------

  NO   OCC          E(Eh)            E(eV)
   0   2.0000     -15.529079      -422.5677
   1   2.0000     -11.240016      -305.8564
   2   2.0000     -11.239415      -305.8400
   3   2.0000     -11.239341      -305.8380
   4   2.0000     -11.238183      -305.8065
   5   2.0000     -11.238131      -305.8051
   6   2.0000     -11.237487      -305.7876
   7   2.0000     -11.232399      -305.6491
   8   2.0000      -1.162784       -31.6410
   9   2.0000      -1.154926       -31.4271
  10   2.0000      -1.019319       -27.7371
  11   2.0000      -1.019263       -27.7355
  12   2.0000      -0.888148       -24.1677
  13   2.0000      -0.828659       -22.5490
  14   2.0000      -0.828628       -22.5481
  15   2.0000      -0.714329       -19.4379
  16   2.0000      -0.653245       -17.7757
  17   2.0000      -0.648654       -17.6508
  18   2.0000      -0.623813       -16.9748
  19   2.0000      -0.597122       -16.2485
  20   2.0000      -0.592760       -16.1298
  21   2.0000      -0.592693       -16.1280
  22   2.0000      -0.547668       -14.9028
  23   2.0000      -0.510247       -13.8845
  24   2.0000      -0.506184       -13.7740
  25   2.0000      -0.499562       -13.5938
  26   2.0000      -0.499511       -13.5924
  27   2.0000      -0.386066       -10.5054
  28   2.0000      -0.342123        -9.3096
  29   2.0000      -0.341995        -9.3061
  30   0.0000       0.023767         0.6467
  31   0.0000       0.028763         0.7827
  32   0.0000       0.029817         0.8114
  33   0.0000       0.036657         0.9975
  34   0.0000       0.041426         1.1272

MULLIKEN ATOMIC CHARGES
-----------------------
   0 C :   -0.332901
   1 H :    0.343030
   2 C :   -0.359385
   3 H :    0.330973
   4 C :   -0.305160
   5 H :    0.343826
   6 C :   -0.350620
   7 H :    0.322691
   8 C :   -0.349123
   9 H :    0.295356
  10 C :   -0.282606
  11 H :    0.331242
  12 N :   -0.709463
  13 H :    0.344747
  14 H :    0.248107
  15 C :   -0.827437
  16 H :    0.400797
  17 H :    0.261351
  18 H :    0.294576
Sum of atomic charges:   -0.0000000

LOEWDIN ATOMIC CHARGES
----------------------
   0 C :    0.327074
   1 H :   -0.325887
   2 C :    0.327647
   3 H :   -0.324999
   4 C :    0.326828
   5 H :   -0.324276
   6 C :    0.323356
   7 H :   -0.324666
   8 C :    0.322547
   9 H :   -0.325167
  10 C :    0.325772
  11 H :   -0.325917
  12 N :    1.257677
  13 H :   -0.547812
  14 H :   -0.527360
  15 C :    0.740210
  16 H :   -0.314598
  17 H :   -0.294464
  18 H :   -0.315964

  Mayer bond orders larger than 0.100000
B(  0-C ,  1-H ) :   1.0020 B(  0-C ,  2-C ) :   1.2049 B(  0-C ,  6-C ) :   0.1303
B(  0-C , 10-C ) :   1.2338 B(  2-C ,  3-H ) :   1.0137 B(  2-C ,  4-C ) :   1.2461
B(  2-C ,  8-C ) :   0.1297 B(  4-C ,  5-H ) :   0.9985 B(  4-C ,  6-C ) :   1.2379
B(  4-C , 10-C ) :   0.1636 B(  6-C ,  7-H ) :   1.0162 B(  6-C ,  8-C ) :   1.2067
B(  8-C ,  9-H ) :   1.0425 B(  8-C , 10-C ) :   1.2274 B( 10-C , 11-H ) :   1.0084
B( 12-N , 13-H ) :   0.8143 B( 12-N , 14-H ) :   0.9278 B( 12-N , 15-C ) :   1.0056
B( 15-C , 16-H ) :   0.8346 B( 15-C , 17-H ) :   0.9160 B( 15-C , 18-H ) :   0.9123

MP2 TOTAL ENERGY:     -327.509306363 Eh
FINAL SINGLE POINT ENERGY      -327.509306362955

DIPOLE MOMENT
-------------
                                X             Y             Z
Electronic contribution:      1.79459       0.80808      -7.78275
Nuclear contribution   :     -2.12371      -0.44541       7.43057
                        -----------------------------------------
Total Dipole Moment    :     -0.32911       0.36267      -0.35218
                        -----------------------------------------
Magnitude (a.u.)       :      0.60322
Magnitude (Debye)      :      1.53328

Rotational constants in cm-1:     0.088066     0.032243     0.031623
Rotational constants in MHz :  2640.137450   966.628395   948.043040

                             ****ORCA TERMINATED NORMALLY****
TOTAL RUN TIME: 0 days 0 hours 34 minutes 12 seconds 251 msec
