                         Program Version 5.0.4 -  RELEASE  -
|  1> ! ri-mp2 aug-cc-pvdz aug-cc-pvdz/c tightscf
|  2> %pal nprocs 16 end
|  3> %maxcore 3800
|  4> %base "DZ_S66by10_61_1.25_dimer"
|  5> %scf STABPerform true end
|  6>
|  7> *xyz 0 1
|  8> C   -2.27534498   -0.13507494    0.83133387
|  9> H   -2.49071776   -0.72792669   -0.05756635
| 10> H   -2.22632382   -0.81844641    1.67882341
| 11> H   -3.11202566    0.54494342    0.98740008
| 12> C   -0.96169812    0.61927789    0.66939920
| 13> H   -0.78869920    1.25043181    1.54470266
| 14> H   -1.02617687    1.29544524   -0.18645838
| 15> C    0.22650217   -0.31471031    0.47998579
| 16> H    0.30944439   -0.97513911    1.34803794
| 17> H    0.03915056   -0.96599875   -0.37878983
| 18> C    1.54300168    0.42117452    0.26899951
| 19> H    1.71163863    1.10777177    1.10244654
| 20> H    1.46609466    1.04374331   -0.62529358
| 21> C    2.72757632   -0.52686091    0.13745931
| 22> H    2.58874155   -1.20321391   -0.70575734
| 23> H    3.66150100    0.01169308   -0.01596863
| 24> H    2.83519407   -1.13740994    1.03407512
| 25> C   -0.61462859   -0.32186317    4.79243171
| 26> O   -1.03724253   -1.43704342    4.59528513
| 27> O   -1.42832094    0.73710235    5.02502119
| 28> H   -2.32908305    0.38272181    4.98448545
| 29> C    0.82563848    0.08780291    4.80963709
| 30> H    1.45146154   -0.78237804    4.65148193
| 31> H    1.00167589    0.82207654    4.02651251
| 32> H    1.06294972    0.55710386    5.76143948
| 33> *
| 34>
| 35> $new_job
| 36> ! ri-mp2 aug-cc-pvtz aug-cc-pvtz/c tightscf
| 37> %pal nprocs 16 end
| 38> %maxcore 3800
| 39> %base "TZ_S66by10_61_1.25_dimer"
| 40>
| 41> *xyz 0 1
| 42> C   -2.27534498   -0.13507494    0.83133387
| 43> H   -2.49071776   -0.72792669   -0.05756635
| 44> H   -2.22632382   -0.81844641    1.67882341
| 45> H   -3.11202566    0.54494342    0.98740008
| 46> C   -0.96169812    0.61927789    0.66939920
| 47> H   -0.78869920    1.25043181    1.54470266
| 48> H   -1.02617687    1.29544524   -0.18645838
| 49> C    0.22650217   -0.31471031    0.47998579
| 50> H    0.30944439   -0.97513911    1.34803794
| 51> H    0.03915056   -0.96599875   -0.37878983
| 52> C    1.54300168    0.42117452    0.26899951
| 53> H    1.71163863    1.10777177    1.10244654
| 54> H    1.46609466    1.04374331   -0.62529358
| 55> C    2.72757632   -0.52686091    0.13745931
| 56> H    2.58874155   -1.20321391   -0.70575734
| 57> H    3.66150100    0.01169308   -0.01596863
| 58> H    2.83519407   -1.13740994    1.03407512
| 59> C   -0.61462859   -0.32186317    4.79243171
| 60> O   -1.03724253   -1.43704342    4.59528513
| 61> O   -1.42832094    0.73710235    5.02502119
| 62> H   -2.32908305    0.38272181    4.98448545
| 63> C    0.82563848    0.08780291    4.80963709
| 64> H    1.45146154   -0.78237804    4.65148193
| 65> H    1.00167589    0.82207654    4.02651251
| 66> H    1.06294972    0.55710386    5.76143948
| 67> *
| 68>
| 69> $new_job
| 70> ! ri-mp2 aug-cc-pvqz aug-cc-pvqz/c tightscf
| 71> %pal nprocs 16 end
| 72> %maxcore 3800
| 73> %base "QZ_S66by10_61_1.25_dimer"
| 74>
| 75> *xyz 0 1
| 76> C   -2.27534498   -0.13507494    0.83133387
| 77> H   -2.49071776   -0.72792669   -0.05756635
| 78> H   -2.22632382   -0.81844641    1.67882341
| 79> H   -3.11202566    0.54494342    0.98740008
| 80> C   -0.96169812    0.61927789    0.66939920
| 81> H   -0.78869920    1.25043181    1.54470266
| 82> H   -1.02617687    1.29544524   -0.18645838
| 83> C    0.22650217   -0.31471031    0.47998579
| 84> H    0.30944439   -0.97513911    1.34803794
| 85> H    0.03915056   -0.96599875   -0.37878983
| 86> C    1.54300168    0.42117452    0.26899951
| 87> H    1.71163863    1.10777177    1.10244654
| 88> H    1.46609466    1.04374331   -0.62529358
| 89> C    2.72757632   -0.52686091    0.13745931
| 90> H    2.58874155   -1.20321391   -0.70575734
| 91> H    3.66150100    0.01169308   -0.01596863
| 92> H    2.83519407   -1.13740994    1.03407512
| 93> C   -0.61462859   -0.32186317    4.79243171
| 94> O   -1.03724253   -1.43704342    4.59528513
| 95> O   -1.42832094    0.73710235    5.02502119
| 96> H   -2.32908305    0.38272181    4.98448545
| 97> C    0.82563848    0.08780291    4.80963709
| 98> H    1.45146154   -0.78237804    4.65148193
| 99> H    1.00167589    0.82207654    4.02651251
|100> H    1.06294972    0.55710386    5.76143948
|101> *
|102>
|103>
|104>
|105>
|106>                          ****END OF INPUT****
 Total Charge           Charge          ....    0
 Multiplicity           Mult            ....    1
 Number of Electrons    NEL             ....   74
MP2 TOTAL ENERGY:     -425.641262668 Eh
FINAL SINGLE POINT ENERGY      -425.641262667779
MP2 TOTAL ENERGY:     -426.036451857 Eh
FINAL SINGLE POINT ENERGY      -426.036451857305

CARTESIAN COORDINATES (ANGSTROEM)
---------------------------------
  C     -2.275345   -0.135075    0.831334
  H     -2.490718   -0.727927   -0.057566
  H     -2.226324   -0.818446    1.678823
  H     -3.112026    0.544943    0.987400
  C     -0.961698    0.619278    0.669399
  H     -0.788699    1.250432    1.544703
  H     -1.026177    1.295445   -0.186458
  C      0.226502   -0.314710    0.479986
  H      0.309444   -0.975139    1.348038
  H      0.039151   -0.965999   -0.378790
  C      1.543002    0.421175    0.269000
  H      1.711639    1.107772    1.102447
  H      1.466095    1.043743   -0.625294
  C      2.727576   -0.526861    0.137459
  H      2.588742   -1.203214   -0.705757
  H      3.661501    0.011693   -0.015969
  H      2.835194   -1.137410    1.034075
  C     -0.614629   -0.321863    4.792432
  O     -1.037243   -1.437043    4.595285
  O     -1.428321    0.737102    5.025021
  H     -2.329083    0.382722    4.984485
  C      0.825638    0.087803    4.809637
  H      1.451462   -0.782378    4.651482
  H      1.001676    0.822077    4.026513
  H      1.062950    0.557104    5.761439

 Multiplicity           Mult            ....    1
 Number of Electrons    NEL             ....   74
 Basis Dimension        Dim             .... 1456

ORBITAL ENERGIES
----------------

  NO   OCC          E(Eh)            E(eV)
   0   2.0000     -20.613941      -560.9339
   1   2.0000     -20.551145      -559.2251
   2   2.0000     -11.390885      -309.9617
   3   2.0000     -11.245881      -306.0160
   4   2.0000     -11.213650      -305.1389
   5   2.0000     -11.212054      -305.0955
   6   2.0000     -11.209163      -305.0168
   7   2.0000     -11.207703      -304.9771
   8   2.0000     -11.203985      -304.8759
   9   2.0000      -1.467294       -39.9271
  10   2.0000      -1.363272       -37.0965
  11   2.0000      -1.081629       -29.4326
  12   2.0000      -1.031805       -28.0768
  13   2.0000      -1.015705       -27.6387
  14   2.0000      -0.918867       -25.0036
  15   2.0000      -0.824138       -22.4259
  16   2.0000      -0.820320       -22.3220
  17   2.0000      -0.785885       -21.3850
  18   2.0000      -0.709388       -19.3034
  19   2.0000      -0.683347       -18.5948
  20   2.0000      -0.656107       -17.8536
  21   2.0000      -0.645871       -17.5751
  22   2.0000      -0.599262       -16.3067
  23   2.0000      -0.593615       -16.1531
  24   2.0000      -0.587990       -16.0000
  25   2.0000      -0.576861       -15.6972
  26   2.0000      -0.564721       -15.3668
  27   2.0000      -0.554226       -15.0813
  28   2.0000      -0.547879       -14.9086
  29   2.0000      -0.525510       -14.2999
  30   2.0000      -0.495370       -13.4797
  31   2.0000      -0.487424       -13.2635
  32   2.0000      -0.476526       -12.9669
  33   2.0000      -0.462828       -12.5942
  34   2.0000      -0.459506       -12.5038
  35   2.0000      -0.458537       -12.4774
  36   2.0000      -0.447251       -12.1703
  37   0.0000       0.023684         0.6445
  38   0.0000       0.028338         0.7711
  39   0.0000       0.030169         0.8210
  40   0.0000       0.034436         0.9370
  41   0.0000       0.040714         1.1079

MULLIKEN ATOMIC CHARGES
-----------------------
   0 C :   -1.011766
   1 H :    0.272230
   2 H :    0.281013
   3 H :    0.249161
   4 C :   -0.518549
   5 H :    0.238779
   6 H :    0.321019
   7 C :   -0.323076
   8 H :    0.297148
   9 H :    0.342337
  10 C :   -0.538751
  11 H :    0.273370
  12 H :    0.274422
  13 C :   -0.915960
  14 H :    0.222275
  15 H :    0.271755
  16 H :    0.241575
  17 C :    1.263959
  18 O :   -0.839563
  19 O :   -0.769840
  20 H :    0.315331
  21 C :   -0.943901
  22 H :    0.312131
  23 H :    0.309169
  24 H :    0.375732
Sum of atomic charges:   -0.0000000

LOEWDIN ATOMIC CHARGES
----------------------
   0 C :    0.926063
   1 H :   -0.284007
   2 H :   -0.294032
   3 H :   -0.282141
   4 C :    0.498675
   5 H :   -0.279182
   6 H :   -0.270566
   7 C :    0.487654
   8 H :   -0.276072
   9 H :   -0.266904
  10 C :    0.500723
  11 H :   -0.278241
  12 H :   -0.270875
  13 C :    0.927611
  14 H :   -0.285012
  15 H :   -0.283016
  16 H :   -0.287225
  17 C :   -1.039125
  18 O :    0.697978
  19 O :    1.249893
  20 H :   -0.828051
  21 C :    0.865174
  22 H :   -0.320252
  23 H :   -0.308530
  24 H :   -0.300539

  Mayer bond orders larger than 0.100000
B(  0-C ,  1-H ) :   0.9534 B(  0-C ,  2-H ) :   0.8959 B(  0-C ,  3-H ) :   1.0410
B(  0-C ,  4-C ) :   0.9692 B(  4-C ,  5-H ) :   0.8794 B(  4-C ,  6-H ) :   0.8445
B(  4-C ,  7-C ) :   0.8185 B(  7-C ,  8-H ) :   0.8455 B(  7-C ,  9-H ) :   0.8589
B(  7-C , 10-C ) :   0.8401 B( 10-C , 11-H ) :   0.8647 B( 10-C , 12-H ) :   0.8739
B( 10-C , 13-C ) :   1.0116 B( 13-C , 14-H ) :   0.9790 B( 13-C , 15-H ) :   1.0166
B( 13-C , 16-H ) :   0.9321 B( 17-C , 18-O ) :   1.2884 B( 17-C , 19-O ) :   0.6957
B( 17-C , 21-C ) :   0.9953 B( 19-O , 20-H ) :   0.9039 B( 21-C , 22-H ) :   0.9468
B( 21-C , 23-H ) :   0.8668 B( 21-C , 24-H ) :   0.8794

MP2 TOTAL ENERGY:     -426.159524843 Eh
FINAL SINGLE POINT ENERGY      -426.159524843029

DIPOLE MOMENT
-------------
                                X             Y             Z
Electronic contribution:     -5.57445      -1.14357      13.14768
Nuclear contribution   :      5.86264       1.83016     -13.04047
                        -----------------------------------------
Total Dipole Moment    :      0.28819       0.68659       0.10721
                        -----------------------------------------
Magnitude (a.u.)       :      0.75230
Magnitude (Debye)      :      1.91219

Rotational constants in cm-1:     0.052605     0.022176     0.017731
Rotational constants in MHz :  1577.052887   664.833029   531.563438

                             ****ORCA TERMINATED NORMALLY****
TOTAL RUN TIME: 0 days 7 hours 23 minutes 40 seconds 284 msec
