                         Program Version 5.0.4 -  RELEASE  -
|  1> ! ri-mp2 aug-cc-pvdz aug-cc-pvdz/c tightscf
|  2> %pal nprocs 16 end
|  3> %maxcore 3800
|  4> %base "DZ_S66by10_33_0.9_dimer"
|  5>
|  6> *xyz 0 1
|  7> N    1.38138219   -0.00023348    0.13146374
|  8> C    0.67935079   -1.14023946    0.09207966
|  9> H    1.25871960   -2.05496223    0.12588361
| 10> C   -0.70972232   -1.19311407    0.00666426
| 11> H   -1.21408768   -2.14856163   -0.02530851
| 12> C   -1.42161357    0.00013343   -0.04081690
| 13> H   -2.50069615    0.00025757   -0.10916973
| 14> C   -0.70940120    1.19317538    0.00652198
| 15> H   -1.21351163    2.14874784   -0.02552831
| 16> C    0.67965167    1.13995623    0.09189303
| 17> H    1.25926073    2.05451090    0.12550248
| 18> C    0.01626872    0.66642318    3.11659987
| 19> H    0.92674272    1.22590890    2.95748503
| 20> H   -0.89327878    1.22882741    3.27356038
| 21> C    0.01660140   -0.66626412    3.11673211
| 22> H    0.92733710   -1.22534660    2.95772168
| 23> H   -0.89268669   -1.22908889    3.27382126
| 24> *
| 25>
| 26> $new_job
| 27> ! ri-mp2 aug-cc-pvtz aug-cc-pvtz/c tightscf
| 28> %pal nprocs 16 end
| 29> %maxcore 3800
| 30> %base "TZ_S66by10_33_0.9_dimer"
| 31>
| 32> *xyz 0 1
| 33> N    1.38138219   -0.00023348    0.13146374
| 34> C    0.67935079   -1.14023946    0.09207966
| 35> H    1.25871960   -2.05496223    0.12588361
| 36> C   -0.70972232   -1.19311407    0.00666426
| 37> H   -1.21408768   -2.14856163   -0.02530851
| 38> C   -1.42161357    0.00013343   -0.04081690
| 39> H   -2.50069615    0.00025757   -0.10916973
| 40> C   -0.70940120    1.19317538    0.00652198
| 41> H   -1.21351163    2.14874784   -0.02552831
| 42> C    0.67965167    1.13995623    0.09189303
| 43> H    1.25926073    2.05451090    0.12550248
| 44> C    0.01626872    0.66642318    3.11659987
| 45> H    0.92674272    1.22590890    2.95748503
| 46> H   -0.89327878    1.22882741    3.27356038
| 47> C    0.01660140   -0.66626412    3.11673211
| 48> H    0.92733710   -1.22534660    2.95772168
| 49> H   -0.89268669   -1.22908889    3.27382126
| 50> *
| 51>
| 52> $new_job
| 53> ! ri-mp2 aug-cc-pvqz aug-cc-pvqz/c tightscf
| 54> %pal nprocs 16 end
| 55> %maxcore 3800
| 56> %base "QZ_S66by10_33_0.9_dimer"
| 57>
| 58> *xyz 0 1
| 59> N    1.38138219   -0.00023348    0.13146374
| 60> C    0.67935079   -1.14023946    0.09207966
| 61> H    1.25871960   -2.05496223    0.12588361
| 62> C   -0.70972232   -1.19311407    0.00666426
| 63> H   -1.21408768   -2.14856163   -0.02530851
| 64> C   -1.42161357    0.00013343   -0.04081690
| 65> H   -2.50069615    0.00025757   -0.10916973
| 66> C   -0.70940120    1.19317538    0.00652198
| 67> H   -1.21351163    2.14874784   -0.02552831
| 68> C    0.67965167    1.13995623    0.09189303
| 69> H    1.25926073    2.05451090    0.12550248
| 70> C    0.01626872    0.66642318    3.11659987
| 71> H    0.92674272    1.22590890    2.95748503
| 72> H   -0.89327878    1.22882741    3.27356038
| 73> C    0.01660140   -0.66626412    3.11673211
| 74> H    0.92733710   -1.22534660    2.95772168
| 75> H   -0.89268669   -1.22908889    3.27382126
| 76> *
| 77>
| 78>
| 79>
| 80>
| 81>                          ****END OF INPUT****
 Total Charge           Charge          ....    0
 Multiplicity           Mult            ....    1
 Number of Electrons    NEL             ....   58
MP2 TOTAL ENERGY:     -325.897866461 Eh
FINAL SINGLE POINT ENERGY      -325.897866460533
MP2 TOTAL ENERGY:     -326.187178996 Eh
FINAL SINGLE POINT ENERGY      -326.187178995970

CARTESIAN COORDINATES (ANGSTROEM)
---------------------------------
  N      1.381382   -0.000233    0.131464
  C      0.679351   -1.140239    0.092080
  H      1.258720   -2.054962    0.125884
  C     -0.709722   -1.193114    0.006664
  H     -1.214088   -2.148562   -0.025309
  C     -1.421614    0.000133   -0.040817
  H     -2.500696    0.000258   -0.109170
  C     -0.709401    1.193175    0.006522
  H     -1.213512    2.148748   -0.025528
  C      0.679652    1.139956    0.091893
  H      1.259261    2.054511    0.125502
  C      0.016269    0.666423    3.116600
  H      0.926743    1.225909    2.957485
  H     -0.893279    1.228827    3.273560
  C      0.016601   -0.666264    3.116732
  H      0.927337   -1.225347    2.957722
  H     -0.892687   -1.229089    3.273821

 Multiplicity           Mult            ....    1
 Number of Electrons    NEL             ....   58
 Basis Dimension        Dim             .... 1054

ORBITAL ENERGIES
----------------

  NO   OCC          E(Eh)            E(eV)
   0   2.0000     -15.561494      -423.4498
   1   2.0000     -11.272461      -306.7393
   2   2.0000     -11.272445      -306.7388
   3   2.0000     -11.255692      -306.2829
   4   2.0000     -11.238755      -305.8221
   5   2.0000     -11.238700      -305.8206
   6   2.0000     -11.218362      -305.2672
   7   2.0000     -11.216637      -305.2202
   8   2.0000      -1.254457       -34.1355
   9   2.0000      -1.087454       -29.5911
  10   2.0000      -1.031718       -28.0745
  11   2.0000      -1.024687       -27.8832
  12   2.0000      -0.857554       -23.3352
  13   2.0000      -0.854133       -23.2421
  14   2.0000      -0.784853       -21.3569
  15   2.0000      -0.720499       -19.6058
  16   2.0000      -0.658706       -17.9243
  17   2.0000      -0.653250       -17.7758
  18   2.0000      -0.636238       -17.3129
  19   2.0000      -0.596640       -16.2354
  20   2.0000      -0.578961       -15.7543
  21   2.0000      -0.575177       -15.6514
  22   2.0000      -0.541816       -14.7436
  23   2.0000      -0.518530       -14.1099
  24   2.0000      -0.500089       -13.6081
  25   2.0000      -0.418069       -11.3762
  26   2.0000      -0.383561       -10.4372
  27   2.0000      -0.360695        -9.8150
  28   2.0000      -0.345841        -9.4108
  29   0.0000       0.022822         0.6210
  30   0.0000       0.027637         0.7520
  31   0.0000       0.032578         0.8865
  32   0.0000       0.040109         1.0914
  33   0.0000       0.041941         1.1413

MULLIKEN ATOMIC CHARGES
-----------------------
   0 N :   -0.687497
   1 C :   -0.137570
   2 H :    0.461962
   3 C :   -0.320154
   4 H :    0.286660
   5 C :   -0.280980
   6 H :    0.374053
   7 C :   -0.320267
   8 H :    0.286521
   9 C :   -0.137494
  10 H :    0.462091
  11 C :   -0.732897
  12 H :    0.389865
  13 H :    0.349387
  14 C :   -0.732792
  15 H :    0.389728
  16 H :    0.349384
Sum of atomic charges:    0.0000000

LOEWDIN ATOMIC CHARGES
----------------------
   0 N :    0.594928
   1 C :    0.035303
   2 H :   -0.344304
   3 C :    0.308956
   4 H :   -0.320895
   5 C :    0.318887
   6 H :   -0.307764
   7 C :    0.308933
   8 H :   -0.320900
   9 C :    0.035325
  10 H :   -0.344324
  11 C :    0.725129
  12 H :   -0.358939
  13 H :   -0.348272
  14 C :    0.725130
  15 H :   -0.358940
  16 H :   -0.348253

  Mayer bond orders larger than 0.100000
B(  0-N ,  1-C ) :   1.1633 B(  0-N ,  2-H ) :  -0.1224 B(  0-N ,  9-C ) :   1.1632
B(  0-N , 10-H ) :  -0.1224 B(  1-C ,  2-H ) :   0.8880 B(  1-C ,  3-C ) :   1.1764
B(  3-C ,  4-H ) :   1.0465 B(  3-C ,  5-C ) :   1.2110 B(  5-C ,  6-H ) :   0.9556
B(  5-C ,  7-C ) :   1.2109 B(  7-C ,  8-H ) :   1.0466 B(  7-C ,  9-C ) :   1.1764
B(  9-C , 10-H ) :   0.8879 B( 11-C , 12-H ) :   0.8192 B( 11-C , 13-H ) :   0.8796
B( 11-C , 14-C ) :   2.0265 B( 14-C , 15-H ) :   0.8194 B( 14-C , 16-H ) :   0.8795

MP2 TOTAL ENERGY:     -326.278301509 Eh
FINAL SINGLE POINT ENERGY      -326.278301508645

DIPOLE MOMENT
-------------
                                X             Y             Z
Electronic contribution:      1.25028      -0.00033      -4.69951
Nuclear contribution   :     -2.15713       0.00044       4.58425
                        -----------------------------------------
Total Dipole Moment    :     -0.90685       0.00011      -0.11526
                        -----------------------------------------
Magnitude (a.u.)       :      0.91414
Magnitude (Debye)      :      2.32356

Rotational constants in cm-1:     0.088920     0.059066     0.056994
Rotational constants in MHz :  2665.743933  1770.756543  1708.631926

                             ****ORCA TERMINATED NORMALLY****
TOTAL RUN TIME: 0 days 0 hours 33 minutes 14 seconds 92 msec
