                         Program Version 5.0.4 -  RELEASE  -
|  1> ! ri-mp2 aug-cc-pvdz aug-cc-pvdz/c tightscf
|  2> %pal nprocs 16 end
|  3> %maxcore 3800
|  4> %base "DZ_S66by10_30_2.0_dimer"
|  5> %scf STABPerform true end
|  6>
|  7> *xyz 0 1
|  8> C    0.83551718    1.11516693    0.02140131
|  9> H    1.48432398    1.98060858    0.01953430
| 10> C    1.38327497   -0.16614721    0.02376531
| 11> H    2.45714902   -0.29520468    0.02277108
| 12> C    0.54755466   -1.28131632    0.02168563
| 13> H    0.97293610   -2.27580453    0.01977853
| 14> C   -0.83552313   -1.11516159    0.02139907
| 15> H   -1.48433419   -1.98060639    0.01953009
| 16> C   -1.38328358    0.16615413    0.02375775
| 17> H   -2.45715618    0.29520906    0.02275707
| 18> C   -0.54756577    1.28132347    0.02168025
| 19> H   -0.97294284    2.27580548    0.01976873
| 20> C    0.65578702   -0.11679268    6.95083189
| 21> H    1.04724779   -1.12391151    6.94636363
| 22> H    1.37086080    0.69327129    6.94633030
| 23> C   -0.65576950    0.11678995    6.95084078
| 24> H   -1.37084145   -0.69327457    6.94634469
| 25> H   -1.04723261    1.12390885    6.94638259
| 26> *
| 27>
| 28> $new_job
| 29> ! ri-mp2 aug-cc-pvtz aug-cc-pvtz/c tightscf
| 30> %pal nprocs 16 end
| 31> %maxcore 3800
| 32> %base "TZ_S66by10_30_2.0_dimer"
| 33>
| 34> *xyz 0 1
| 35> C    0.83551718    1.11516693    0.02140131
| 36> H    1.48432398    1.98060858    0.01953430
| 37> C    1.38327497   -0.16614721    0.02376531
| 38> H    2.45714902   -0.29520468    0.02277108
| 39> C    0.54755466   -1.28131632    0.02168563
| 40> H    0.97293610   -2.27580453    0.01977853
| 41> C   -0.83552313   -1.11516159    0.02139907
| 42> H   -1.48433419   -1.98060639    0.01953009
| 43> C   -1.38328358    0.16615413    0.02375775
| 44> H   -2.45715618    0.29520906    0.02275707
| 45> C   -0.54756577    1.28132347    0.02168025
| 46> H   -0.97294284    2.27580548    0.01976873
| 47> C    0.65578702   -0.11679268    6.95083189
| 48> H    1.04724779   -1.12391151    6.94636363
| 49> H    1.37086080    0.69327129    6.94633030
| 50> C   -0.65576950    0.11678995    6.95084078
| 51> H   -1.37084145   -0.69327457    6.94634469
| 52> H   -1.04723261    1.12390885    6.94638259
| 53> *
| 54>
| 55> $new_job
| 56> ! ri-mp2 aug-cc-pvqz aug-cc-pvqz/c tightscf
| 57> %pal nprocs 16 end
| 58> %maxcore 3800
| 59> %base "QZ_S66by10_30_2.0_dimer"
| 60>
| 61> *xyz 0 1
| 62> C    0.83551718    1.11516693    0.02140131
| 63> H    1.48432398    1.98060858    0.01953430
| 64> C    1.38327497   -0.16614721    0.02376531
| 65> H    2.45714902   -0.29520468    0.02277108
| 66> C    0.54755466   -1.28131632    0.02168563
| 67> H    0.97293610   -2.27580453    0.01977853
| 68> C   -0.83552313   -1.11516159    0.02139907
| 69> H   -1.48433419   -1.98060639    0.01953009
| 70> C   -1.38328358    0.16615413    0.02375775
| 71> H   -2.45715618    0.29520906    0.02275707
| 72> C   -0.54756577    1.28132347    0.02168025
| 73> H   -0.97294284    2.27580548    0.01976873
| 74> C    0.65578702   -0.11679268    6.95083189
| 75> H    1.04724779   -1.12391151    6.94636363
| 76> H    1.37086080    0.69327129    6.94633030
| 77> C   -0.65576950    0.11678995    6.95084078
| 78> H   -1.37084145   -0.69327457    6.94634469
| 79> H   -1.04723261    1.12390885    6.94638259
| 80> *
| 81>
| 82>
| 83>
| 84>
| 85>                          ****END OF INPUT****
 Total Charge           Charge          ....    0
 Multiplicity           Mult            ....    1
 Number of Electrons    NEL             ....   58
MP2 TOTAL ENERGY:     -309.866509667 Eh
FINAL SINGLE POINT ENERGY      -309.866509666800
MP2 TOTAL ENERGY:     -310.149114196 Eh
FINAL SINGLE POINT ENERGY      -310.149114196310

CARTESIAN COORDINATES (ANGSTROEM)
---------------------------------
  C      0.835517    1.115167    0.021401
  H      1.484324    1.980609    0.019534
  C      1.383275   -0.166147    0.023765
  H      2.457149   -0.295205    0.022771
  C      0.547555   -1.281316    0.021686
  H      0.972936   -2.275805    0.019779
  C     -0.835523   -1.115162    0.021399
  H     -1.484334   -1.980606    0.019530
  C     -1.383284    0.166154    0.023758
  H     -2.457156    0.295209    0.022757
  C     -0.547566    1.281323    0.021680
  H     -0.972943    2.275805    0.019769
  C      0.655787   -0.116793    6.950832
  H      1.047248   -1.123912    6.946364
  H      1.370861    0.693271    6.946330
  C     -0.655769    0.116790    6.950841
  H     -1.370841   -0.693275    6.946345
  H     -1.047233    1.123909    6.946383

 Multiplicity           Mult            ....    1
 Number of Electrons    NEL             ....   58
 Basis Dimension        Dim             .... 1100

ORBITAL ENERGIES
----------------

  NO   OCC          E(Eh)            E(eV)
   0   2.0000     -11.234218      -305.6986
   1   2.0000     -11.233654      -305.6833
   2   2.0000     -11.233625      -305.6825
   3   2.0000     -11.232407      -305.6493
   4   2.0000     -11.232375      -305.6484
   5   2.0000     -11.231779      -305.6322
   6   2.0000     -11.227817      -305.5244
   7   2.0000     -11.226090      -305.4774
   8   2.0000      -1.149434       -31.2777
   9   2.0000      -1.032278       -28.0897
  10   2.0000      -1.013860       -27.5885
  11   2.0000      -1.013667       -27.5833
  12   2.0000      -0.823258       -22.4020
  13   2.0000      -0.823138       -22.3987
  14   2.0000      -0.791247       -21.5309
  15   2.0000      -0.708984       -19.2924
  16   2.0000      -0.643166       -17.5014
  17   2.0000      -0.642873       -17.4935
  18   2.0000      -0.618518       -16.8307
  19   2.0000      -0.587395       -15.9838
  20   2.0000      -0.587229       -15.9793
  21   2.0000      -0.585728       -15.9385
  22   2.0000      -0.506600       -13.7853
  23   2.0000      -0.501778       -13.6541
  24   2.0000      -0.494201       -13.4479
  25   2.0000      -0.494073       -13.4444
  26   2.0000      -0.374985       -10.2039
  27   2.0000      -0.336170        -9.1476
  28   2.0000      -0.335989        -9.1427
  29   0.0000       0.025190         0.6855
  30   0.0000       0.028770         0.7829
  31   0.0000       0.029100         0.7919
  32   0.0000       0.035865         0.9759
  33   0.0000       0.041301         1.1239

MULLIKEN ATOMIC CHARGES
-----------------------
   0 C :   -0.333366
   1 H :    0.331293
   2 C :   -0.329624
   3 H :    0.336636
   4 C :   -0.335082
   5 H :    0.330108
   6 C :   -0.333353
   7 H :    0.331282
   8 C :   -0.329622
   9 H :    0.336631
  10 C :   -0.335077
  11 H :    0.330123
  12 C :   -0.878365
  13 H :    0.439936
  14 H :    0.438455
  15 C :   -0.878365
  16 H :    0.438455
  17 H :    0.439935
Sum of atomic charges:   -0.0000000

LOEWDIN ATOMIC CHARGES
----------------------
   0 C :    0.327708
   1 H :   -0.327818
   2 C :    0.328075
   3 H :   -0.327938
   4 C :    0.327750
   5 H :   -0.327821
   6 C :    0.327704
   7 H :   -0.327812
   8 C :    0.328076
   9 H :   -0.327940
  10 C :    0.327757
  11 H :   -0.327829
  12 C :    0.751151
  13 H :   -0.375553
  14 H :   -0.375555
  15 C :    0.751151
  16 H :   -0.375556
  17 H :   -0.375551

  Mayer bond orders larger than 0.100000
B(  0-C ,  1-H ) :   0.9952 B(  0-C ,  2-C ) :   1.2294 B(  0-C ,  6-C ) :   0.1104
B(  0-C , 10-C ) :   1.2249 B(  2-C ,  3-H ) :   0.9892 B(  2-C ,  4-C ) :   1.2284
B(  2-C ,  8-C ) :   0.1118 B(  4-C ,  5-H ) :   0.9967 B(  4-C ,  6-C ) :   1.2249
B(  4-C , 10-C ) :   0.1097 B(  6-C ,  7-H ) :   0.9952 B(  6-C ,  8-C ) :   1.2294
B(  8-C ,  9-H ) :   0.9892 B(  8-C , 10-C ) :   1.2284 B( 10-C , 11-H ) :   0.9967
B( 12-C , 13-H ) :   0.7992 B( 12-C , 14-H ) :   0.8005 B( 12-C , 15-C ) :   1.9488
B( 15-C , 16-H ) :   0.8005 B( 15-C , 17-H ) :   0.7992

MP2 TOTAL ENERGY:     -310.237519165 Eh
FINAL SINGLE POINT ENERGY      -310.237519165322

DIPOLE MOMENT
-------------
                                X             Y             Z
Electronic contribution:     -0.00002       0.00002      -8.81169
Nuclear contribution   :      0.00002      -0.00002       8.80125
                        -----------------------------------------
Total Dipole Moment    :     -0.00000       0.00000      -0.01044
                        -----------------------------------------
Magnitude (a.u.)       :      0.01044
Magnitude (Debye)      :      0.02653

Rotational constants in cm-1:     0.085514     0.015571     0.015382
Rotational constants in MHz :  2563.643555   466.796486   461.148519

                             ****ORCA TERMINATED NORMALLY****
TOTAL RUN TIME: 0 days 0 hours 51 minutes 22 seconds 20 msec
