                         Program Version 5.0.4 -  RELEASE  -
|  1> ! ri-mp2 aug-cc-pvdz aug-cc-pvdz/c tightscf
|  2> %pal nprocs 16 end
|  3> %maxcore 3800
|  4> %base "DZ_S66by10_52_0.7_dimer"
|  5>
|  6> *xyz 0 1
|  7> C    0.96408039    0.87509331    0.37801364
|  8> H    1.65982961    1.69993082    0.44604227
|  9> C    1.43105709   -0.41313344    0.11899152
| 10> H    2.48952453   -0.58720917   -0.01701261
| 11> C    0.53412766   -1.47763890    0.04241755
| 12> H    0.89696129   -2.47738838   -0.15201199
| 13> C   -0.83032682   -1.25360409    0.22085611
| 14> H   -1.52576001   -2.07962435    0.16411655
| 15> C   -1.29758715    0.03441261    0.48024263
| 16> H   -2.35439607    0.20801612    0.62856096
| 17> C   -0.40044509    1.09977921    0.56160137
| 18> H   -0.76045514    2.09376880    0.78475698
| 19> C   -0.17752752    0.65059941    3.57934303
| 20> O   -0.64571711    1.70004603    3.20008265
| 21> O    0.22568506   -0.32696386    2.74005777
| 22> H    0.05698024   -0.00105027    1.83865252
| 23> C    0.03242678    0.25361232    5.01074882
| 24> H   -0.27753937    1.06294890    5.66073771
| 25> H   -0.54365394   -0.64301165    5.22769994
| 26> H    1.08092420    0.01748024    5.17576741
| 27> *
| 28>
| 29> $new_job
| 30> ! ri-mp2 aug-cc-pvtz aug-cc-pvtz/c tightscf
| 31> %pal nprocs 16 end
| 32> %maxcore 3800
| 33> %base "TZ_S66by10_52_0.7_dimer"
| 34>
| 35> *xyz 0 1
| 36> C    0.96408039    0.87509331    0.37801364
| 37> H    1.65982961    1.69993082    0.44604227
| 38> C    1.43105709   -0.41313344    0.11899152
| 39> H    2.48952453   -0.58720917   -0.01701261
| 40> C    0.53412766   -1.47763890    0.04241755
| 41> H    0.89696129   -2.47738838   -0.15201199
| 42> C   -0.83032682   -1.25360409    0.22085611
| 43> H   -1.52576001   -2.07962435    0.16411655
| 44> C   -1.29758715    0.03441261    0.48024263
| 45> H   -2.35439607    0.20801612    0.62856096
| 46> C   -0.40044509    1.09977921    0.56160137
| 47> H   -0.76045514    2.09376880    0.78475698
| 48> C   -0.17752752    0.65059941    3.57934303
| 49> O   -0.64571711    1.70004603    3.20008265
| 50> O    0.22568506   -0.32696386    2.74005777
| 51> H    0.05698024   -0.00105027    1.83865252
| 52> C    0.03242678    0.25361232    5.01074882
| 53> H   -0.27753937    1.06294890    5.66073771
| 54> H   -0.54365394   -0.64301165    5.22769994
| 55> H    1.08092420    0.01748024    5.17576741
| 56> *
| 57>
| 58> $new_job
| 59> ! ri-mp2 aug-cc-pvqz aug-cc-pvqz/c tightscf
| 60> %pal nprocs 16 end
| 61> %maxcore 3800
| 62> %base "QZ_S66by10_52_0.7_dimer"
| 63>
| 64> *xyz 0 1
| 65> C    0.96408039    0.87509331    0.37801364
| 66> H    1.65982961    1.69993082    0.44604227
| 67> C    1.43105709   -0.41313344    0.11899152
| 68> H    2.48952453   -0.58720917   -0.01701261
| 69> C    0.53412766   -1.47763890    0.04241755
| 70> H    0.89696129   -2.47738838   -0.15201199
| 71> C   -0.83032682   -1.25360409    0.22085611
| 72> H   -1.52576001   -2.07962435    0.16411655
| 73> C   -1.29758715    0.03441261    0.48024263
| 74> H   -2.35439607    0.20801612    0.62856096
| 75> C   -0.40044509    1.09977921    0.56160137
| 76> H   -0.76045514    2.09376880    0.78475698
| 77> C   -0.17752752    0.65059941    3.57934303
| 78> O   -0.64571711    1.70004603    3.20008265
| 79> O    0.22568506   -0.32696386    2.74005777
| 80> H    0.05698024   -0.00105027    1.83865252
| 81> C    0.03242678    0.25361232    5.01074882
| 82> H   -0.27753937    1.06294890    5.66073771
| 83> H   -0.54365394   -0.64301165    5.22769994
| 84> H    1.08092420    0.01748024    5.17576741
| 85> *
| 86>
| 87>
| 88>
| 89>
| 90>                          ****END OF INPUT****
 Total Charge           Charge          ....    0
 Multiplicity           Mult            ....    1
 Number of Electrons    NEL             ....   74
MP2 TOTAL ENERGY:     -460.051217717 Eh
FINAL SINGLE POINT ENERGY      -460.051217717427
MP2 TOTAL ENERGY:     -460.454709291 Eh
FINAL SINGLE POINT ENERGY      -460.454709290919

CARTESIAN COORDINATES (ANGSTROEM)
---------------------------------
  C      0.964080    0.875093    0.378014
  H      1.659830    1.699931    0.446042
  C      1.431057   -0.413133    0.118992
  H      2.489525   -0.587209   -0.017013
  C      0.534128   -1.477639    0.042418
  H      0.896961   -2.477388   -0.152012
  C     -0.830327   -1.253604    0.220856
  H     -1.525760   -2.079624    0.164117
  C     -1.297587    0.034413    0.480243
  H     -2.354396    0.208016    0.628561
  C     -0.400445    1.099779    0.561601
  H     -0.760455    2.093769    0.784757
  C     -0.177528    0.650599    3.579343
  O     -0.645717    1.700046    3.200083
  O      0.225685   -0.326964    2.740058
  H      0.056980   -0.001050    1.838653
  C      0.032427    0.253612    5.010749
  H     -0.277539    1.062949    5.660738
  H     -0.543654   -0.643012    5.227700
  H      1.080924    0.017480    5.175767

 Multiplicity           Mult            ....    1
 Number of Electrons    NEL             ....   74
 Basis Dimension        Dim             .... 1260

ORBITAL ENERGIES
----------------

  NO   OCC          E(Eh)            E(eV)
   0   2.0000     -20.568256      -559.6907
   1   2.0000     -20.528495      -558.6087
   2   2.0000     -11.368677      -309.3574
   3   2.0000     -11.244605      -305.9813
   4   2.0000     -11.244230      -305.9711
   5   2.0000     -11.242414      -305.9216
   6   2.0000     -11.241722      -305.9028
   7   2.0000     -11.241323      -305.8920
   8   2.0000     -11.239625      -305.8457
   9   2.0000     -11.229355      -305.5663
  10   2.0000      -1.441578       -39.2273
  11   2.0000      -1.340748       -36.4836
  12   2.0000      -1.168561       -31.7981
  13   2.0000      -1.030099       -28.0304
  14   2.0000      -1.027069       -27.9480
  15   2.0000      -1.011368       -27.5207
  16   2.0000      -0.833850       -22.6902
  17   2.0000      -0.833586       -22.6830
  18   2.0000      -0.806971       -21.9588
  19   2.0000      -0.724576       -19.7167
  20   2.0000      -0.689552       -18.7637
  21   2.0000      -0.663373       -18.0513
  22   2.0000      -0.649510       -17.6741
  23   2.0000      -0.632955       -17.2236
  24   2.0000      -0.627599       -17.0778
  25   2.0000      -0.599358       -16.3093
  26   2.0000      -0.597992       -16.2722
  27   2.0000      -0.572196       -15.5702
  28   2.0000      -0.565112       -15.3775
  29   2.0000      -0.544588       -14.8190
  30   2.0000      -0.504025       -13.7152
  31   2.0000      -0.503543       -13.7021
  32   2.0000      -0.496189       -13.5020
  33   2.0000      -0.464953       -12.6520
  34   2.0000      -0.434451       -11.8220
  35   2.0000      -0.347924        -9.4675
  36   2.0000      -0.345800        -9.4097
  37   0.0000       0.021586         0.5874
  38   0.0000       0.029051         0.7905
  39   0.0000       0.030872         0.8401
  40   0.0000       0.033640         0.9154
  41   0.0000       0.043112         1.1731

MULLIKEN ATOMIC CHARGES
-----------------------
   0 C :   -0.511260
   1 H :    0.266203
   2 C :   -0.446017
   3 H :    0.254025
   4 C :   -0.301466
   5 H :    0.303031
   6 C :   -0.440727
   7 H :    0.252468
   8 C :   -0.491095
   9 H :    0.277918
  10 C :   -0.228735
  11 H :    0.350519
  12 C :    0.975150
  13 O :   -0.833419
  14 O :   -0.753983
  15 H :    1.157108
  16 C :   -0.714255
  17 H :    0.324041
  18 H :    0.282066
  19 H :    0.278427
Sum of atomic charges:    0.0000000

LOEWDIN ATOMIC CHARGES
----------------------
   0 C :    0.360879
   1 H :   -0.286013
   2 C :    0.364155
   3 H :   -0.305059
   4 C :    0.362230
   5 H :   -0.311119
   6 C :    0.364858
   7 H :   -0.304589
   8 C :    0.358030
   9 H :   -0.284555
  10 C :    0.298466
  11 H :   -0.314116
  12 C :   -0.968175
  13 O :    0.740919
  14 O :    1.326909
  15 H :   -1.353536
  16 C :    0.883144
  17 H :   -0.326046
  18 H :   -0.302693
  19 H :   -0.303689

  Mayer bond orders larger than 0.100000
B(  0-C ,  1-H ) :   1.1135 B(  0-C ,  2-C ) :   1.3300 B(  0-C ,  6-C ) :   0.1754
B(  0-C , 10-C ) :   1.1838 B(  0-C , 15-H ) :  -0.2220 B(  2-C ,  3-H ) :   1.1172
B(  2-C ,  4-C ) :   1.2306 B(  2-C ,  8-C ) :   0.1761 B(  2-C , 15-H ) :  -0.2700
B(  4-C ,  5-H ) :   1.0556 B(  4-C ,  6-C ) :   1.2369 B(  4-C , 15-H ) :  -0.1540
B(  6-C ,  7-H ) :   1.1192 B(  6-C ,  8-C ) :   1.3206 B(  6-C , 15-H ) :  -0.2617
B(  8-C ,  9-H ) :   1.0968 B(  8-C , 10-C ) :   1.1821 B(  8-C , 15-H ) :  -0.2132
B( 10-C , 11-H ) :   0.9490 B( 10-C , 14-O ) :   0.1093 B( 10-C , 15-H ) :  -0.1982
B( 12-C , 13-O ) :   1.1773 B( 12-C , 14-O ) :   1.0581 B( 12-C , 16-C ) :   0.8251
B( 13-O , 15-H ) :   0.3427 B( 14-O , 15-H ) :   0.2690 B( 16-C , 17-H ) :   0.9705
B( 16-C , 18-H ) :   0.9305 B( 16-C , 19-H ) :   0.9368

MP2 TOTAL ENERGY:     -460.583511500 Eh
FINAL SINGLE POINT ENERGY      -460.583511499908

DIPOLE MOMENT
-------------
                                X             Y             Z
Electronic contribution:     -0.58693       1.23481      -2.31403
Nuclear contribution   :      0.87040      -1.90117       2.29130
                        -----------------------------------------
Total Dipole Moment    :      0.28347      -0.66636      -0.02274
                        -----------------------------------------
Magnitude (a.u.)       :      0.72451
Magnitude (Debye)      :      1.84155

Rotational constants in cm-1:     0.081656     0.030821     0.029412
Rotational constants in MHz :  2447.982391   923.990979   881.747930

                             ****ORCA TERMINATED NORMALLY****
TOTAL RUN TIME: 0 days 0 hours 54 minutes 5 seconds 329 msec
