                         Program Version 5.0.4 -  RELEASE  -
|  1> ! ri-mp2 aug-cc-pvdz aug-cc-pvdz/c tightscf
|  2> %pal nprocs 16 end
|  3> %maxcore 3800
|  4> %base "DZ_S66by10_17_1.05_dimer"
|  5> %scf STABPerform true end
|  6>
|  7> *xyz 0 1
|  8> N   -0.72999913    0.02276763    0.00091465
|  9> H    0.29842255    0.07400447    0.00162304
| 10> C   -1.29682453   -1.24042682    0.00150234
| 11> O   -0.59409886   -2.25351751    0.00263371
| 12> C   -2.74362229   -1.26233170    0.00047938
| 13> H   -3.24959045   -2.21183517    0.00083311
| 14> C   -3.42201997   -0.09590921   -0.00092259
| 15> H   -4.50089709   -0.04921603   -0.00174546
| 16> N   -2.77483684    1.10540895   -0.00141807
| 17> H   -3.28383807    1.97387739   -0.00248574
| 18> C   -1.39147866    1.23701978   -0.00052538
| 19> O   -0.83984371    2.31703528   -0.00100125
| 20> N    4.24151532   -1.09079432    0.00049978
| 21> H    4.68875911   -0.18422112    0.00088659
| 22> C    5.09756309   -2.20541211   -0.00100010
| 23> O    6.30701512   -2.05370769   -0.00174930
| 24> C    4.38334466   -3.46758565   -0.00150449
| 25> H    4.94992921   -4.38261640   -0.00264313
| 26> C    3.03317569   -3.47140352   -0.00054440
| 27> H    2.45621245   -4.38436828   -0.00086308
| 28> N    2.29518428   -2.32052268    0.00090601
| 29> H    1.26884802   -2.34196548    0.00158308
| 30> C    2.86795521   -1.07585764    0.00145666
| 31> O    2.21763433   -0.03463933    0.00269305
| 32> *
| 33>
| 34> $new_job
| 35> ! ri-mp2 aug-cc-pvtz aug-cc-pvtz/c tightscf
| 36> %pal nprocs 16 end
| 37> %maxcore 3800
| 38> %base "TZ_S66by10_17_1.05_dimer"
| 39>
| 40> *xyz 0 1
| 41> N   -0.72999913    0.02276763    0.00091465
| 42> H    0.29842255    0.07400447    0.00162304
| 43> C   -1.29682453   -1.24042682    0.00150234
| 44> O   -0.59409886   -2.25351751    0.00263371
| 45> C   -2.74362229   -1.26233170    0.00047938
| 46> H   -3.24959045   -2.21183517    0.00083311
| 47> C   -3.42201997   -0.09590921   -0.00092259
| 48> H   -4.50089709   -0.04921603   -0.00174546
| 49> N   -2.77483684    1.10540895   -0.00141807
| 50> H   -3.28383807    1.97387739   -0.00248574
| 51> C   -1.39147866    1.23701978   -0.00052538
| 52> O   -0.83984371    2.31703528   -0.00100125
| 53> N    4.24151532   -1.09079432    0.00049978
| 54> H    4.68875911   -0.18422112    0.00088659
| 55> C    5.09756309   -2.20541211   -0.00100010
| 56> O    6.30701512   -2.05370769   -0.00174930
| 57> C    4.38334466   -3.46758565   -0.00150449
| 58> H    4.94992921   -4.38261640   -0.00264313
| 59> C    3.03317569   -3.47140352   -0.00054440
| 60> H    2.45621245   -4.38436828   -0.00086308
| 61> N    2.29518428   -2.32052268    0.00090601
| 62> H    1.26884802   -2.34196548    0.00158308
| 63> C    2.86795521   -1.07585764    0.00145666
| 64> O    2.21763433   -0.03463933    0.00269305
| 65> *
| 66>
| 67> $new_job
| 68> ! ri-mp2 aug-cc-pvqz aug-cc-pvqz/c tightscf
| 69> %pal nprocs 16 end
| 70> %maxcore 3800
| 71> %base "QZ_S66by10_17_1.05_dimer"
| 72>
| 73> *xyz 0 1
| 74> N   -0.72999913    0.02276763    0.00091465
| 75> H    0.29842255    0.07400447    0.00162304
| 76> C   -1.29682453   -1.24042682    0.00150234
| 77> O   -0.59409886   -2.25351751    0.00263371
| 78> C   -2.74362229   -1.26233170    0.00047938
| 79> H   -3.24959045   -2.21183517    0.00083311
| 80> C   -3.42201997   -0.09590921   -0.00092259
| 81> H   -4.50089709   -0.04921603   -0.00174546
| 82> N   -2.77483684    1.10540895   -0.00141807
| 83> H   -3.28383807    1.97387739   -0.00248574
| 84> C   -1.39147866    1.23701978   -0.00052538
| 85> O   -0.83984371    2.31703528   -0.00100125
| 86> N    4.24151532   -1.09079432    0.00049978
| 87> H    4.68875911   -0.18422112    0.00088659
| 88> C    5.09756309   -2.20541211   -0.00100010
| 89> O    6.30701512   -2.05370769   -0.00174930
| 90> C    4.38334466   -3.46758565   -0.00150449
| 91> H    4.94992921   -4.38261640   -0.00264313
| 92> C    3.03317569   -3.47140352   -0.00054440
| 93> H    2.45621245   -4.38436828   -0.00086308
| 94> N    2.29518428   -2.32052268    0.00090601
| 95> H    1.26884802   -2.34196548    0.00158308
| 96> C    2.86795521   -1.07585764    0.00145666
| 97> O    2.21763433   -0.03463933    0.00269305
| 98> *
| 99>
|100>
|101>
|102>
|103>                          ****END OF INPUT****
 Total Charge           Charge          ....    0
 Multiplicity           Mult            ....    1
 Number of Electrons    NEL             ....  116
MP2 TOTAL ENERGY:     -827.583048803 Eh
FINAL SINGLE POINT ENERGY      -827.583048802638
MP2 TOTAL ENERGY:     -828.277519034 Eh
FINAL SINGLE POINT ENERGY      -828.277519033939

CARTESIAN COORDINATES (ANGSTROEM)
---------------------------------
  N     -0.729999    0.022768    0.000915
  H      0.298423    0.074004    0.001623
  C     -1.296825   -1.240427    0.001502
  O     -0.594099   -2.253518    0.002634
  C     -2.743622   -1.262332    0.000479
  H     -3.249590   -2.211835    0.000833
  C     -3.422020   -0.095909   -0.000923
  H     -4.500897   -0.049216   -0.001745
  N     -2.774837    1.105409   -0.001418
  H     -3.283838    1.973877   -0.002486
  C     -1.391479    1.237020   -0.000525
  O     -0.839844    2.317035   -0.001001
  N      4.241515   -1.090794    0.000500
  H      4.688759   -0.184221    0.000887
  C      5.097563   -2.205412   -0.001000
  O      6.307015   -2.053708   -0.001749
  C      4.383345   -3.467586   -0.001504
  H      4.949929   -4.382616   -0.002643
  C      3.033176   -3.471404   -0.000544
  H      2.456212   -4.384368   -0.000863
  N      2.295184   -2.320523    0.000906
  H      1.268848   -2.341965    0.001583
  C      2.867955   -1.075858    0.001457
  O      2.217634   -0.034639    0.002693

 Multiplicity           Mult            ....    1
 Number of Electrons    NEL             ....  116
 Basis Dimension        Dim             .... 1648

ORBITAL ENERGIES
----------------

  NO   OCC          E(Eh)            E(eV)
   0   2.0000     -20.551122      -559.2245
   1   2.0000     -20.543305      -559.0117
   2   2.0000     -20.541937      -558.9745
   3   2.0000     -20.531234      -558.6833
   4   2.0000     -15.645687      -425.7408
   5   2.0000     -15.622561      -425.1115
   6   2.0000     -15.622501      -425.1099
   7   2.0000     -15.619799      -425.0363
   8   2.0000     -11.417097      -310.6750
   9   2.0000     -11.413138      -310.5673
  10   2.0000     -11.391625      -309.9819
  11   2.0000     -11.371843      -309.4436
  12   2.0000     -11.346182      -308.7453
  13   2.0000     -11.327467      -308.2360
  14   2.0000     -11.257939      -306.3441
  15   2.0000     -11.243417      -305.9489
  16   2.0000      -1.436925       -39.1007
  17   2.0000      -1.429732       -38.9050
  18   2.0000      -1.405647       -38.2496
  19   2.0000      -1.390013       -37.8242
  20   2.0000      -1.315882       -35.8070
  21   2.0000      -1.302867       -35.4528
  22   2.0000      -1.247940       -33.9582
  23   2.0000      -1.236967       -33.6596
  24   2.0000      -1.092653       -29.7326
  25   2.0000      -1.077367       -29.3166
  26   2.0000      -0.937585       -25.5130
  27   2.0000      -0.924178       -25.1482
  28   2.0000      -0.906067       -24.6553
  29   2.0000      -0.892244       -24.2792
  30   2.0000      -0.809745       -22.0343
  31   2.0000      -0.796791       -21.6818
  32   2.0000      -0.770210       -20.9585
  33   2.0000      -0.756847       -20.5949
  34   2.0000      -0.721168       -19.6240
  35   2.0000      -0.708610       -19.2823
  36   2.0000      -0.688186       -18.7265
  37   2.0000      -0.670918       -18.2566
  38   2.0000      -0.668907       -18.2019
  39   2.0000      -0.661823       -18.0091
  40   2.0000      -0.654063       -17.7980
  41   2.0000      -0.646242       -17.5852
  42   2.0000      -0.622739       -16.9456
  43   2.0000      -0.607190       -16.5225
  44   2.0000      -0.601319       -16.3627
  45   2.0000      -0.591779       -16.1031
  46   2.0000      -0.580849       -15.8057
  47   2.0000      -0.563274       -15.3275
  48   2.0000      -0.527843       -14.3633
  49   2.0000      -0.515080       -14.0160
  50   2.0000      -0.492900       -13.4125
  51   2.0000      -0.476911       -12.9774
  52   2.0000      -0.461058       -12.5460
  53   2.0000      -0.442804       -12.0493
  54   2.0000      -0.441596       -12.0164
  55   2.0000      -0.433933       -11.8079
  56   2.0000      -0.374181       -10.1820
  57   2.0000      -0.358283        -9.7494
  58   0.0000       0.009065         0.2467
  59   0.0000       0.021534         0.5860
  60   0.0000       0.028827         0.7844
  61   0.0000       0.036173         0.9843
  62   0.0000       0.040143         1.0923

MULLIKEN ATOMIC CHARGES
-----------------------
   0 N :   -0.716882
   1 H :    0.269119
   2 C :    1.112864
   3 O :   -0.834553
   4 C :   -0.432227
   5 H :    0.270055
   6 C :   -0.090646
   7 H :    0.428919
   8 N :   -0.717499
   9 H :    0.078018
  10 C :    1.431575
  11 O :   -0.763904
  12 N :   -0.673332
  13 H :    0.134882
  14 C :    1.090985
  15 O :   -0.831528
  16 C :   -0.355178
  17 H :    0.292469
  18 C :   -0.341745
  19 H :    0.329834
  20 N :   -0.544425
  21 H :    0.242745
  22 C :    1.417813
  23 O :   -0.797357
Sum of atomic charges:   -0.0000000

LOEWDIN ATOMIC CHARGES
----------------------
   0 N :    0.788207
   1 H :   -0.737705
   2 C :   -0.797418
   3 O :    0.802994
   4 C :    0.339556
   5 H :   -0.354174
   6 C :    0.238766
   7 H :   -0.294859
   8 N :    0.813826
   9 H :   -0.492515
  10 C :   -0.968821
  11 O :    0.702185
  12 N :    0.785192
  13 H :   -0.517357
  14 C :   -0.863837
  15 O :    0.679062
  16 C :    0.335149
  17 H :   -0.356172
  18 C :    0.243821
  19 H :   -0.293745
  20 N :    0.812998
  21 H :   -0.745106
  22 C :   -0.922927
  23 O :    0.802879

  Mayer bond orders larger than 0.100000
B(  0-N ,  1-H ) :   0.9738 B(  0-N ,  2-C ) :   0.9596 B(  0-N ,  3-O ) :   0.2256
B(  0-N , 10-C ) :   1.2074 B(  0-N , 11-O ) :   0.2889 B(  2-C ,  3-O ) :   1.2635
B(  2-C ,  4-C ) :   0.9284 B(  2-C ,  6-C ) :  -0.2527 B(  3-O ,  4-C ) :   0.1454
B(  4-C ,  5-H ) :   1.0232 B(  4-C ,  6-C ) :   1.4871 B(  4-C ,  7-H ) :  -0.1292
B(  5-H ,  6-C ) :  -0.1054 B(  6-C ,  7-H ) :   0.9383 B(  6-C ,  8-N ) :   0.9252
B(  8-N ,  9-H ) :   1.2262 B(  8-N , 10-C ) :   1.0612 B(  8-N , 11-O ) :   0.1845
B( 10-C , 11-O ) :   1.0498 B( 12-N , 13-H ) :   1.1862 B( 12-N , 14-C ) :   1.0640
B( 12-N , 15-O ) :   0.1476 B( 12-N , 22-C ) :   0.9657 B( 13-H , 22-C ) :  -0.1095
B( 14-C , 15-O ) :   1.0228 B( 14-C , 16-C ) :   1.1626 B( 15-O , 16-C ) :   0.2745
B( 16-C , 17-H ) :   1.0017 B( 16-C , 18-C ) :   1.4544 B( 17-H , 18-C ) :  -0.1202
B( 18-C , 19-H ) :   0.9860 B( 18-C , 20-N ) :   1.0226 B( 20-N , 21-H ) :   0.9706
B( 20-N , 22-C ) :   1.1242 B( 20-N , 23-O ) :   0.1885 B( 22-C , 23-O ) :   1.3038

MP2 TOTAL ENERGY:     -828.506957382 Eh
FINAL SINGLE POINT ENERGY      -828.506957382255

DIPOLE MOMENT
-------------
                                X             Y             Z
Electronic contribution:      2.05397       2.71924       0.00215
Nuclear contribution   :     -5.43260      -3.55860      -0.00389
                        -----------------------------------------
Total Dipole Moment    :     -3.37863      -0.83936      -0.00174
                        -----------------------------------------
Magnitude (a.u.)       :      3.48133
Magnitude (Debye)      :      8.84884

Rotational constants in cm-1:     0.046743     0.007350     0.006351
Rotational constants in MHz :  1401.334199   220.350260   190.409706

                             ****ORCA TERMINATED NORMALLY****
TOTAL RUN TIME: 0 days 13 hours 2 minutes 20 seconds 256 msec
