                         Program Version 5.0.4 -  RELEASE  -
|  1> ! ri-mp2 aug-cc-pvdz aug-cc-pvdz/c tightscf
|  2> %pal nprocs 16 end
|  3> %maxcore 3800
|  4> %base "DZ_S66by10_57_0.7_dimer"
|  5>
|  6> *xyz 0 1
|  7> C    0.40877989    1.05102502    0.37553605
|  8> H    1.01193875    1.94854570    0.36807788
|  9> C    1.01916788   -0.19976963    0.28905343
| 10> H    2.09557130   -0.27183333    0.21719099
| 11> C    0.24172263   -1.35688270    0.29668995
| 12> H    0.71521633   -2.32658869    0.22807218
| 13> C   -1.14617971   -1.26425757    0.39390198
| 14> H   -1.74918186   -2.16192663    0.39940980
| 15> C   -1.75727780   -0.01396023    0.48295173
| 16> H   -2.83351378    0.05824368    0.55903918
| 17> C   -0.97968602    1.14420653    0.47228370
| 18> H   -1.45405142    2.11400088    0.53713589
| 19> C    0.22774199    1.91527814    3.29245394
| 20> H   -0.13040310    2.08100899    2.27916117
| 21> H    1.25232555    2.27198771    3.37389545
| 22> H   -0.37635488    2.48891397    3.99080666
| 23> C    0.19089566    0.46211503    3.70816277
| 24> O    0.47552406    0.10975361    4.84670083
| 25> N   -0.18149961   -0.40360171    2.72892168
| 26> H   -0.34262751   -0.04561097    1.80285334
| 27> C   -0.21829248   -1.83048094    2.94700874
| 28> H   -0.14020491   -1.99738848    4.01700497
| 29> H   -1.15353302   -2.24883152    2.58027063
| 30> H    0.61083399   -2.33435371    2.44967130
| 31> *
| 32>
| 33> $new_job
| 34> ! ri-mp2 aug-cc-pvtz aug-cc-pvtz/c tightscf
| 35> %pal nprocs 16 end
| 36> %maxcore 3800
| 37> %base "TZ_S66by10_57_0.7_dimer"
| 38>
| 39> *xyz 0 1
| 40> C    0.40877989    1.05102502    0.37553605
| 41> H    1.01193875    1.94854570    0.36807788
| 42> C    1.01916788   -0.19976963    0.28905343
| 43> H    2.09557130   -0.27183333    0.21719099
| 44> C    0.24172263   -1.35688270    0.29668995
| 45> H    0.71521633   -2.32658869    0.22807218
| 46> C   -1.14617971   -1.26425757    0.39390198
| 47> H   -1.74918186   -2.16192663    0.39940980
| 48> C   -1.75727780   -0.01396023    0.48295173
| 49> H   -2.83351378    0.05824368    0.55903918
| 50> C   -0.97968602    1.14420653    0.47228370
| 51> H   -1.45405142    2.11400088    0.53713589
| 52> C    0.22774199    1.91527814    3.29245394
| 53> H   -0.13040310    2.08100899    2.27916117
| 54> H    1.25232555    2.27198771    3.37389545
| 55> H   -0.37635488    2.48891397    3.99080666
| 56> C    0.19089566    0.46211503    3.70816277
| 57> O    0.47552406    0.10975361    4.84670083
| 58> N   -0.18149961   -0.40360171    2.72892168
| 59> H   -0.34262751   -0.04561097    1.80285334
| 60> C   -0.21829248   -1.83048094    2.94700874
| 61> H   -0.14020491   -1.99738848    4.01700497
| 62> H   -1.15353302   -2.24883152    2.58027063
| 63> H    0.61083399   -2.33435371    2.44967130
| 64> *
| 65>
| 66> $new_job
| 67> ! ri-mp2 aug-cc-pvqz aug-cc-pvqz/c tightscf
| 68> %pal nprocs 16 end
| 69> %maxcore 3800
| 70> %base "QZ_S66by10_57_0.7_dimer"
| 71>
| 72> *xyz 0 1
| 73> C    0.40877989    1.05102502    0.37553605
| 74> H    1.01193875    1.94854570    0.36807788
| 75> C    1.01916788   -0.19976963    0.28905343
| 76> H    2.09557130   -0.27183333    0.21719099
| 77> C    0.24172263   -1.35688270    0.29668995
| 78> H    0.71521633   -2.32658869    0.22807218
| 79> C   -1.14617971   -1.26425757    0.39390198
| 80> H   -1.74918186   -2.16192663    0.39940980
| 81> C   -1.75727780   -0.01396023    0.48295173
| 82> H   -2.83351378    0.05824368    0.55903918
| 83> C   -0.97968602    1.14420653    0.47228370
| 84> H   -1.45405142    2.11400088    0.53713589
| 85> C    0.22774199    1.91527814    3.29245394
| 86> H   -0.13040310    2.08100899    2.27916117
| 87> H    1.25232555    2.27198771    3.37389545
| 88> H   -0.37635488    2.48891397    3.99080666
| 89> C    0.19089566    0.46211503    3.70816277
| 90> O    0.47552406    0.10975361    4.84670083
| 91> N   -0.18149961   -0.40360171    2.72892168
| 92> H   -0.34262751   -0.04561097    1.80285334
| 93> C   -0.21829248   -1.83048094    2.94700874
| 94> H   -0.14020491   -1.99738848    4.01700497
| 95> H   -1.15353302   -2.24883152    2.58027063
| 96> H    0.61083399   -2.33435371    2.44967130
| 97> *
| 98>
| 99>
|100>
|101>
|102>                          ****END OF INPUT****
 Total Charge           Charge          ....    0
 Multiplicity           Mult            ....    1
 Number of Electrons    NEL             ....   82
MP2 TOTAL ENERGY:     -479.354755855 Eh
FINAL SINGLE POINT ENERGY      -479.354755855492
MP2 TOTAL ENERGY:     -479.782168331 Eh
FINAL SINGLE POINT ENERGY      -479.782168330786

CARTESIAN COORDINATES (ANGSTROEM)
---------------------------------
  C      0.408780    1.051025    0.375536
  H      1.011939    1.948546    0.368078
  C      1.019168   -0.199770    0.289053
  H      2.095571   -0.271833    0.217191
  C      0.241723   -1.356883    0.296690
  H      0.715216   -2.326589    0.228072
  C     -1.146180   -1.264258    0.393902
  H     -1.749182   -2.161927    0.399410
  C     -1.757278   -0.013960    0.482952
  H     -2.833514    0.058244    0.559039
  C     -0.979686    1.144207    0.472284
  H     -1.454051    2.114001    0.537136
  C      0.227742    1.915278    3.292454
  H     -0.130403    2.081009    2.279161
  H      1.252326    2.271988    3.373895
  H     -0.376355    2.488914    3.990807
  C      0.190896    0.462115    3.708163
  O      0.475524    0.109754    4.846701
  N     -0.181500   -0.403602    2.728922
  H     -0.342628   -0.045611    1.802853
  C     -0.218292   -1.830481    2.947009
  H     -0.140205   -1.997388    4.017005
  H     -1.153533   -2.248832    2.580271
  H      0.610834   -2.334354    2.449671

 Multiplicity           Mult            ....    1
 Number of Electrons    NEL             ....   82
 Basis Dimension        Dim             .... 1478

ORBITAL ENERGIES
----------------

  NO   OCC          E(Eh)            E(eV)
   0   2.0000     -20.486895      -557.4767
   1   2.0000     -15.546826      -423.0506
   2   2.0000     -11.324622      -308.1586
   3   2.0000     -11.257480      -306.3316
   4   2.0000     -11.256698      -306.3103
   5   2.0000     -11.255818      -306.2864
   6   2.0000     -11.254805      -306.2588
   7   2.0000     -11.254030      -306.2377
   8   2.0000     -11.253024      -306.2103
   9   2.0000     -11.238516      -305.8156
  10   2.0000     -11.215210      -305.1814
  11   2.0000      -1.352461       -36.8023
  12   2.0000      -1.225939       -33.3595
  13   2.0000      -1.170401       -31.8482
  14   2.0000      -1.048728       -28.5374
  15   2.0000      -1.041585       -28.3430
  16   2.0000      -0.999199       -27.1896
  17   2.0000      -0.919238       -25.0137
  18   2.0000      -0.849027       -23.1032
  19   2.0000      -0.848475       -23.0882
  20   2.0000      -0.788733       -21.4625
  21   2.0000      -0.731212       -19.8973
  22   2.0000      -0.678892       -18.4736
  23   2.0000      -0.668894       -18.2015
  24   2.0000      -0.644503       -17.5378
  25   2.0000      -0.635979       -17.3059
  26   2.0000      -0.618181       -16.8216
  27   2.0000      -0.615078       -16.7371
  28   2.0000      -0.613991       -16.7076
  29   2.0000      -0.575945       -15.6723
  30   2.0000      -0.574426       -15.6309
  31   2.0000      -0.539230       -14.6732
  32   2.0000      -0.535996       -14.5852
  33   2.0000      -0.518487       -14.1087
  34   2.0000      -0.517900       -14.0928
  35   2.0000      -0.487259       -13.2590
  36   2.0000      -0.484823       -13.1927
  37   2.0000      -0.402843       -10.9619
  38   2.0000      -0.391446       -10.6518
  39   2.0000      -0.354407        -9.6439
  40   2.0000      -0.340453        -9.2642
  41   0.0000       0.018147         0.4938
  42   0.0000       0.024441         0.6651
  43   0.0000       0.025489         0.6936
  44   0.0000       0.037241         1.0134
  45   0.0000       0.037628         1.0239

MULLIKEN ATOMIC CHARGES
-----------------------
   0 C :   -0.249352
   1 H :    0.239953
   2 C :   -0.619320
   3 H :    0.165645
   4 C :   -0.271937
   5 H :    0.275344
   6 C :   -0.307092
   7 H :    0.253946
   8 C :   -0.641364
   9 H :    0.182746
  10 C :   -0.141038
  11 H :    0.268941
  12 C :   -0.922144
  13 H :    0.302445
  14 H :    0.229805
  15 H :    0.230646
  16 C :    1.014663
  17 O :   -0.954635
  18 N :   -0.802744
  19 H :    1.888242
  20 C :   -1.035362
  21 H :    0.311661
  22 H :    0.272507
  23 H :    0.308445
Sum of atomic charges:    0.0000000

LOEWDIN ATOMIC CHARGES
----------------------
   0 C :    0.363381
   1 H :   -0.276225
   2 C :    0.400048
   3 H :   -0.279967
   4 C :    0.328315
   5 H :   -0.284558
   6 C :    0.338243
   7 H :   -0.281546
   8 C :    0.407906
   9 H :   -0.277594
  10 C :    0.376729
  11 H :   -0.269887
  12 C :    0.904785
  13 H :   -0.462027
  14 H :   -0.274884
  15 H :   -0.281829
  16 C :   -0.767131
  17 O :    0.701199
  18 N :    0.832435
  19 H :   -1.052954
  20 C :    0.793023
  21 H :   -0.329136
  22 H :   -0.306842
  23 H :   -0.301483

  Mayer bond orders larger than 0.100000
B(  0-C ,  1-H ) :   1.1081 B(  0-C ,  2-C ) :   1.2734 B(  0-C ,  6-C ) :   0.1125
B(  0-C ,  8-C ) :   0.1197 B(  0-C , 10-C ) :   1.1655 B(  0-C , 11-H ) :  -0.1111
B(  0-C , 19-H ) :  -0.3634 B(  1-H , 10-C ) :  -0.1239 B(  2-C ,  3-H ) :   1.2296
B(  2-C ,  4-C ) :   1.2600 B(  2-C ,  5-H ) :  -0.1012 B(  2-C ,  8-C ) :   0.2580
B(  2-C , 19-H ) :  -0.4151 B(  4-C ,  5-H ) :   1.0801 B(  4-C ,  6-C ) :   1.2121
B(  4-C ,  7-H ) :  -0.1227 B(  4-C , 10-C ) :   0.1303 B(  4-C , 19-H ) :  -0.3477
B(  5-H ,  6-C ) :  -0.1202 B(  6-C ,  7-H ) :   1.0724 B(  6-C ,  8-C ) :   1.3536
B(  6-C , 19-H ) :  -0.3090 B(  8-C ,  9-H ) :   1.1949 B(  8-C , 10-C ) :   1.2748
B(  8-C , 19-H ) :  -0.5135 B( 10-C , 11-H ) :   1.0692 B( 10-C , 19-H ) :  -0.2518
B( 12-C , 13-H ) :   0.8937 B( 12-C , 14-H ) :   0.9821 B( 12-C , 15-H ) :   1.0337
B( 12-C , 16-C ) :   0.9589 B( 12-C , 17-O ) :   0.1926 B( 12-C , 19-H ) :  -0.1692
B( 16-C , 17-O ) :   0.8793 B( 16-C , 18-N ) :   1.4814 B( 16-C , 19-H ) :  -0.2787
B( 17-O , 18-N ) :   0.3340 B( 18-N , 19-H ) :   0.3314 B( 18-N , 20-C ) :   0.7803
B( 19-H , 20-C ) :  -0.3096 B( 20-C , 21-H ) :   0.9716 B( 20-C , 22-H ) :   1.0269
B( 20-C , 23-H ) :   1.0051

MP2 TOTAL ENERGY:     -479.916344180 Eh
FINAL SINGLE POINT ENERGY      -479.916344179639

DIPOLE MOMENT
-------------
                                X             Y             Z
Electronic contribution:      0.16695       0.04679      -0.28223
Nuclear contribution   :     -0.58638       0.04114      -1.62577
                        -----------------------------------------
Total Dipole Moment    :     -0.41943       0.08793      -1.90800
                        -----------------------------------------
Magnitude (a.u.)       :      1.95553
Magnitude (Debye)      :      4.97057

Rotational constants in cm-1:     0.057274     0.031966     0.026401
Rotational constants in MHz :  1717.038665   958.301716   791.479817

                             ****ORCA TERMINATED NORMALLY****
TOTAL RUN TIME: 0 days 1 hours 34 minutes 57 seconds 871 msec
