                         Program Version 5.0.4 -  RELEASE  -
|  1> ! ri-mp2 aug-cc-pvdz aug-cc-pvdz/c tightscf
|  2> %pal nprocs 16 end
|  3> %maxcore 3800
|  4> %base "DZ_S66by10_9_0.7_dimer"
|  5> %scf STABPerform true end
|  6>
|  7> *xyz 0 1
|  8> N   -0.89345122   -0.04384432   -0.04299745
|  9> H    0.09694826   -0.25605945   -0.07106993
| 10> H   -1.36843879   -0.93339065    0.03383773
| 11> C   -1.17578248    0.75790769    1.14523719
| 12> H   -2.24162660    0.97221601    1.19502464
| 13> H   -0.88078955    0.30424674    2.09720910
| 14> H   -0.66300572    1.71432940    1.06080916
| 15> O    1.67230336   -0.10584664    0.00015026
| 16> H    1.95432948    0.26410213   -0.83971382
| 17> C    2.05821721    0.80573762    1.01958643
| 18> H    1.73503416    0.37610495    1.96265297
| 19> H    3.13927245    0.94482109    1.05862639
| 20> H    1.57974265    1.77933547    0.90440989
| 21> *
| 22>
| 23> $new_job
| 24> ! ri-mp2 aug-cc-pvtz aug-cc-pvtz/c tightscf
| 25> %pal nprocs 16 end
| 26> %maxcore 3800
| 27> %base "TZ_S66by10_9_0.7_dimer"
| 28>
| 29> *xyz 0 1
| 30> N   -0.89345122   -0.04384432   -0.04299745
| 31> H    0.09694826   -0.25605945   -0.07106993
| 32> H   -1.36843879   -0.93339065    0.03383773
| 33> C   -1.17578248    0.75790769    1.14523719
| 34> H   -2.24162660    0.97221601    1.19502464
| 35> H   -0.88078955    0.30424674    2.09720910
| 36> H   -0.66300572    1.71432940    1.06080916
| 37> O    1.67230336   -0.10584664    0.00015026
| 38> H    1.95432948    0.26410213   -0.83971382
| 39> C    2.05821721    0.80573762    1.01958643
| 40> H    1.73503416    0.37610495    1.96265297
| 41> H    3.13927245    0.94482109    1.05862639
| 42> H    1.57974265    1.77933547    0.90440989
| 43> *
| 44>
| 45> $new_job
| 46> ! ri-mp2 aug-cc-pvqz aug-cc-pvqz/c tightscf
| 47> %pal nprocs 16 end
| 48> %maxcore 3800
| 49> %base "QZ_S66by10_9_0.7_dimer"
| 50>
| 51> *xyz 0 1
| 52> N   -0.89345122   -0.04384432   -0.04299745
| 53> H    0.09694826   -0.25605945   -0.07106993
| 54> H   -1.36843879   -0.93339065    0.03383773
| 55> C   -1.17578248    0.75790769    1.14523719
| 56> H   -2.24162660    0.97221601    1.19502464
| 57> H   -0.88078955    0.30424674    2.09720910
| 58> H   -0.66300572    1.71432940    1.06080916
| 59> O    1.67230336   -0.10584664    0.00015026
| 60> H    1.95432948    0.26410213   -0.83971382
| 61> C    2.05821721    0.80573762    1.01958643
| 62> H    1.73503416    0.37610495    1.96265297
| 63> H    3.13927245    0.94482109    1.05862639
| 64> H    1.57974265    1.77933547    0.90440989
| 65> *
| 66>
| 67>
| 68>
| 69>
| 70>                          ****END OF INPUT****
 Total Charge           Charge          ....    0
 Multiplicity           Mult            ....    1
 Number of Electrons    NEL             ....   36
MP2 TOTAL ENERGY:     -210.988218628 Eh
FINAL SINGLE POINT ENERGY      -210.988218627715
MP2 TOTAL ENERGY:     -211.189603995 Eh
FINAL SINGLE POINT ENERGY      -211.189603994834

CARTESIAN COORDINATES (ANGSTROEM)
---------------------------------
  N     -0.893451   -0.043844   -0.042997
  H      0.096948   -0.256059   -0.071070
  H     -1.368439   -0.933391    0.033838
  C     -1.175782    0.757908    1.145237
  H     -2.241627    0.972216    1.195025
  H     -0.880790    0.304247    2.097209
  H     -0.663006    1.714329    1.060809
  O      1.672303   -0.105847    0.000150
  H      1.954329    0.264102   -0.839714
  C      2.058217    0.805738    1.019586
  H      1.735034    0.376105    1.962653
  H      3.139272    0.944821    1.058626
  H      1.579743    1.779335    0.904410

 Multiplicity           Mult            ....    1
 Number of Electrons    NEL             ....   36
 Basis Dimension        Dim             ....  734

ORBITAL ENERGIES
----------------

  NO   OCC          E(Eh)            E(eV)
   0   2.0000     -20.575941      -559.8998
   1   2.0000     -15.495518      -421.6545
   2   2.0000     -11.282791      -307.0204
   3   2.0000     -11.223125      -305.3968
   4   2.0000      -1.386713       -37.7344
   5   2.0000      -1.142811       -31.0975
   6   2.0000      -0.944835       -25.7103
   7   2.0000      -0.876750       -23.8576
   8   2.0000      -0.719436       -19.5769
   9   2.0000      -0.678218       -18.4553
  10   2.0000      -0.623783       -16.9740
  11   2.0000      -0.603320       -16.4172
  12   2.0000      -0.576643       -15.6913
  13   2.0000      -0.542932       -14.7739
  14   2.0000      -0.522688       -14.2231
  15   2.0000      -0.507860       -13.8196
  16   2.0000      -0.448751       -12.2111
  17   2.0000      -0.363083        -9.8800
  18   0.0000       0.022876         0.6225
  19   0.0000       0.034448         0.9374
  20   0.0000       0.036921         1.0047
  21   0.0000       0.040159         1.0928
  22   0.0000       0.051284         1.3955

MULLIKEN ATOMIC CHARGES
-----------------------
   0 N :   -0.658728
   1 H :    0.271037
   2 H :    0.212021
   3 C :   -0.721952
   4 H :    0.389589
   5 H :    0.200335
   6 H :    0.250087
   7 O :   -0.677375
   8 H :    0.362402
   9 C :   -0.601813
  10 H :    0.263994
  11 H :    0.481441
  12 H :    0.228963
Sum of atomic charges:   -0.0000000

LOEWDIN ATOMIC CHARGES
----------------------
   0 N :    1.257424
   1 H :   -0.931141
   2 H :   -0.509227
   3 C :    0.733308
   4 H :   -0.309864
   5 H :   -0.291600
   6 H :   -0.340357
   7 O :    1.354597
   8 H :   -0.690019
   9 C :    0.653545
  10 H :   -0.318861
  11 H :   -0.294737
  12 H :   -0.313068

  Mayer bond orders larger than 0.100000
B(  0-N ,  1-H ) :   0.8851 B(  0-N ,  2-H ) :   0.9532 B(  0-N ,  3-C ) :   0.9894
B(  3-C ,  4-H ) :   0.8339 B(  3-C ,  5-H ) :   0.9747 B(  3-C ,  6-H ) :   0.9400
B(  7-O ,  8-H ) :   0.8398 B(  7-O ,  9-C ) :   0.8756 B(  9-C , 10-H ) :   0.9303
B(  9-C , 11-H ) :   0.7508 B(  9-C , 12-H ) :   0.9499

MP2 TOTAL ENERGY:     -211.252184665 Eh
FINAL SINGLE POINT ENERGY      -211.252184664879

DIPOLE MOMENT
-------------
                                X             Y             Z
Electronic contribution:      1.50473      -1.63624      -2.20653
Nuclear contribution   :     -0.62090       1.93645       2.53591
                        -----------------------------------------
Total Dipole Moment    :      0.88383       0.30021       0.32938
                        -----------------------------------------
Magnitude (a.u.)       :      0.98983
Magnitude (Debye)      :      2.51596

Rotational constants in cm-1:     0.408423     0.118093     0.096084
Rotational constants in MHz : 12244.213590  3540.337009  2880.536720

                             ****ORCA TERMINATED NORMALLY****
TOTAL RUN TIME: 0 days 0 hours 28 minutes 27 seconds 156 msec
