                         Program Version 5.0.4 -  RELEASE  -
|  1> ! ri-mp2 aug-cc-pvdz aug-cc-pvdz/c tightscf
|  2> %pal nprocs 16 end
|  3> %maxcore 3800
|  4> %base "DZ_S66by10_59_2.0_dimer"
|  5> %scf STABPerform true end
|  6>
|  7> *xyz 0 1
|  8> C   -1.00686722   -0.03056821   -0.02477285
|  9> H    0.05900333   -0.06093974   -0.04936562
| 10> C   -2.21874380    0.00317347    0.00259920
| 11> H   -3.27927730    0.03352491    0.02720048
| 12> O    4.51824257   -0.23209789   -0.18305817
| 13> H    5.08859899   -0.82186727    0.31396875
| 14> H    5.09023841    0.11889013   -0.86843033
| 15> *
| 16>
| 17> $new_job
| 18> ! ri-mp2 aug-cc-pvtz aug-cc-pvtz/c tightscf
| 19> %pal nprocs 16 end
| 20> %maxcore 3800
| 21> %base "TZ_S66by10_59_2.0_dimer"
| 22>
| 23> *xyz 0 1
| 24> C   -1.00686722   -0.03056821   -0.02477285
| 25> H    0.05900333   -0.06093974   -0.04936562
| 26> C   -2.21874380    0.00317347    0.00259920
| 27> H   -3.27927730    0.03352491    0.02720048
| 28> O    4.51824257   -0.23209789   -0.18305817
| 29> H    5.08859899   -0.82186727    0.31396875
| 30> H    5.09023841    0.11889013   -0.86843033
| 31> *
| 32>
| 33> $new_job
| 34> ! ri-mp2 aug-cc-pvqz aug-cc-pvqz/c tightscf
| 35> %pal nprocs 16 end
| 36> %maxcore 3800
| 37> %base "QZ_S66by10_59_2.0_dimer"
| 38>
| 39> *xyz 0 1
| 40> C   -1.00686722   -0.03056821   -0.02477285
| 41> H    0.05900333   -0.06093974   -0.04936562
| 42> C   -2.21874380    0.00317347    0.00259920
| 43> H   -3.27927730    0.03352491    0.02720048
| 44> O    4.51824257   -0.23209789   -0.18305817
| 45> H    5.08859899   -0.82186727    0.31396875
| 46> H    5.09023841    0.11889013   -0.86843033
| 47> *
| 48>
| 49>
| 50>
| 51>
| 52>                          ****END OF INPUT****
 Total Charge           Charge          ....    0
 Multiplicity           Mult            ....    1
 Number of Electrons    NEL             ....   24
MP2 TOTAL ENERGY:     -153.353868590 Eh
FINAL SINGLE POINT ENERGY      -153.353868589604
MP2 TOTAL ENERGY:     -153.493759234 Eh
FINAL SINGLE POINT ENERGY      -153.493759233566

CARTESIAN COORDINATES (ANGSTROEM)
---------------------------------
  C     -1.006867   -0.030568   -0.024773
  H      0.059003   -0.060940   -0.049366
  C     -2.218744    0.003173    0.002599
  H     -3.279277    0.033525    0.027200
  O      4.518243   -0.232098   -0.183058
  H      5.088599   -0.821867    0.313969
  H      5.090238    0.118890   -0.868430

 Multiplicity           Mult            ....    1
 Number of Electrons    NEL             ....   24
 Basis Dimension        Dim             ....  424

ORBITAL ENERGIES
----------------

  NO   OCC          E(Eh)            E(eV)
   0   2.0000     -20.569029      -559.7117
   1   2.0000     -11.240012      -305.8563
   2   2.0000     -11.236314      -305.7556
   3   2.0000      -1.355975       -36.8980
   4   2.0000      -1.021678       -27.8013
   5   2.0000      -0.762395       -20.7458
   6   2.0000      -0.719254       -19.5719
   7   2.0000      -0.674511       -18.3544
   8   2.0000      -0.589866       -16.0511
   9   2.0000      -0.514291       -13.9946
  10   2.0000      -0.403099       -10.9689
  11   2.0000      -0.403087       -10.9686
  12   0.0000       0.024237         0.6595
  13   0.0000       0.030471         0.8292
  14   0.0000       0.041674         1.1340
  15   0.0000       0.045814         1.2467
  16   0.0000       0.079069         2.1516

MULLIKEN ATOMIC CHARGES
-----------------------
   0 C :   -0.633827
   1 H :    0.646881
   2 C :   -0.626041
   3 H :    0.613026
   4 O :   -0.599746
   5 H :    0.299863
   6 H :    0.299843
Sum of atomic charges:   -0.0000000

LOEWDIN ATOMIC CHARGES
----------------------
   0 C :    0.479481
   1 H :   -0.473667
   2 C :    0.477819
   3 H :   -0.484275
   4 O :    1.600298
   5 H :   -0.799792
   6 H :   -0.799864

  Mayer bond orders larger than 0.100000
B(  0-C ,  1-H ) :   0.6058 B(  0-C ,  2-C ) :   2.6333 B(  2-C ,  3-H ) :   0.6391
B(  4-O ,  5-H ) :   0.9649 B(  4-O ,  6-H ) :   0.9649

MP2 TOTAL ENERGY:     -153.538337979 Eh
FINAL SINGLE POINT ENERGY      -153.538337978720

DIPOLE MOMENT
-------------
                                X             Y             Z
Electronic contribution:     -2.32539       0.12111       0.09540
Nuclear contribution   :      3.12652      -0.27999      -0.22073
                        -----------------------------------------
Total Dipole Moment    :      0.80113      -0.15888      -0.12533
                        -----------------------------------------
Magnitude (a.u.)       :      0.82629
Magnitude (Debye)      :      2.10027

Rotational constants in cm-1:    14.280675     0.039700     0.039596
Rotational constants in MHz : 428123.867745  1190.182577  1187.049018

                             ****ORCA TERMINATED NORMALLY****
TOTAL RUN TIME: 0 days 0 hours 3 minutes 18 seconds 510 msec
