                         Program Version 5.0.4 -  RELEASE  -
|  1> ! ri-mp2 aug-cc-pvdz aug-cc-pvdz/c tightscf
|  2> %pal nprocs 16 end
|  3> %maxcore 3800
|  4> %base "DZ_S66by10_33_0.8_dimer"
|  5>
|  6> *xyz 0 1
|  7> N    1.38138219   -0.00023348    0.13146374
|  8> C    0.67935079   -1.14023946    0.09207966
|  9> H    1.25871960   -2.05496223    0.12588361
| 10> C   -0.70972232   -1.19311407    0.00666426
| 11> H   -1.21408768   -2.14856163   -0.02530851
| 12> C   -1.42161357    0.00013343   -0.04081690
| 13> H   -2.50069615    0.00025757   -0.10916973
| 14> C   -0.70940120    1.19317538    0.00652198
| 15> H   -1.21351163    2.14874784   -0.02552831
| 16> C    0.67965167    1.13995623    0.09189303
| 17> H    1.25926073    2.05451090    0.12550248
| 18> C    0.01338364    0.66640920    2.79601719
| 19> H    0.92385765    1.22589492    2.63690234
| 20> H   -0.89616386    1.22881343    2.95297769
| 21> C    0.01371633   -0.66627810    2.79614943
| 22> H    0.92445202   -1.22536058    2.63713899
| 23> H   -0.89557177   -1.22910287    2.95323858
| 24> *
| 25>
| 26> $new_job
| 27> ! ri-mp2 aug-cc-pvtz aug-cc-pvtz/c tightscf
| 28> %pal nprocs 16 end
| 29> %maxcore 3800
| 30> %base "TZ_S66by10_33_0.8_dimer"
| 31>
| 32> *xyz 0 1
| 33> N    1.38138219   -0.00023348    0.13146374
| 34> C    0.67935079   -1.14023946    0.09207966
| 35> H    1.25871960   -2.05496223    0.12588361
| 36> C   -0.70972232   -1.19311407    0.00666426
| 37> H   -1.21408768   -2.14856163   -0.02530851
| 38> C   -1.42161357    0.00013343   -0.04081690
| 39> H   -2.50069615    0.00025757   -0.10916973
| 40> C   -0.70940120    1.19317538    0.00652198
| 41> H   -1.21351163    2.14874784   -0.02552831
| 42> C    0.67965167    1.13995623    0.09189303
| 43> H    1.25926073    2.05451090    0.12550248
| 44> C    0.01338364    0.66640920    2.79601719
| 45> H    0.92385765    1.22589492    2.63690234
| 46> H   -0.89616386    1.22881343    2.95297769
| 47> C    0.01371633   -0.66627810    2.79614943
| 48> H    0.92445202   -1.22536058    2.63713899
| 49> H   -0.89557177   -1.22910287    2.95323858
| 50> *
| 51>
| 52> $new_job
| 53> ! ri-mp2 aug-cc-pvqz aug-cc-pvqz/c tightscf
| 54> %pal nprocs 16 end
| 55> %maxcore 3800
| 56> %base "QZ_S66by10_33_0.8_dimer"
| 57>
| 58> *xyz 0 1
| 59> N    1.38138219   -0.00023348    0.13146374
| 60> C    0.67935079   -1.14023946    0.09207966
| 61> H    1.25871960   -2.05496223    0.12588361
| 62> C   -0.70972232   -1.19311407    0.00666426
| 63> H   -1.21408768   -2.14856163   -0.02530851
| 64> C   -1.42161357    0.00013343   -0.04081690
| 65> H   -2.50069615    0.00025757   -0.10916973
| 66> C   -0.70940120    1.19317538    0.00652198
| 67> H   -1.21351163    2.14874784   -0.02552831
| 68> C    0.67965167    1.13995623    0.09189303
| 69> H    1.25926073    2.05451090    0.12550248
| 70> C    0.01338364    0.66640920    2.79601719
| 71> H    0.92385765    1.22589492    2.63690234
| 72> H   -0.89616386    1.22881343    2.95297769
| 73> C    0.01371633   -0.66627810    2.79614943
| 74> H    0.92445202   -1.22536058    2.63713899
| 75> H   -0.89557177   -1.22910287    2.95323858
| 76> *
| 77>
| 78>
| 79>
| 80>
| 81>                          ****END OF INPUT****
 Total Charge           Charge          ....    0
 Multiplicity           Mult            ....    1
 Number of Electrons    NEL             ....   58
MP2 TOTAL ENERGY:     -325.892820390 Eh
FINAL SINGLE POINT ENERGY      -325.892820390317
MP2 TOTAL ENERGY:     -326.181883786 Eh
FINAL SINGLE POINT ENERGY      -326.181883786359

CARTESIAN COORDINATES (ANGSTROEM)
---------------------------------
  N      1.381382   -0.000233    0.131464
  C      0.679351   -1.140239    0.092080
  H      1.258720   -2.054962    0.125884
  C     -0.709722   -1.193114    0.006664
  H     -1.214088   -2.148562   -0.025309
  C     -1.421614    0.000133   -0.040817
  H     -2.500696    0.000258   -0.109170
  C     -0.709401    1.193175    0.006522
  H     -1.213512    2.148748   -0.025528
  C      0.679652    1.139956    0.091893
  H      1.259261    2.054511    0.125502
  C      0.013384    0.666409    2.796017
  H      0.923858    1.225895    2.636902
  H     -0.896164    1.228813    2.952978
  C      0.013716   -0.666278    2.796149
  H      0.924452   -1.225361    2.637139
  H     -0.895572   -1.229103    2.953239

 Multiplicity           Mult            ....    1
 Number of Electrons    NEL             ....   58
 Basis Dimension        Dim             .... 1054

ORBITAL ENERGIES
----------------

  NO   OCC          E(Eh)            E(eV)
   0   2.0000     -15.559995      -423.4090
   1   2.0000     -11.273686      -306.7726
   2   2.0000     -11.273670      -306.7722
   3   2.0000     -11.254719      -306.2565
   4   2.0000     -11.239084      -305.8310
   5   2.0000     -11.239025      -305.8294
   6   2.0000     -11.214083      -305.1507
   7   2.0000     -11.212357      -305.1037
   8   2.0000      -1.255553       -34.1653
   9   2.0000      -1.088111       -29.6090
  10   2.0000      -1.033457       -28.1218
  11   2.0000      -1.023099       -27.8399
  12   2.0000      -0.858543       -23.3621
  13   2.0000      -0.855057       -23.2673
  14   2.0000      -0.784076       -21.3358
  15   2.0000      -0.721563       -19.6347
  16   2.0000      -0.659253       -17.9392
  17   2.0000      -0.654878       -17.8201
  18   2.0000      -0.635498       -17.2928
  19   2.0000      -0.597847       -16.2683
  20   2.0000      -0.578796       -15.7498
  21   2.0000      -0.575251       -15.6534
  22   2.0000      -0.543752       -14.7963
  23   2.0000      -0.519385       -14.1332
  24   2.0000      -0.498769       -13.5722
  25   2.0000      -0.418241       -11.3809
  26   2.0000      -0.384603       -10.4656
  27   2.0000      -0.350930        -9.5493
  28   2.0000      -0.346517        -9.4292
  29   0.0000       0.022649         0.6163
  30   0.0000       0.027510         0.7486
  31   0.0000       0.032420         0.8822
  32   0.0000       0.040667         1.1066
  33   0.0000       0.041836         1.1384

MULLIKEN ATOMIC CHARGES
-----------------------
   0 N :   -0.711164
   1 C :   -0.116545
   2 H :    0.466385
   3 C :   -0.273339
   4 H :    0.261533
   5 C :   -0.310992
   6 H :    0.363725
   7 C :   -0.273459
   8 H :    0.261386
   9 C :   -0.116412
  10 H :    0.466526
  11 C :   -0.699302
  12 H :    0.366098
  13 H :    0.324434
  14 C :   -0.699252
  15 H :    0.365989
  16 H :    0.324390
Sum of atomic charges:   -0.0000000

LOEWDIN ATOMIC CHARGES
----------------------
   0 N :    0.604292
   1 C :    0.022059
   2 H :   -0.334422
   3 C :    0.304157
   4 H :   -0.313389
   5 C :    0.321568
   6 H :   -0.302799
   7 C :    0.304127
   8 H :   -0.313390
   9 C :    0.022089
  10 H :   -0.334441
  11 C :    0.707675
  12 H :   -0.361730
  13 H :   -0.335881
  14 C :    0.707676
  15 H :   -0.361730
  16 H :   -0.335861

  Mayer bond orders larger than 0.100000
B(  0-N ,  1-C ) :   1.1442 B(  0-N ,  2-H ) :  -0.1263 B(  0-N ,  9-C ) :   1.1441
B(  0-N , 10-H ) :  -0.1263 B(  1-C ,  2-H ) :   0.8825 B(  1-C ,  3-C ) :   1.1362
B(  3-C ,  4-H ) :   1.0770 B(  3-C ,  5-C ) :   1.2124 B(  5-C ,  6-H ) :   0.9652
B(  5-C ,  7-C ) :   1.2122 B(  7-C ,  8-H ) :   1.0772 B(  7-C ,  9-C ) :   1.1363
B(  9-C , 10-H ) :   0.8824 B( 11-C , 12-H ) :   0.8377 B( 11-C , 13-H ) :   0.8904
B( 11-C , 14-C ) :   2.0293 B( 14-C , 15-H ) :   0.8378 B( 14-C , 16-H ) :   0.8904

MP2 TOTAL ENERGY:     -326.272855323 Eh
FINAL SINGLE POINT ENERGY      -326.272855323424

DIPOLE MOMENT
-------------
                                X             Y             Z
Electronic contribution:      1.25459      -0.00031      -4.24033
Nuclear contribution   :     -2.16157       0.00042       4.09033
                        -----------------------------------------
Total Dipole Moment    :     -0.90699       0.00011      -0.15000
                        -----------------------------------------
Magnitude (a.u.)       :      0.91931
Magnitude (Debye)      :      2.33669

Rotational constants in cm-1:     0.088998     0.068309     0.065510
Rotational constants in MHz :  2668.080329  2047.839162  1963.937086

                             ****ORCA TERMINATED NORMALLY****
TOTAL RUN TIME: 0 days 0 hours 33 minutes 27 seconds 533 msec
