                         Program Version 5.0.4 -  RELEASE  -
|  1> ! ri-mp2 aug-cc-pvdz aug-cc-pvdz/c tightscf
|  2> %pal nprocs 16 end
|  3> %maxcore 3800
|  4> %base "DZ_S66by10_23_2.0_dimer"
|  5> %scf STABPerform true end
|  6>
|  7> *xyz 0 1
|  8> C   -1.23272700    1.21163896   -0.14162406
|  9> O   -0.57127667    2.24201573    0.02561679
| 10> N   -0.67058051    0.00388878   -0.31428147
| 11> H    0.34384695   -0.09056011   -0.30832667
| 12> H   -1.24421373   -0.80632370   -0.44668271
| 13> C   -2.73824495    1.26675766   -0.15588657
| 14> H   -3.07797534    1.64660511    0.80450159
| 15> H   -3.20211503    0.30286549   -0.34621112
| 16> H   -3.04998747    1.97549049   -0.91859737
| 17> N    5.93660085    1.14363560   -0.09761402
| 18> H    6.42663030    0.26767842   -0.21555249
| 19> C    6.74022686    2.28648054    0.05286767
| 20> O    7.95578889    2.19085821    0.03768290
| 21> C    5.96763469    3.50179702    0.21601161
| 22> H    6.48939768    4.43498988    0.33904673
| 23> C    4.61847398    3.44012149    0.21033485
| 24> H    3.99806992    4.31648188    0.32801175
| 25> N    3.93339187    2.26783998    0.05576909
| 26> H    2.90060139    2.25877892    0.05493177
| 27> C    4.56428183    1.06337049   -0.10649095
| 28> O    3.96709310   -0.00054548   -0.24829844
| 29> *
| 30>
| 31> $new_job
| 32> ! ri-mp2 aug-cc-pvtz aug-cc-pvtz/c tightscf
| 33> %pal nprocs 16 end
| 34> %maxcore 3800
| 35> %base "TZ_S66by10_23_2.0_dimer"
| 36>
| 37> *xyz 0 1
| 38> C   -1.23272700    1.21163896   -0.14162406
| 39> O   -0.57127667    2.24201573    0.02561679
| 40> N   -0.67058051    0.00388878   -0.31428147
| 41> H    0.34384695   -0.09056011   -0.30832667
| 42> H   -1.24421373   -0.80632370   -0.44668271
| 43> C   -2.73824495    1.26675766   -0.15588657
| 44> H   -3.07797534    1.64660511    0.80450159
| 45> H   -3.20211503    0.30286549   -0.34621112
| 46> H   -3.04998747    1.97549049   -0.91859737
| 47> N    5.93660085    1.14363560   -0.09761402
| 48> H    6.42663030    0.26767842   -0.21555249
| 49> C    6.74022686    2.28648054    0.05286767
| 50> O    7.95578889    2.19085821    0.03768290
| 51> C    5.96763469    3.50179702    0.21601161
| 52> H    6.48939768    4.43498988    0.33904673
| 53> C    4.61847398    3.44012149    0.21033485
| 54> H    3.99806992    4.31648188    0.32801175
| 55> N    3.93339187    2.26783998    0.05576909
| 56> H    2.90060139    2.25877892    0.05493177
| 57> C    4.56428183    1.06337049   -0.10649095
| 58> O    3.96709310   -0.00054548   -0.24829844
| 59> *
| 60>
| 61> $new_job
| 62> ! ri-mp2 aug-cc-pvqz aug-cc-pvqz/c tightscf
| 63> %pal nprocs 16 end
| 64> %maxcore 3800
| 65> %base "QZ_S66by10_23_2.0_dimer"
| 66>
| 67> *xyz 0 1
| 68> C   -1.23272700    1.21163896   -0.14162406
| 69> O   -0.57127667    2.24201573    0.02561679
| 70> N   -0.67058051    0.00388878   -0.31428147
| 71> H    0.34384695   -0.09056011   -0.30832667
| 72> H   -1.24421373   -0.80632370   -0.44668271
| 73> C   -2.73824495    1.26675766   -0.15588657
| 74> H   -3.07797534    1.64660511    0.80450159
| 75> H   -3.20211503    0.30286549   -0.34621112
| 76> H   -3.04998747    1.97549049   -0.91859737
| 77> N    5.93660085    1.14363560   -0.09761402
| 78> H    6.42663030    0.26767842   -0.21555249
| 79> C    6.74022686    2.28648054    0.05286767
| 80> O    7.95578889    2.19085821    0.03768290
| 81> C    5.96763469    3.50179702    0.21601161
| 82> H    6.48939768    4.43498988    0.33904673
| 83> C    4.61847398    3.44012149    0.21033485
| 84> H    3.99806992    4.31648188    0.32801175
| 85> N    3.93339187    2.26783998    0.05576909
| 86> H    2.90060139    2.25877892    0.05493177
| 87> C    4.56428183    1.06337049   -0.10649095
| 88> O    3.96709310   -0.00054548   -0.24829844
| 89> *
| 90>
| 91>
| 92>
| 93>
| 94>                          ****END OF INPUT****
 Total Charge           Charge          ....    0
 Multiplicity           Mult            ....    1
 Number of Electrons    NEL             ....   90
MP2 TOTAL ENERGY:     -622.452660455 Eh
FINAL SINGLE POINT ENERGY      -622.452660454773
MP2 TOTAL ENERGY:     -622.985174500 Eh
FINAL SINGLE POINT ENERGY      -622.985174499584

CARTESIAN COORDINATES (ANGSTROEM)
---------------------------------
  C     -1.232727    1.211639   -0.141624
  O     -0.571277    2.242016    0.025617
  N     -0.670581    0.003889   -0.314281
  H      0.343847   -0.090560   -0.308327
  H     -1.244214   -0.806324   -0.446683
  C     -2.738245    1.266758   -0.155887
  H     -3.077975    1.646605    0.804502
  H     -3.202115    0.302865   -0.346211
  H     -3.049987    1.975490   -0.918597
  N      5.936601    1.143636   -0.097614
  H      6.426630    0.267678   -0.215552
  C      6.740227    2.286481    0.052868
  O      7.955789    2.190858    0.037683
  C      5.967635    3.501797    0.216012
  H      6.489398    4.434990    0.339047
  C      4.618474    3.440121    0.210335
  H      3.998070    4.316482    0.328012
  N      3.933392    2.267840    0.055769
  H      2.900601    2.258779    0.054932
  C      4.564282    1.063370   -0.106491
  O      3.967093   -0.000545   -0.248298

 Multiplicity           Mult            ....    1
 Number of Electrons    NEL             ....   90
 Basis Dimension        Dim             .... 1374

ORBITAL ENERGIES
----------------

  NO   OCC          E(Eh)            E(eV)
   0   2.0000     -20.537686      -558.8588
   1   2.0000     -20.535489      -558.7991
   2   2.0000     -20.517926      -558.3211
   3   2.0000     -15.640896      -425.6104
   4   2.0000     -15.621877      -425.0929
   5   2.0000     -15.596284      -424.3965
   6   2.0000     -11.413378      -310.5738
   7   2.0000     -11.375767      -309.5503
   8   2.0000     -11.359947      -309.1199
   9   2.0000     -11.334938      -308.4393
  10   2.0000     -11.250094      -306.1306
  11   2.0000     -11.242524      -305.9246
  12   2.0000      -1.428018       -38.8584
  13   2.0000      -1.391941       -37.8766
  14   2.0000      -1.376502       -37.4565
  15   2.0000      -1.307900       -35.5898
  16   2.0000      -1.241307       -33.7777
  17   2.0000      -1.224732       -33.3267
  18   2.0000      -1.083570       -29.4854
  19   2.0000      -1.012880       -27.5619
  20   2.0000      -0.931583       -25.3497
  21   2.0000      -0.895821       -24.3765
  22   2.0000      -0.811128       -22.0719
  23   2.0000      -0.800105       -21.7720
  24   2.0000      -0.762391       -20.7457
  25   2.0000      -0.736659       -20.0455
  26   2.0000      -0.709040       -19.2940
  27   2.0000      -0.672383       -18.2965
  28   2.0000      -0.671669       -18.2771
  29   2.0000      -0.665810       -18.1176
  30   2.0000      -0.646430       -17.5902
  31   2.0000      -0.622950       -16.9513
  32   2.0000      -0.609776       -16.5929
  33   2.0000      -0.597073       -16.2472
  34   2.0000      -0.587507       -15.9869
  35   2.0000      -0.570926       -15.5357
  36   2.0000      -0.566870       -15.4253
  37   2.0000      -0.531364       -14.4591
  38   2.0000      -0.519498       -14.1363
  39   2.0000      -0.478864       -13.0306
  40   2.0000      -0.445252       -12.1159
  41   2.0000      -0.432851       -11.7785
  42   2.0000      -0.431472       -11.7410
  43   2.0000      -0.421949       -11.4818
  44   2.0000      -0.365098        -9.9348
  45   0.0000       0.018111         0.4928
  46   0.0000       0.024225         0.6592
  47   0.0000       0.031844         0.8665
  48   0.0000       0.038182         1.0390
  49   0.0000       0.039026         1.0620

MULLIKEN ATOMIC CHARGES
-----------------------
   0 C :    0.834330
   1 O :   -0.858499
   2 N :   -0.676189
   3 H :    0.311687
   4 H :    0.280237
   5 C :   -0.697873
   6 H :    0.278726
   7 H :    0.254698
   8 H :    0.270019
   9 N :   -0.675736
  10 H :    0.134223
  11 C :    1.122504
  12 O :   -0.792408
  13 C :   -0.428165
  14 H :    0.308436
  15 C :   -0.205664
  16 H :    0.404450
  17 N :   -0.670761
  18 H :    0.203678
  19 C :    1.400847
  20 O :   -0.798540
Sum of atomic charges:    0.0000000

LOEWDIN ATOMIC CHARGES
----------------------
   0 C :   -0.856751
   1 O :    0.649854
   2 N :    1.231348
   3 H :   -0.471361
   4 H :   -0.508586
   5 C :    0.877539
   6 H :   -0.299868
   7 H :   -0.315531
   8 H :   -0.302179
   9 N :    0.772999
  10 H :   -0.521202
  11 C :   -0.864728
  12 O :    0.680125
  13 C :    0.334820
  14 H :   -0.354477
  15 C :    0.230870
  16 H :   -0.298206
  17 N :    0.796627
  18 H :   -0.447072
  19 C :   -1.005730
  20 O :    0.671509

  Mayer bond orders larger than 0.100000
B(  0-C ,  1-O ) :   1.3902 B(  0-C ,  2-N ) :   1.0798 B(  0-C ,  5-C ) :   0.8309
B(  1-O ,  2-N ) :   0.1293 B(  2-N ,  3-H ) :   0.8864 B(  2-N ,  4-H ) :   0.9669
B(  5-C ,  6-H ) :   0.9299 B(  5-C ,  7-H ) :   1.0019 B(  5-C ,  8-H ) :   0.9471
B(  9-N , 10-H ) :   1.1639 B(  9-N , 11-C ) :   0.9675 B(  9-N , 12-O ) :   0.1781
B(  9-N , 19-C ) :   1.0423 B(  9-N , 20-O ) :   0.1458 B( 11-C , 12-O ) :   1.1179
B( 11-C , 13-C ) :   1.1905 B( 11-C , 15-C ) :  -0.1618 B( 12-O , 13-C ) :   0.2504
B( 13-C , 14-H ) :   0.9892 B( 13-C , 15-C ) :   1.4047 B( 14-H , 15-C ) :  -0.1205
B( 15-C , 16-H ) :   0.9306 B( 15-C , 17-N ) :   0.8931 B( 17-N , 18-H ) :   1.0734
B( 17-N , 19-C ) :   1.1253 B( 17-N , 20-O ) :   0.1961 B( 19-C , 20-O ) :   1.2254

MP2 TOTAL ENERGY:     -623.160136564 Eh
FINAL SINGLE POINT ENERGY      -623.160136564460

DIPOLE MOMENT
-------------
                                X             Y             Z
Electronic contribution:     15.17706       0.62468       0.23512
Nuclear contribution   :    -17.39116      -0.73254      -0.28421
                        -----------------------------------------
Total Dipole Moment    :     -2.21409      -0.10787      -0.04909
                        -----------------------------------------
Magnitude (a.u.)       :      2.21726
Magnitude (Debye)      :      5.63583

Rotational constants in cm-1:     0.087522     0.008118     0.007440
Rotational constants in MHz :  2623.844389   243.385211   223.036976

                             ****ORCA TERMINATED NORMALLY****
TOTAL RUN TIME: 0 days 6 hours 25 minutes 46 seconds 266 msec
