                         Program Version 5.0.4 -  RELEASE  -
|  1> ! ri-mp2 aug-cc-pvdz aug-cc-pvdz/c tightscf
|  2> %pal nprocs 16 end
|  3> %maxcore 3800
|  4> %base "DZ_S66by10_19_2.0_dimer"
|  5>
|  6> *xyz 0 1
|  7> O   -0.62765177    0.08746727    0.00147128
|  8> H    0.34360203    0.12230333   -0.00060045
|  9> C   -0.97793123   -1.27855601    0.00123841
| 10> H   -2.06339209   -1.34204332    0.00500898
| 11> H   -0.61488369   -1.80637584   -0.88538395
| 12> H   -0.60864033   -1.80823682    0.88417273
| 13> N    4.24341197   -0.09176287   -0.00267576
| 14> C    4.93978036   -0.11619820   -1.14739537
| 15> H    4.35530176   -0.09297466   -2.05837081
| 16> C    6.32941742   -0.16594106   -1.19608062
| 17> H    6.83676977   -0.18323310   -2.14986334
| 18> C    7.03979065   -0.19165368   -0.00046759
| 19> H    8.12012665   -0.22941843    0.00038170
| 20> C    6.32754320   -0.16663257    1.19407226
| 21> H    6.83334193   -0.18445690    2.14855795
| 22> C    4.93798955   -0.11688289    1.14311818
| 23> H    4.35198377   -0.09420846    2.05323686
| 24> *
| 25>
| 26> $new_job
| 27> ! ri-mp2 aug-cc-pvtz aug-cc-pvtz/c tightscf
| 28> %pal nprocs 16 end
| 29> %maxcore 3800
| 30> %base "TZ_S66by10_19_2.0_dimer"
| 31>
| 32> *xyz 0 1
| 33> O   -0.62765177    0.08746727    0.00147128
| 34> H    0.34360203    0.12230333   -0.00060045
| 35> C   -0.97793123   -1.27855601    0.00123841
| 36> H   -2.06339209   -1.34204332    0.00500898
| 37> H   -0.61488369   -1.80637584   -0.88538395
| 38> H   -0.60864033   -1.80823682    0.88417273
| 39> N    4.24341197   -0.09176287   -0.00267576
| 40> C    4.93978036   -0.11619820   -1.14739537
| 41> H    4.35530176   -0.09297466   -2.05837081
| 42> C    6.32941742   -0.16594106   -1.19608062
| 43> H    6.83676977   -0.18323310   -2.14986334
| 44> C    7.03979065   -0.19165368   -0.00046759
| 45> H    8.12012665   -0.22941843    0.00038170
| 46> C    6.32754320   -0.16663257    1.19407226
| 47> H    6.83334193   -0.18445690    2.14855795
| 48> C    4.93798955   -0.11688289    1.14311818
| 49> H    4.35198377   -0.09420846    2.05323686
| 50> *
| 51>
| 52> $new_job
| 53> ! ri-mp2 aug-cc-pvqz aug-cc-pvqz/c tightscf
| 54> %pal nprocs 16 end
| 55> %maxcore 3800
| 56> %base "QZ_S66by10_19_2.0_dimer"
| 57>
| 58> *xyz 0 1
| 59> O   -0.62765177    0.08746727    0.00147128
| 60> H    0.34360203    0.12230333   -0.00060045
| 61> C   -0.97793123   -1.27855601    0.00123841
| 62> H   -2.06339209   -1.34204332    0.00500898
| 63> H   -0.61488369   -1.80637584   -0.88538395
| 64> H   -0.60864033   -1.80823682    0.88417273
| 65> N    4.24341197   -0.09176287   -0.00267576
| 66> C    4.93978036   -0.11619820   -1.14739537
| 67> H    4.35530176   -0.09297466   -2.05837081
| 68> C    6.32941742   -0.16594106   -1.19608062
| 69> H    6.83676977   -0.18323310   -2.14986334
| 70> C    7.03979065   -0.19165368   -0.00046759
| 71> H    8.12012665   -0.22941843    0.00038170
| 72> C    6.32754320   -0.16663257    1.19407226
| 73> H    6.83334193   -0.18445690    2.14855795
| 74> C    4.93798955   -0.11688289    1.14311818
| 75> H    4.35198377   -0.09420846    2.05323686
| 76> *
| 77>
| 78>
| 79>
| 80>
| 81>                          ****END OF INPUT****
 Total Charge           Charge          ....    0
 Multiplicity           Mult            ....    1
 Number of Electrons    NEL             ....   60
MP2 TOTAL ENERGY:     -362.986315382 Eh
FINAL SINGLE POINT ENERGY      -362.986315381593
MP2 TOTAL ENERGY:     -363.308302341 Eh
FINAL SINGLE POINT ENERGY      -363.308302341130

CARTESIAN COORDINATES (ANGSTROEM)
---------------------------------
  O     -0.627652    0.087467    0.001471
  H      0.343602    0.122303   -0.000600
  C     -0.977931   -1.278556    0.001238
  H     -2.063392   -1.342043    0.005009
  H     -0.614884   -1.806376   -0.885384
  H     -0.608640   -1.808237    0.884173
  N      4.243412   -0.091763   -0.002676
  C      4.939780   -0.116198   -1.147395
  H      4.355302   -0.092975   -2.058371
  C      6.329417   -0.165941   -1.196081
  H      6.836770   -0.183233   -2.149863
  C      7.039791   -0.191654   -0.000468
  H      8.120127   -0.229418    0.000382
  C      6.327543   -0.166633    1.194072
  H      6.833342   -0.184457    2.148558
  C      4.937990   -0.116883    1.143118
  H      4.351984   -0.094208    2.053237

 Multiplicity           Mult            ....    1
 Number of Electrons    NEL             ....   60
 Basis Dimension        Dim             .... 1054

ORBITAL ENERGIES
----------------

  NO   OCC          E(Eh)            E(eV)
   0   2.0000     -20.548867      -559.1631
   1   2.0000     -15.570364      -423.6911
   2   2.0000     -11.279209      -306.9229
   3   2.0000     -11.279191      -306.9224
   4   2.0000     -11.263738      -306.5019
   5   2.0000     -11.260922      -306.4253
   6   2.0000     -11.245685      -306.0106
   7   2.0000     -11.245631      -306.0092
   8   2.0000      -1.349506       -36.7219
   9   2.0000      -1.261408       -34.3247
  10   2.0000      -1.093850       -29.7652
  11   2.0000      -1.039122       -28.2760
  12   2.0000      -0.915122       -24.9017
  13   2.0000      -0.863988       -23.5103
  14   2.0000      -0.861164       -23.4335
  15   2.0000      -0.727251       -19.7895
  16   2.0000      -0.682074       -18.5602
  17   2.0000      -0.665714       -18.1150
  18   2.0000      -0.659173       -17.9370
  19   2.0000      -0.611915       -16.6511
  20   2.0000      -0.604366       -16.4456
  21   2.0000      -0.586776       -15.9670
  22   2.0000      -0.582015       -15.8374
  23   2.0000      -0.546630       -14.8745
  24   2.0000      -0.525717       -14.3055
  25   2.0000      -0.495228       -13.4758
  26   2.0000      -0.441456       -12.0126
  27   2.0000      -0.424851       -11.5608
  28   2.0000      -0.388802       -10.5798
  29   2.0000      -0.353152        -9.6098
  30   0.0000       0.020855         0.5675
  31   0.0000       0.026974         0.7340
  32   0.0000       0.029210         0.7949
  33   0.0000       0.038372         1.0441
  34   0.0000       0.040592         1.1046

MULLIKEN ATOMIC CHARGES
-----------------------
   0 O :   -0.719132
   1 H :    0.346672
   2 C :   -0.432945
   3 H :    0.339810
   4 H :    0.230659
   5 H :    0.230691
   6 N :   -0.503840
   7 C :   -0.342190
   8 H :    0.429723
   9 C :   -0.228721
  10 H :    0.357909
  11 C :   -0.266202
  12 H :    0.340261
  13 C :   -0.228729
  14 H :    0.358081
  15 C :   -0.341711
  16 H :    0.429664
Sum of atomic charges:    0.0000000

LOEWDIN ATOMIC CHARGES
----------------------
   0 O :    1.219774
   1 H :   -0.795195
   2 C :    0.556644
   3 H :   -0.343241
   4 H :   -0.320293
   5 H :   -0.320297
   6 N :    0.580188
   7 C :    0.067480
   8 H :   -0.356954
   9 C :    0.326338
  10 H :   -0.331355
  11 C :    0.326741
  12 H :   -0.315333
  13 C :    0.326396
  14 H :   -0.331459
  15 C :    0.067430
  16 H :   -0.356862

  Mayer bond orders larger than 0.100000
B(  0-O ,  1-H ) :   0.8942 B(  0-O ,  2-C ) :   0.8422 B(  2-C ,  3-H ) :   0.8771
B(  2-C ,  4-H ) :   0.9342 B(  2-C ,  5-H ) :   0.9342 B(  6-N ,  7-C ) :   1.2769
B(  6-N , 15-C ) :   1.2768 B(  7-C ,  8-H ) :   0.8928 B(  7-C ,  9-C ) :   1.2402
B(  7-C , 13-C ) :   0.1046 B(  9-C , 10-H ) :   0.9460 B(  9-C , 11-C ) :   1.1835
B(  9-C , 15-C ) :   0.1044 B( 11-C , 12-H ) :   0.9728 B( 11-C , 13-C ) :   1.1838
B( 13-C , 14-H ) :   0.9458 B( 13-C , 15-C ) :   1.2399 B( 15-C , 16-H ) :   0.8928

MP2 TOTAL ENERGY:     -363.410969187 Eh
FINAL SINGLE POINT ENERGY      -363.410969186781

DIPOLE MOMENT
-------------
                                X             Y             Z
Electronic contribution:      7.62930       2.42199      -0.00430
Nuclear contribution   :     -6.16826      -2.98574       0.00365
                        -----------------------------------------
Total Dipole Moment    :      1.46104      -0.56375      -0.00065
                        -----------------------------------------
Magnitude (a.u.)       :      1.56603
Magnitude (Debye)      :      3.98054

Rotational constants in cm-1:     0.164356     0.016100     0.015120
Rotational constants in MHz :  4927.266485   482.659030   453.271850

                             ****ORCA TERMINATED NORMALLY****
TOTAL RUN TIME: 0 days 0 hours 16 minutes 47 seconds 147 msec
