                         Program Version 5.0.4 -  RELEASE  -
|  1> ! ri-mp2 aug-cc-pvdz aug-cc-pvdz/c tightscf
|  2> %pal nprocs 16 end
|  3> %maxcore 3800
|  4> %base "DZ_S66by10_61_1.0_dimer"
|  5> %scf STABPerform true end
|  6>
|  7> *xyz 0 1
|  8> C   -2.27534498   -0.13507494    0.83133387
|  9> H   -2.49071776   -0.72792669   -0.05756635
| 10> H   -2.22632382   -0.81844641    1.67882341
| 11> H   -3.11202566    0.54494342    0.98740008
| 12> C   -0.96169812    0.61927789    0.66939920
| 13> H   -0.78869920    1.25043181    1.54470266
| 14> H   -1.02617687    1.29544524   -0.18645838
| 15> C    0.22650217   -0.31471031    0.47998579
| 16> H    0.30944439   -0.97513911    1.34803794
| 17> H    0.03915056   -0.96599875   -0.37878983
| 18> C    1.54300168    0.42117452    0.26899951
| 19> H    1.71163863    1.10777177    1.10244654
| 20> H    1.46609466    1.04374331   -0.62529358
| 21> C    2.72757632   -0.52686091    0.13745931
| 22> H    2.58874155   -1.20321391   -0.70575734
| 23> H    3.66150100    0.01169308   -0.01596863
| 24> H    2.83519407   -1.13740994    1.03407512
| 25> C   -0.49860164   -0.29176470    4.19827048
| 26> O   -0.92121558   -1.40694495    4.00112390
| 27> O   -1.31229400    0.76720081    4.43085996
| 28> H   -2.21305610    0.41282028    4.39032422
| 29> C    0.94166543    0.11790138    4.21547586
| 30> H    1.56748849   -0.75227957    4.05732070
| 31> H    1.11770284    0.85217501    3.43235128
| 32> H    1.17897667    0.58720233    5.16727825
| 33> *
| 34>
| 35> $new_job
| 36> ! ri-mp2 aug-cc-pvtz aug-cc-pvtz/c tightscf
| 37> %pal nprocs 16 end
| 38> %maxcore 3800
| 39> %base "TZ_S66by10_61_1.0_dimer"
| 40>
| 41> *xyz 0 1
| 42> C   -2.27534498   -0.13507494    0.83133387
| 43> H   -2.49071776   -0.72792669   -0.05756635
| 44> H   -2.22632382   -0.81844641    1.67882341
| 45> H   -3.11202566    0.54494342    0.98740008
| 46> C   -0.96169812    0.61927789    0.66939920
| 47> H   -0.78869920    1.25043181    1.54470266
| 48> H   -1.02617687    1.29544524   -0.18645838
| 49> C    0.22650217   -0.31471031    0.47998579
| 50> H    0.30944439   -0.97513911    1.34803794
| 51> H    0.03915056   -0.96599875   -0.37878983
| 52> C    1.54300168    0.42117452    0.26899951
| 53> H    1.71163863    1.10777177    1.10244654
| 54> H    1.46609466    1.04374331   -0.62529358
| 55> C    2.72757632   -0.52686091    0.13745931
| 56> H    2.58874155   -1.20321391   -0.70575734
| 57> H    3.66150100    0.01169308   -0.01596863
| 58> H    2.83519407   -1.13740994    1.03407512
| 59> C   -0.49860164   -0.29176470    4.19827048
| 60> O   -0.92121558   -1.40694495    4.00112390
| 61> O   -1.31229400    0.76720081    4.43085996
| 62> H   -2.21305610    0.41282028    4.39032422
| 63> C    0.94166543    0.11790138    4.21547586
| 64> H    1.56748849   -0.75227957    4.05732070
| 65> H    1.11770284    0.85217501    3.43235128
| 66> H    1.17897667    0.58720233    5.16727825
| 67> *
| 68>
| 69> $new_job
| 70> ! ri-mp2 aug-cc-pvqz aug-cc-pvqz/c tightscf
| 71> %pal nprocs 16 end
| 72> %maxcore 3800
| 73> %base "QZ_S66by10_61_1.0_dimer"
| 74>
| 75> *xyz 0 1
| 76> C   -2.27534498   -0.13507494    0.83133387
| 77> H   -2.49071776   -0.72792669   -0.05756635
| 78> H   -2.22632382   -0.81844641    1.67882341
| 79> H   -3.11202566    0.54494342    0.98740008
| 80> C   -0.96169812    0.61927789    0.66939920
| 81> H   -0.78869920    1.25043181    1.54470266
| 82> H   -1.02617687    1.29544524   -0.18645838
| 83> C    0.22650217   -0.31471031    0.47998579
| 84> H    0.30944439   -0.97513911    1.34803794
| 85> H    0.03915056   -0.96599875   -0.37878983
| 86> C    1.54300168    0.42117452    0.26899951
| 87> H    1.71163863    1.10777177    1.10244654
| 88> H    1.46609466    1.04374331   -0.62529358
| 89> C    2.72757632   -0.52686091    0.13745931
| 90> H    2.58874155   -1.20321391   -0.70575734
| 91> H    3.66150100    0.01169308   -0.01596863
| 92> H    2.83519407   -1.13740994    1.03407512
| 93> C   -0.49860164   -0.29176470    4.19827048
| 94> O   -0.92121558   -1.40694495    4.00112390
| 95> O   -1.31229400    0.76720081    4.43085996
| 96> H   -2.21305610    0.41282028    4.39032422
| 97> C    0.94166543    0.11790138    4.21547586
| 98> H    1.56748849   -0.75227957    4.05732070
| 99> H    1.11770284    0.85217501    3.43235128
|100> H    1.17897667    0.58720233    5.16727825
|101> *
|102>
|103>
|104>
|105>
|106>                          ****END OF INPUT****
 Total Charge           Charge          ....    0
 Multiplicity           Mult            ....    1
 Number of Electrons    NEL             ....   74
MP2 TOTAL ENERGY:     -425.644388110 Eh
FINAL SINGLE POINT ENERGY      -425.644388110295
MP2 TOTAL ENERGY:     -426.038865983 Eh
FINAL SINGLE POINT ENERGY      -426.038865983242

CARTESIAN COORDINATES (ANGSTROEM)
---------------------------------
  C     -2.275345   -0.135075    0.831334
  H     -2.490718   -0.727927   -0.057566
  H     -2.226324   -0.818446    1.678823
  H     -3.112026    0.544943    0.987400
  C     -0.961698    0.619278    0.669399
  H     -0.788699    1.250432    1.544703
  H     -1.026177    1.295445   -0.186458
  C      0.226502   -0.314710    0.479986
  H      0.309444   -0.975139    1.348038
  H      0.039151   -0.965999   -0.378790
  C      1.543002    0.421175    0.269000
  H      1.711639    1.107772    1.102447
  H      1.466095    1.043743   -0.625294
  C      2.727576   -0.526861    0.137459
  H      2.588742   -1.203214   -0.705757
  H      3.661501    0.011693   -0.015969
  H      2.835194   -1.137410    1.034075
  C     -0.498602   -0.291765    4.198270
  O     -0.921216   -1.406945    4.001124
  O     -1.312294    0.767201    4.430860
  H     -2.213056    0.412820    4.390324
  C      0.941665    0.117901    4.215476
  H      1.567488   -0.752280    4.057321
  H      1.117703    0.852175    3.432351
  H      1.178977    0.587202    5.167278

 Multiplicity           Mult            ....    1
 Number of Electrons    NEL             ....   74
 Basis Dimension        Dim             .... 1456

ORBITAL ENERGIES
----------------

  NO   OCC          E(Eh)            E(eV)
   0   2.0000     -20.613958      -560.9343
   1   2.0000     -20.551181      -559.2261
   2   2.0000     -11.391065      -309.9666
   3   2.0000     -11.245392      -306.0027
   4   2.0000     -11.214342      -305.1578
   5   2.0000     -11.211620      -305.0837
   6   2.0000     -11.208519      -304.9993
   7   2.0000     -11.208315      -304.9938
   8   2.0000     -11.202774      -304.8430
   9   2.0000      -1.467623       -39.9361
  10   2.0000      -1.363716       -37.1086
  11   2.0000      -1.081920       -29.4405
  12   2.0000      -1.031826       -28.0774
  13   2.0000      -1.015872       -27.6433
  14   2.0000      -0.918882       -25.0041
  15   2.0000      -0.824443       -22.4342
  16   2.0000      -0.820399       -22.3242
  17   2.0000      -0.786021       -21.3887
  18   2.0000      -0.709847       -19.3159
  19   2.0000      -0.683718       -18.6049
  20   2.0000      -0.663213       -18.0469
  21   2.0000      -0.640072       -17.4172
  22   2.0000      -0.599397       -16.3104
  23   2.0000      -0.594864       -16.1871
  24   2.0000      -0.588042       -16.0014
  25   2.0000      -0.576749       -15.6941
  26   2.0000      -0.564295       -15.3552
  27   2.0000      -0.554222       -15.0811
  28   2.0000      -0.547880       -14.9086
  29   2.0000      -0.525275       -14.2935
  30   2.0000      -0.495774       -13.4907
  31   2.0000      -0.489940       -13.3319
  32   2.0000      -0.476615       -12.9693
  33   2.0000      -0.462513       -12.5856
  34   2.0000      -0.458824       -12.4852
  35   2.0000      -0.457274       -12.4431
  36   2.0000      -0.447270       -12.1708
  37   0.0000       0.023772         0.6469
  38   0.0000       0.028503         0.7756
  39   0.0000       0.030125         0.8197
  40   0.0000       0.034492         0.9386
  41   0.0000       0.041384         1.1261

MULLIKEN ATOMIC CHARGES
-----------------------
   0 C :   -1.040695
   1 H :    0.272387
   2 H :    0.277378
   3 H :    0.237617
   4 C :   -0.456708
   5 H :    0.218978
   6 H :    0.310732
   7 C :   -0.244183
   8 H :    0.280321
   9 H :    0.324156
  10 C :   -0.610184
  11 H :    0.302403
  12 H :    0.283992
  13 C :   -0.922100
  14 H :    0.221423
  15 H :    0.267587
  16 H :    0.250303
  17 C :    1.385446
  18 O :   -0.880886
  19 O :   -0.811006
  20 H :    0.325664
  21 C :   -0.961290
  22 H :    0.300869
  23 H :    0.311120
  24 H :    0.356676
Sum of atomic charges:   -0.0000000

LOEWDIN ATOMIC CHARGES
----------------------
   0 C :    0.924391
   1 H :   -0.281494
   2 H :   -0.317213
   3 H :   -0.279559
   4 C :    0.497744
   5 H :   -0.291469
   6 H :   -0.267638
   7 C :    0.486394
   8 H :   -0.294405
   9 H :   -0.263399
  10 C :    0.501852
  11 H :   -0.288570
  12 H :   -0.268271
  13 C :    0.930402
  14 H :   -0.283732
  15 H :   -0.281793
  16 H :   -0.286724
  17 C :   -1.040491
  18 O :    0.718650
  19 O :    1.261136
  20 H :   -0.822088
  21 C :    0.872568
  22 H :   -0.312136
  23 H :   -0.320526
  24 H :   -0.293626

  Mayer bond orders larger than 0.100000
B(  0-C ,  1-H ) :   0.9624 B(  0-C ,  2-H ) :   0.9084 B(  0-C ,  3-H ) :   1.0530
B(  0-C ,  4-C ) :   0.9485 B(  3-H ,  4-C ) :  -0.1031 B(  4-C ,  5-H ) :   0.8938
B(  4-C ,  6-H ) :   0.8541 B(  4-C ,  7-C ) :   0.8182 B(  7-C ,  8-H ) :   0.8387
B(  7-C ,  9-H ) :   0.8845 B(  7-C , 10-C ) :   0.8306 B(  7-C , 13-C ) :  -0.1138
B( 10-C , 11-H ) :   0.8544 B( 10-C , 12-H ) :   0.8728 B( 10-C , 13-C ) :   1.0237
B( 13-C , 14-H ) :   0.9869 B( 13-C , 15-H ) :   1.0223 B( 13-C , 16-H ) :   0.9202
B( 17-C , 18-O ) :   1.2414 B( 17-C , 19-O ) :   0.6487 B( 17-C , 21-C ) :   0.9672
B( 19-O , 20-H ) :   0.8877 B( 21-C , 22-H ) :   0.9547 B( 21-C , 23-H ) :   0.8524
B( 21-C , 24-H ) :   0.9076

MP2 TOTAL ENERGY:     -426.161618308 Eh
FINAL SINGLE POINT ENERGY      -426.161618308123

DIPOLE MOMENT
-------------
                                X             Y             Z
Electronic contribution:     -5.22331      -1.07516      11.33614
Nuclear contribution   :      5.50879       1.73837     -11.22847
                        -----------------------------------------
Total Dipole Moment    :      0.28548       0.66321       0.10767
                        -----------------------------------------
Magnitude (a.u.)       :      0.73003
Magnitude (Debye)      :      1.85558

Rotational constants in cm-1:     0.054265     0.027799     0.021415
Rotational constants in MHz :  1626.831035   833.401731   641.991040

                             ****ORCA TERMINATED NORMALLY****
TOTAL RUN TIME: 0 days 9 hours 39 minutes 8 seconds 93 msec
