                         Program Version 5.0.4 -  RELEASE  -
|  1> ! ri-mp2 aug-cc-pvdz aug-cc-pvdz/c tightscf
|  2> %pal nprocs 16 end
|  3> %maxcore 3800
|  4> %base "DZ_S66by10_17_0.9_dimer"
|  5> %scf STABPerform true end
|  6>
|  7> *xyz 0 1
|  8> N   -0.72999913    0.02276763    0.00091465
|  9> H    0.29842255    0.07400447    0.00162304
| 10> C   -1.29682453   -1.24042682    0.00150234
| 11> O   -0.59409886   -2.25351751    0.00263371
| 12> C   -2.74362229   -1.26233170    0.00047938
| 13> H   -3.24959045   -2.21183517    0.00083311
| 14> C   -3.42201997   -0.09590921   -0.00092259
| 15> H   -4.50089709   -0.04921603   -0.00174546
| 16> N   -2.77483684    1.10540895   -0.00141807
| 17> H   -3.28383807    1.97387739   -0.00248574
| 18> C   -1.39147866    1.23701978   -0.00052538
| 19> O   -0.83984371    2.31703528   -0.00100125
| 20> N    3.97545216   -1.07692952    0.00049841
| 21> H    4.42269594   -0.17035632    0.00088523
| 22> C    4.83149993   -2.19154731   -0.00100146
| 23> O    6.04095195   -2.03984290   -0.00175066
| 24> C    4.11728150   -3.45372085   -0.00150586
| 25> H    4.68386605   -4.36875160   -0.00264449
| 26> C    2.76711252   -3.45753872   -0.00054576
| 27> H    2.19014928   -4.37050349   -0.00086444
| 28> N    2.02912111   -2.30665788    0.00090465
| 29> H    1.00278485   -2.32810068    0.00158172
| 30> C    2.60189205   -1.06199284    0.00145530
| 31> O    1.95157117   -0.02077454    0.00269169
| 32> *
| 33>
| 34> $new_job
| 35> ! ri-mp2 aug-cc-pvtz aug-cc-pvtz/c tightscf
| 36> %pal nprocs 16 end
| 37> %maxcore 3800
| 38> %base "TZ_S66by10_17_0.9_dimer"
| 39>
| 40> *xyz 0 1
| 41> N   -0.72999913    0.02276763    0.00091465
| 42> H    0.29842255    0.07400447    0.00162304
| 43> C   -1.29682453   -1.24042682    0.00150234
| 44> O   -0.59409886   -2.25351751    0.00263371
| 45> C   -2.74362229   -1.26233170    0.00047938
| 46> H   -3.24959045   -2.21183517    0.00083311
| 47> C   -3.42201997   -0.09590921   -0.00092259
| 48> H   -4.50089709   -0.04921603   -0.00174546
| 49> N   -2.77483684    1.10540895   -0.00141807
| 50> H   -3.28383807    1.97387739   -0.00248574
| 51> C   -1.39147866    1.23701978   -0.00052538
| 52> O   -0.83984371    2.31703528   -0.00100125
| 53> N    3.97545216   -1.07692952    0.00049841
| 54> H    4.42269594   -0.17035632    0.00088523
| 55> C    4.83149993   -2.19154731   -0.00100146
| 56> O    6.04095195   -2.03984290   -0.00175066
| 57> C    4.11728150   -3.45372085   -0.00150586
| 58> H    4.68386605   -4.36875160   -0.00264449
| 59> C    2.76711252   -3.45753872   -0.00054576
| 60> H    2.19014928   -4.37050349   -0.00086444
| 61> N    2.02912111   -2.30665788    0.00090465
| 62> H    1.00278485   -2.32810068    0.00158172
| 63> C    2.60189205   -1.06199284    0.00145530
| 64> O    1.95157117   -0.02077454    0.00269169
| 65> *
| 66>
| 67> $new_job
| 68> ! ri-mp2 aug-cc-pvqz aug-cc-pvqz/c tightscf
| 69> %pal nprocs 16 end
| 70> %maxcore 3800
| 71> %base "QZ_S66by10_17_0.9_dimer"
| 72>
| 73> *xyz 0 1
| 74> N   -0.72999913    0.02276763    0.00091465
| 75> H    0.29842255    0.07400447    0.00162304
| 76> C   -1.29682453   -1.24042682    0.00150234
| 77> O   -0.59409886   -2.25351751    0.00263371
| 78> C   -2.74362229   -1.26233170    0.00047938
| 79> H   -3.24959045   -2.21183517    0.00083311
| 80> C   -3.42201997   -0.09590921   -0.00092259
| 81> H   -4.50089709   -0.04921603   -0.00174546
| 82> N   -2.77483684    1.10540895   -0.00141807
| 83> H   -3.28383807    1.97387739   -0.00248574
| 84> C   -1.39147866    1.23701978   -0.00052538
| 85> O   -0.83984371    2.31703528   -0.00100125
| 86> N    3.97545216   -1.07692952    0.00049841
| 87> H    4.42269594   -0.17035632    0.00088523
| 88> C    4.83149993   -2.19154731   -0.00100146
| 89> O    6.04095195   -2.03984290   -0.00175066
| 90> C    4.11728150   -3.45372085   -0.00150586
| 91> H    4.68386605   -4.36875160   -0.00264449
| 92> C    2.76711252   -3.45753872   -0.00054576
| 93> H    2.19014928   -4.37050349   -0.00086444
| 94> N    2.02912111   -2.30665788    0.00090465
| 95> H    1.00278485   -2.32810068    0.00158172
| 96> C    2.60189205   -1.06199284    0.00145530
| 97> O    1.95157117   -0.02077454    0.00269169
| 98> *
| 99>
|100>
|101>
|102>
|103>                          ****END OF INPUT****
 Total Charge           Charge          ....    0
 Multiplicity           Mult            ....    1
 Number of Electrons    NEL             ....  116
MP2 TOTAL ENERGY:     -827.581452438 Eh
FINAL SINGLE POINT ENERGY      -827.581452438266
MP2 TOTAL ENERGY:     -828.276533858 Eh
FINAL SINGLE POINT ENERGY      -828.276533857650

CARTESIAN COORDINATES (ANGSTROEM)
---------------------------------
  N     -0.729999    0.022768    0.000915
  H      0.298423    0.074004    0.001623
  C     -1.296825   -1.240427    0.001502
  O     -0.594099   -2.253518    0.002634
  C     -2.743622   -1.262332    0.000479
  H     -3.249590   -2.211835    0.000833
  C     -3.422020   -0.095909   -0.000923
  H     -4.500897   -0.049216   -0.001745
  N     -2.774837    1.105409   -0.001418
  H     -3.283838    1.973877   -0.002486
  C     -1.391479    1.237020   -0.000525
  O     -0.839844    2.317035   -0.001001
  N      3.975452   -1.076930    0.000498
  H      4.422696   -0.170356    0.000885
  C      4.831500   -2.191547   -0.001001
  O      6.040952   -2.039843   -0.001751
  C      4.117281   -3.453721   -0.001506
  H      4.683866   -4.368752   -0.002644
  C      2.767113   -3.457539   -0.000546
  H      2.190149   -4.370503   -0.000864
  N      2.029121   -2.306658    0.000905
  H      1.002785   -2.328101    0.001582
  C      2.601892   -1.061993    0.001455
  O      1.951571   -0.020775    0.002692

 Multiplicity           Mult            ....    1
 Number of Electrons    NEL             ....  116
 Basis Dimension        Dim             .... 1648

ORBITAL ENERGIES
----------------

  NO   OCC          E(Eh)            E(eV)
   0   2.0000     -20.554377      -559.3130
   1   2.0000     -20.544692      -559.0495
   2   2.0000     -20.541413      -558.9603
   3   2.0000     -20.529634      -558.6398
   4   2.0000     -15.645281      -425.7298
   5   2.0000     -15.619648      -425.0322
   6   2.0000     -15.614207      -424.8842
   7   2.0000     -15.611487      -424.8102
   8   2.0000     -11.414721      -310.6103
   9   2.0000     -11.414212      -310.5965
  10   2.0000     -11.394479      -310.0595
  11   2.0000     -11.370435      -309.4053
  12   2.0000     -11.347075      -308.7696
  13   2.0000     -11.323971      -308.1409
  14   2.0000     -11.258235      -306.3522
  15   2.0000     -11.240555      -305.8710
  16   2.0000      -1.438286       -39.1377
  17   2.0000      -1.431606       -38.9560
  18   2.0000      -1.411056       -38.3968
  19   2.0000      -1.389669       -37.8148
  20   2.0000      -1.315438       -35.7949
  21   2.0000      -1.301591       -35.4181
  22   2.0000      -1.245761       -33.8989
  23   2.0000      -1.235278       -33.6136
  24   2.0000      -1.093251       -29.7489
  25   2.0000      -1.074894       -29.2494
  26   2.0000      -0.939542       -25.5662
  27   2.0000      -0.921293       -25.0697
  28   2.0000      -0.906054       -24.6550
  29   2.0000      -0.891823       -24.2677
  30   2.0000      -0.812029       -22.0964
  31   2.0000      -0.800035       -21.7701
  32   2.0000      -0.768949       -20.9242
  33   2.0000      -0.755982       -20.5713
  34   2.0000      -0.728359       -19.8197
  35   2.0000      -0.714557       -19.4441
  36   2.0000      -0.687369       -18.7043
  37   2.0000      -0.669995       -18.2315
  38   2.0000      -0.667993       -18.1770
  39   2.0000      -0.660772       -17.9805
  40   2.0000      -0.652908       -17.7665
  41   2.0000      -0.644249       -17.5309
  42   2.0000      -0.624148       -16.9839
  43   2.0000      -0.607778       -16.5385
  44   2.0000      -0.595650       -16.2085
  45   2.0000      -0.588335       -16.0094
  46   2.0000      -0.584734       -15.9114
  47   2.0000      -0.562757       -15.3134
  48   2.0000      -0.526560       -14.3284
  49   2.0000      -0.513199       -13.9648
  50   2.0000      -0.497906       -13.5487
  51   2.0000      -0.474079       -12.9004
  52   2.0000      -0.461557       -12.5596
  53   2.0000      -0.441806       -12.0222
  54   2.0000      -0.441748       -12.0206
  55   2.0000      -0.435012       -11.8373
  56   2.0000      -0.374948       -10.2028
  57   2.0000      -0.355111        -9.6631
  58   0.0000       0.008792         0.2392
  59   0.0000       0.021384         0.5819
  60   0.0000       0.029021         0.7897
  61   0.0000       0.036248         0.9864
  62   0.0000       0.040239         1.0949

MULLIKEN ATOMIC CHARGES
-----------------------
   0 N :   -0.768298
   1 H :    0.354275
   2 C :    1.083723
   3 O :   -0.769774
   4 C :   -0.409421
   5 H :    0.251338
   6 C :   -0.090988
   7 H :    0.425746
   8 N :   -0.719164
   9 H :    0.064300
  10 C :    1.400173
  11 O :   -0.769304
  12 N :   -0.674318
  13 H :    0.126308
  14 C :    1.095809
  15 O :   -0.841877
  16 C :   -0.350300
  17 H :    0.279440
  18 C :   -0.379610
  19 H :    0.307732
  20 N :   -0.583468
  21 H :    0.275590
  22 C :    1.450049
  23 O :   -0.757961
Sum of atomic charges:    0.0000000

LOEWDIN ATOMIC CHARGES
----------------------
   0 N :    0.790803
   1 H :   -0.906803
   2 C :   -0.728350
   3 O :    0.897712
   4 C :    0.348977
   5 H :   -0.353425
   6 C :    0.240362
   7 H :   -0.294251
   8 N :    0.815072
   9 H :   -0.492525
  10 C :   -0.963257
  11 O :    0.703721
  12 N :    0.792579
  13 H :   -0.515814
  14 C :   -0.863964
  15 O :    0.678154
  16 C :    0.335164
  17 H :   -0.356946
  18 C :    0.249290
  19 H :   -0.292270
  20 N :    0.812630
  21 H :   -0.929574
  22 C :   -0.858257
  23 O :    0.890970

  Mayer bond orders larger than 0.100000
B(  0-N ,  1-H ) :   0.8512 B(  0-N ,  2-C ) :   1.0346 B(  0-N ,  3-O ) :   0.2589
B(  0-N , 10-C ) :   1.3125 B(  0-N , 11-O ) :   0.3068 B(  2-C ,  3-O ) :   1.2269
B(  2-C ,  4-C ) :   0.9162 B(  2-C ,  6-C ) :  -0.2508 B(  3-O ,  4-C ) :   0.1100
B(  3-O , 20-N ) :  -0.1142 B(  4-C ,  5-H ) :   1.0396 B(  4-C ,  6-C ) :   1.4519
B(  4-C ,  7-H ) :  -0.1417 B(  5-H ,  6-C ) :  -0.1090 B(  6-C ,  7-H ) :   0.9463
B(  6-C ,  8-N ) :   0.9285 B(  8-N ,  9-H ) :   1.2425 B(  8-N , 10-C ) :   1.0564
B(  8-N , 11-O ) :   0.1903 B(  9-H , 10-C ) :  -0.1060 B( 10-C , 11-O ) :   1.0156
B( 12-N , 13-H ) :   1.1924 B( 12-N , 14-C ) :   1.0693 B( 12-N , 15-O ) :   0.1455
B( 12-N , 22-C ) :   0.9783 B( 13-H , 22-C ) :  -0.1104 B( 14-C , 15-O ) :   0.9979
B( 14-C , 16-C ) :   1.1559 B( 15-O , 16-C ) :   0.2809 B( 16-C , 17-H ) :   1.0149
B( 16-C , 18-C ) :   1.4589 B( 17-H , 18-C ) :  -0.1130 B( 18-C , 19-H ) :   0.9961
B( 18-C , 20-N ) :   1.1165 B( 20-N , 21-H ) :   0.8783 B( 20-N , 22-C ) :   1.1860
B( 20-N , 23-O ) :   0.2109 B( 22-C , 23-O ) :   1.2379

MP2 TOTAL ENERGY:     -828.505927519 Eh
FINAL SINGLE POINT ENERGY      -828.505927519098

DIPOLE MOMENT
-------------
                                X             Y             Z
Electronic contribution:      2.01176       2.74569       0.00227
Nuclear contribution   :     -5.43260      -3.55860      -0.00389
                        -----------------------------------------
Total Dipole Moment    :     -3.42085      -0.81291      -0.00162
                        -----------------------------------------
Magnitude (a.u.)       :      3.51611
Magnitude (Debye)      :      8.93724

Rotational constants in cm-1:     0.046955     0.007905     0.006766
Rotational constants in MHz :  1407.671857   236.998828   202.847114

                             ****ORCA TERMINATED NORMALLY****
TOTAL RUN TIME: 0 days 12 hours 50 minutes 34 seconds 460 msec
