                         Program Version 5.0.4 -  RELEASE  -
|  1> ! ri-mp2 aug-cc-pvdz aug-cc-pvdz/c tightscf
|  2> %pal nprocs 16 end
|  3> %maxcore 3800
|  4> %base "DZ_S66by10_22_1.5_dimer"
|  5> %scf STABPerform true end
|  6>
|  7> *xyz 0 1
|  8> C   -1.11362611    1.32702009    0.27516705
|  9> O   -0.46708264    2.34938778    0.46153746
| 10> O   -0.57808939    0.13692049    0.04961747
| 11> H    0.41332036    0.20325661    0.05548711
| 12> C   -2.61142469    1.28618957    0.27736131
| 13> H   -3.00664872    2.27688545    0.46578983
| 14> H   -2.96425623    0.91525868   -0.68200123
| 15> H   -2.95311421    0.59179821    1.04124041
| 16> N    5.04931812    1.10966730    0.17963583
| 17> H    5.44252323    0.19427707    0.00791640
| 18> C    5.97084602    2.15778292    0.36108894
| 19> O    7.16799241    1.93948711    0.30820898
| 20> C    5.33177995    3.43724530    0.60169609
| 21> H    5.95131472    4.30417018    0.75317336
| 22> C    3.98469575    3.51723545    0.63107733
| 23> H    3.46185556    4.44568245    0.80637554
| 24> N    3.18096500    2.42655347    0.44067130
| 25> H    2.15691317    2.49650116    0.46446156
| 26> C    3.68089749    1.17633068    0.20649907
| 27> O    2.96886504    0.18682579    0.03302889
| 28> *
| 29>
| 30> $new_job
| 31> ! ri-mp2 aug-cc-pvtz aug-cc-pvtz/c tightscf
| 32> %pal nprocs 16 end
| 33> %maxcore 3800
| 34> %base "TZ_S66by10_22_1.5_dimer"
| 35>
| 36> *xyz 0 1
| 37> C   -1.11362611    1.32702009    0.27516705
| 38> O   -0.46708264    2.34938778    0.46153746
| 39> O   -0.57808939    0.13692049    0.04961747
| 40> H    0.41332036    0.20325661    0.05548711
| 41> C   -2.61142469    1.28618957    0.27736131
| 42> H   -3.00664872    2.27688545    0.46578983
| 43> H   -2.96425623    0.91525868   -0.68200123
| 44> H   -2.95311421    0.59179821    1.04124041
| 45> N    5.04931812    1.10966730    0.17963583
| 46> H    5.44252323    0.19427707    0.00791640
| 47> C    5.97084602    2.15778292    0.36108894
| 48> O    7.16799241    1.93948711    0.30820898
| 49> C    5.33177995    3.43724530    0.60169609
| 50> H    5.95131472    4.30417018    0.75317336
| 51> C    3.98469575    3.51723545    0.63107733
| 52> H    3.46185556    4.44568245    0.80637554
| 53> N    3.18096500    2.42655347    0.44067130
| 54> H    2.15691317    2.49650116    0.46446156
| 55> C    3.68089749    1.17633068    0.20649907
| 56> O    2.96886504    0.18682579    0.03302889
| 57> *
| 58>
| 59> $new_job
| 60> ! ri-mp2 aug-cc-pvqz aug-cc-pvqz/c tightscf
| 61> %pal nprocs 16 end
| 62> %maxcore 3800
| 63> %base "QZ_S66by10_22_1.5_dimer"
| 64>
| 65> *xyz 0 1
| 66> C   -1.11362611    1.32702009    0.27516705
| 67> O   -0.46708264    2.34938778    0.46153746
| 68> O   -0.57808939    0.13692049    0.04961747
| 69> H    0.41332036    0.20325661    0.05548711
| 70> C   -2.61142469    1.28618957    0.27736131
| 71> H   -3.00664872    2.27688545    0.46578983
| 72> H   -2.96425623    0.91525868   -0.68200123
| 73> H   -2.95311421    0.59179821    1.04124041
| 74> N    5.04931812    1.10966730    0.17963583
| 75> H    5.44252323    0.19427707    0.00791640
| 76> C    5.97084602    2.15778292    0.36108894
| 77> O    7.16799241    1.93948711    0.30820898
| 78> C    5.33177995    3.43724530    0.60169609
| 79> H    5.95131472    4.30417018    0.75317336
| 80> C    3.98469575    3.51723545    0.63107733
| 81> H    3.46185556    4.44568245    0.80637554
| 82> N    3.18096500    2.42655347    0.44067130
| 83> H    2.15691317    2.49650116    0.46446156
| 84> C    3.68089749    1.17633068    0.20649907
| 85> O    2.96886504    0.18682579    0.03302889
| 86> *
| 87>
| 88>
| 89>
| 90>
| 91>                          ****END OF INPUT****
 Total Charge           Charge          ....    0
 Multiplicity           Mult            ....    1
 Number of Electrons    NEL             ....   90
MP2 TOTAL ENERGY:     -642.315288521 Eh
FINAL SINGLE POINT ENERGY      -642.315288521219
MP2 TOTAL ENERGY:     -642.861096514 Eh
FINAL SINGLE POINT ENERGY      -642.861096513613

CARTESIAN COORDINATES (ANGSTROEM)
---------------------------------
  C     -1.113626    1.327020    0.275167
  O     -0.467083    2.349388    0.461537
  O     -0.578089    0.136920    0.049617
  H      0.413320    0.203257    0.055487
  C     -2.611425    1.286190    0.277361
  H     -3.006649    2.276885    0.465790
  H     -2.964256    0.915259   -0.682001
  H     -2.953114    0.591798    1.041240
  N      5.049318    1.109667    0.179636
  H      5.442523    0.194277    0.007916
  C      5.970846    2.157783    0.361089
  O      7.167992    1.939487    0.308209
  C      5.331780    3.437245    0.601696
  H      5.951315    4.304170    0.753173
  C      3.984696    3.517235    0.631077
  H      3.461856    4.445682    0.806376
  N      3.180965    2.426553    0.440671
  H      2.156913    2.496501    0.464462
  C      3.680897    1.176331    0.206499
  O      2.968865    0.186826    0.033029

 Multiplicity           Mult            ....    1
 Number of Electrons    NEL             ....   90
 Basis Dimension        Dim             .... 1328

ORBITAL ENERGIES
----------------

  NO   OCC          E(Eh)            E(eV)
   0   2.0000     -20.619091      -561.0740
   1   2.0000     -20.553085      -559.2779
   2   2.0000     -20.545022      -559.0585
   3   2.0000     -20.539850      -558.9177
   4   2.0000     -15.642326      -425.6493
   5   2.0000     -15.626946      -425.2308
   6   2.0000     -11.418996      -310.7267
   7   2.0000     -11.396468      -310.1137
   8   2.0000     -11.380067      -309.6674
   9   2.0000     -11.338425      -308.5342
  10   2.0000     -11.254000      -306.2369
  11   2.0000     -11.246938      -306.0447
  12   2.0000      -1.471783       -40.0493
  13   2.0000      -1.434023       -39.0217
  14   2.0000      -1.397135       -38.0180
  15   2.0000      -1.362334       -37.0710
  16   2.0000      -1.312118       -35.7045
  17   2.0000      -1.246410       -33.9165
  18   2.0000      -1.087928       -29.6040
  19   2.0000      -1.032836       -28.1049
  20   2.0000      -0.935328       -25.4516
  21   2.0000      -0.900638       -24.5076
  22   2.0000      -0.834831       -22.7169
  23   2.0000      -0.805210       -21.9109
  24   2.0000      -0.766401       -20.8548
  25   2.0000      -0.715389       -19.4667
  26   2.0000      -0.711346       -19.3567
  27   2.0000      -0.687510       -18.7081
  28   2.0000      -0.676789       -18.4164
  29   2.0000      -0.670842       -18.2545
  30   2.0000      -0.659001       -17.9323
  31   2.0000      -0.652899       -17.7663
  32   2.0000      -0.614268       -16.7151
  33   2.0000      -0.601559       -16.3692
  34   2.0000      -0.585883       -15.9427
  35   2.0000      -0.575458       -15.6590
  36   2.0000      -0.571208       -15.5434
  37   2.0000      -0.566928       -15.4269
  38   2.0000      -0.524044       -14.2600
  39   2.0000      -0.487650       -13.2696
  40   2.0000      -0.486573       -13.2403
  41   2.0000      -0.463062       -12.6006
  42   2.0000      -0.450118       -12.2483
  43   2.0000      -0.438935       -11.9440
  44   2.0000      -0.369203       -10.0465
  45   0.0000       0.019116         0.5202
  46   0.0000       0.025704         0.6995
  47   0.0000       0.033944         0.9237
  48   0.0000       0.038032         1.0349
  49   0.0000       0.038881         1.0580

MULLIKEN ATOMIC CHARGES
-----------------------
   0 C :    0.923142
   1 O :   -0.828054
   2 O :   -0.665319
   3 H :    0.395982
   4 C :   -0.756280
   5 H :    0.322123
   6 H :    0.293678
   7 H :    0.293132
   8 N :   -0.681779
   9 H :    0.142505
  10 C :    1.125367
  11 O :   -0.797356
  12 C :   -0.406677
  13 H :    0.308249
  14 C :   -0.263917
  15 H :    0.381015
  16 N :   -0.579541
  17 H :    0.204860
  18 C :    1.420866
  19 O :   -0.831995
Sum of atomic charges:    0.0000000

LOEWDIN ATOMIC CHARGES
----------------------
   0 C :   -1.052110
   1 O :    0.680400
   2 O :    1.238725
   3 H :   -0.799556
   4 C :    0.862471
   5 H :   -0.325656
   6 H :   -0.303932
   7 H :   -0.303955
   8 N :    0.777069
   9 H :   -0.517858
  10 C :   -0.860320
  11 O :    0.682722
  12 C :    0.336557
  13 H :   -0.353907
  14 C :    0.238681
  15 H :   -0.296502
  16 N :    0.803632
  17 H :   -0.505051
  18 C :   -0.995282
  19 O :    0.693873

  Mayer bond orders larger than 0.100000
B(  0-C ,  1-O ) :   1.5070 B(  0-C ,  2-O ) :   0.9704 B(  0-C ,  4-C ) :   0.7920
B(  2-O ,  3-H ) :   0.8459 B(  4-C ,  5-H ) :   0.9542 B(  4-C ,  6-H ) :   0.9358
B(  4-C ,  7-H ) :   0.9365 B(  8-N ,  9-H ) :   1.1558 B(  8-N , 10-C ) :   1.0006
B(  8-N , 11-O ) :   0.1686 B(  8-N , 18-C ) :   0.9911 B(  8-N , 19-O ) :   0.1200
B( 10-C , 11-O ) :   1.1030 B( 10-C , 12-C ) :   1.1702 B( 10-C , 14-C ) :  -0.1474
B( 11-O , 12-C ) :   0.2564 B( 12-C , 13-H ) :   0.9900 B( 12-C , 14-C ) :   1.4353
B( 13-H , 14-C ) :  -0.1265 B( 14-C , 15-H ) :   0.9513 B( 14-C , 16-N ) :   0.9140
B( 16-N , 17-H ) :   1.0834 B( 16-N , 18-C ) :   1.1266 B( 16-N , 19-O ) :   0.1799
B( 18-C , 19-O ) :   1.2596

MP2 TOTAL ENERGY:     -643.040881199 Eh
FINAL SINGLE POINT ENERGY      -643.040881198613

DIPOLE MOMENT
-------------
                                X             Y             Z
Electronic contribution:     10.13365      -0.80125      -0.22842
Nuclear contribution   :    -11.75305       1.63015       0.39298
                        -----------------------------------------
Total Dipole Moment    :     -1.61940       0.82890       0.16456
                        -----------------------------------------
Magnitude (a.u.)       :      1.82664
Magnitude (Debye)      :      4.64294

Rotational constants in cm-1:     0.092479     0.010273     0.009262
Rotational constants in MHz :  2772.456649   307.981167   277.661702

                             ****ORCA TERMINATED NORMALLY****
TOTAL RUN TIME: 0 days 5 hours 5 minutes 53 seconds 26 msec
