                         Program Version 5.0.4 -  RELEASE  -
|  1> ! ri-mp2 aug-cc-pvdz aug-cc-pvdz/c tightscf
|  2> %pal nprocs 16 end
|  3> %maxcore 3800
|  4> %base "DZ_S66by10_65_2.0_dimer"
|  5>
|  6> *xyz 0 1
|  7> N   -0.08303249    0.00071459    1.05519999
|  8> C   -0.20285376   -1.14172585    0.36493369
|  9> H   -0.09848563   -2.05509795    0.93743262
| 10> C   -0.44678144   -1.19176367   -1.00451226
| 11> H   -0.53364921   -2.14585511   -1.50417155
| 12> C   -0.57468209    0.00343953   -1.70430948
| 13> H   -0.76368391    0.00448010   -2.76872670
| 14> C   -0.45345675    1.19724254   -1.00091647
| 15> H   -0.54563080    2.15227264   -1.49779508
| 16> C   -0.20931111    1.14450759    0.36836730
| 17> H   -0.11016707    2.05669726    0.94357396
| 18> C    0.78095282   -0.01322177    7.78996822
| 19> H    0.89636287   -0.01264758    8.84498204
| 20> C    0.64888306   -0.01377150    6.58372092
| 21> H    0.53073494   -0.01350908    5.51921544
| 22> *
| 23>
| 24> $new_job
| 25> ! ri-mp2 aug-cc-pvtz aug-cc-pvtz/c tightscf
| 26> %pal nprocs 16 end
| 27> %maxcore 3800
| 28> %base "TZ_S66by10_65_2.0_dimer"
| 29>
| 30> *xyz 0 1
| 31> N   -0.08303249    0.00071459    1.05519999
| 32> C   -0.20285376   -1.14172585    0.36493369
| 33> H   -0.09848563   -2.05509795    0.93743262
| 34> C   -0.44678144   -1.19176367   -1.00451226
| 35> H   -0.53364921   -2.14585511   -1.50417155
| 36> C   -0.57468209    0.00343953   -1.70430948
| 37> H   -0.76368391    0.00448010   -2.76872670
| 38> C   -0.45345675    1.19724254   -1.00091647
| 39> H   -0.54563080    2.15227264   -1.49779508
| 40> C   -0.20931111    1.14450759    0.36836730
| 41> H   -0.11016707    2.05669726    0.94357396
| 42> C    0.78095282   -0.01322177    7.78996822
| 43> H    0.89636287   -0.01264758    8.84498204
| 44> C    0.64888306   -0.01377150    6.58372092
| 45> H    0.53073494   -0.01350908    5.51921544
| 46> *
| 47>
| 48> $new_job
| 49> ! ri-mp2 aug-cc-pvqz aug-cc-pvqz/c tightscf
| 50> %pal nprocs 16 end
| 51> %maxcore 3800
| 52> %base "QZ_S66by10_65_2.0_dimer"
| 53>
| 54> *xyz 0 1
| 55> N   -0.08303249    0.00071459    1.05519999
| 56> C   -0.20285376   -1.14172585    0.36493369
| 57> H   -0.09848563   -2.05509795    0.93743262
| 58> C   -0.44678144   -1.19176367   -1.00451226
| 59> H   -0.53364921   -2.14585511   -1.50417155
| 60> C   -0.57468209    0.00343953   -1.70430948
| 61> H   -0.76368391    0.00448010   -2.76872670
| 62> C   -0.45345675    1.19724254   -1.00091647
| 63> H   -0.54563080    2.15227264   -1.49779508
| 64> C   -0.20931111    1.14450759    0.36836730
| 65> H   -0.11016707    2.05669726    0.94357396
| 66> C    0.78095282   -0.01322177    7.78996822
| 67> H    0.89636287   -0.01264758    8.84498204
| 68> C    0.64888306   -0.01377150    6.58372092
| 69> H    0.53073494   -0.01350908    5.51921544
| 70> *
| 71>
| 72>
| 73>
| 74>
| 75>                          ****END OF INPUT****
 Total Charge           Charge          ....    0
 Multiplicity           Mult            ....    1
 Number of Electrons    NEL             ....   56
MP2 TOTAL ENERGY:     -324.656350596 Eh
FINAL SINGLE POINT ENERGY      -324.656350596123
MP2 TOTAL ENERGY:     -324.942511190 Eh
FINAL SINGLE POINT ENERGY      -324.942511190486

CARTESIAN COORDINATES (ANGSTROEM)
---------------------------------
  N     -0.083032    0.000715    1.055200
  C     -0.202854   -1.141726    0.364934
  H     -0.098486   -2.055098    0.937433
  C     -0.446781   -1.191764   -1.004512
  H     -0.533649   -2.145855   -1.504172
  C     -0.574682    0.003440   -1.704309
  H     -0.763684    0.004480   -2.768727
  C     -0.453457    1.197243   -1.000916
  H     -0.545631    2.152273   -1.497795
  C     -0.209311    1.144508    0.368367
  H     -0.110167    2.056697    0.943574
  C      0.780953   -0.013222    7.789968
  H      0.896363   -0.012648    8.844982
  C      0.648883   -0.013772    6.583721
  H      0.530735   -0.013509    5.519215

 Multiplicity           Mult            ....    1
 Number of Electrons    NEL             ....   56
 Basis Dimension        Dim             ....  962

ORBITAL ENERGIES
----------------

  NO   OCC          E(Eh)            E(eV)
   0   2.0000     -15.567768      -423.6205
   1   2.0000     -11.276740      -306.8557
   2   2.0000     -11.276719      -306.8551
   3   2.0000     -11.261573      -306.4430
   4   2.0000     -11.243440      -305.9496
   5   2.0000     -11.243387      -305.9481
   6   2.0000     -11.239884      -305.8528
   7   2.0000     -11.236073      -305.7491
   8   2.0000      -1.258878       -34.2558
   9   2.0000      -1.091836       -29.7104
  10   2.0000      -1.036330       -28.2000
  11   2.0000      -1.020720       -27.7752
  12   2.0000      -0.861771       -23.4500
  13   2.0000      -0.858494       -23.3608
  14   2.0000      -0.760985       -20.7074
  15   2.0000      -0.724729       -19.7209
  16   2.0000      -0.672994       -18.3131
  17   2.0000      -0.663264       -18.0483
  18   2.0000      -0.656836       -17.8734
  19   2.0000      -0.601416       -16.3654
  20   2.0000      -0.579757       -15.7760
  21   2.0000      -0.544064       -14.8047
  22   2.0000      -0.522966       -14.2306
  23   2.0000      -0.422473       -11.4961
  24   2.0000      -0.402296       -10.9470
  25   2.0000      -0.402271       -10.9464
  26   2.0000      -0.386555       -10.5187
  27   2.0000      -0.350615        -9.5407
  28   0.0000       0.022050         0.6000
  29   0.0000       0.028231         0.7682
  30   0.0000       0.028583         0.7778
  31   0.0000       0.032912         0.8956
  32   0.0000       0.042718         1.1624

MULLIKEN ATOMIC CHARGES
-----------------------
   0 N :   -0.500437
   1 C :   -0.310672
   2 H :    0.433528
   3 C :   -0.265675
   4 H :    0.359527
   5 C :   -0.257214
   6 H :    0.325875
   7 C :   -0.265583
   8 H :    0.359427
   9 C :   -0.310974
  10 H :    0.433514
  11 C :   -0.690131
  12 H :    0.609835
  13 C :   -0.633000
  14 H :    0.711979
Sum of atomic charges:    0.0000000

LOEWDIN ATOMIC CHARGES
----------------------
   0 N :    0.583532
   1 C :    0.066501
   2 H :   -0.356889
   3 C :    0.325668
   4 H :   -0.331779
   5 C :    0.325701
   6 H :   -0.315653
   7 C :    0.325672
   8 H :   -0.331792
   9 C :    0.066517
  10 H :   -0.356933
  11 C :    0.475829
  12 H :   -0.484962
  13 C :    0.477186
  14 H :   -0.468598

  Mayer bond orders larger than 0.100000
B(  0-N ,  1-C ) :   1.2852 B(  0-N ,  9-C ) :   1.2850 B(  1-C ,  2-H ) :   0.8854
B(  1-C ,  3-C ) :   1.2320 B(  1-C ,  7-C ) :   0.1041 B(  3-C ,  4-H ) :   0.9474
B(  3-C ,  5-C ) :   1.1861 B(  3-C ,  9-C ) :   0.1044 B(  5-C ,  6-H ) :   0.9915
B(  5-C ,  7-C ) :   1.1856 B(  7-C ,  8-H ) :   0.9476 B(  7-C ,  9-C ) :   1.2321
B(  9-C , 10-H ) :   0.8855 B( 11-C , 12-H ) :   0.6399 B( 11-C , 13-C ) :   2.6176
B( 13-C , 14-H ) :   0.5000

MP2 TOTAL ENERGY:     -325.032737731 Eh
FINAL SINGLE POINT ENERGY      -325.032737731077

DIPOLE MOMENT
-------------
                                X             Y             Z
Electronic contribution:     -0.04083       0.00255      -0.66332
Nuclear contribution   :     -0.13098      -0.00109      -0.30898
                        -----------------------------------------
Total Dipole Moment    :     -0.17181       0.00146      -0.97230
                        -----------------------------------------
Magnitude (a.u.)       :      0.98736
Magnitude (Debye)      :      2.50968

Rotational constants in cm-1:     0.201573     0.013764     0.012887
Rotational constants in MHz :  6043.010790   412.629681   386.333377

                             ****ORCA TERMINATED NORMALLY****
TOTAL RUN TIME: 0 days 0 hours 14 minutes 57 seconds 818 msec
