                         Program Version 5.0.4 -  RELEASE  -
|  1> ! ri-mp2 aug-cc-pvdz aug-cc-pvdz/c tightscf
|  2> %pal nprocs 16 end
|  3> %maxcore 3800
|  4> %base "DZ_S66by10_54_0.8_dimer"
|  5>
|  6> *xyz 0 1
|  7> C    0.78014717   -0.60991473   -1.20755689
|  8> H    0.89619160   -1.13763959   -2.14414463
|  9> C    0.47794275    0.75099363   -1.20789541
| 10> H    0.35696423    1.27816780   -2.14405407
| 11> C    0.32728928    1.43186787   -0.00000000
| 12> H    0.09146503    2.48713922    0.00000000
| 13> C    0.47794275    0.75099363    1.20789541
| 14> H    0.35696423    1.27816780    2.14405407
| 15> C    0.78014717   -0.60991473    1.20755689
| 16> H    0.89619160   -1.13763959    2.14414463
| 17> C    0.93164831   -1.28998134    0.00000000
| 18> H    1.16848573   -2.34521369   -0.00000000
| 19> O   -2.21292446   -0.20967016    0.00000000
| 20> H   -2.04812047   -1.15439169    0.00000000
| 21> H   -1.32562352    0.16192016    0.00000000
| 22> *
| 23>
| 24> $new_job
| 25> ! ri-mp2 aug-cc-pvtz aug-cc-pvtz/c tightscf
| 26> %pal nprocs 16 end
| 27> %maxcore 3800
| 28> %base "TZ_S66by10_54_0.8_dimer"
| 29>
| 30> *xyz 0 1
| 31> C    0.78014717   -0.60991473   -1.20755689
| 32> H    0.89619160   -1.13763959   -2.14414463
| 33> C    0.47794275    0.75099363   -1.20789541
| 34> H    0.35696423    1.27816780   -2.14405407
| 35> C    0.32728928    1.43186787   -0.00000000
| 36> H    0.09146503    2.48713922    0.00000000
| 37> C    0.47794275    0.75099363    1.20789541
| 38> H    0.35696423    1.27816780    2.14405407
| 39> C    0.78014717   -0.60991473    1.20755689
| 40> H    0.89619160   -1.13763959    2.14414463
| 41> C    0.93164831   -1.28998134    0.00000000
| 42> H    1.16848573   -2.34521369   -0.00000000
| 43> O   -2.21292446   -0.20967016    0.00000000
| 44> H   -2.04812047   -1.15439169    0.00000000
| 45> H   -1.32562352    0.16192016    0.00000000
| 46> *
| 47>
| 48> $new_job
| 49> ! ri-mp2 aug-cc-pvqz aug-cc-pvqz/c tightscf
| 50> %pal nprocs 16 end
| 51> %maxcore 3800
| 52> %base "QZ_S66by10_54_0.8_dimer"
| 53>
| 54> *xyz 0 1
| 55> C    0.78014717   -0.60991473   -1.20755689
| 56> H    0.89619160   -1.13763959   -2.14414463
| 57> C    0.47794275    0.75099363   -1.20789541
| 58> H    0.35696423    1.27816780   -2.14405407
| 59> C    0.32728928    1.43186787   -0.00000000
| 60> H    0.09146503    2.48713922    0.00000000
| 61> C    0.47794275    0.75099363    1.20789541
| 62> H    0.35696423    1.27816780    2.14405407
| 63> C    0.78014717   -0.60991473    1.20755689
| 64> H    0.89619160   -1.13763959    2.14414463
| 65> C    0.93164831   -1.28998134    0.00000000
| 66> H    1.16848573   -2.34521369   -0.00000000
| 67> O   -2.21292446   -0.20967016    0.00000000
| 68> H   -2.04812047   -1.15439169    0.00000000
| 69> H   -1.32562352    0.16192016    0.00000000
| 70> *
| 71>
| 72>
| 73>
| 74>
| 75>                          ****END OF INPUT****
 Total Charge           Charge          ....    0
 Multiplicity           Mult            ....    1
 Number of Electrons    NEL             ....   52
MP2 TOTAL ENERGY:     -307.802463300 Eh
FINAL SINGLE POINT ENERGY      -307.802463299579
MP2 TOTAL ENERGY:     -308.076001421 Eh
FINAL SINGLE POINT ENERGY      -308.076001420867

CARTESIAN COORDINATES (ANGSTROEM)
---------------------------------
  C      0.780147   -0.609915   -1.207557
  H      0.896192   -1.137640   -2.144145
  C      0.477943    0.750994   -1.207895
  H      0.356964    1.278168   -2.144054
  C      0.327289    1.431868   -0.000000
  H      0.091465    2.487139    0.000000
  C      0.477943    0.750994    1.207895
  H      0.356964    1.278168    2.144054
  C      0.780147   -0.609915    1.207557
  H      0.896192   -1.137640    2.144145
  C      0.931648   -1.289981    0.000000
  H      1.168486   -2.345214   -0.000000
  O     -2.212924   -0.209670    0.000000
  H     -2.048120   -1.154392    0.000000
  H     -1.325624    0.161920    0.000000

 Multiplicity           Mult            ....    1
 Number of Electrons    NEL             ....   52
 Basis Dimension        Dim             ....  928

ORBITAL ENERGIES
----------------

  NO   OCC          E(Eh)            E(eV)
   0   2.0000     -20.527584      -558.5840
   1   2.0000     -11.248794      -306.0952
   2   2.0000     -11.247960      -306.0726
   3   2.0000     -11.247878      -306.0703
   4   2.0000     -11.246613      -306.0359
   5   2.0000     -11.246609      -306.0358
   6   2.0000     -11.245818      -306.0143
   7   2.0000      -1.321246       -35.9529
   8   2.0000      -1.166489       -31.7418
   9   2.0000      -1.030125       -28.0311
  10   2.0000      -1.028987       -28.0002
  11   2.0000      -0.837573       -22.7915
  12   2.0000      -0.837421       -22.7874
  13   2.0000      -0.724743       -19.7213
  14   2.0000      -0.686849       -18.6901
  15   2.0000      -0.656423       -17.8622
  16   2.0000      -0.632666       -17.2157
  17   2.0000      -0.601988       -16.3809
  18   2.0000      -0.601649       -16.3717
  19   2.0000      -0.569865       -15.5068
  20   2.0000      -0.508000       -13.8234
  21   2.0000      -0.507836       -13.8189
  22   2.0000      -0.502027       -13.6609
  23   2.0000      -0.480799       -13.0832
  24   2.0000      -0.354325        -9.6417
  25   2.0000      -0.350063        -9.5257
  26   0.0000       0.022915         0.6235
  27   0.0000       0.028846         0.7849
  28   0.0000       0.028904         0.7865
  29   0.0000       0.040912         1.1133
  30   0.0000       0.041051         1.1171

MULLIKEN ATOMIC CHARGES
-----------------------
   0 C :   -0.337177
   1 H :    0.310735
   2 C :   -0.374480
   3 H :    0.293341
   4 C :   -0.179898
   5 H :    0.346029
   6 C :   -0.374480
   7 H :    0.293341
   8 C :   -0.337177
   9 H :    0.310735
  10 C :   -0.346904
  11 H :    0.261039
  12 O :   -0.740089
  13 H :    0.320666
  14 H :    0.554321
Sum of atomic charges:   -0.0000000

LOEWDIN ATOMIC CHARGES
----------------------
   0 C :    0.341164
   1 H :   -0.313918
   2 C :    0.338315
   3 H :   -0.305239
   4 C :    0.330862
   5 H :   -0.300465
   6 C :    0.338315
   7 H :   -0.305239
   8 C :    0.341164
   9 H :   -0.313918
  10 C :    0.337573
  11 H :   -0.317055
  12 O :    1.668652
  13 H :   -0.771440
  14 H :   -1.068773

  Mayer bond orders larger than 0.100000
B(  0-C ,  1-H ) :   1.0503 B(  0-C ,  2-C ) :   1.2310 B(  0-C ,  6-C ) :   0.1351
B(  0-C , 10-C ) :   1.1978 B(  2-C ,  3-H ) :   1.0806 B(  2-C ,  4-C ) :   1.1600
B(  2-C ,  8-C ) :   0.1351 B(  4-C ,  5-H ) :   1.0234 B(  4-C ,  6-C ) :   1.1600
B(  4-C , 10-C ) :   0.1157 B(  6-C ,  7-H ) :   1.0806 B(  6-C ,  8-C ) :   1.2310
B(  8-C ,  9-H ) :   1.0503 B(  8-C , 10-C ) :   1.1978 B( 10-C , 11-H ) :   1.1114
B( 12-O , 13-H ) :   0.9418 B( 12-O , 14-H ) :   0.7455

MP2 TOTAL ENERGY:     -308.163273268 Eh
FINAL SINGLE POINT ENERGY      -308.163273267873

DIPOLE MOMENT
-------------
                                X             Y             Z
Electronic contribution:      1.37697       0.32786       0.00000
Nuclear contribution   :     -0.47291      -0.62849      -0.00000
                        -----------------------------------------
Total Dipole Moment    :      0.90407      -0.30063       0.00000
                        -----------------------------------------
Magnitude (a.u.)       :      0.95274
Magnitude (Debye)      :      2.42167

Rotational constants in cm-1:     0.096655     0.082170     0.081058
Rotational constants in MHz :  2897.654596  2463.408635  2430.054690

                             ****ORCA TERMINATED NORMALLY****
TOTAL RUN TIME: 0 days 0 hours 18 minutes 28 seconds 490 msec
