                         Program Version 5.0.4 -  RELEASE  -
|  1> ! ri-mp2 aug-cc-pvdz aug-cc-pvdz/c tightscf
|  2> %pal nprocs 16 end
|  3> %maxcore 3800
|  4> %base "DZ_S66by10_61_1.05_dimer"
|  5> %scf STABPerform true end
|  6>
|  7> *xyz 0 1
|  8> C   -2.27534498   -0.13507494    0.83133387
|  9> H   -2.49071776   -0.72792669   -0.05756635
| 10> H   -2.22632382   -0.81844641    1.67882341
| 11> H   -3.11202566    0.54494342    0.98740008
| 12> C   -0.96169812    0.61927789    0.66939920
| 13> H   -0.78869920    1.25043181    1.54470266
| 14> H   -1.02617687    1.29544524   -0.18645838
| 15> C    0.22650217   -0.31471031    0.47998579
| 16> H    0.30944439   -0.97513911    1.34803794
| 17> H    0.03915056   -0.96599875   -0.37878983
| 18> C    1.54300168    0.42117452    0.26899951
| 19> H    1.71163863    1.10777177    1.10244654
| 20> H    1.46609466    1.04374331   -0.62529358
| 21> C    2.72757632   -0.52686091    0.13745931
| 22> H    2.58874155   -1.20321391   -0.70575734
| 23> H    3.66150100    0.01169308   -0.01596863
| 24> H    2.83519407   -1.13740994    1.03407512
| 25> C   -0.52183362   -0.29779130    4.31723893
| 26> O   -0.94444757   -1.41297154    4.12009235
| 27> O   -1.33552598    0.76117422    4.54982841
| 28> H   -2.23628809    0.40679368    4.50929267
| 29> C    0.91843344    0.11187478    4.33444431
| 30> H    1.54425650   -0.75830616    4.17628916
| 31> H    1.09447085    0.84614842    3.55131973
| 32> H    1.15574468    0.58117574    5.28624670
| 33> *
| 34>
| 35> $new_job
| 36> ! ri-mp2 aug-cc-pvtz aug-cc-pvtz/c tightscf
| 37> %pal nprocs 16 end
| 38> %maxcore 3800
| 39> %base "TZ_S66by10_61_1.05_dimer"
| 40>
| 41> *xyz 0 1
| 42> C   -2.27534498   -0.13507494    0.83133387
| 43> H   -2.49071776   -0.72792669   -0.05756635
| 44> H   -2.22632382   -0.81844641    1.67882341
| 45> H   -3.11202566    0.54494342    0.98740008
| 46> C   -0.96169812    0.61927789    0.66939920
| 47> H   -0.78869920    1.25043181    1.54470266
| 48> H   -1.02617687    1.29544524   -0.18645838
| 49> C    0.22650217   -0.31471031    0.47998579
| 50> H    0.30944439   -0.97513911    1.34803794
| 51> H    0.03915056   -0.96599875   -0.37878983
| 52> C    1.54300168    0.42117452    0.26899951
| 53> H    1.71163863    1.10777177    1.10244654
| 54> H    1.46609466    1.04374331   -0.62529358
| 55> C    2.72757632   -0.52686091    0.13745931
| 56> H    2.58874155   -1.20321391   -0.70575734
| 57> H    3.66150100    0.01169308   -0.01596863
| 58> H    2.83519407   -1.13740994    1.03407512
| 59> C   -0.52183362   -0.29779130    4.31723893
| 60> O   -0.94444757   -1.41297154    4.12009235
| 61> O   -1.33552598    0.76117422    4.54982841
| 62> H   -2.23628809    0.40679368    4.50929267
| 63> C    0.91843344    0.11187478    4.33444431
| 64> H    1.54425650   -0.75830616    4.17628916
| 65> H    1.09447085    0.84614842    3.55131973
| 66> H    1.15574468    0.58117574    5.28624670
| 67> *
| 68>
| 69> $new_job
| 70> ! ri-mp2 aug-cc-pvqz aug-cc-pvqz/c tightscf
| 71> %pal nprocs 16 end
| 72> %maxcore 3800
| 73> %base "QZ_S66by10_61_1.05_dimer"
| 74>
| 75> *xyz 0 1
| 76> C   -2.27534498   -0.13507494    0.83133387
| 77> H   -2.49071776   -0.72792669   -0.05756635
| 78> H   -2.22632382   -0.81844641    1.67882341
| 79> H   -3.11202566    0.54494342    0.98740008
| 80> C   -0.96169812    0.61927789    0.66939920
| 81> H   -0.78869920    1.25043181    1.54470266
| 82> H   -1.02617687    1.29544524   -0.18645838
| 83> C    0.22650217   -0.31471031    0.47998579
| 84> H    0.30944439   -0.97513911    1.34803794
| 85> H    0.03915056   -0.96599875   -0.37878983
| 86> C    1.54300168    0.42117452    0.26899951
| 87> H    1.71163863    1.10777177    1.10244654
| 88> H    1.46609466    1.04374331   -0.62529358
| 89> C    2.72757632   -0.52686091    0.13745931
| 90> H    2.58874155   -1.20321391   -0.70575734
| 91> H    3.66150100    0.01169308   -0.01596863
| 92> H    2.83519407   -1.13740994    1.03407512
| 93> C   -0.52183362   -0.29779130    4.31723893
| 94> O   -0.94444757   -1.41297154    4.12009235
| 95> O   -1.33552598    0.76117422    4.54982841
| 96> H   -2.23628809    0.40679368    4.50929267
| 97> C    0.91843344    0.11187478    4.33444431
| 98> H    1.54425650   -0.75830616    4.17628916
| 99> H    1.09447085    0.84614842    3.55131973
|100> H    1.15574468    0.58117574    5.28624670
|101> *
|102>
|103>
|104>
|105>
|106>                          ****END OF INPUT****
 Total Charge           Charge          ....    0
 Multiplicity           Mult            ....    1
 Number of Electrons    NEL             ....   74
MP2 TOTAL ENERGY:     -425.643844135 Eh
FINAL SINGLE POINT ENERGY      -425.643844134979
MP2 TOTAL ENERGY:     -426.038456370 Eh
FINAL SINGLE POINT ENERGY      -426.038456369651

CARTESIAN COORDINATES (ANGSTROEM)
---------------------------------
  C     -2.275345   -0.135075    0.831334
  H     -2.490718   -0.727927   -0.057566
  H     -2.226324   -0.818446    1.678823
  H     -3.112026    0.544943    0.987400
  C     -0.961698    0.619278    0.669399
  H     -0.788699    1.250432    1.544703
  H     -1.026177    1.295445   -0.186458
  C      0.226502   -0.314710    0.479986
  H      0.309444   -0.975139    1.348038
  H      0.039151   -0.965999   -0.378790
  C      1.543002    0.421175    0.269000
  H      1.711639    1.107772    1.102447
  H      1.466095    1.043743   -0.625294
  C      2.727576   -0.526861    0.137459
  H      2.588742   -1.203214   -0.705757
  H      3.661501    0.011693   -0.015969
  H      2.835194   -1.137410    1.034075
  C     -0.521834   -0.297791    4.317239
  O     -0.944448   -1.412972    4.120092
  O     -1.335526    0.761174    4.549828
  H     -2.236288    0.406794    4.509293
  C      0.918433    0.111875    4.334444
  H      1.544256   -0.758306    4.176289
  H      1.094471    0.846148    3.551320
  H      1.155745    0.581176    5.286247

 Multiplicity           Mult            ....    1
 Number of Electrons    NEL             ....   74
 Basis Dimension        Dim             .... 1456

ORBITAL ENERGIES
----------------

  NO   OCC          E(Eh)            E(eV)
   0   2.0000     -20.613983      -560.9350
   1   2.0000     -20.551214      -559.2270
   2   2.0000     -11.391041      -309.9660
   3   2.0000     -11.245570      -306.0075
   4   2.0000     -11.214212      -305.1542
   5   2.0000     -11.211790      -305.0883
   6   2.0000     -11.208735      -305.0052
   7   2.0000     -11.208179      -304.9901
   8   2.0000     -11.203087      -304.8515
   9   2.0000      -1.467539       -39.9338
  10   2.0000      -1.363603       -37.1055
  11   2.0000      -1.081848       -29.4386
  12   2.0000      -1.031831       -28.0775
  13   2.0000      -1.015838       -27.6424
  14   2.0000      -0.918883       -25.0041
  15   2.0000      -0.824335       -22.4313
  16   2.0000      -0.820419       -22.3247
  17   2.0000      -0.785991       -21.3879
  18   2.0000      -0.709730       -19.3127
  19   2.0000      -0.683609       -18.6019
  20   2.0000      -0.661156       -17.9910
  21   2.0000      -0.641764       -17.4633
  22   2.0000      -0.599366       -16.3096
  23   2.0000      -0.594427       -16.1752
  24   2.0000      -0.588052       -16.0017
  25   2.0000      -0.576794       -15.6954
  26   2.0000      -0.564494       -15.3607
  27   2.0000      -0.554248       -15.0819
  28   2.0000      -0.547884       -14.9087
  29   2.0000      -0.525353       -14.2956
  30   2.0000      -0.495655       -13.4875
  31   2.0000      -0.489155       -13.3106
  32   2.0000      -0.476585       -12.9685
  33   2.0000      -0.462623       -12.5886
  34   2.0000      -0.458916       -12.4877
  35   2.0000      -0.457973       -12.4621
  36   2.0000      -0.447289       -12.1713
  37   0.0000       0.023764         0.6467
  38   0.0000       0.028471         0.7747
  39   0.0000       0.030137         0.8201
  40   0.0000       0.034484         0.9384
  41   0.0000       0.041259         1.1227

MULLIKEN ATOMIC CHARGES
-----------------------
   0 C :   -1.034238
   1 H :    0.272982
   2 H :    0.277199
   3 H :    0.240467
   4 C :   -0.467416
   5 H :    0.221509
   6 H :    0.316333
   7 C :   -0.272985
   8 H :    0.288557
   9 H :    0.329786
  10 C :   -0.597639
  11 H :    0.295956
  12 H :    0.282941
  13 C :   -0.920967
  14 H :    0.222446
  15 H :    0.269975
  16 H :    0.248052
  17 C :    1.354485
  18 O :   -0.872672
  19 O :   -0.800215
  20 H :    0.322353
  21 C :   -0.960131
  22 H :    0.302125
  23 H :    0.311754
  24 H :    0.369342
Sum of atomic charges:    0.0000000

LOEWDIN ATOMIC CHARGES
----------------------
   0 C :    0.924695
   1 H :   -0.282199
   2 H :   -0.310330
   3 H :   -0.280258
   4 C :    0.497761
   5 H :   -0.287449
   6 H :   -0.268434
   7 C :    0.486445
   8 H :   -0.288243
   9 H :   -0.264362
  10 C :    0.501105
  11 H :   -0.285231
  12 H :   -0.269104
  13 C :    0.929514
  14 H :   -0.284071
  15 H :   -0.282158
  16 H :   -0.286765
  17 C :   -1.041087
  18 O :    0.712351
  19 O :    1.257830
  20 H :   -0.823636
  21 C :    0.870075
  22 H :   -0.314363
  23 H :   -0.316406
  24 H :   -0.295679

  Mayer bond orders larger than 0.100000
B(  0-C ,  1-H ) :   0.9602 B(  0-C ,  2-H ) :   0.9049 B(  0-C ,  3-H ) :   1.0495
B(  0-C ,  4-C ) :   0.9585 B(  3-H ,  4-C ) :  -0.1015 B(  4-C ,  5-H ) :   0.8892
B(  4-C ,  6-H ) :   0.8479 B(  4-C ,  7-C ) :   0.8181 B(  7-C ,  8-H ) :   0.8390
B(  7-C ,  9-H ) :   0.8762 B(  7-C , 10-C ) :   0.8385 B(  7-C , 13-C ) :  -0.1111
B( 10-C , 11-H ) :   0.8565 B( 10-C , 12-H ) :   0.8713 B( 10-C , 13-C ) :   1.0236
B( 13-C , 14-H ) :   0.9837 B( 13-C , 15-H ) :   1.0193 B( 13-C , 16-H ) :   0.9229
B( 17-C , 18-O ) :   1.2514 B( 17-C , 19-O ) :   0.6546 B( 17-C , 21-C ) :   0.9772
B( 19-O , 20-H ) :   0.8939 B( 21-C , 22-H ) :   0.9547 B( 21-C , 23-H ) :   0.8541
B( 21-C , 24-H ) :   0.8946

MP2 TOTAL ENERGY:     -426.161283144 Eh
FINAL SINGLE POINT ENERGY      -426.161283144409

DIPOLE MOMENT
-------------
                                X             Y             Z
Electronic contribution:     -5.29383      -1.08828      11.69848
Nuclear contribution   :      5.57964       1.75675     -11.59129
                        -----------------------------------------
Total Dipole Moment    :      0.28581       0.66847       0.10719
                        -----------------------------------------
Magnitude (a.u.)       :      0.73487
Magnitude (Debye)      :      1.86788

Rotational constants in cm-1:     0.053821     0.026562     0.020608
Rotational constants in MHz :  1613.518863   796.294053   617.806559

                             ****ORCA TERMINATED NORMALLY****
TOTAL RUN TIME: 0 days 8 hours 57 minutes 20 seconds 425 msec
