                         Program Version 5.0.4 -  RELEASE  -
|  1> ! ri-mp2 aug-cc-pvdz aug-cc-pvdz/c tightscf
|  2> %pal nprocs 16 end
|  3> %maxcore 3800
|  4> %base "DZ_S66by10_47_0.8_dimer"
|  5>
|  6> *xyz 0 1
|  7> C    0.72918867    1.11310122    0.32672825
|  8> H    1.30321590    2.01422234    0.15916027
|  9> C    1.37508737   -0.11936635    0.41277695
| 10> H    2.45051474   -0.17462400    0.31330720
| 11> C    0.63503981   -1.28055339    0.62938541
| 12> H    1.13633448   -2.23601747    0.70021716
| 13> C   -0.75098563   -1.20965430    0.75789034
| 14> H   -1.32452590   -2.11141283    0.92419891
| 15> C   -1.39703443    0.02267081    0.67308963
| 16> H   -2.47242537    0.07848826    0.77399799
| 17> C   -0.65689731    1.18429622    0.45833859
| 18> H   -1.15782845    2.14058713    0.39509608
| 19> C    0.07789023    0.03535371    3.39922407
| 20> H    0.20001663    0.26083717    2.34879763
| 21> C   -1.01319134   -0.71954490    3.82656033
| 22> H   -1.73369587   -1.07605915    3.10286591
| 23> C   -1.17389132   -1.01367022    5.17951040
| 24> H   -2.02099891   -1.59963878    5.50975794
| 25> C   -0.24200876   -0.55261684    6.10800448
| 26> H   -0.36590226   -0.78058300    7.15801198
| 27> C    0.84957634    0.20248521    5.68276419
| 28> H    1.57269542    0.56031839    6.40314685
| 29> C    1.00838023    0.49597023    4.32927288
| 30> H    1.85563815    1.08204503    3.99922555
| 31> *
| 32>
| 33> $new_job
| 34> ! ri-mp2 aug-cc-pvtz aug-cc-pvtz/c tightscf
| 35> %pal nprocs 16 end
| 36> %maxcore 3800
| 37> %base "TZ_S66by10_47_0.8_dimer"
| 38>
| 39> *xyz 0 1
| 40> C    0.72918867    1.11310122    0.32672825
| 41> H    1.30321590    2.01422234    0.15916027
| 42> C    1.37508737   -0.11936635    0.41277695
| 43> H    2.45051474   -0.17462400    0.31330720
| 44> C    0.63503981   -1.28055339    0.62938541
| 45> H    1.13633448   -2.23601747    0.70021716
| 46> C   -0.75098563   -1.20965430    0.75789034
| 47> H   -1.32452590   -2.11141283    0.92419891
| 48> C   -1.39703443    0.02267081    0.67308963
| 49> H   -2.47242537    0.07848826    0.77399799
| 50> C   -0.65689731    1.18429622    0.45833859
| 51> H   -1.15782845    2.14058713    0.39509608
| 52> C    0.07789023    0.03535371    3.39922407
| 53> H    0.20001663    0.26083717    2.34879763
| 54> C   -1.01319134   -0.71954490    3.82656033
| 55> H   -1.73369587   -1.07605915    3.10286591
| 56> C   -1.17389132   -1.01367022    5.17951040
| 57> H   -2.02099891   -1.59963878    5.50975794
| 58> C   -0.24200876   -0.55261684    6.10800448
| 59> H   -0.36590226   -0.78058300    7.15801198
| 60> C    0.84957634    0.20248521    5.68276419
| 61> H    1.57269542    0.56031839    6.40314685
| 62> C    1.00838023    0.49597023    4.32927288
| 63> H    1.85563815    1.08204503    3.99922555
| 64> *
| 65>
| 66> $new_job
| 67> ! ri-mp2 aug-cc-pvqz aug-cc-pvqz/c tightscf
| 68> %pal nprocs 16 end
| 69> %maxcore 3800
| 70> %base "QZ_S66by10_47_0.8_dimer"
| 71>
| 72> *xyz 0 1
| 73> C    0.72918867    1.11310122    0.32672825
| 74> H    1.30321590    2.01422234    0.15916027
| 75> C    1.37508737   -0.11936635    0.41277695
| 76> H    2.45051474   -0.17462400    0.31330720
| 77> C    0.63503981   -1.28055339    0.62938541
| 78> H    1.13633448   -2.23601747    0.70021716
| 79> C   -0.75098563   -1.20965430    0.75789034
| 80> H   -1.32452590   -2.11141283    0.92419891
| 81> C   -1.39703443    0.02267081    0.67308963
| 82> H   -2.47242537    0.07848826    0.77399799
| 83> C   -0.65689731    1.18429622    0.45833859
| 84> H   -1.15782845    2.14058713    0.39509608
| 85> C    0.07789023    0.03535371    3.39922407
| 86> H    0.20001663    0.26083717    2.34879763
| 87> C   -1.01319134   -0.71954490    3.82656033
| 88> H   -1.73369587   -1.07605915    3.10286591
| 89> C   -1.17389132   -1.01367022    5.17951040
| 90> H   -2.02099891   -1.59963878    5.50975794
| 91> C   -0.24200876   -0.55261684    6.10800448
| 92> H   -0.36590226   -0.78058300    7.15801198
| 93> C    0.84957634    0.20248521    5.68276419
| 94> H    1.57269542    0.56031839    6.40314685
| 95> C    1.00838023    0.49597023    4.32927288
| 96> H    1.85563815    1.08204503    3.99922555
| 97> *
| 98>
| 99>
|100>
|101>
|102>                          ****END OF INPUT****
 Total Charge           Charge          ....    0
 Multiplicity           Mult            ....    1
 Number of Electrons    NEL             ....   84
MP2 TOTAL ENERGY:     -463.080351567 Eh
FINAL SINGLE POINT ENERGY      -463.080351566658
MP2 TOTAL ENERGY:     -463.489551147 Eh
FINAL SINGLE POINT ENERGY      -463.489551146615

CARTESIAN COORDINATES (ANGSTROEM)
---------------------------------
  C      0.729189    1.113101    0.326728
  H      1.303216    2.014222    0.159160
  C      1.375087   -0.119366    0.412777
  H      2.450515   -0.174624    0.313307
  C      0.635040   -1.280553    0.629385
  H      1.136334   -2.236017    0.700217
  C     -0.750986   -1.209654    0.757890
  H     -1.324526   -2.111413    0.924199
  C     -1.397034    0.022671    0.673090
  H     -2.472425    0.078488    0.773998
  C     -0.656897    1.184296    0.458339
  H     -1.157828    2.140587    0.395096
  C      0.077890    0.035354    3.399224
  H      0.200017    0.260837    2.348798
  C     -1.013191   -0.719545    3.826560
  H     -1.733696   -1.076059    3.102866
  C     -1.173891   -1.013670    5.179510
  H     -2.020999   -1.599639    5.509758
  C     -0.242009   -0.552617    6.108004
  H     -0.365902   -0.780583    7.158012
  C      0.849576    0.202485    5.682764
  H      1.572695    0.560318    6.403147
  C      1.008380    0.495970    4.329273
  H      1.855638    1.082045    3.999226

 Multiplicity           Mult            ....    1
 Number of Electrons    NEL             ....   84
 Basis Dimension        Dim             .... 1512

ORBITAL ENERGIES
----------------

  NO   OCC          E(Eh)            E(eV)
   0   2.0000     -11.240781      -305.8772
   1   2.0000     -11.240068      -305.8578
   2   2.0000     -11.239948      -305.8545
   3   2.0000     -11.238860      -305.8249
   4   2.0000     -11.238741      -305.8217
   5   2.0000     -11.238022      -305.8021
   6   2.0000     -11.224482      -305.4337
   7   2.0000     -11.224169      -305.4252
   8   2.0000     -11.221917      -305.3639
   9   2.0000     -11.220102      -305.3145
  10   2.0000     -11.218840      -305.2802
  11   2.0000     -11.212638      -305.1114
  12   2.0000      -1.160989       -31.5921
  13   2.0000      -1.137174       -30.9441
  14   2.0000      -1.023217       -27.8431
  15   2.0000      -1.021739       -27.8029
  16   2.0000      -1.002622       -27.2827
  17   2.0000      -1.001810       -27.2606
  18   2.0000      -0.831156       -22.6169
  19   2.0000      -0.830488       -22.5987
  20   2.0000      -0.813292       -22.1308
  21   2.0000      -0.812218       -22.1016
  22   2.0000      -0.718476       -19.5507
  23   2.0000      -0.700861       -19.0714
  24   2.0000      -0.650186       -17.6925
  25   2.0000      -0.635266       -17.2865
  26   2.0000      -0.625224       -17.0132
  27   2.0000      -0.607361       -16.5271
  28   2.0000      -0.596137       -16.2217
  29   2.0000      -0.594698       -16.1825
  30   2.0000      -0.587327       -15.9820
  31   2.0000      -0.576864       -15.6973
  32   2.0000      -0.508104       -13.8262
  33   2.0000      -0.501338       -13.6421
  34   2.0000      -0.500882       -13.6297
  35   2.0000      -0.491407       -13.3719
  36   2.0000      -0.483124       -13.1465
  37   2.0000      -0.462088       -12.5740
  38   2.0000      -0.354541        -9.6476
  39   2.0000      -0.345551        -9.4029
  40   2.0000      -0.326386        -8.8814
  41   2.0000      -0.314880        -8.5683
  42   0.0000       0.021932         0.5968
  43   0.0000       0.026591         0.7236
  44   0.0000       0.029790         0.8106
  45   0.0000       0.031265         0.8508
  46   0.0000       0.038548         1.0489

MULLIKEN ATOMIC CHARGES
-----------------------
   0 C :   -0.207523
   1 H :    0.280920
   2 C :   -0.350324
   3 H :    0.261998
   4 C :   -0.460207
   5 H :    0.272339
   6 C :   -0.229440
   7 H :    0.310044
   8 C :   -0.315455
   9 H :    0.312295
  10 C :   -0.483349
  11 H :    0.226851
  12 C :   -0.107216
  13 H :    1.298030
  14 C :   -0.350035
  15 H :    0.223643
  16 C :   -0.395904
  17 H :    0.253539
  18 C :   -0.349826
  19 H :    0.344172
  20 C :   -0.346586
  21 H :    0.301460
  22 C :   -0.693416
  23 H :    0.203991
Sum of atomic charges:   -0.0000000

LOEWDIN ATOMIC CHARGES
----------------------
   0 C :    0.346162
   1 H :   -0.307482
   2 C :    0.344958
   3 H :   -0.306806
   4 C :    0.347160
   5 H :   -0.302024
   6 C :    0.306817
   7 H :   -0.300787
   8 C :    0.325125
   9 H :   -0.298384
  10 C :    0.349980
  11 H :   -0.304210
  12 C :    0.315874
  13 H :   -0.583735
  14 C :    0.353277
  15 H :   -0.363542
  16 C :    0.348756
  17 H :   -0.326124
  18 C :    0.328935
  19 H :   -0.330853
  20 C :    0.334302
  21 H :   -0.328714
  22 C :    0.369028
  23 H :   -0.317714

  Mayer bond orders larger than 0.100000
B(  0-C ,  1-H ) :   1.0912 B(  0-C ,  2-C ) :   1.1366 B(  0-C ,  6-C ) :   0.1319
B(  0-C , 10-C ) :   1.2956 B(  0-C , 13-H ) :  -0.1190 B(  1-H ,  2-C ) :  -0.1002
B(  2-C ,  3-H ) :   1.1165 B(  2-C ,  4-C ) :   1.3058 B(  2-C ,  8-C ) :   0.1156
B(  2-C , 13-H ) :  -0.1095 B(  4-C ,  5-H ) :   1.0712 B(  4-C ,  6-C ) :   1.2403
B(  4-C , 10-C ) :   0.2236 B(  4-C , 13-H ) :  -0.1688 B(  6-C ,  7-H ) :   1.0274
B(  6-C ,  8-C ) :   1.1991 B(  6-C , 13-H ) :  -0.1746 B(  8-C ,  9-H ) :   1.0289
B(  8-C , 10-C ) :   1.2767 B(  8-C , 13-H ) :  -0.1718 B( 10-C , 11-H ) :   1.1358
B( 10-C , 13-H ) :  -0.1598 B( 12-C , 13-H ) :   0.2161 B( 12-C , 14-C ) :   1.0827
B( 12-C , 15-H ) :  -0.1120 B( 12-C , 16-C ) :  -0.2413 B( 12-C , 20-C ) :  -0.2866
B( 12-C , 22-C ) :   0.8790 B( 13-H , 14-C ) :  -0.3062 B( 13-H , 22-C ) :  -0.1319
B( 14-C , 15-H ) :   1.0626 B( 14-C , 16-C ) :   1.1895 B( 14-C , 17-H ) :  -0.1193
B( 14-C , 20-C ) :   0.1220 B( 16-C , 17-H ) :   1.1216 B( 16-C , 18-C ) :   1.2173
B( 16-C , 22-C ) :   0.1888 B( 18-C , 19-H ) :   0.9965 B( 18-C , 20-C ) :   1.0912
B( 18-C , 21-H ) :  -0.1122 B( 18-C , 22-C ) :   0.1023 B( 20-C , 21-H ) :   1.0769
B( 20-C , 22-C ) :   1.4244 B( 21-H , 22-C ) :  -0.1346 B( 22-C , 23-H ) :   1.1143

MP2 TOTAL ENERGY:     -463.618084191 Eh
FINAL SINGLE POINT ENERGY      -463.618084190554

DIPOLE MOMENT
-------------
                                X             Y             Z
Electronic contribution:      0.01488       0.00194      -0.29580
Nuclear contribution   :      0.00163      -0.00027       0.00367
                        -----------------------------------------
Total Dipole Moment    :      0.01651       0.00168      -0.29213
                        -----------------------------------------
Magnitude (a.u.)       :      0.29260
Magnitude (Debye)      :      0.74373

Rotational constants in cm-1:     0.064410     0.019260     0.017552
Rotational constants in MHz :  1930.971219   577.402608   526.206421

                             ****ORCA TERMINATED NORMALLY****
TOTAL RUN TIME: 0 days 1 hours 25 minutes 12 seconds 931 msec
