                         Program Version 5.0.4 -  RELEASE  -
|  1> ! ri-mp2 aug-cc-pvdz aug-cc-pvdz/c tightscf
|  2> %pal nprocs 16 end
|  3> %maxcore 3800
|  4> %base "DZ_S66by10_41_1.0_dimer"
|  5> %scf STABPerform true end
|  6>
|  7> *xyz 0 1
|  8> N   -0.20890478   -0.96458262    0.53476104
|  9> H   -0.22415099   -1.97310940    0.60508386
| 10> C   -1.44634208   -0.34458112    0.30665858
| 11> O   -2.46123675   -1.01079161    0.19789196
| 12> C   -1.35778219    1.10318559    0.22814378
| 13> H   -2.25657214    1.66773071    0.04984731
| 14> C   -0.16300320    1.70989257    0.38112632
| 15> H   -0.04629046    2.78244591    0.33334968
| 16> N    0.98545210    1.00082412    0.61120636
| 17> H    1.86755978    1.46692777    0.74478430
| 18> C    1.02702092   -0.37917011    0.71264723
| 19> O    2.04919670   -0.99739548    0.93725979
| 20> C    1.14397811    2.35736448    4.08760108
| 21> H    0.71312950    2.66841317    3.13481851
| 22> H    0.50974420    2.76279760    4.87584873
| 23> H    2.12685814    2.81781189    4.18072257
| 24> C    1.21699457    0.83849353    4.17711942
| 25> H    1.64737822    0.54893067    5.13841038
| 26> H    1.89158417    0.44733298    3.41200126
| 27> C   -0.14779061    0.18032688    4.02230266
| 28> H   -0.81903488    0.54920269    4.80392190
| 29> H   -0.59526148    0.49059190    3.07240244
| 30> C   -0.09150168   -1.34035967    4.08193816
| 31> H    0.33210382   -1.64279009    5.04257435
| 32> H    0.60002007   -1.70223861    3.31743573
| 33> C   -1.46078460   -1.98223288    3.89816451
| 34> H   -1.89916359   -1.70877520    2.93797900
| 35> H   -1.40384581   -3.06900127    3.94222170
| 36> H   -2.14874738   -1.65388690    4.67739755
| 37> *
| 38>
| 39> $new_job
| 40> ! ri-mp2 aug-cc-pvtz aug-cc-pvtz/c tightscf
| 41> %pal nprocs 16 end
| 42> %maxcore 3800
| 43> %base "TZ_S66by10_41_1.0_dimer"
| 44>
| 45> *xyz 0 1
| 46> N   -0.20890478   -0.96458262    0.53476104
| 47> H   -0.22415099   -1.97310940    0.60508386
| 48> C   -1.44634208   -0.34458112    0.30665858
| 49> O   -2.46123675   -1.01079161    0.19789196
| 50> C   -1.35778219    1.10318559    0.22814378
| 51> H   -2.25657214    1.66773071    0.04984731
| 52> C   -0.16300320    1.70989257    0.38112632
| 53> H   -0.04629046    2.78244591    0.33334968
| 54> N    0.98545210    1.00082412    0.61120636
| 55> H    1.86755978    1.46692777    0.74478430
| 56> C    1.02702092   -0.37917011    0.71264723
| 57> O    2.04919670   -0.99739548    0.93725979
| 58> C    1.14397811    2.35736448    4.08760108
| 59> H    0.71312950    2.66841317    3.13481851
| 60> H    0.50974420    2.76279760    4.87584873
| 61> H    2.12685814    2.81781189    4.18072257
| 62> C    1.21699457    0.83849353    4.17711942
| 63> H    1.64737822    0.54893067    5.13841038
| 64> H    1.89158417    0.44733298    3.41200126
| 65> C   -0.14779061    0.18032688    4.02230266
| 66> H   -0.81903488    0.54920269    4.80392190
| 67> H   -0.59526148    0.49059190    3.07240244
| 68> C   -0.09150168   -1.34035967    4.08193816
| 69> H    0.33210382   -1.64279009    5.04257435
| 70> H    0.60002007   -1.70223861    3.31743573
| 71> C   -1.46078460   -1.98223288    3.89816451
| 72> H   -1.89916359   -1.70877520    2.93797900
| 73> H   -1.40384581   -3.06900127    3.94222170
| 74> H   -2.14874738   -1.65388690    4.67739755
| 75> *
| 76>
| 77> $new_job
| 78> ! ri-mp2 aug-cc-pvqz aug-cc-pvqz/c tightscf
| 79> %pal nprocs 16 end
| 80> %maxcore 3800
| 81> %base "QZ_S66by10_41_1.0_dimer"
| 82>
| 83> *xyz 0 1
| 84> N   -0.20890478   -0.96458262    0.53476104
| 85> H   -0.22415099   -1.97310940    0.60508386
| 86> C   -1.44634208   -0.34458112    0.30665858
| 87> O   -2.46123675   -1.01079161    0.19789196
| 88> C   -1.35778219    1.10318559    0.22814378
| 89> H   -2.25657214    1.66773071    0.04984731
| 90> C   -0.16300320    1.70989257    0.38112632
| 91> H   -0.04629046    2.78244591    0.33334968
| 92> N    0.98545210    1.00082412    0.61120636
| 93> H    1.86755978    1.46692777    0.74478430
| 94> C    1.02702092   -0.37917011    0.71264723
| 95> O    2.04919670   -0.99739548    0.93725979
| 96> C    1.14397811    2.35736448    4.08760108
| 97> H    0.71312950    2.66841317    3.13481851
| 98> H    0.50974420    2.76279760    4.87584873
| 99> H    2.12685814    2.81781189    4.18072257
|100> C    1.21699457    0.83849353    4.17711942
|101> H    1.64737822    0.54893067    5.13841038
|102> H    1.89158417    0.44733298    3.41200126
|103> C   -0.14779061    0.18032688    4.02230266
|104> H   -0.81903488    0.54920269    4.80392190
|105> H   -0.59526148    0.49059190    3.07240244
|106> C   -0.09150168   -1.34035967    4.08193816
|107> H    0.33210382   -1.64279009    5.04257435
|108> H    0.60002007   -1.70223861    3.31743573
|109> C   -1.46078460   -1.98223288    3.89816451
|110> H   -1.89916359   -1.70877520    2.93797900
|111> H   -1.40384581   -3.06900127    3.94222170
|112> H   -2.14874738   -1.65388690    4.67739755
|113> *
|114>
|115>
|116>
|117>
|118>                          ****END OF INPUT****
 Total Charge           Charge          ....    0
 Multiplicity           Mult            ....    1
 Number of Electrons    NEL             ....  100
MP2 TOTAL ENERGY:     -610.904659073 Eh
FINAL SINGLE POINT ENERGY      -610.904659073139
MP2 TOTAL ENERGY:     -611.446764967 Eh
FINAL SINGLE POINT ENERGY      -611.446764967397

CARTESIAN COORDINATES (ANGSTROEM)
---------------------------------
  N     -0.208905   -0.964583    0.534761
  H     -0.224151   -1.973109    0.605084
  C     -1.446342   -0.344581    0.306659
  O     -2.461237   -1.010792    0.197892
  C     -1.357782    1.103186    0.228144
  H     -2.256572    1.667731    0.049847
  C     -0.163003    1.709893    0.381126
  H     -0.046290    2.782446    0.333350
  N      0.985452    1.000824    0.611206
  H      1.867560    1.466928    0.744784
  C      1.027021   -0.379170    0.712647
  O      2.049197   -0.997395    0.937260
  C      1.143978    2.357364    4.087601
  H      0.713129    2.668413    3.134819
  H      0.509744    2.762798    4.875849
  H      2.126858    2.817812    4.180723
  C      1.216995    0.838494    4.177119
  H      1.647378    0.548931    5.138410
  H      1.891584    0.447333    3.412001
  C     -0.147791    0.180327    4.022303
  H     -0.819035    0.549203    4.803922
  H     -0.595261    0.490592    3.072402
  C     -0.091502   -1.340360    4.081938
  H      0.332104   -1.642790    5.042574
  H      0.600020   -1.702239    3.317436
  C     -1.460785   -1.982233    3.898165
  H     -1.899164   -1.708775    2.937979
  H     -1.403846   -3.069001    3.942222
  H     -2.148747   -1.653887    4.677398

 Multiplicity           Mult            ....    1
 Number of Electrons    NEL             ....  100
 Basis Dimension        Dim             .... 1776

ORBITAL ENERGIES
----------------

  NO   OCC          E(Eh)            E(eV)
   0   2.0000     -20.546008      -559.0853
   1   2.0000     -20.540426      -558.9334
   2   2.0000     -15.642728      -425.6603
   3   2.0000     -15.626126      -425.2085
   4   2.0000     -11.418917      -310.7245
   5   2.0000     -11.380886      -309.6897
   6   2.0000     -11.340205      -308.5827
   7   2.0000     -11.254949      -306.2627
   8   2.0000     -11.217439      -305.2420
   9   2.0000     -11.215926      -305.2009
  10   2.0000     -11.212880      -305.1180
  11   2.0000     -11.209771      -305.0334
  12   2.0000     -11.201909      -304.8194
  13   2.0000      -1.437241       -39.1093
  14   2.0000      -1.399090       -38.0712
  15   2.0000      -1.314162       -35.7602
  16   2.0000      -1.246529       -33.9198
  17   2.0000      -1.088994       -29.6330
  18   2.0000      -1.084462       -29.5097
  19   2.0000      -1.018249       -27.7080
  20   2.0000      -0.934588       -25.4314
  21   2.0000      -0.922422       -25.1004
  22   2.0000      -0.902487       -24.5579
  23   2.0000      -0.823082       -22.3972
  24   2.0000      -0.807997       -21.9867
  25   2.0000      -0.788260       -21.4496
  26   2.0000      -0.766222       -20.8500
  27   2.0000      -0.715467       -19.4688
  28   2.0000      -0.680080       -18.5059
  29   2.0000      -0.678797       -18.4710
  30   2.0000      -0.654458       -17.8087
  31   2.0000      -0.641864       -17.4660
  32   2.0000      -0.616272       -16.7696
  33   2.0000      -0.603024       -16.4091
  34   2.0000      -0.602546       -16.3961
  35   2.0000      -0.598755       -16.2929
  36   2.0000      -0.571429       -15.5494
  37   2.0000      -0.557975       -15.1833
  38   2.0000      -0.550900       -14.9907
  39   2.0000      -0.530071       -14.4240
  40   2.0000      -0.527710       -14.3597
  41   2.0000      -0.498163       -13.5557
  42   2.0000      -0.485964       -13.2237
  43   2.0000      -0.479001       -13.0343
  44   2.0000      -0.464744       -12.6463
  45   2.0000      -0.460597       -12.5335
  46   2.0000      -0.450715       -12.2646
  47   2.0000      -0.449486       -12.2311
  48   2.0000      -0.438048       -11.9199
  49   2.0000      -0.370033       -10.0691
  50   0.0000       0.013616         0.3705
  51   0.0000       0.027558         0.7499
  52   0.0000       0.027942         0.7604
  53   0.0000       0.031588         0.8596
  54   0.0000       0.039490         1.0746

MULLIKEN ATOMIC CHARGES
-----------------------
   0 N :   -0.750925
   1 H :    0.029900
   2 C :    1.351804
   3 O :   -0.931465
   4 C :   -0.504977
   5 H :    0.253171
   6 C :   -0.206723
   7 H :    0.361408
   8 N :   -0.657150
   9 H :    0.092719
  10 C :    2.038581
  11 O :   -0.962090
  12 C :   -1.009508
  13 H :    0.296463
  14 H :    0.235315
  15 H :    0.254962
  16 C :   -0.561556
  17 H :    0.310744
  18 H :    0.263410
  19 C :   -0.174710
  20 H :    0.285883
  21 H :    0.202455
  22 C :   -0.571952
  23 H :    0.308993
  24 H :    0.268270
  25 C :   -1.006843
  26 H :    0.304754
  27 H :    0.245776
  28 H :    0.233294
Sum of atomic charges:   -0.0000000

LOEWDIN ATOMIC CHARGES
----------------------
   0 N :    0.783143
   1 H :   -0.512059
   2 C :   -0.871099
   3 O :    0.700012
   4 C :    0.339049
   5 H :   -0.347416
   6 C :    0.227764
   7 H :   -0.291100
   8 N :    0.815662
   9 H :   -0.485131
  10 C :   -1.007008
  11 O :    0.721145
  12 C :    0.928269
  13 H :   -0.306365
  14 H :   -0.280031
  15 H :   -0.277723
  16 C :    0.506251
  17 H :   -0.264405
  18 H :   -0.300252
  19 C :    0.488587
  20 H :   -0.258416
  21 H :   -0.313282
  22 C :    0.506502
  23 H :   -0.265311
  24 H :   -0.299954
  25 C :    0.932173
  26 H :   -0.312077
  27 H :   -0.276717
  28 H :   -0.280211

  Mayer bond orders larger than 0.100000
B(  0-N ,  1-H ) :   1.2618 B(  0-N ,  2-C ) :   0.9880 B(  0-N ,  3-O ) :   0.1705
B(  0-N , 10-C ) :   0.8648 B(  0-N , 11-O ) :   0.2543 B(  2-C ,  3-O ) :   0.7599
B(  2-C ,  4-C ) :   1.1433 B(  3-O ,  4-C ) :   0.2778 B(  4-C ,  5-H ) :   1.0382
B(  4-C ,  6-C ) :   1.5556 B(  6-C ,  7-H ) :   1.0091 B(  6-C ,  8-N ) :   0.8884
B(  8-N ,  9-H ) :   1.1753 B(  8-N , 10-C ) :   0.9341 B(  8-N , 11-O ) :   0.2317
B( 10-C , 11-O ) :   0.6710 B( 12-C , 13-H ) :   0.8753 B( 12-C , 14-H ) :   0.9986
B( 12-C , 15-H ) :   1.0365 B( 12-C , 16-C ) :   1.0225 B( 12-C , 19-C ) :  -0.1267
B( 16-C , 17-H ) :   0.8701 B( 16-C , 18-H ) :   0.8828 B( 16-C , 19-C ) :   0.7741
B( 19-C , 20-H ) :   0.8904 B( 19-C , 21-H ) :   0.8739 B( 19-C , 22-C ) :   0.7669
B( 19-C , 25-C ) :  -0.1203 B( 22-C , 23-H ) :   0.8732 B( 22-C , 24-H ) :   0.8844
B( 22-C , 25-C ) :   1.0283 B( 25-C , 26-H ) :   0.8588 B( 25-C , 27-H ) :   1.0450
B( 25-C , 28-H ) :   1.0018

MP2 TOTAL ENERGY:     -611.618890150 Eh
FINAL SINGLE POINT ENERGY      -611.618890150157

DIPOLE MOMENT
-------------
                                X             Y             Z
Electronic contribution:     -0.59683      -2.47651     -18.75592
Nuclear contribution   :      1.15608       4.26157      18.76459
                        -----------------------------------------
Total Dipole Moment    :      0.55925       1.78505       0.00867
                        -----------------------------------------
Magnitude (a.u.)       :      1.87063
Magnitude (Debye)      :      4.75476

Rotational constants in cm-1:     0.027608     0.020633     0.016707
Rotational constants in MHz :   827.665567   618.552540   500.864335

                             ****ORCA TERMINATED NORMALLY****
TOTAL RUN TIME: 0 days 13 hours 45 minutes 14 seconds 49 msec
