                         Program Version 5.0.4 -  RELEASE  -
|  1> ! ri-mp2 aug-cc-pvdz aug-cc-pvdz/c tightscf
|  2> %pal nprocs 16 end
|  3> %maxcore 3800
|  4> %base "DZ_S66by10_44_0.7_dimer"
|  5> %scf STABPerform true end
|  6>
|  7> *xyz 0 1
|  8> C    0.66640038    0.18381078    0.41973683
|  9> H    1.22888182   -0.32988301    1.18625971
| 10> H    1.22803556    0.69720813   -0.34760989
| 11> C   -0.66597358    0.18297343    0.41961191
| 12> H   -1.22792171   -0.33149890    1.18610334
| 13> H   -1.22818427    0.69564575   -0.34774808
| 14> C   -2.53269615   -0.33825924    3.29315292
| 15> H   -2.56218960   -0.95128002    2.39196304
| 16> H   -2.56883010   -1.01247986    4.14876993
| 17> H   -3.43386751    0.27275719    3.31039886
| 18> C   -1.27125967    0.51441618    3.32897085
| 19> H   -1.27166553    1.13450975    4.22836480
| 20> H   -1.26287132    1.20132449    2.47991044
| 21> C    0.00001459   -0.32314139    3.30202764
| 22> H   -0.00013946   -1.00981410    4.15385966
| 23> H    0.00015566   -0.95071923    2.40538515
| 24> C    1.27123500    0.51444504    3.32943218
| 25> H    1.27150800    1.13425579    4.22891759
| 26> H    1.26304018    1.20151969    2.48052456
| 27> C    2.53268638   -0.33827948    3.29360800
| 28> H    2.56230985   -0.95113598    2.39229882
| 29> H    3.43386449    0.27265669    3.31118604
| 30> H    2.56860474   -1.01273556    4.14911371
| 31> *
| 32>
| 33> $new_job
| 34> ! ri-mp2 aug-cc-pvtz aug-cc-pvtz/c tightscf
| 35> %pal nprocs 16 end
| 36> %maxcore 3800
| 37> %base "TZ_S66by10_44_0.7_dimer"
| 38>
| 39> *xyz 0 1
| 40> C    0.66640038    0.18381078    0.41973683
| 41> H    1.22888182   -0.32988301    1.18625971
| 42> H    1.22803556    0.69720813   -0.34760989
| 43> C   -0.66597358    0.18297343    0.41961191
| 44> H   -1.22792171   -0.33149890    1.18610334
| 45> H   -1.22818427    0.69564575   -0.34774808
| 46> C   -2.53269615   -0.33825924    3.29315292
| 47> H   -2.56218960   -0.95128002    2.39196304
| 48> H   -2.56883010   -1.01247986    4.14876993
| 49> H   -3.43386751    0.27275719    3.31039886
| 50> C   -1.27125967    0.51441618    3.32897085
| 51> H   -1.27166553    1.13450975    4.22836480
| 52> H   -1.26287132    1.20132449    2.47991044
| 53> C    0.00001459   -0.32314139    3.30202764
| 54> H   -0.00013946   -1.00981410    4.15385966
| 55> H    0.00015566   -0.95071923    2.40538515
| 56> C    1.27123500    0.51444504    3.32943218
| 57> H    1.27150800    1.13425579    4.22891759
| 58> H    1.26304018    1.20151969    2.48052456
| 59> C    2.53268638   -0.33827948    3.29360800
| 60> H    2.56230985   -0.95113598    2.39229882
| 61> H    3.43386449    0.27265669    3.31118604
| 62> H    2.56860474   -1.01273556    4.14911371
| 63> *
| 64>
| 65> $new_job
| 66> ! ri-mp2 aug-cc-pvqz aug-cc-pvqz/c tightscf
| 67> %pal nprocs 16 end
| 68> %maxcore 3800
| 69> %base "QZ_S66by10_44_0.7_dimer"
| 70>
| 71> *xyz 0 1
| 72> C    0.66640038    0.18381078    0.41973683
| 73> H    1.22888182   -0.32988301    1.18625971
| 74> H    1.22803556    0.69720813   -0.34760989
| 75> C   -0.66597358    0.18297343    0.41961191
| 76> H   -1.22792171   -0.33149890    1.18610334
| 77> H   -1.22818427    0.69564575   -0.34774808
| 78> C   -2.53269615   -0.33825924    3.29315292
| 79> H   -2.56218960   -0.95128002    2.39196304
| 80> H   -2.56883010   -1.01247986    4.14876993
| 81> H   -3.43386751    0.27275719    3.31039886
| 82> C   -1.27125967    0.51441618    3.32897085
| 83> H   -1.27166553    1.13450975    4.22836480
| 84> H   -1.26287132    1.20132449    2.47991044
| 85> C    0.00001459   -0.32314139    3.30202764
| 86> H   -0.00013946   -1.00981410    4.15385966
| 87> H    0.00015566   -0.95071923    2.40538515
| 88> C    1.27123500    0.51444504    3.32943218
| 89> H    1.27150800    1.13425579    4.22891759
| 90> H    1.26304018    1.20151969    2.48052456
| 91> C    2.53268638   -0.33827948    3.29360800
| 92> H    2.56230985   -0.95113598    2.39229882
| 93> H    3.43386449    0.27265669    3.31118604
| 94> H    2.56860474   -1.01273556    4.14911371
| 95> *
| 96>
| 97>
| 98>
| 99>
|100>                          ****END OF INPUT****
 Total Charge           Charge          ....    0
 Multiplicity           Mult            ....    1
 Number of Electrons    NEL             ....   58
MP2 TOTAL ENERGY:     -275.429299765 Eh
FINAL SINGLE POINT ENERGY      -275.429299764698
MP2 TOTAL ENERGY:     -275.702741706 Eh
FINAL SINGLE POINT ENERGY      -275.702741706166

CARTESIAN COORDINATES (ANGSTROEM)
---------------------------------
  C      0.666400    0.183811    0.419737
  H      1.228882   -0.329883    1.186260
  H      1.228036    0.697208   -0.347610
  C     -0.665974    0.182973    0.419612
  H     -1.227922   -0.331499    1.186103
  H     -1.228184    0.695646   -0.347748
  C     -2.532696   -0.338259    3.293153
  H     -2.562190   -0.951280    2.391963
  H     -2.568830   -1.012480    4.148770
  H     -3.433868    0.272757    3.310399
  C     -1.271260    0.514416    3.328971
  H     -1.271666    1.134510    4.228365
  H     -1.262871    1.201324    2.479910
  C      0.000015   -0.323141    3.302028
  H     -0.000139   -1.009814    4.153860
  H      0.000156   -0.950719    2.405385
  C      1.271235    0.514445    3.329432
  H      1.271508    1.134256    4.228918
  H      1.263040    1.201520    2.480525
  C      2.532686   -0.338279    3.293608
  H      2.562310   -0.951136    2.392299
  H      3.433864    0.272657    3.311186
  H      2.568605   -1.012736    4.149114

 Multiplicity           Mult            ....    1
 Number of Electrons    NEL             ....   58
 Basis Dimension        Dim             .... 1296

ORBITAL ENERGIES
----------------

  NO   OCC          E(Eh)            E(eV)
   0   2.0000     -11.221184      -305.3439
   1   2.0000     -11.219453      -305.2968
   2   2.0000     -11.209631      -305.0296
   3   2.0000     -11.209553      -305.0274
   4   2.0000     -11.208832      -305.0078
   5   2.0000     -11.208798      -305.0069
   6   2.0000     -11.207654      -304.9758
   7   2.0000      -1.088502       -29.6197
   8   2.0000      -1.029830       -28.0231
   9   2.0000      -1.019502       -27.7421
  10   2.0000      -0.922011       -25.0892
  11   2.0000      -0.823500       -22.4086
  12   2.0000      -0.793301       -21.5868
  13   2.0000      -0.788047       -21.4439
  14   2.0000      -0.688065       -18.7232
  15   2.0000      -0.612441       -16.6654
  16   2.0000      -0.604956       -16.4617
  17   2.0000      -0.598807       -16.2944
  18   2.0000      -0.577017       -15.7014
  19   2.0000      -0.555720       -15.1219
  20   2.0000      -0.550129       -14.9698
  21   2.0000      -0.529319       -14.4035
  22   2.0000      -0.501551       -13.6479
  23   2.0000      -0.492738       -13.4081
  24   2.0000      -0.478462       -13.0196
  25   2.0000      -0.465667       -12.6715
  26   2.0000      -0.460427       -12.5289
  27   2.0000      -0.448253       -12.1976
  28   2.0000      -0.367311        -9.9950
  29   0.0000       0.025920         0.7053
  30   0.0000       0.028295         0.7700
  31   0.0000       0.031391         0.8542
  32   0.0000       0.033898         0.9224
  33   0.0000       0.044355         1.2070

MULLIKEN ATOMIC CHARGES
-----------------------
   0 C :   -0.811458
   1 H :    0.469222
   2 H :    0.302064
   3 C :   -0.811512
   4 H :    0.468531
   5 H :    0.302481
   6 C :   -0.949958
   7 H :    0.192037
   8 H :    0.186333
   9 H :    0.250184
  10 C :   -0.518431
  11 H :    0.269643
  12 H :    0.265263
  13 C :   -0.009548
  14 H :    0.310752
  15 H :    0.389335
  16 C :   -0.518463
  17 H :    0.269532
  18 H :    0.265356
  19 C :   -0.949815
  20 H :    0.192050
  21 H :    0.250136
  22 H :    0.186267
Sum of atomic charges:    0.0000000

LOEWDIN ATOMIC CHARGES
----------------------
   0 C :    0.823184
   1 H :   -0.500305
   2 H :   -0.308843
   3 C :    0.823134
   4 H :   -0.500181
   5 H :   -0.308866
   6 C :    0.955237
   7 H :   -0.299707
   8 H :   -0.272154
   9 H :   -0.265954
  10 C :    0.518362
  11 H :   -0.255222
  12 H :   -0.324923
  13 C :    0.500180
  14 H :   -0.242696
  15 H :   -0.396920
  16 C :    0.518417
  17 H :   -0.255297
  18 H :   -0.324952
  19 C :    0.955268
  20 H :   -0.299675
  21 H :   -0.265986
  22 H :   -0.272102

  Mayer bond orders larger than 0.100000
B(  0-C ,  1-H ) :   0.6444 B(  0-C ,  2-H ) :   1.0168 B(  0-C ,  3-C ) :   2.0859
B(  0-C , 15-H ) :  -0.1094 B(  3-C ,  4-H ) :   0.6450 B(  3-C ,  5-H ) :   1.0163
B(  3-C , 15-H ) :  -0.1096 B(  6-C ,  7-H ) :   0.9804 B(  6-C ,  8-H ) :   1.0413
B(  6-C ,  9-H ) :   1.0220 B(  6-C , 10-C ) :   0.9501 B(  6-C , 13-C ) :  -0.1181
B( 10-C , 11-H ) :   0.9207 B( 10-C , 12-H ) :   0.9279 B( 10-C , 13-C ) :   0.7196
B( 13-C , 14-H ) :   0.8755 B( 13-C , 15-H ) :   0.9225 B( 13-C , 16-C ) :   0.7198
B( 13-C , 19-C ) :  -0.1181 B( 16-C , 17-H ) :   0.9208 B( 16-C , 18-H ) :   0.9276
B( 16-C , 19-C ) :   0.9500 B( 19-C , 20-H ) :   0.9804 B( 19-C , 21-H ) :   1.0220
B( 19-C , 22-H ) :   1.0413

MP2 TOTAL ENERGY:     -275.783667020 Eh
FINAL SINGLE POINT ENERGY      -275.783667019830

DIPOLE MOMENT
-------------
                                X             Y             Z
Electronic contribution:      0.00013       0.76609      -1.17505
Nuclear contribution   :     -0.00016      -0.66495       1.27289
                        -----------------------------------------
Total Dipole Moment    :     -0.00003       0.10114       0.09784
                        -----------------------------------------
Magnitude (a.u.)       :      0.14072
Magnitude (Debye)      :      0.35767

Rotational constants in cm-1:     0.083291     0.058304     0.037786
Rotational constants in MHz :  2497.012817  1747.899053  1132.791058

                             ****ORCA TERMINATED NORMALLY****
TOTAL RUN TIME: 0 days 3 hours 1 minutes 33 seconds 245 msec
