                         Program Version 5.0.4 -  RELEASE  -
|  1> ! ri-mp2 aug-cc-pvdz aug-cc-pvdz/c tightscf
|  2> %pal nprocs 16 end
|  3> %maxcore 3800
|  4> %base "DZ_S66by10_34_0.95_dimer"
|  5> %scf STABPerform true end
|  6>
|  7> *xyz 0 1
|  8> C   -2.53330865   -0.29487907    0.71314876
|  9> H   -2.56362682   -0.97708181   -0.13642264
| 10> H   -2.56697835   -0.89587590    1.62173177
| 11> H   -3.43442611    0.31595713    0.68410447
| 12> C   -1.27188487    0.55765547    0.67435468
| 13> H   -1.27102630    1.25656571    1.51431940
| 14> H   -1.26663255    1.16789581   -0.23182653
| 15> C   -0.00013504   -0.27841822    0.71960315
| 16> H   -0.00015938   -0.88722952    1.62863709
| 17> H   -0.00036543   -0.98071418   -0.11940439
| 18> C    1.27189476    0.55738219    0.67406108
| 19> H    1.27097175    1.25663331    1.51370541
| 20> H    1.26663649    1.16718250   -0.23238692
| 21> C    2.53340376   -0.29494176    0.71328015
| 22> H    2.56391919   -0.97777410   -0.13577836
| 23> H    3.43430956    0.31625432    0.68359945
| 24> H    2.56755821   -0.89520887    1.62232865
| 25> C    2.53355772    0.29763975    4.38456986
| 26> H    2.56814221    0.89744645    3.47524431
| 27> H    2.56406103    0.98084633    5.23331468
| 28> H    3.43423841   -0.31385755    4.41477880
| 29> C    1.27173152   -0.55424752    4.42387411
| 30> H    1.26628781   -1.16397523    5.33037107
| 31> H    1.27060101   -1.25360126    3.58429305
| 32> C   -0.00004347    0.28185158    4.37825767
| 33> H   -0.00019840    0.98416156    5.21724215
| 34> H    0.00003342    0.89062800    3.46918804
| 35> C   -1.27180431   -0.55429040    4.42352921
| 36> H   -1.26642207   -1.16439985    5.32977931
| 37> H   -1.27069797   -1.25331329    3.58366556
| 38> C   -2.53352354    0.29775591    4.38455150
| 39> H   -2.56771684    0.89828958    3.47567475
| 40> H   -3.43432552   -0.31354244    4.41406468
| 41> H   -2.56406307    0.98034215    5.23381289
| 42> *
| 43>
| 44> $new_job
| 45> ! ri-mp2 aug-cc-pvtz aug-cc-pvtz/c tightscf
| 46> %pal nprocs 16 end
| 47> %maxcore 3800
| 48> %base "TZ_S66by10_34_0.95_dimer"
| 49>
| 50> *xyz 0 1
| 51> C   -2.53330865   -0.29487907    0.71314876
| 52> H   -2.56362682   -0.97708181   -0.13642264
| 53> H   -2.56697835   -0.89587590    1.62173177
| 54> H   -3.43442611    0.31595713    0.68410447
| 55> C   -1.27188487    0.55765547    0.67435468
| 56> H   -1.27102630    1.25656571    1.51431940
| 57> H   -1.26663255    1.16789581   -0.23182653
| 58> C   -0.00013504   -0.27841822    0.71960315
| 59> H   -0.00015938   -0.88722952    1.62863709
| 60> H   -0.00036543   -0.98071418   -0.11940439
| 61> C    1.27189476    0.55738219    0.67406108
| 62> H    1.27097175    1.25663331    1.51370541
| 63> H    1.26663649    1.16718250   -0.23238692
| 64> C    2.53340376   -0.29494176    0.71328015
| 65> H    2.56391919   -0.97777410   -0.13577836
| 66> H    3.43430956    0.31625432    0.68359945
| 67> H    2.56755821   -0.89520887    1.62232865
| 68> C    2.53355772    0.29763975    4.38456986
| 69> H    2.56814221    0.89744645    3.47524431
| 70> H    2.56406103    0.98084633    5.23331468
| 71> H    3.43423841   -0.31385755    4.41477880
| 72> C    1.27173152   -0.55424752    4.42387411
| 73> H    1.26628781   -1.16397523    5.33037107
| 74> H    1.27060101   -1.25360126    3.58429305
| 75> C   -0.00004347    0.28185158    4.37825767
| 76> H   -0.00019840    0.98416156    5.21724215
| 77> H    0.00003342    0.89062800    3.46918804
| 78> C   -1.27180431   -0.55429040    4.42352921
| 79> H   -1.26642207   -1.16439985    5.32977931
| 80> H   -1.27069797   -1.25331329    3.58366556
| 81> C   -2.53352354    0.29775591    4.38455150
| 82> H   -2.56771684    0.89828958    3.47567475
| 83> H   -3.43432552   -0.31354244    4.41406468
| 84> H   -2.56406307    0.98034215    5.23381289
| 85> *
| 86>
| 87> $new_job
| 88> ! ri-mp2 aug-cc-pvqz aug-cc-pvqz/c tightscf
| 89> %pal nprocs 16 end
| 90> %maxcore 3800
| 91> %base "QZ_S66by10_34_0.95_dimer"
| 92>
| 93> *xyz 0 1
| 94> C   -2.53330865   -0.29487907    0.71314876
| 95> H   -2.56362682   -0.97708181   -0.13642264
| 96> H   -2.56697835   -0.89587590    1.62173177
| 97> H   -3.43442611    0.31595713    0.68410447
| 98> C   -1.27188487    0.55765547    0.67435468
| 99> H   -1.27102630    1.25656571    1.51431940
|100> H   -1.26663255    1.16789581   -0.23182653
|101> C   -0.00013504   -0.27841822    0.71960315
|102> H   -0.00015938   -0.88722952    1.62863709
|103> H   -0.00036543   -0.98071418   -0.11940439
|104> C    1.27189476    0.55738219    0.67406108
|105> H    1.27097175    1.25663331    1.51370541
|106> H    1.26663649    1.16718250   -0.23238692
|107> C    2.53340376   -0.29494176    0.71328015
|108> H    2.56391919   -0.97777410   -0.13577836
|109> H    3.43430956    0.31625432    0.68359945
|110> H    2.56755821   -0.89520887    1.62232865
|111> C    2.53355772    0.29763975    4.38456986
|112> H    2.56814221    0.89744645    3.47524431
|113> H    2.56406103    0.98084633    5.23331468
|114> H    3.43423841   -0.31385755    4.41477880
|115> C    1.27173152   -0.55424752    4.42387411
|116> H    1.26628781   -1.16397523    5.33037107
|117> H    1.27060101   -1.25360126    3.58429305
|118> C   -0.00004347    0.28185158    4.37825767
|119> H   -0.00019840    0.98416156    5.21724215
|120> H    0.00003342    0.89062800    3.46918804
|121> C   -1.27180431   -0.55429040    4.42352921
|122> H   -1.26642207   -1.16439985    5.32977931
|123> H   -1.27069797   -1.25331329    3.58366556
|124> C   -2.53352354    0.29775591    4.38455150
|125> H   -2.56771684    0.89828958    3.47567475
|126> H   -3.43432552   -0.31354244    4.41406468
|127> H   -2.56406307    0.98034215    5.23381289
|128> *
|129>
|130>
|131>
|132>
|133>                          ****END OF INPUT****
 Total Charge           Charge          ....    0
 Multiplicity           Mult            ....    1
 Number of Electrons    NEL             ....   84
MP2 TOTAL ENERGY:     -394.236493995 Eh
FINAL SINGLE POINT ENERGY      -394.236493994658
MP2 TOTAL ENERGY:     -394.628531016 Eh
FINAL SINGLE POINT ENERGY      -394.628531016329

CARTESIAN COORDINATES (ANGSTROEM)
---------------------------------
  C     -2.533309   -0.294879    0.713149
  H     -2.563627   -0.977082   -0.136423
  H     -2.566978   -0.895876    1.621732
  H     -3.434426    0.315957    0.684104
  C     -1.271885    0.557655    0.674355
  H     -1.271026    1.256566    1.514319
  H     -1.266633    1.167896   -0.231827
  C     -0.000135   -0.278418    0.719603
  H     -0.000159   -0.887230    1.628637
  H     -0.000365   -0.980714   -0.119404
  C      1.271895    0.557382    0.674061
  H      1.270972    1.256633    1.513705
  H      1.266636    1.167183   -0.232387
  C      2.533404   -0.294942    0.713280
  H      2.563919   -0.977774   -0.135778
  H      3.434310    0.316254    0.683599
  H      2.567558   -0.895209    1.622329
  C      2.533558    0.297640    4.384570
  H      2.568142    0.897446    3.475244
  H      2.564061    0.980846    5.233315
  H      3.434238   -0.313858    4.414779
  C      1.271732   -0.554248    4.423874
  H      1.266288   -1.163975    5.330371
  H      1.270601   -1.253601    3.584293
  C     -0.000043    0.281852    4.378258
  H     -0.000198    0.984162    5.217242
  H      0.000033    0.890628    3.469188
  C     -1.271804   -0.554290    4.423529
  H     -1.266422   -1.164400    5.329779
  H     -1.270698   -1.253313    3.583666
  C     -2.533524    0.297756    4.384551
  H     -2.567717    0.898290    3.475675
  H     -3.434326   -0.313542    4.414065
  H     -2.564063    0.980342    5.233813

 Multiplicity           Mult            ....    1
 Number of Electrons    NEL             ....   84
 Basis Dimension        Dim             .... 1904

ORBITAL ENERGIES
----------------

  NO   OCC          E(Eh)            E(eV)
   0   2.0000     -11.211867      -305.0904
   1   2.0000     -11.211865      -305.0904
   2   2.0000     -11.211805      -305.0887
   3   2.0000     -11.211803      -305.0887
   4   2.0000     -11.209082      -305.0146
   5   2.0000     -11.209082      -305.0146
   6   2.0000     -11.205758      -304.9242
   7   2.0000     -11.205754      -304.9241
   8   2.0000     -11.205753      -304.9240
   9   2.0000     -11.205752      -304.9240
  10   2.0000      -1.085071       -29.5263
  11   2.0000      -1.078665       -29.3520
  12   2.0000      -1.018797       -27.7229
  13   2.0000      -1.012881       -27.5619
  14   2.0000      -0.922275       -25.0964
  15   2.0000      -0.916455       -24.9380
  16   2.0000      -0.820509       -22.3272
  17   2.0000      -0.820320       -22.3220
  18   2.0000      -0.789989       -21.4967
  19   2.0000      -0.782195       -21.2846
  20   2.0000      -0.665469       -18.1083
  21   2.0000      -0.631897       -17.1948
  22   2.0000      -0.608009       -16.5448
  23   2.0000      -0.601444       -16.3661
  24   2.0000      -0.596949       -16.2438
  25   2.0000      -0.579935       -15.7808
  26   2.0000      -0.556456       -15.1419
  27   2.0000      -0.553249       -15.0547
  28   2.0000      -0.547953       -14.9106
  29   2.0000      -0.547326       -14.8935
  30   2.0000      -0.536964       -14.6115
  31   2.0000      -0.516344       -14.0504
  32   2.0000      -0.496174       -13.5016
  33   2.0000      -0.493696       -13.4342
  34   2.0000      -0.479948       -13.0600
  35   2.0000      -0.473844       -12.8939
  36   2.0000      -0.472104       -12.8466
  37   2.0000      -0.467959       -12.7338
  38   2.0000      -0.456146       -12.4124
  39   2.0000      -0.448161       -12.1951
  40   2.0000      -0.447974       -12.1900
  41   2.0000      -0.446360       -12.1461
  42   0.0000       0.025450         0.6925
  43   0.0000       0.027902         0.7593
  44   0.0000       0.028748         0.7823
  45   0.0000       0.029131         0.7927
  46   0.0000       0.038826         1.0565

MULLIKEN ATOMIC CHARGES
-----------------------
   0 C :   -1.095163
   1 H :    0.239828
   2 H :    0.300472
   3 H :    0.195217
   4 C :   -0.477351
   5 H :    0.336212
   6 H :    0.260466
   7 C :   -0.103157
   8 H :    0.296777
   9 H :    0.287222
  10 C :   -0.477651
  11 H :    0.336401
  12 H :    0.260285
  13 C :   -1.095067
  14 H :    0.239770
  15 H :    0.195173
  16 H :    0.300566
  17 C :   -1.095130
  18 H :    0.300663
  19 H :    0.239767
  20 H :    0.195055
  21 C :   -0.477077
  22 H :    0.260227
  23 H :    0.336367
  24 C :   -0.103887
  25 H :    0.287247
  26 H :    0.296892
  27 C :   -0.476947
  28 H :    0.260359
  29 H :    0.336282
  30 C :   -1.095194
  31 H :    0.300565
  32 H :    0.195059
  33 H :    0.239749
Sum of atomic charges:    0.0000000

LOEWDIN ATOMIC CHARGES
----------------------
   0 C :    0.932673
   1 H :   -0.276858
   2 H :   -0.310603
   3 H :   -0.272330
   4 C :    0.514835
   5 H :   -0.293032
   6 H :   -0.263119
   7 C :    0.502642
   8 H :   -0.307307
   9 H :   -0.258445
  10 C :    0.514902
  11 H :   -0.293039
  12 H :   -0.263181
  13 C :    0.932667
  14 H :   -0.276834
  15 H :   -0.272327
  16 H :   -0.310629
  17 C :    0.932708
  18 H :   -0.310663
  19 H :   -0.276851
  20 H :   -0.272327
  21 C :    0.514839
  22 H :   -0.263189
  23 H :   -0.293021
  24 C :    0.502691
  25 H :   -0.258431
  26 H :   -0.307257
  27 C :    0.514819
  28 H :   -0.263165
  29 H :   -0.293064
  30 C :    0.932701
  31 H :   -0.310611
  32 H :   -0.272347
  33 H :   -0.276846

  Mayer bond orders larger than 0.100000
B(  0-C ,  1-H ) :   1.0317 B(  0-C ,  2-H ) :   0.8547 B(  0-C ,  3-H ) :   1.0881
B(  0-C ,  4-C ) :   0.9478 B(  0-C ,  7-C ) :  -0.1430 B(  3-H ,  4-C ) :  -0.1209
B(  4-C ,  5-H ) :   0.8036 B(  4-C ,  6-H ) :   0.9323 B(  4-C ,  7-C ) :   0.8070
B(  7-C ,  8-H ) :   0.8878 B(  7-C ,  9-H ) :   0.9239 B(  7-C , 10-C ) :   0.8071
B(  7-C , 13-C ) :  -0.1429 B( 10-C , 11-H ) :   0.8035 B( 10-C , 12-H ) :   0.9324
B( 10-C , 13-C ) :   0.9476 B( 10-C , 15-H ) :  -0.1210 B( 13-C , 14-H ) :   1.0318
B( 13-C , 15-H ) :   1.0882 B( 13-C , 16-H ) :   0.8545 B( 17-C , 18-H ) :   0.8544
B( 17-C , 19-H ) :   1.0318 B( 17-C , 20-H ) :   1.0884 B( 17-C , 21-C ) :   0.9470
B( 17-C , 24-C ) :  -0.1426 B( 20-H , 21-C ) :  -0.1211 B( 21-C , 22-H ) :   0.9325
B( 21-C , 23-H ) :   0.8035 B( 21-C , 24-C ) :   0.8074 B( 24-C , 25-H ) :   0.9238
B( 24-C , 26-H ) :   0.8875 B( 24-C , 27-C ) :   0.8073 B( 24-C , 30-C ) :  -0.1428
B( 27-C , 28-H ) :   0.9324 B( 27-C , 29-H ) :   0.8035 B( 27-C , 30-C ) :   0.9471
B( 27-C , 32-H ) :  -0.1211 B( 30-C , 31-H ) :   0.8546 B( 30-C , 32-H ) :   1.0884
B( 30-C , 33-H ) :   1.0318

MP2 TOTAL ENERGY:     -394.744128834 Eh
FINAL SINGLE POINT ENERGY      -394.744128833641

DIPOLE MOMENT
-------------
                                X             Y             Z
Electronic contribution:     -0.00031       0.00124       0.00009
Nuclear contribution   :      0.00030      -0.00124      -0.00009
                        -----------------------------------------
Total Dipole Moment    :     -0.00000      -0.00000      -0.00000
                        -----------------------------------------
Magnitude (a.u.)       :      0.00001
Magnitude (Debye)      :      0.00002

Rotational constants in cm-1:     0.031031     0.030479     0.016703
Rotational constants in MHz :   930.298795   913.741893   500.752460

                             ****ORCA TERMINATED NORMALLY****
TOTAL RUN TIME: 0 days 18 hours 27 minutes 32 seconds 669 msec
