                         Program Version 5.0.4 -  RELEASE  -
|  1> ! ri-mp2 aug-cc-pvdz aug-cc-pvdz/c tightscf
|  2> %pal nprocs 16 end
|  3> %maxcore 3800
|  4> %base "DZ_S66by10_13_0.7_dimer"
|  5> %scf STABPerform true end
|  6>
|  7> *xyz 0 1
|  8> C   -0.84931672   -0.33949876    2.49171664
|  9> H    0.18434396   -0.01104732    2.41618542
| 10> H   -0.88249791   -1.34205140    2.91270310
| 11> H   -1.39080263    0.31687828    3.16842897
| 12> C   -1.56403192   -0.35332311    1.15947545
| 13> O   -2.74952638   -0.65153776    1.05676087
| 14> N   -0.80165352   -0.02735461    0.08834167
| 15> H    0.16118756    0.24036035    0.21871364
| 16> C   -1.38534986   -0.00235149   -1.23413683
| 17> H   -1.89161720   -0.94280123   -1.44009631
| 18> H   -2.11997230    0.79621180   -1.33087952
| 19> H   -0.59464593    0.14957065   -1.96312772
| 20> O    1.56195245    0.24862440    0.38531652
| 21> H    2.28280726    0.87592402    0.47573133
| 22> C    2.08103661   -1.05674126    0.61919831
| 23> H    1.24846511   -1.74552895    0.51362174
| 24> H    2.84717537   -1.32573401   -0.10768247
| 25> H    2.48913366   -1.15819046    1.62483280
| 26> *
| 27>
| 28> $new_job
| 29> ! ri-mp2 aug-cc-pvtz aug-cc-pvtz/c tightscf
| 30> %pal nprocs 16 end
| 31> %maxcore 3800
| 32> %base "TZ_S66by10_13_0.7_dimer"
| 33>
| 34> *xyz 0 1
| 35> C   -0.84931672   -0.33949876    2.49171664
| 36> H    0.18434396   -0.01104732    2.41618542
| 37> H   -0.88249791   -1.34205140    2.91270310
| 38> H   -1.39080263    0.31687828    3.16842897
| 39> C   -1.56403192   -0.35332311    1.15947545
| 40> O   -2.74952638   -0.65153776    1.05676087
| 41> N   -0.80165352   -0.02735461    0.08834167
| 42> H    0.16118756    0.24036035    0.21871364
| 43> C   -1.38534986   -0.00235149   -1.23413683
| 44> H   -1.89161720   -0.94280123   -1.44009631
| 45> H   -2.11997230    0.79621180   -1.33087952
| 46> H   -0.59464593    0.14957065   -1.96312772
| 47> O    1.56195245    0.24862440    0.38531652
| 48> H    2.28280726    0.87592402    0.47573133
| 49> C    2.08103661   -1.05674126    0.61919831
| 50> H    1.24846511   -1.74552895    0.51362174
| 51> H    2.84717537   -1.32573401   -0.10768247
| 52> H    2.48913366   -1.15819046    1.62483280
| 53> *
| 54>
| 55> $new_job
| 56> ! ri-mp2 aug-cc-pvqz aug-cc-pvqz/c tightscf
| 57> %pal nprocs 16 end
| 58> %maxcore 3800
| 59> %base "QZ_S66by10_13_0.7_dimer"
| 60>
| 61> *xyz 0 1
| 62> C   -0.84931672   -0.33949876    2.49171664
| 63> H    0.18434396   -0.01104732    2.41618542
| 64> H   -0.88249791   -1.34205140    2.91270310
| 65> H   -1.39080263    0.31687828    3.16842897
| 66> C   -1.56403192   -0.35332311    1.15947545
| 67> O   -2.74952638   -0.65153776    1.05676087
| 68> N   -0.80165352   -0.02735461    0.08834167
| 69> H    0.16118756    0.24036035    0.21871364
| 70> C   -1.38534986   -0.00235149   -1.23413683
| 71> H   -1.89161720   -0.94280123   -1.44009631
| 72> H   -2.11997230    0.79621180   -1.33087952
| 73> H   -0.59464593    0.14957065   -1.96312772
| 74> O    1.56195245    0.24862440    0.38531652
| 75> H    2.28280726    0.87592402    0.47573133
| 76> C    2.08103661   -1.05674126    0.61919831
| 77> H    1.24846511   -1.74552895    0.51362174
| 78> H    2.84717537   -1.32573401   -0.10768247
| 79> H    2.48913366   -1.15819046    1.62483280
| 80> *
| 81>
| 82>
| 83>
| 84>
| 85>                          ****END OF INPUT****
 Total Charge           Charge          ....    0
 Multiplicity           Mult            ....    1
 Number of Electrons    NEL             ....   58
MP2 TOTAL ENERGY:     -363.262832652 Eh
FINAL SINGLE POINT ENERGY      -363.262832651669
MP2 TOTAL ENERGY:     -363.594079986 Eh
FINAL SINGLE POINT ENERGY      -363.594079986300

CARTESIAN COORDINATES (ANGSTROEM)
---------------------------------
  C     -0.849317   -0.339499    2.491717
  H      0.184344   -0.011047    2.416185
  H     -0.882498   -1.342051    2.912703
  H     -1.390803    0.316878    3.168429
  C     -1.564032   -0.353323    1.159475
  O     -2.749526   -0.651538    1.056761
  N     -0.801654   -0.027355    0.088342
  H      0.161188    0.240360    0.218714
  C     -1.385350   -0.002351   -1.234137
  H     -1.891617   -0.942801   -1.440096
  H     -2.119972    0.796212   -1.330880
  H     -0.594646    0.149571   -1.963128
  O      1.561952    0.248624    0.385317
  H      2.282807    0.875924    0.475731
  C      2.081037   -1.056741    0.619198
  H      1.248465   -1.745529    0.513622
  H      2.847175   -1.325734   -0.107682
  H      2.489134   -1.158190    1.624833

 Multiplicity           Mult            ....    1
 Number of Electrons    NEL             ....   58
 Basis Dimension        Dim             .... 1066

ORBITAL ENERGIES
----------------

  NO   OCC          E(Eh)            E(eV)
   0   2.0000     -20.604824      -560.6858
   1   2.0000     -20.482498      -557.3571
   2   2.0000     -15.532535      -422.6618
   3   2.0000     -11.316723      -307.9437
   4   2.0000     -11.301584      -307.5317
   5   2.0000     -11.232757      -305.6589
   6   2.0000     -11.215942      -305.2013
   7   2.0000      -1.418970       -38.6121
   8   2.0000      -1.346021       -36.6271
   9   2.0000      -1.196980       -32.5715
  10   2.0000      -0.997427       -27.1414
  11   2.0000      -0.965389       -26.2696
  12   2.0000      -0.909362       -24.7450
  13   2.0000      -0.808681       -22.0053
  14   2.0000      -0.720929       -19.6175
  15   2.0000      -0.672886       -18.3102
  16   2.0000      -0.667037       -18.1510
  17   2.0000      -0.635891       -17.3035
  18   2.0000      -0.617879       -16.8134
  19   2.0000      -0.608607       -16.5610
  20   2.0000      -0.566710       -15.4210
  21   2.0000      -0.564678       -15.3657
  22   2.0000      -0.553718       -15.0674
  23   2.0000      -0.527891       -14.3646
  24   2.0000      -0.505951       -13.7676
  25   2.0000      -0.496630       -13.5140
  26   2.0000      -0.477067       -12.9817
  27   2.0000      -0.395111       -10.7515
  28   2.0000      -0.359267        -9.7761
  29   0.0000       0.012487         0.3398
  30   0.0000       0.027256         0.7417
  31   0.0000       0.028092         0.7644
  32   0.0000       0.037355         1.0165
  33   0.0000       0.046906         1.2764

MULLIKEN ATOMIC CHARGES
-----------------------
   0 C :   -0.848683
   1 H :    0.264654
   2 H :    0.235347
   3 H :    0.294371
   4 C :    0.963255
   5 O :   -0.915454
   6 N :   -0.490364
   7 H :    0.475103
   8 C :   -0.880084
   9 H :    0.302516
  10 H :    0.329647
  11 H :    0.294620
  12 O :   -0.674889
  13 H :    0.316260
  14 C :   -0.692641
  15 H :    0.290590
  16 H :    0.415356
  17 H :    0.320396
Sum of atomic charges:    0.0000000

LOEWDIN ATOMIC CHARGES
----------------------
   0 C :    0.886807
   1 H :   -0.356583
   2 H :   -0.295094
   3 H :   -0.297475
   4 C :   -0.838853
   5 O :    0.683385
   6 N :    0.791017
   7 H :   -1.064317
   8 C :    0.777371
   9 H :   -0.307433
  10 H :   -0.289371
  11 H :   -0.296014
  12 O :    1.420013
  13 H :   -0.638684
  14 C :    0.707179
  15 H :   -0.315330
  16 H :   -0.282427
  17 H :   -0.284190

  Mayer bond orders larger than 0.100000
B(  0-C ,  1-H ) :   0.9830 B(  0-C ,  2-H ) :   0.9671 B(  0-C ,  3-H ) :   0.9405
B(  0-C ,  4-C ) :   0.8656 B(  0-C ,  5-O ) :   0.1046 B(  4-C ,  5-O ) :   1.0987
B(  4-C ,  6-N ) :   1.2949 B(  5-O ,  6-N ) :   0.3101 B(  6-N ,  7-H ) :   0.7508
B(  6-N ,  8-C ) :   0.8988 B(  8-C ,  9-H ) :   0.9532 B(  8-C , 10-H ) :   0.9393
B(  8-C , 11-H ) :   0.9220 B( 12-O , 13-H ) :   0.9268 B( 12-O , 14-C ) :   0.8178
B( 14-C , 15-H ) :   0.9098 B( 14-C , 16-H ) :   0.8216 B( 14-C , 17-H ) :   0.8927

MP2 TOTAL ENERGY:     -363.698792682 Eh
FINAL SINGLE POINT ENERGY      -363.698792681971

DIPOLE MOMENT
-------------
                                X             Y             Z
Electronic contribution:     -4.05532       1.05811       0.47132
Nuclear contribution   :      6.94486      -0.73942      -0.52109
                        -----------------------------------------
Total Dipole Moment    :      2.88953       0.31869      -0.04977
                        -----------------------------------------
Magnitude (a.u.)       :      2.90748
Magnitude (Debye)      :      7.39023

Rotational constants in cm-1:     0.112149     0.053494     0.039996
Rotational constants in MHz :  3362.156624  1603.720146  1199.048981

                             ****ORCA TERMINATED NORMALLY****
TOTAL RUN TIME: 0 days 2 hours 17 minutes 33 seconds 446 msec
