                         Program Version 5.0.4 -  RELEASE  -
|  1> ! ri-mp2 aug-cc-pvdz aug-cc-pvdz/c tightscf
|  2> %pal nprocs 16 end
|  3> %maxcore 3800
|  4> %base "DZ_S66by10_2_0.8_dimer"
|  5> %scf STABPerform true end
|  6>
|  7> *xyz 0 1
|  8> O   -0.52532979   -0.05097108   -0.31451686
|  9> H   -0.94200663    0.74790163    0.01125282
| 10> H    0.40369652    0.05978598   -0.07356837
| 11> O    1.96921304    0.04809526    0.04544654
| 12> H    2.33719586   -0.52398214    0.72297486
| 13> C    2.43421811   -0.42353466   -1.21671257
| 14> H    2.00340102    0.22755903   -1.96982660
| 15> H    3.52018180   -0.37274180   -1.29102450
| 16> H    2.10587549   -1.44340415   -1.41579321
| 17> *
| 18>
| 19> $new_job
| 20> ! ri-mp2 aug-cc-pvtz aug-cc-pvtz/c tightscf
| 21> %pal nprocs 16 end
| 22> %maxcore 3800
| 23> %base "TZ_S66by10_2_0.8_dimer"
| 24>
| 25> *xyz 0 1
| 26> O   -0.52532979   -0.05097108   -0.31451686
| 27> H   -0.94200663    0.74790163    0.01125282
| 28> H    0.40369652    0.05978598   -0.07356837
| 29> O    1.96921304    0.04809526    0.04544654
| 30> H    2.33719586   -0.52398214    0.72297486
| 31> C    2.43421811   -0.42353466   -1.21671257
| 32> H    2.00340102    0.22755903   -1.96982660
| 33> H    3.52018180   -0.37274180   -1.29102450
| 34> H    2.10587549   -1.44340415   -1.41579321
| 35> *
| 36>
| 37> $new_job
| 38> ! ri-mp2 aug-cc-pvqz aug-cc-pvqz/c tightscf
| 39> %pal nprocs 16 end
| 40> %maxcore 3800
| 41> %base "QZ_S66by10_2_0.8_dimer"
| 42>
| 43> *xyz 0 1
| 44> O   -0.52532979   -0.05097108   -0.31451686
| 45> H   -0.94200663    0.74790163    0.01125282
| 46> H    0.40369652    0.05978598   -0.07356837
| 47> O    1.96921304    0.04809526    0.04544654
| 48> H    2.33719586   -0.52398214    0.72297486
| 49> C    2.43421811   -0.42353466   -1.21671257
| 50> H    2.00340102    0.22755903   -1.96982660
| 51> H    3.52018180   -0.37274180   -1.29102450
| 52> H    2.10587549   -1.44340415   -1.41579321
| 53> *
| 54>
| 55>
| 56>
| 57>
| 58>                          ****END OF INPUT****
 Total Charge           Charge          ....    0
 Multiplicity           Mult            ....    1
 Number of Electrons    NEL             ....   28
MP2 TOTAL ENERGY:     -191.687338820 Eh
FINAL SINGLE POINT ENERGY      -191.687338819846
MP2 TOTAL ENERGY:     -191.863174769 Eh
FINAL SINGLE POINT ENERGY      -191.863174768630

CARTESIAN COORDINATES (ANGSTROEM)
---------------------------------
  O     -0.525330   -0.050971   -0.314517
  H     -0.942007    0.747902    0.011253
  H      0.403697    0.059786   -0.073568
  O      1.969213    0.048095    0.045447
  H      2.337196   -0.523982    0.722975
  C      2.434218   -0.423535   -1.216713
  H      2.003401    0.227559   -1.969827
  H      3.520182   -0.372742   -1.291025
  H      2.105875   -1.443404   -1.415793

 Multiplicity           Mult            ....    1
 Number of Electrons    NEL             ....   28
 Basis Dimension        Dim             ....  516

ORBITAL ENERGIES
----------------

  NO   OCC          E(Eh)            E(eV)
   0   2.0000     -20.586621      -560.1904
   1   2.0000     -20.512384      -558.1704
   2   2.0000     -11.284773      -307.0743
   3   2.0000      -1.394973       -37.9591
   4   2.0000      -1.306013       -35.5384
   5   2.0000      -0.946271       -25.7493
   6   2.0000      -0.736314       -20.0361
   7   2.0000      -0.689612       -18.7653
   8   2.0000      -0.631484       -17.1836
   9   2.0000      -0.613237       -16.6870
  10   2.0000      -0.554157       -15.0794
  11   2.0000      -0.519529       -14.1371
  12   2.0000      -0.475853       -12.9486
  13   2.0000      -0.464725       -12.6458
  14   0.0000       0.021728         0.5912
  15   0.0000       0.036110         0.9826
  16   0.0000       0.039553         1.0763
  17   0.0000       0.043606         1.1866
  18   0.0000       0.057295         1.5591

MULLIKEN ATOMIC CHARGES
-----------------------
   0 O :   -0.671172
   1 H :    0.302139
   2 H :    0.252227
   3 O :   -0.600721
   4 H :    0.344851
   5 C :   -0.542211
   6 H :    0.290466
   7 H :    0.364469
   8 H :    0.259953
Sum of atomic charges:   -0.0000000

LOEWDIN ATOMIC CHARGES
----------------------
   0 O :    1.616037
   1 H :   -0.780274
   2 H :   -1.223722
   3 O :    1.337583
   4 H :   -0.697346
   5 C :    0.662617
   6 H :   -0.317900
   7 H :   -0.303091
   8 H :   -0.293904

  Mayer bond orders larger than 0.100000
B(  0-O ,  1-H ) :   0.9522 B(  0-O ,  2-H ) :   0.9579 B(  2-H ,  3-O ) :   0.1147
B(  3-O ,  4-H ) :   0.8684 B(  3-O ,  5-C ) :   0.8424 B(  5-C ,  6-H ) :   0.9116
B(  5-C ,  7-H ) :   0.8541 B(  5-C ,  8-H ) :   0.9246

MP2 TOTAL ENERGY:     -191.920027197 Eh
FINAL SINGLE POINT ENERGY      -191.920027197491

DIPOLE MOMENT
-------------
                                X             Y             Z
Electronic contribution:     -0.73056       0.48222       1.38734
Nuclear contribution   :      1.87596      -0.49530      -1.17541
                        -----------------------------------------
Total Dipole Moment    :      1.14540      -0.01308       0.21193
                        -----------------------------------------
Magnitude (a.u.)       :      1.16491
Magnitude (Debye)      :      2.96097

Rotational constants in cm-1:     0.921014     0.178368     0.156286
Rotational constants in MHz : 27611.311110  5347.331794  4685.321864

                             ****ORCA TERMINATED NORMALLY****
TOTAL RUN TIME: 0 days 0 hours 12 minutes 53 seconds 799 msec
