                         Program Version 5.0.4 -  RELEASE  -
|  1> ! ri-mp2 aug-cc-pvdz aug-cc-pvdz/c tightscf
|  2> %pal nprocs 16 end
|  3> %maxcore 3800
|  4> %base "DZ_S66by10_40_1.1_dimer"
|  5>
|  6> *xyz 0 1
|  7> C    0.31195353    0.56102334    0.49669886
|  8> H    0.74213608    1.55336911    0.48156571
|  9> C    1.14218235   -0.55807461    0.53606185
| 10> H    2.21651131   -0.43425014    0.55235015
| 11> C    0.58780415   -1.83668704    0.55414435
| 12> H    1.23191239   -2.70484153    0.58522179
| 13> C   -0.79665772   -1.99637562    0.53296300
| 14> H   -1.22677442   -2.98844427    0.54863708
| 15> C   -1.62689297   -0.87747365    0.49416828
| 16> H   -2.70112211   -1.00134997    0.47981498
| 17> C   -1.07266525    0.40120590    0.47597397
| 18> H   -1.71697357    1.26940117    0.44591995
| 19> C    0.15786058    0.49605964    5.14698006
| 20> C    1.60410926    0.67484700    4.69201858
| 21> H    2.01996598    1.60812487    5.07544156
| 22> H    2.22750858   -0.14576863    5.05087245
| 23> H    1.66471839    0.69423828    3.60308436
| 24> C    0.10346921    0.46468850    6.67184538
| 25> H   -0.92232082    0.33726808    7.02093315
| 26> H    0.69887511   -0.36099837    7.06439912
| 27> H    0.49176369    1.39257313    7.09475096
| 28> C   -0.39151946   -0.81343234    4.58668404
| 29> H   -1.42639306   -0.96370737    4.89935563
| 30> H    0.19493712   -1.66240610    4.94249531
| 31> H   -0.36273963   -0.81388511    3.49636980
| 32> C   -0.68351220    1.66063132    4.63077459
| 33> H   -0.66197125    1.69666172    3.54077603
| 34> H   -1.72330135    1.55686175    4.94525707
| 35> H   -0.30785961    2.61132580    5.01288150
| 36> *
| 37>
| 38> $new_job
| 39> ! ri-mp2 aug-cc-pvtz aug-cc-pvtz/c tightscf
| 40> %pal nprocs 16 end
| 41> %maxcore 3800
| 42> %base "TZ_S66by10_40_1.1_dimer"
| 43>
| 44> *xyz 0 1
| 45> C    0.31195353    0.56102334    0.49669886
| 46> H    0.74213608    1.55336911    0.48156571
| 47> C    1.14218235   -0.55807461    0.53606185
| 48> H    2.21651131   -0.43425014    0.55235015
| 49> C    0.58780415   -1.83668704    0.55414435
| 50> H    1.23191239   -2.70484153    0.58522179
| 51> C   -0.79665772   -1.99637562    0.53296300
| 52> H   -1.22677442   -2.98844427    0.54863708
| 53> C   -1.62689297   -0.87747365    0.49416828
| 54> H   -2.70112211   -1.00134997    0.47981498
| 55> C   -1.07266525    0.40120590    0.47597397
| 56> H   -1.71697357    1.26940117    0.44591995
| 57> C    0.15786058    0.49605964    5.14698006
| 58> C    1.60410926    0.67484700    4.69201858
| 59> H    2.01996598    1.60812487    5.07544156
| 60> H    2.22750858   -0.14576863    5.05087245
| 61> H    1.66471839    0.69423828    3.60308436
| 62> C    0.10346921    0.46468850    6.67184538
| 63> H   -0.92232082    0.33726808    7.02093315
| 64> H    0.69887511   -0.36099837    7.06439912
| 65> H    0.49176369    1.39257313    7.09475096
| 66> C   -0.39151946   -0.81343234    4.58668404
| 67> H   -1.42639306   -0.96370737    4.89935563
| 68> H    0.19493712   -1.66240610    4.94249531
| 69> H   -0.36273963   -0.81388511    3.49636980
| 70> C   -0.68351220    1.66063132    4.63077459
| 71> H   -0.66197125    1.69666172    3.54077603
| 72> H   -1.72330135    1.55686175    4.94525707
| 73> H   -0.30785961    2.61132580    5.01288150
| 74> *
| 75>
| 76> $new_job
| 77> ! ri-mp2 aug-cc-pvqz aug-cc-pvqz/c tightscf
| 78> %pal nprocs 16 end
| 79> %maxcore 3800
| 80> %base "QZ_S66by10_40_1.1_dimer"
| 81>
| 82> *xyz 0 1
| 83> C    0.31195353    0.56102334    0.49669886
| 84> H    0.74213608    1.55336911    0.48156571
| 85> C    1.14218235   -0.55807461    0.53606185
| 86> H    2.21651131   -0.43425014    0.55235015
| 87> C    0.58780415   -1.83668704    0.55414435
| 88> H    1.23191239   -2.70484153    0.58522179
| 89> C   -0.79665772   -1.99637562    0.53296300
| 90> H   -1.22677442   -2.98844427    0.54863708
| 91> C   -1.62689297   -0.87747365    0.49416828
| 92> H   -2.70112211   -1.00134997    0.47981498
| 93> C   -1.07266525    0.40120590    0.47597397
| 94> H   -1.71697357    1.26940117    0.44591995
| 95> C    0.15786058    0.49605964    5.14698006
| 96> C    1.60410926    0.67484700    4.69201858
| 97> H    2.01996598    1.60812487    5.07544156
| 98> H    2.22750858   -0.14576863    5.05087245
| 99> H    1.66471839    0.69423828    3.60308436
|100> C    0.10346921    0.46468850    6.67184538
|101> H   -0.92232082    0.33726808    7.02093315
|102> H    0.69887511   -0.36099837    7.06439912
|103> H    0.49176369    1.39257313    7.09475096
|104> C   -0.39151946   -0.81343234    4.58668404
|105> H   -1.42639306   -0.96370737    4.89935563
|106> H    0.19493712   -1.66240610    4.94249531
|107> H   -0.36273963   -0.81388511    3.49636980
|108> C   -0.68351220    1.66063132    4.63077459
|109> H   -0.66197125    1.69666172    3.54077603
|110> H   -1.72330135    1.55686175    4.94525707
|111> H   -0.30785961    2.61132580    5.01288150
|112> *
|113>
|114>
|115>
|116>
|117>                          ****END OF INPUT****
 Total Charge           Charge          ....    0
 Multiplicity           Mult            ....    1
 Number of Electrons    NEL             ....   84
MP2 TOTAL ENERGY:     -428.668631215 Eh
FINAL SINGLE POINT ENERGY      -428.668631215141
MP2 TOTAL ENERGY:     -429.068998058 Eh
FINAL SINGLE POINT ENERGY      -429.068998057872

CARTESIAN COORDINATES (ANGSTROEM)
---------------------------------
  C      0.311954    0.561023    0.496699
  H      0.742136    1.553369    0.481566
  C      1.142182   -0.558075    0.536062
  H      2.216511   -0.434250    0.552350
  C      0.587804   -1.836687    0.554144
  H      1.231912   -2.704842    0.585222
  C     -0.796658   -1.996376    0.532963
  H     -1.226774   -2.988444    0.548637
  C     -1.626893   -0.877474    0.494168
  H     -2.701122   -1.001350    0.479815
  C     -1.072665    0.401206    0.475974
  H     -1.716974    1.269401    0.445920
  C      0.157861    0.496060    5.146980
  C      1.604109    0.674847    4.692019
  H      2.019966    1.608125    5.075442
  H      2.227509   -0.145769    5.050872
  H      1.664718    0.694238    3.603084
  C      0.103469    0.464689    6.671845
  H     -0.922321    0.337268    7.020933
  H      0.698875   -0.360998    7.064399
  H      0.491764    1.392573    7.094751
  C     -0.391519   -0.813432    4.586684
  H     -1.426393   -0.963707    4.899356
  H      0.194937   -1.662406    4.942495
  H     -0.362740   -0.813885    3.496370
  C     -0.683512    1.660631    4.630775
  H     -0.661971    1.696662    3.540776
  H     -1.723301    1.556862    4.945257
  H     -0.307860    2.611326    5.012881

 Multiplicity           Mult            ....    1
 Number of Electrons    NEL             ....   84
 Basis Dimension        Dim             .... 1708

ORBITAL ENERGIES
----------------

  NO   OCC          E(Eh)            E(eV)
   0   2.0000     -11.237009      -305.7746
   1   2.0000     -11.236418      -305.7585
   2   2.0000     -11.236407      -305.7582
   3   2.0000     -11.235186      -305.7249
   4   2.0000     -11.235163      -305.7243
   5   2.0000     -11.234546      -305.7076
   6   2.0000     -11.219443      -305.2966
   7   2.0000     -11.199857      -304.7636
   8   2.0000     -11.198902      -304.7376
   9   2.0000     -11.198881      -304.7371
  10   2.0000     -11.195424      -304.6430
  11   2.0000      -1.152148       -31.3515
  12   2.0000      -1.100106       -29.9354
  13   2.0000      -1.016497       -27.6603
  14   2.0000      -1.016487       -27.6600
  15   2.0000      -0.923618       -25.1329
  16   2.0000      -0.922957       -25.1149
  17   2.0000      -0.920774       -25.0555
  18   2.0000      -0.825911       -22.4742
  19   2.0000      -0.825874       -22.4732
  20   2.0000      -0.723630       -19.6910
  21   2.0000      -0.711614       -19.3640
  22   2.0000      -0.645944       -17.5770
  23   2.0000      -0.621070       -16.9002
  24   2.0000      -0.606377       -16.5004
  25   2.0000      -0.605984       -16.4897
  26   2.0000      -0.605699       -16.4819
  27   2.0000      -0.589991       -16.0545
  28   2.0000      -0.589951       -16.0534
  29   2.0000      -0.547308       -14.8930
  30   2.0000      -0.547114       -14.8877
  31   2.0000      -0.508407       -13.8345
  32   2.0000      -0.504281       -13.7222
  33   2.0000      -0.503030       -13.6881
  34   2.0000      -0.499891       -13.6027
  35   2.0000      -0.496819       -13.5191
  36   2.0000      -0.496756       -13.5174
  37   2.0000      -0.446471       -12.1491
  38   2.0000      -0.445961       -12.1352
  39   2.0000      -0.445323       -12.1178
  40   2.0000      -0.339071        -9.2266
  41   2.0000      -0.339042        -9.2258
  42   0.0000       0.022519         0.6128
  43   0.0000       0.028129         0.7654
  44   0.0000       0.028484         0.7751
  45   0.0000       0.031663         0.8616
  46   0.0000       0.039911         1.0860

MULLIKEN ATOMIC CHARGES
-----------------------
   0 C :   -0.305853
   1 H :    0.329600
   2 C :   -0.358919
   3 H :    0.281155
   4 C :   -0.301124
   5 H :    0.312762
   6 C :   -0.262883
   7 H :    0.332737
   8 C :   -0.300528
   9 H :    0.312486
  10 C :   -0.358284
  11 H :    0.281205
  12 C :    1.737293
  13 C :   -1.299405
  14 H :    0.242808
  15 H :    0.213965
  16 H :    0.402035
  17 C :   -1.105363
  18 H :    0.224522
  19 H :    0.224600
  20 H :    0.238183
  21 C :   -1.414547
  22 H :    0.246452
  23 H :    0.246651
  24 H :    0.521312
  25 C :   -1.299695
  26 H :    0.402080
  27 H :    0.213985
  28 H :    0.242769
Sum of atomic charges:   -0.0000000

LOEWDIN ATOMIC CHARGES
----------------------
   0 C :    0.319832
   1 H :   -0.321555
   2 C :    0.323765
   3 H :   -0.322389
   4 C :    0.328190
   5 H :   -0.323123
   6 C :    0.327336
   7 H :   -0.323325
   8 C :    0.328236
   9 H :   -0.323133
  10 C :    0.323740
  11 H :   -0.322389
  12 C :   -0.329855
  13 C :    0.900595
  14 H :   -0.269252
  15 H :   -0.269125
  16 H :   -0.282362
  17 C :    0.901515
  18 H :   -0.271967
  19 H :   -0.271942
  20 H :   -0.271764
  21 C :    0.898743
  22 H :   -0.265784
  23 H :   -0.265777
  24 H :   -0.298059
  25 C :    0.900576
  26 H :   -0.282363
  27 H :   -0.269101
  28 H :   -0.269264

  Mayer bond orders larger than 0.100000
B(  0-C ,  1-H ) :   1.0025 B(  0-C ,  2-C ) :   1.2209 B(  0-C ,  6-C ) :   0.1553
B(  0-C , 10-C ) :   1.2209 B(  2-C ,  3-H ) :   1.0654 B(  2-C ,  4-C ) :   1.2276
B(  2-C ,  8-C ) :   0.1674 B(  4-C ,  5-H ) :   1.0505 B(  4-C ,  6-C ) :   1.2082
B(  4-C , 10-C ) :   0.1673 B(  6-C ,  7-H ) :   1.0289 B(  6-C ,  8-C ) :   1.2083
B(  8-C ,  9-H ) :   1.0506 B(  8-C , 10-C ) :   1.2270 B( 10-C , 11-H ) :   1.0651
B( 12-C , 13-C ) :   0.3948 B( 12-C , 17-C ) :   0.1461 B( 12-C , 18-H ) :  -0.1432
B( 12-C , 19-H ) :  -0.1433 B( 12-C , 20-H ) :  -0.1376 B( 12-C , 21-C ) :   0.4641
B( 12-C , 24-H ) :  -0.1638 B( 12-C , 25-C ) :   0.3950 B( 13-C , 14-H ) :   1.0563
B( 13-C , 15-H ) :   1.0559 B( 13-C , 16-H ) :   0.8684 B( 13-C , 17-C ) :   0.1548
B( 13-C , 21-C ) :   0.1528 B( 13-C , 25-C ) :   0.1483 B( 17-C , 18-H ) :   1.0671
B( 17-C , 19-H ) :   1.0671 B( 17-C , 20-H ) :   1.0632 B( 17-C , 21-C ) :   0.1599
B( 17-C , 25-C ) :   0.1548 B( 21-C , 22-H ) :   1.0084 B( 21-C , 23-H ) :   1.0081
B( 21-C , 24-H ) :   0.8533 B( 21-C , 25-C ) :   0.1530 B( 25-C , 26-H ) :   0.8685
B( 25-C , 27-H ) :   1.0558 B( 25-C , 28-H ) :   1.0563

MP2 TOTAL ENERGY:     -429.191533474 Eh
FINAL SINGLE POINT ENERGY      -429.191533474218

DIPOLE MOMENT
-------------
                                X             Y             Z
Electronic contribution:     -1.27518      -3.86439     -14.70078
Nuclear contribution   :      1.25813       3.81780      14.58652
                        -----------------------------------------
Total Dipole Moment    :     -0.01705      -0.04659      -0.11426
                        -----------------------------------------
Magnitude (a.u.)       :      0.12457
Magnitude (Debye)      :      0.31663

Rotational constants in cm-1:     0.059508     0.015804     0.015711
Rotational constants in MHz :  1784.007482   473.784718   471.010336

                             ****ORCA TERMINATED NORMALLY****
TOTAL RUN TIME: 0 days 1 hours 51 minutes 52 seconds 732 msec
