                         Program Version 5.0.4 -  RELEASE  -
|  1> ! ri-mp2 aug-cc-pvdz aug-cc-pvdz/c tightscf
|  2> %pal nprocs 16 end
|  3> %maxcore 3800
|  4> %base "DZ_S66by10_37_1.25_dimer"
|  5> %scf STABPerform true end
|  6>
|  7> *xyz 0 1
|  8> C    0.79991408   -1.02205164    0.68773696
|  9> H    0.85355588   -1.12205101   -0.39801435
| 10> H    1.49140210   -1.74416936    1.11972040
| 11> C    1.11688700    0.42495279    1.09966205
| 12> H    1.83814230    0.89014504    0.43045256
| 13> H    1.55556959    0.43982464    2.09708356
| 14> C   -0.24455916    1.16568959    1.10297714
| 15> H   -0.25807760    2.00086313    0.40532333
| 16> H   -0.44880450    1.57699582    2.09098447
| 17> C   -1.29871418    0.10381191    0.73930899
| 18> H   -1.47356078    0.10524338   -0.33800545
| 19> H   -2.25673428    0.27804118    1.22715843
| 20> C   -0.64687993   -1.22006836    1.13630660
| 21> H   -1.12443918   -2.08762702    0.68299327
| 22> H   -0.68601864   -1.34528332    2.22022006
| 23> C    0.06645792    0.12655808    6.36046094
| 24> C   -0.02988628   -0.02552790    7.87610142
| 25> H    0.96266009   -0.04099410    8.32845864
| 26> H   -0.58881105    0.80235660    8.31453633
| 27> H   -0.53705097   -0.95419398    8.14145101
| 28> C    0.78051116    1.43346319    6.02483606
| 29> H    0.86203071    1.56696233    4.94515419
| 30> H    0.23703878    2.28815163    6.43033745
| 31> H    1.78811571    1.44411361    6.44306906
| 32> C   -1.33855389    0.14638273    5.76314142
| 33> H   -1.30162230    0.26357266    4.67929245
| 34> H   -1.92085343    0.97380629    6.17148734
| 35> H   -1.86845695   -0.78140412    5.98447071
| 36> C    0.85435773   -1.04692682    5.78312277
| 37> H    0.35913742   -1.99391756    6.00336592
| 38> H    0.94920091   -0.95974406    4.69998799
| 39> H    1.85907582   -1.08433146    6.20687123
| 40> *
| 41>
| 42> $new_job
| 43> ! ri-mp2 aug-cc-pvtz aug-cc-pvtz/c tightscf
| 44> %pal nprocs 16 end
| 45> %maxcore 3800
| 46> %base "TZ_S66by10_37_1.25_dimer"
| 47>
| 48> *xyz 0 1
| 49> C    0.79991408   -1.02205164    0.68773696
| 50> H    0.85355588   -1.12205101   -0.39801435
| 51> H    1.49140210   -1.74416936    1.11972040
| 52> C    1.11688700    0.42495279    1.09966205
| 53> H    1.83814230    0.89014504    0.43045256
| 54> H    1.55556959    0.43982464    2.09708356
| 55> C   -0.24455916    1.16568959    1.10297714
| 56> H   -0.25807760    2.00086313    0.40532333
| 57> H   -0.44880450    1.57699582    2.09098447
| 58> C   -1.29871418    0.10381191    0.73930899
| 59> H   -1.47356078    0.10524338   -0.33800545
| 60> H   -2.25673428    0.27804118    1.22715843
| 61> C   -0.64687993   -1.22006836    1.13630660
| 62> H   -1.12443918   -2.08762702    0.68299327
| 63> H   -0.68601864   -1.34528332    2.22022006
| 64> C    0.06645792    0.12655808    6.36046094
| 65> C   -0.02988628   -0.02552790    7.87610142
| 66> H    0.96266009   -0.04099410    8.32845864
| 67> H   -0.58881105    0.80235660    8.31453633
| 68> H   -0.53705097   -0.95419398    8.14145101
| 69> C    0.78051116    1.43346319    6.02483606
| 70> H    0.86203071    1.56696233    4.94515419
| 71> H    0.23703878    2.28815163    6.43033745
| 72> H    1.78811571    1.44411361    6.44306906
| 73> C   -1.33855389    0.14638273    5.76314142
| 74> H   -1.30162230    0.26357266    4.67929245
| 75> H   -1.92085343    0.97380629    6.17148734
| 76> H   -1.86845695   -0.78140412    5.98447071
| 77> C    0.85435773   -1.04692682    5.78312277
| 78> H    0.35913742   -1.99391756    6.00336592
| 79> H    0.94920091   -0.95974406    4.69998799
| 80> H    1.85907582   -1.08433146    6.20687123
| 81> *
| 82>
| 83> $new_job
| 84> ! ri-mp2 aug-cc-pvqz aug-cc-pvqz/c tightscf
| 85> %pal nprocs 16 end
| 86> %maxcore 3800
| 87> %base "QZ_S66by10_37_1.25_dimer"
| 88>
| 89> *xyz 0 1
| 90> C    0.79991408   -1.02205164    0.68773696
| 91> H    0.85355588   -1.12205101   -0.39801435
| 92> H    1.49140210   -1.74416936    1.11972040
| 93> C    1.11688700    0.42495279    1.09966205
| 94> H    1.83814230    0.89014504    0.43045256
| 95> H    1.55556959    0.43982464    2.09708356
| 96> C   -0.24455916    1.16568959    1.10297714
| 97> H   -0.25807760    2.00086313    0.40532333
| 98> H   -0.44880450    1.57699582    2.09098447
| 99> C   -1.29871418    0.10381191    0.73930899
|100> H   -1.47356078    0.10524338   -0.33800545
|101> H   -2.25673428    0.27804118    1.22715843
|102> C   -0.64687993   -1.22006836    1.13630660
|103> H   -1.12443918   -2.08762702    0.68299327
|104> H   -0.68601864   -1.34528332    2.22022006
|105> C    0.06645792    0.12655808    6.36046094
|106> C   -0.02988628   -0.02552790    7.87610142
|107> H    0.96266009   -0.04099410    8.32845864
|108> H   -0.58881105    0.80235660    8.31453633
|109> H   -0.53705097   -0.95419398    8.14145101
|110> C    0.78051116    1.43346319    6.02483606
|111> H    0.86203071    1.56696233    4.94515419
|112> H    0.23703878    2.28815163    6.43033745
|113> H    1.78811571    1.44411361    6.44306906
|114> C   -1.33855389    0.14638273    5.76314142
|115> H   -1.30162230    0.26357266    4.67929245
|116> H   -1.92085343    0.97380629    6.17148734
|117> H   -1.86845695   -0.78140412    5.98447071
|118> C    0.85435773   -1.04692682    5.78312277
|119> H    0.35913742   -1.99391756    6.00336592
|120> H    0.94920091   -0.95974406    4.69998799
|121> H    1.85907582   -1.08433146    6.20687123
|122> *
|123>
|124>
|125>
|126>
|127>                          ****END OF INPUT****
 Total Charge           Charge          ....    0
 Multiplicity           Mult            ....    1
 Number of Electrons    NEL             ....   82
MP2 TOTAL ENERGY:     -393.047873345 Eh
FINAL SINGLE POINT ENERGY      -393.047873344659
MP2 TOTAL ENERGY:     -393.432041866 Eh
FINAL SINGLE POINT ENERGY      -393.432041865768

CARTESIAN COORDINATES (ANGSTROEM)
---------------------------------
  C      0.799914   -1.022052    0.687737
  H      0.853556   -1.122051   -0.398014
  H      1.491402   -1.744169    1.119720
  C      1.116887    0.424953    1.099662
  H      1.838142    0.890145    0.430453
  H      1.555570    0.439825    2.097084
  C     -0.244559    1.165690    1.102977
  H     -0.258078    2.000863    0.405323
  H     -0.448804    1.576996    2.090984
  C     -1.298714    0.103812    0.739309
  H     -1.473561    0.105243   -0.338005
  H     -2.256734    0.278041    1.227158
  C     -0.646880   -1.220068    1.136307
  H     -1.124439   -2.087627    0.682993
  H     -0.686019   -1.345283    2.220220
  C      0.066458    0.126558    6.360461
  C     -0.029886   -0.025528    7.876101
  H      0.962660   -0.040994    8.328459
  H     -0.588811    0.802357    8.314536
  H     -0.537051   -0.954194    8.141451
  C      0.780511    1.433463    6.024836
  H      0.862031    1.566962    4.945154
  H      0.237039    2.288152    6.430337
  H      1.788116    1.444114    6.443069
  C     -1.338554    0.146383    5.763141
  H     -1.301622    0.263573    4.679292
  H     -1.920853    0.973806    6.171487
  H     -1.868457   -0.781404    5.984471
  C      0.854358   -1.046927    5.783123
  H      0.359137   -1.993918    6.003366
  H      0.949201   -0.959744    4.699988
  H      1.859076   -1.084331    6.206871

 Multiplicity           Mult            ....    1
 Number of Electrons    NEL             ....   82
 Basis Dimension        Dim             .... 1812

ORBITAL ENERGIES
----------------

  NO   OCC          E(Eh)            E(eV)
   0   2.0000     -11.226281      -305.4826
   1   2.0000     -11.209885      -305.0365
   2   2.0000     -11.209463      -305.0250
   3   2.0000     -11.209337      -305.0216
   4   2.0000     -11.208858      -305.0085
   5   2.0000     -11.208509      -304.9990
   6   2.0000     -11.205242      -304.9101
   7   2.0000     -11.205223      -304.9096
   8   2.0000     -11.205068      -304.9054
   9   2.0000     -11.204858      -304.8997
  10   2.0000      -1.116062       -30.3696
  11   2.0000      -1.106732       -30.1157
  12   2.0000      -0.956993       -26.0411
  13   2.0000      -0.956612       -26.0307
  14   2.0000      -0.929488       -25.2927
  15   2.0000      -0.929126       -25.2828
  16   2.0000      -0.928896       -25.2765
  17   2.0000      -0.777036       -21.1442
  18   2.0000      -0.767918       -20.8961
  19   2.0000      -0.730524       -19.8786
  20   2.0000      -0.650557       -17.7026
  21   2.0000      -0.644979       -17.5508
  22   2.0000      -0.612738       -16.6734
  23   2.0000      -0.612543       -16.6681
  24   2.0000      -0.612063       -16.6551
  25   2.0000      -0.570927       -15.5357
  26   2.0000      -0.568910       -15.4808
  27   2.0000      -0.553693       -15.0668
  28   2.0000      -0.553258       -15.0549
  29   2.0000      -0.510076       -13.8799
  30   2.0000      -0.510033       -13.8787
  31   2.0000      -0.509932       -13.8760
  32   2.0000      -0.475266       -12.9327
  33   2.0000      -0.474980       -12.9249
  34   2.0000      -0.464478       -12.6391
  35   2.0000      -0.461533       -12.5589
  36   2.0000      -0.460199       -12.5226
  37   2.0000      -0.453343       -12.3361
  38   2.0000      -0.453066       -12.3286
  39   2.0000      -0.451844       -12.2953
  40   2.0000      -0.449461       -12.2305
  41   0.0000       0.023488         0.6391
  42   0.0000       0.028253         0.7688
  43   0.0000       0.029508         0.8029
  44   0.0000       0.029828         0.8117
  45   0.0000       0.038429         1.0457

MULLIKEN ATOMIC CHARGES
-----------------------
   0 C :   -0.656637
   1 H :    0.254575
   2 H :    0.299474
   3 C :   -0.625383
   4 H :    0.330298
   5 H :    0.316822
   6 C :   -0.596346
   7 H :    0.322680
   8 H :    0.311331
   9 C :   -0.670226
  10 H :    0.262473
  11 H :    0.299629
  12 C :   -0.594252
  13 H :    0.337685
  14 H :    0.384478
  15 C :    1.767369
  16 C :   -1.121724
  17 H :    0.236522
  18 H :    0.235516
  19 H :    0.223144
  20 C :   -1.298745
  21 H :    0.416976
  22 H :    0.232677
  23 H :    0.235561
  24 C :   -1.336119
  25 H :    0.417367
  26 H :    0.255246
  27 H :    0.210804
  28 C :   -1.333986
  29 H :    0.207794
  30 H :    0.422901
  31 H :    0.252094
Sum of atomic charges:    0.0000000

LOEWDIN ATOMIC CHARGES
----------------------
   0 C :    0.526626
   1 H :   -0.267354
   2 H :   -0.257680
   3 C :    0.541721
   4 H :   -0.263320
   5 H :   -0.278828
   6 C :    0.544042
   7 H :   -0.264559
   8 H :   -0.278296
   9 C :    0.528155
  10 H :   -0.268329
  11 H :   -0.258470
  12 C :    0.516620
  13 H :   -0.254071
  14 H :   -0.272564
  15 C :   -0.332650
  16 C :    0.901487
  17 H :   -0.271363
  18 H :   -0.271336
  19 H :   -0.270907
  20 C :    0.900842
  21 H :   -0.276260
  22 H :   -0.269636
  23 H :   -0.269580
  24 C :    0.900280
  25 H :   -0.278866
  26 H :   -0.269390
  27 H :   -0.269180
  28 C :    0.900345
  29 H :   -0.269250
  30 H :   -0.278789
  31 H :   -0.269439

  Mayer bond orders larger than 0.100000
B(  0-C ,  1-H ) :   0.9416 B(  0-C ,  2-H ) :   0.8710 B(  0-C ,  3-C ) :   1.0122
B(  0-C , 12-C ) :   0.9353 B(  3-C ,  4-H ) :   0.8941 B(  3-C ,  5-H ) :   0.8328
B(  3-C ,  6-C ) :   0.9391 B(  6-C ,  7-H ) :   0.9032 B(  6-C ,  8-H ) :   0.8393
B(  6-C ,  9-C ) :   1.0111 B(  9-C , 10-H ) :   0.9367 B(  9-C , 11-H ) :   0.8708
B(  9-C , 12-C ) :   0.9401 B( 12-C , 13-H ) :   0.8649 B( 12-C , 14-H ) :   0.7490
B( 15-C , 16-C ) :   0.2043 B( 15-C , 17-H ) :  -0.1343 B( 15-C , 18-H ) :  -0.1344
B( 15-C , 19-H ) :  -0.1388 B( 15-C , 20-C ) :   0.3983 B( 15-C , 24-C ) :   0.4016
B( 15-C , 25-H ) :  -0.1098 B( 15-C , 28-C ) :   0.3998 B( 16-C , 17-H ) :   1.0571
B( 16-C , 18-H ) :   1.0570 B( 16-C , 19-H ) :   1.0638 B( 16-C , 20-C ) :   0.1486
B( 16-C , 24-C ) :   0.1530 B( 16-C , 28-C ) :   0.1520 B( 20-C , 21-H ) :   0.8482
B( 20-C , 22-H ) :   1.0504 B( 20-C , 23-H ) :   1.0477 B( 20-C , 24-C ) :   0.1616
B( 20-C , 28-C ) :   0.1594 B( 24-C , 25-H ) :   0.8650 B( 24-C , 26-H ) :   1.0300
B( 24-C , 27-H ) :   1.0517 B( 24-C , 28-C ) :   0.1430 B( 28-C , 29-H ) :   1.0586
B( 28-C , 30-H ) :   0.8524 B( 28-C , 31-H ) :   1.0369

MP2 TOTAL ENERGY:     -393.546881618 Eh
FINAL SINGLE POINT ENERGY      -393.546881618105

DIPOLE MOMENT
-------------
                                X             Y             Z
Electronic contribution:     -0.13087      -0.26633      -4.29841
Nuclear contribution   :      0.12713       0.25860       4.29586
                        -----------------------------------------
Total Dipole Moment    :     -0.00375      -0.00772      -0.00256
                        -----------------------------------------
Magnitude (a.u.)       :      0.00896
Magnitude (Debye)      :      0.02277

Rotational constants in cm-1:     0.068747     0.013678     0.013667
Rotational constants in MHz :  2060.982556   410.060057   409.727161

                             ****ORCA TERMINATED NORMALLY****
TOTAL RUN TIME: 1 days 1 hours 38 minutes 12 seconds 636 msec
