                         Program Version 5.0.4 -  RELEASE  -
|  1> ! ri-mp2 aug-cc-pvdz aug-cc-pvdz/c tightscf
|  2> %pal nprocs 16 end
|  3> %maxcore 3800
|  4> %base "DZ_S66by10_58_0.8_dimer"
|  5>
|  6> *xyz 0 1
|  7> N   -0.94121124    0.79004136    0.01171891
|  8> C   -0.92275524   -0.55237814    0.03537875
|  9> H    0.05724051   -1.01558800    0.05135491
| 10> C   -2.07651907   -1.33301813    0.03929035
| 11> H   -1.99652895   -2.41058573    0.05887720
| 12> C   -3.31631294   -0.70333955    0.01759905
| 13> H   -4.23157489   -1.27908429    0.01979377
| 14> C   -3.34889528    0.68701881   -0.00708596
| 15> H   -4.28544414    1.22610455   -0.02465899
| 16> C   -2.14310382    1.38263356   -0.00889005
| 17> H   -2.13809974    2.46565258   -0.02778297
| 18> N    1.87339180   -0.96755160    0.04340425
| 19> C    3.07517062   -1.56072784    0.04548409
| 20> H    3.06994677   -2.64369029    0.06737325
| 21> C    4.28110686   -0.86576928    0.02148271
| 22> H    5.21754518   -1.40530446    0.02457672
| 23> C    4.24878925    0.52453518   -0.00626400
| 24> H    5.16416419    1.09978623   -0.02544551
| 25> C    3.00910892    1.15482131   -0.00874111
| 26> H    2.92933619    2.23237989   -0.02982967
| 27> C    1.85519535    0.37481169    0.01645256
| 28> H    0.87528495    0.83847427    0.01478971
| 29> *
| 30>
| 31> $new_job
| 32> ! ri-mp2 aug-cc-pvtz aug-cc-pvtz/c tightscf
| 33> %pal nprocs 16 end
| 34> %maxcore 3800
| 35> %base "TZ_S66by10_58_0.8_dimer"
| 36>
| 37> *xyz 0 1
| 38> N   -0.94121124    0.79004136    0.01171891
| 39> C   -0.92275524   -0.55237814    0.03537875
| 40> H    0.05724051   -1.01558800    0.05135491
| 41> C   -2.07651907   -1.33301813    0.03929035
| 42> H   -1.99652895   -2.41058573    0.05887720
| 43> C   -3.31631294   -0.70333955    0.01759905
| 44> H   -4.23157489   -1.27908429    0.01979377
| 45> C   -3.34889528    0.68701881   -0.00708596
| 46> H   -4.28544414    1.22610455   -0.02465899
| 47> C   -2.14310382    1.38263356   -0.00889005
| 48> H   -2.13809974    2.46565258   -0.02778297
| 49> N    1.87339180   -0.96755160    0.04340425
| 50> C    3.07517062   -1.56072784    0.04548409
| 51> H    3.06994677   -2.64369029    0.06737325
| 52> C    4.28110686   -0.86576928    0.02148271
| 53> H    5.21754518   -1.40530446    0.02457672
| 54> C    4.24878925    0.52453518   -0.00626400
| 55> H    5.16416419    1.09978623   -0.02544551
| 56> C    3.00910892    1.15482131   -0.00874111
| 57> H    2.92933619    2.23237989   -0.02982967
| 58> C    1.85519535    0.37481169    0.01645256
| 59> H    0.87528495    0.83847427    0.01478971
| 60> *
| 61>
| 62> $new_job
| 63> ! ri-mp2 aug-cc-pvqz aug-cc-pvqz/c tightscf
| 64> %pal nprocs 16 end
| 65> %maxcore 3800
| 66> %base "QZ_S66by10_58_0.8_dimer"
| 67>
| 68> *xyz 0 1
| 69> N   -0.94121124    0.79004136    0.01171891
| 70> C   -0.92275524   -0.55237814    0.03537875
| 71> H    0.05724051   -1.01558800    0.05135491
| 72> C   -2.07651907   -1.33301813    0.03929035
| 73> H   -1.99652895   -2.41058573    0.05887720
| 74> C   -3.31631294   -0.70333955    0.01759905
| 75> H   -4.23157489   -1.27908429    0.01979377
| 76> C   -3.34889528    0.68701881   -0.00708596
| 77> H   -4.28544414    1.22610455   -0.02465899
| 78> C   -2.14310382    1.38263356   -0.00889005
| 79> H   -2.13809974    2.46565258   -0.02778297
| 80> N    1.87339180   -0.96755160    0.04340425
| 81> C    3.07517062   -1.56072784    0.04548409
| 82> H    3.06994677   -2.64369029    0.06737325
| 83> C    4.28110686   -0.86576928    0.02148271
| 84> H    5.21754518   -1.40530446    0.02457672
| 85> C    4.24878925    0.52453518   -0.00626400
| 86> H    5.16416419    1.09978623   -0.02544551
| 87> C    3.00910892    1.15482131   -0.00874111
| 88> H    2.92933619    2.23237989   -0.02982967
| 89> C    1.85519535    0.37481169    0.01645256
| 90> H    0.87528495    0.83847427    0.01478971
| 91> *
| 92>
| 93>
| 94>
| 95>
| 96>                          ****END OF INPUT****
 Total Charge           Charge          ....    0
 Multiplicity           Mult            ....    1
 Number of Electrons    NEL             ....   84
MP2 TOTAL ENERGY:     -495.119596543 Eh
FINAL SINGLE POINT ENERGY      -495.119596543003
MP2 TOTAL ENERGY:     -495.548455303 Eh
FINAL SINGLE POINT ENERGY      -495.548455303106

CARTESIAN COORDINATES (ANGSTROEM)
---------------------------------
  N     -0.941211    0.790041    0.011719
  C     -0.922755   -0.552378    0.035379
  H      0.057241   -1.015588    0.051355
  C     -2.076519   -1.333018    0.039290
  H     -1.996529   -2.410586    0.058877
  C     -3.316313   -0.703340    0.017599
  H     -4.231575   -1.279084    0.019794
  C     -3.348895    0.687019   -0.007086
  H     -4.285444    1.226105   -0.024659
  C     -2.143104    1.382634   -0.008890
  H     -2.138100    2.465653   -0.027783
  N      1.873392   -0.967552    0.043404
  C      3.075171   -1.560728    0.045484
  H      3.069947   -2.643690    0.067373
  C      4.281107   -0.865769    0.021483
  H      5.217545   -1.405304    0.024577
  C      4.248789    0.524535   -0.006264
  H      5.164164    1.099786   -0.025446
  C      3.009109    1.154821   -0.008741
  H      2.929336    2.232380   -0.029830
  C      1.855195    0.374812    0.016453
  H      0.875285    0.838474    0.014790

 Multiplicity           Mult            ....    1
 Number of Electrons    NEL             ....   84
 Basis Dimension        Dim             .... 1420

ORBITAL ENERGIES
----------------

  NO   OCC          E(Eh)            E(eV)
   0   2.0000     -15.555661      -423.2910
   1   2.0000     -15.555649      -423.2907
   2   2.0000     -11.269613      -306.6618
   3   2.0000     -11.269599      -306.6614
   4   2.0000     -11.252907      -306.2072
   5   2.0000     -11.252895      -306.2068
   6   2.0000     -11.250619      -306.1449
   7   2.0000     -11.250595      -306.1442
   8   2.0000     -11.233657      -305.6833
   9   2.0000     -11.233646      -305.6830
  10   2.0000     -11.229606      -305.5731
  11   2.0000     -11.229592      -305.5727
  12   2.0000      -1.254105       -34.1259
  13   2.0000      -1.246829       -33.9280
  14   2.0000      -1.084050       -29.4985
  15   2.0000      -1.082308       -29.4511
  16   2.0000      -1.028145       -27.9773
  17   2.0000      -1.021461       -27.7954
  18   2.0000      -0.860221       -23.4078
  19   2.0000      -0.855912       -23.2906
  20   2.0000      -0.847221       -23.0541
  21   2.0000      -0.840682       -22.8761
  22   2.0000      -0.733374       -19.9561
  23   2.0000      -0.701426       -19.0868
  24   2.0000      -0.658413       -17.9163
  25   2.0000      -0.655924       -17.8486
  26   2.0000      -0.645597       -17.5676
  27   2.0000      -0.641324       -17.4513
  28   2.0000      -0.600772       -16.3478
  29   2.0000      -0.593818       -16.1586
  30   2.0000      -0.576703       -15.6929
  31   2.0000      -0.550005       -14.9664
  32   2.0000      -0.538002       -14.6398
  33   2.0000      -0.531732       -14.4692
  34   2.0000      -0.513305       -13.9677
  35   2.0000      -0.509468       -13.8633
  36   2.0000      -0.434995       -11.8368
  37   2.0000      -0.385472       -10.4892
  38   2.0000      -0.382277       -10.4023
  39   2.0000      -0.377647       -10.2763
  40   2.0000      -0.339979        -9.2513
  41   2.0000      -0.335971        -9.1422
  42   0.0000       0.022385         0.6091
  43   0.0000       0.024518         0.6672
  44   0.0000       0.027714         0.7541
  45   0.0000       0.034661         0.9432
  46   0.0000       0.035276         0.9599

MULLIKEN ATOMIC CHARGES
-----------------------
   0 N :   -0.394132
   1 C :   -0.284568
   2 H :    0.811464
   3 C :   -0.326299
   4 H :    0.293681
   5 C :   -0.279725
   6 H :    0.279078
   7 C :   -0.184334
   8 H :    0.320955
   9 C :   -0.648415
  10 H :    0.412109
  11 N :   -0.393922
  12 C :   -0.648493
  13 H :    0.412073
  14 C :   -0.184166
  15 H :    0.320966
  16 C :   -0.279818
  17 H :    0.279092
  18 C :   -0.326205
  19 H :    0.293680
  20 C :   -0.284817
  21 H :    0.811797
Sum of atomic charges:   -0.0000000

LOEWDIN ATOMIC CHARGES
----------------------
   0 N :    0.651183
   1 C :    0.117588
   2 H :   -0.612010
   3 C :    0.372313
   4 H :   -0.324397
   5 C :    0.332738
   6 H :   -0.315417
   7 C :    0.332488
   8 H :   -0.333656
   9 C :    0.125110
  10 H :   -0.346124
  11 N :    0.651206
  12 C :    0.125156
  13 H :   -0.346112
  14 C :    0.332507
  15 H :   -0.333663
  16 C :    0.332748
  17 H :   -0.315414
  18 C :    0.372317
  19 H :   -0.324393
  20 C :    0.117642
  21 H :   -0.611809

  Mayer bond orders larger than 0.100000
B(  0-N ,  1-C ) :   1.3724 B(  0-N ,  2-H ) :  -0.1528 B(  0-N ,  9-C ) :   1.4683
B(  0-N , 20-C ) :  -0.1416 B(  0-N , 21-H ) :   0.1945 B(  1-C ,  2-H ) :   0.1207
B(  1-C ,  3-C ) :   1.1085 B(  1-C ,  5-C ) :  -0.4107 B(  1-C , 11-N ) :  -0.1416
B(  1-C , 20-C ) :  -0.1244 B(  1-C , 21-H ) :   0.1300 B(  2-H ,  3-C ) :  -0.2263
B(  2-H , 11-N ) :   0.1948 B(  2-H , 20-C ) :   0.1302 B(  3-C ,  4-H ) :   0.9682
B(  3-C ,  5-C ) :   1.3224 B(  3-C ,  6-H ) :  -0.1206 B(  3-C ,  9-C ) :   0.1278
B(  5-C ,  6-H ) :   1.0722 B(  5-C ,  7-C ) :   1.1937 B(  7-C ,  8-H ) :   1.0146
B(  7-C ,  9-C ) :   1.2289 B(  8-H ,  9-C ) :  -0.1520 B(  9-C , 10-H ) :   0.9409
B( 11-N , 12-C ) :   1.4683 B( 11-N , 20-C ) :   1.3725 B( 11-N , 21-H ) :  -0.1527
B( 12-C , 13-H ) :   0.9410 B( 12-C , 14-C ) :   1.2288 B( 12-C , 15-H ) :  -0.1520
B( 12-C , 18-C ) :   0.1278 B( 14-C , 15-H ) :   1.0146 B( 14-C , 16-C ) :   1.1937
B( 16-C , 17-H ) :   1.0722 B( 16-C , 18-C ) :   1.3224 B( 16-C , 20-C ) :  -0.4106
B( 17-H , 18-C ) :  -0.1206 B( 18-C , 19-H ) :   0.9682 B( 18-C , 20-C ) :   1.1083
B( 18-C , 21-H ) :  -0.2262 B( 20-C , 21-H ) :   0.1206

MP2 TOTAL ENERGY:     -495.685058401 Eh
FINAL SINGLE POINT ENERGY      -495.685058400958

DIPOLE MOMENT
-------------
                                X             Y             Z
Electronic contribution:      0.00020       0.00059       0.02222
Nuclear contribution   :      0.00022      -0.00103      -0.03538
                        -----------------------------------------
Total Dipole Moment    :      0.00042      -0.00043      -0.01316
                        -----------------------------------------
Magnitude (a.u.)       :      0.01318
Magnitude (Debye)      :      0.03349

Rotational constants in cm-1:     0.099734     0.013673     0.012025
Rotational constants in MHz :  2989.950421   409.899917   360.487118

                             ****ORCA TERMINATED NORMALLY****
TOTAL RUN TIME: 0 days 1 hours 33 minutes 1 seconds 180 msec
