                         Program Version 5.0.4 -  RELEASE  -
|  1> ! ri-mp2 aug-cc-pvdz aug-cc-pvdz/c tightscf
|  2> %pal nprocs 16 end
|  3> %maxcore 3800
|  4> %base "DZ_S66by10_52_0.9_dimer"
|  5>
|  6> *xyz 0 1
|  7> C    0.96408039    0.87509331    0.37801364
|  8> H    1.65982961    1.69993082    0.44604227
|  9> C    1.43105709   -0.41313344    0.11899152
| 10> H    2.48952453   -0.58720917   -0.01701261
| 11> C    0.53412766   -1.47763890    0.04241755
| 12> H    0.89696129   -2.47738838   -0.15201199
| 13> C   -0.83032682   -1.25360409    0.22085611
| 14> H   -1.52576001   -2.07962435    0.16411655
| 15> C   -1.29758715    0.03441261    0.48024263
| 16> H   -2.35439607    0.20801612    0.62856096
| 17> C   -0.40044509    1.09977921    0.56160137
| 18> H   -0.76045514    2.09376880    0.78475698
| 19> C   -0.13808965    0.57113195    4.11323227
| 20> O   -0.60627924    1.62057857    3.73397189
| 21> O    0.26512293   -0.40643132    3.27394701
| 22> H    0.09641811   -0.08051773    2.37254176
| 23> C    0.07186465    0.17414486    5.54463806
| 24> H   -0.23810150    0.98348144    6.19462695
| 25> H   -0.50421608   -0.72247911    5.76158918
| 26> H    1.12036207   -0.06198722    5.70965665
| 27> *
| 28>
| 29> $new_job
| 30> ! ri-mp2 aug-cc-pvtz aug-cc-pvtz/c tightscf
| 31> %pal nprocs 16 end
| 32> %maxcore 3800
| 33> %base "TZ_S66by10_52_0.9_dimer"
| 34>
| 35> *xyz 0 1
| 36> C    0.96408039    0.87509331    0.37801364
| 37> H    1.65982961    1.69993082    0.44604227
| 38> C    1.43105709   -0.41313344    0.11899152
| 39> H    2.48952453   -0.58720917   -0.01701261
| 40> C    0.53412766   -1.47763890    0.04241755
| 41> H    0.89696129   -2.47738838   -0.15201199
| 42> C   -0.83032682   -1.25360409    0.22085611
| 43> H   -1.52576001   -2.07962435    0.16411655
| 44> C   -1.29758715    0.03441261    0.48024263
| 45> H   -2.35439607    0.20801612    0.62856096
| 46> C   -0.40044509    1.09977921    0.56160137
| 47> H   -0.76045514    2.09376880    0.78475698
| 48> C   -0.13808965    0.57113195    4.11323227
| 49> O   -0.60627924    1.62057857    3.73397189
| 50> O    0.26512293   -0.40643132    3.27394701
| 51> H    0.09641811   -0.08051773    2.37254176
| 52> C    0.07186465    0.17414486    5.54463806
| 53> H   -0.23810150    0.98348144    6.19462695
| 54> H   -0.50421608   -0.72247911    5.76158918
| 55> H    1.12036207   -0.06198722    5.70965665
| 56> *
| 57>
| 58> $new_job
| 59> ! ri-mp2 aug-cc-pvqz aug-cc-pvqz/c tightscf
| 60> %pal nprocs 16 end
| 61> %maxcore 3800
| 62> %base "QZ_S66by10_52_0.9_dimer"
| 63>
| 64> *xyz 0 1
| 65> C    0.96408039    0.87509331    0.37801364
| 66> H    1.65982961    1.69993082    0.44604227
| 67> C    1.43105709   -0.41313344    0.11899152
| 68> H    2.48952453   -0.58720917   -0.01701261
| 69> C    0.53412766   -1.47763890    0.04241755
| 70> H    0.89696129   -2.47738838   -0.15201199
| 71> C   -0.83032682   -1.25360409    0.22085611
| 72> H   -1.52576001   -2.07962435    0.16411655
| 73> C   -1.29758715    0.03441261    0.48024263
| 74> H   -2.35439607    0.20801612    0.62856096
| 75> C   -0.40044509    1.09977921    0.56160137
| 76> H   -0.76045514    2.09376880    0.78475698
| 77> C   -0.13808965    0.57113195    4.11323227
| 78> O   -0.60627924    1.62057857    3.73397189
| 79> O    0.26512293   -0.40643132    3.27394701
| 80> H    0.09641811   -0.08051773    2.37254176
| 81> C    0.07186465    0.17414486    5.54463806
| 82> H   -0.23810150    0.98348144    6.19462695
| 83> H   -0.50421608   -0.72247911    5.76158918
| 84> H    1.12036207   -0.06198722    5.70965665
| 85> *
| 86>
| 87>
| 88>
| 89>
| 90>                          ****END OF INPUT****
 Total Charge           Charge          ....    0
 Multiplicity           Mult            ....    1
 Number of Electrons    NEL             ....   74
MP2 TOTAL ENERGY:     -460.073232227 Eh
FINAL SINGLE POINT ENERGY      -460.073232226587
MP2 TOTAL ENERGY:     -460.476768326 Eh
FINAL SINGLE POINT ENERGY      -460.476768326078

CARTESIAN COORDINATES (ANGSTROEM)
---------------------------------
  C      0.964080    0.875093    0.378014
  H      1.659830    1.699931    0.446042
  C      1.431057   -0.413133    0.118992
  H      2.489525   -0.587209   -0.017013
  C      0.534128   -1.477639    0.042418
  H      0.896961   -2.477388   -0.152012
  C     -0.830327   -1.253604    0.220856
  H     -1.525760   -2.079624    0.164117
  C     -1.297587    0.034413    0.480243
  H     -2.354396    0.208016    0.628561
  C     -0.400445    1.099779    0.561601
  H     -0.760455    2.093769    0.784757
  C     -0.138090    0.571132    4.113232
  O     -0.606279    1.620579    3.733972
  O      0.265123   -0.406431    3.273947
  H      0.096418   -0.080518    2.372542
  C      0.071865    0.174145    5.544638
  H     -0.238101    0.983481    6.194627
  H     -0.504216   -0.722479    5.761589
  H      1.120362   -0.061987    5.709657

 Multiplicity           Mult            ....    1
 Number of Electrons    NEL             ....   74
 Basis Dimension        Dim             .... 1260

ORBITAL ENERGIES
----------------

  NO   OCC          E(Eh)            E(eV)
   0   2.0000     -20.588683      -560.2466
   1   2.0000     -20.534584      -558.7744
   2   2.0000     -11.375054      -309.5310
   3   2.0000     -11.243604      -305.9540
   4   2.0000     -11.243144      -305.9415
   5   2.0000     -11.241999      -305.9103
   6   2.0000     -11.241416      -305.8945
   7   2.0000     -11.241170      -305.8878
   8   2.0000     -11.239938      -305.8543
   9   2.0000     -11.233961      -305.6916
  10   2.0000      -1.447711       -39.3942
  11   2.0000      -1.345729       -36.6191
  12   2.0000      -1.160920       -31.5902
  13   2.0000      -1.024018       -27.8649
  14   2.0000      -1.023682       -27.8558
  15   2.0000      -1.017308       -27.6824
  16   2.0000      -0.831874       -22.6364
  17   2.0000      -0.831530       -22.6271
  18   2.0000      -0.808871       -22.0105
  19   2.0000      -0.718313       -19.5463
  20   2.0000      -0.693571       -18.8730
  21   2.0000      -0.667470       -18.1628
  22   2.0000      -0.650486       -17.7006
  23   2.0000      -0.637891       -17.3579
  24   2.0000      -0.626872       -17.0581
  25   2.0000      -0.596375       -16.2282
  26   2.0000      -0.595499       -16.2043
  27   2.0000      -0.573079       -15.5943
  28   2.0000      -0.566372       -15.4118
  29   2.0000      -0.550027       -14.9670
  30   2.0000      -0.509116       -13.8538
  31   2.0000      -0.502344       -13.6695
  32   2.0000      -0.501815       -13.6551
  33   2.0000      -0.469754       -12.7826
  34   2.0000      -0.442380       -12.0378
  35   2.0000      -0.347738        -9.4624
  36   2.0000      -0.346514        -9.4291
  37   0.0000       0.022326         0.6075
  38   0.0000       0.029246         0.7958
  39   0.0000       0.030770         0.8373
  40   0.0000       0.033579         0.9137
  41   0.0000       0.043244         1.1767

MULLIKEN ATOMIC CHARGES
-----------------------
   0 C :   -0.396556
   1 H :    0.277766
   2 C :   -0.361838
   3 H :    0.285653
   4 C :   -0.262019
   5 H :    0.313945
   6 C :   -0.360728
   7 H :    0.287897
   8 C :   -0.384729
   9 H :    0.280834
  10 C :   -0.207641
  11 H :    0.338183
  12 C :    0.949054
  13 O :   -0.789121
  14 O :   -0.673066
  15 H :    0.504021
  16 C :   -0.716278
  17 H :    0.319644
  18 H :    0.300067
  19 H :    0.294914
Sum of atomic charges:   -0.0000000

LOEWDIN ATOMIC CHARGES
----------------------
   0 C :    0.336861
   1 H :   -0.309756
   2 C :    0.340895
   3 H :   -0.317001
   4 C :    0.340584
   5 H :   -0.319314
   6 C :    0.341004
   7 H :   -0.316608
   8 C :    0.334892
   9 H :   -0.308590
  10 C :    0.313329
  11 H :   -0.311099
  12 C :   -1.015175
  13 O :    0.706722
  14 O :    1.290338
  15 H :   -1.043922
  16 C :    0.872264
  17 H :   -0.326178
  18 H :   -0.304123
  19 H :   -0.305124

  Mayer bond orders larger than 0.100000
B(  0-C ,  1-H ) :   1.0838 B(  0-C ,  2-C ) :   1.2727 B(  0-C ,  6-C ) :   0.1639
B(  0-C , 10-C ) :   1.1784 B(  2-C ,  3-H ) :   1.0716 B(  2-C ,  4-C ) :   1.1967
B(  2-C ,  8-C ) :   0.1555 B(  4-C ,  5-H ) :   1.0482 B(  4-C ,  6-C ) :   1.2029
B(  6-C ,  7-H ) :   1.0671 B(  6-C ,  8-C ) :   1.2755 B(  8-C ,  9-H ) :   1.0802
B(  8-C , 10-C ) :   1.1693 B( 10-C , 11-H ) :   0.9951 B( 12-C , 13-O ) :   1.3752
B( 12-C , 14-O ) :   1.0173 B( 12-C , 16-C ) :   0.8061 B( 13-O , 15-H ) :   0.1877
B( 14-O , 15-H ) :   0.6798 B( 16-C , 17-H ) :   0.9697 B( 16-C , 18-H ) :   0.9182
B( 16-C , 19-H ) :   0.9276

MP2 TOTAL ENERGY:     -460.605878589 Eh
FINAL SINGLE POINT ENERGY      -460.605878588576

DIPOLE MOMENT
-------------
                                X             Y             Z
Electronic contribution:     -0.57653       1.21980      -2.12337
Nuclear contribution   :      0.85824      -1.87668       2.12674
                        -----------------------------------------
Total Dipole Moment    :      0.28172      -0.65688       0.00337
                        -----------------------------------------
Magnitude (a.u.)       :      0.71474
Magnitude (Debye)      :      1.81674

Rotational constants in cm-1:     0.080089     0.025238     0.024145
Rotational constants in MHz :  2401.009884   756.623278   723.842971

                             ****ORCA TERMINATED NORMALLY****
TOTAL RUN TIME: 0 days 0 hours 55 minutes 18 seconds 914 msec
