                         Program Version 5.0.4 -  RELEASE  -
|  1> ! ri-mp2 aug-cc-pvdz aug-cc-pvdz/c tightscf
|  2> %pal nprocs 16 end
|  3> %maxcore 3800
|  4> %base "DZ_S66by10_41_0.95_dimer"
|  5> %scf STABPerform true end
|  6>
|  7> *xyz 0 1
|  8> N   -0.20890478   -0.96458262    0.53476104
|  9> H   -0.22415099   -1.97310940    0.60508386
| 10> C   -1.44634208   -0.34458112    0.30665858
| 11> O   -2.46123675   -1.01079161    0.19789196
| 12> C   -1.35778219    1.10318559    0.22814378
| 13> H   -2.25657214    1.66773071    0.04984731
| 14> C   -0.16300320    1.70989257    0.38112632
| 15> H   -0.04629046    2.78244591    0.33334968
| 16> N    0.98545210    1.00082412    0.61120636
| 17> H    1.86755978    1.46692777    0.74478430
| 18> C    1.02702092   -0.37917011    0.71264723
| 19> O    2.04919670   -0.99739548    0.93725979
| 20> C    1.13172948    2.35577491    3.94188171
| 21> H    0.70088086    2.66682361    2.98909915
| 22> H    0.49749556    2.76120803    4.73012936
| 23> H    2.11460950    2.81622232    4.03500320
| 24> C    1.20474594    0.83690396    4.03140005
| 25> H    1.63512958    0.54734111    4.99269101
| 26> H    1.87933553    0.44574341    3.26628189
| 27> C   -0.16003925    0.17873731    3.87658330
| 28> H   -0.83128351    0.54761312    4.65820254
| 29> H   -0.60751012    0.48900233    2.92668307
| 30> C   -0.10375031   -1.34194924    3.93621879
| 31> H    0.31985518   -1.64437966    4.89685498
| 32> H    0.58777143   -1.70382818    3.17171636
| 33> C   -1.47303323   -1.98382245    3.75244514
| 34> H   -1.91141223   -1.71036477    2.79225963
| 35> H   -1.41609444   -3.07059084    3.79650233
| 36> H   -2.16099601   -1.65547647    4.53167819
| 37> *
| 38>
| 39> $new_job
| 40> ! ri-mp2 aug-cc-pvtz aug-cc-pvtz/c tightscf
| 41> %pal nprocs 16 end
| 42> %maxcore 3800
| 43> %base "TZ_S66by10_41_0.95_dimer"
| 44>
| 45> *xyz 0 1
| 46> N   -0.20890478   -0.96458262    0.53476104
| 47> H   -0.22415099   -1.97310940    0.60508386
| 48> C   -1.44634208   -0.34458112    0.30665858
| 49> O   -2.46123675   -1.01079161    0.19789196
| 50> C   -1.35778219    1.10318559    0.22814378
| 51> H   -2.25657214    1.66773071    0.04984731
| 52> C   -0.16300320    1.70989257    0.38112632
| 53> H   -0.04629046    2.78244591    0.33334968
| 54> N    0.98545210    1.00082412    0.61120636
| 55> H    1.86755978    1.46692777    0.74478430
| 56> C    1.02702092   -0.37917011    0.71264723
| 57> O    2.04919670   -0.99739548    0.93725979
| 58> C    1.13172948    2.35577491    3.94188171
| 59> H    0.70088086    2.66682361    2.98909915
| 60> H    0.49749556    2.76120803    4.73012936
| 61> H    2.11460950    2.81622232    4.03500320
| 62> C    1.20474594    0.83690396    4.03140005
| 63> H    1.63512958    0.54734111    4.99269101
| 64> H    1.87933553    0.44574341    3.26628189
| 65> C   -0.16003925    0.17873731    3.87658330
| 66> H   -0.83128351    0.54761312    4.65820254
| 67> H   -0.60751012    0.48900233    2.92668307
| 68> C   -0.10375031   -1.34194924    3.93621879
| 69> H    0.31985518   -1.64437966    4.89685498
| 70> H    0.58777143   -1.70382818    3.17171636
| 71> C   -1.47303323   -1.98382245    3.75244514
| 72> H   -1.91141223   -1.71036477    2.79225963
| 73> H   -1.41609444   -3.07059084    3.79650233
| 74> H   -2.16099601   -1.65547647    4.53167819
| 75> *
| 76>
| 77> $new_job
| 78> ! ri-mp2 aug-cc-pvqz aug-cc-pvqz/c tightscf
| 79> %pal nprocs 16 end
| 80> %maxcore 3800
| 81> %base "QZ_S66by10_41_0.95_dimer"
| 82>
| 83> *xyz 0 1
| 84> N   -0.20890478   -0.96458262    0.53476104
| 85> H   -0.22415099   -1.97310940    0.60508386
| 86> C   -1.44634208   -0.34458112    0.30665858
| 87> O   -2.46123675   -1.01079161    0.19789196
| 88> C   -1.35778219    1.10318559    0.22814378
| 89> H   -2.25657214    1.66773071    0.04984731
| 90> C   -0.16300320    1.70989257    0.38112632
| 91> H   -0.04629046    2.78244591    0.33334968
| 92> N    0.98545210    1.00082412    0.61120636
| 93> H    1.86755978    1.46692777    0.74478430
| 94> C    1.02702092   -0.37917011    0.71264723
| 95> O    2.04919670   -0.99739548    0.93725979
| 96> C    1.13172948    2.35577491    3.94188171
| 97> H    0.70088086    2.66682361    2.98909915
| 98> H    0.49749556    2.76120803    4.73012936
| 99> H    2.11460950    2.81622232    4.03500320
|100> C    1.20474594    0.83690396    4.03140005
|101> H    1.63512958    0.54734111    4.99269101
|102> H    1.87933553    0.44574341    3.26628189
|103> C   -0.16003925    0.17873731    3.87658330
|104> H   -0.83128351    0.54761312    4.65820254
|105> H   -0.60751012    0.48900233    2.92668307
|106> C   -0.10375031   -1.34194924    3.93621879
|107> H    0.31985518   -1.64437966    4.89685498
|108> H    0.58777143   -1.70382818    3.17171636
|109> C   -1.47303323   -1.98382245    3.75244514
|110> H   -1.91141223   -1.71036477    2.79225963
|111> H   -1.41609444   -3.07059084    3.79650233
|112> H   -2.16099601   -1.65547647    4.53167819
|113> *
|114>
|115>
|116>
|117>
|118>                          ****END OF INPUT****
 Total Charge           Charge          ....    0
 Multiplicity           Mult            ....    1
 Number of Electrons    NEL             ....  100
MP2 TOTAL ENERGY:     -610.905287893 Eh
FINAL SINGLE POINT ENERGY      -610.905287892757
MP2 TOTAL ENERGY:     -611.447151954 Eh
FINAL SINGLE POINT ENERGY      -611.447151954358

CARTESIAN COORDINATES (ANGSTROEM)
---------------------------------
  N     -0.208905   -0.964583    0.534761
  H     -0.224151   -1.973109    0.605084
  C     -1.446342   -0.344581    0.306659
  O     -2.461237   -1.010792    0.197892
  C     -1.357782    1.103186    0.228144
  H     -2.256572    1.667731    0.049847
  C     -0.163003    1.709893    0.381126
  H     -0.046290    2.782446    0.333350
  N      0.985452    1.000824    0.611206
  H      1.867560    1.466928    0.744784
  C      1.027021   -0.379170    0.712647
  O      2.049197   -0.997395    0.937260
  C      1.131729    2.355775    3.941882
  H      0.700881    2.666824    2.989099
  H      0.497496    2.761208    4.730129
  H      2.114609    2.816222    4.035003
  C      1.204746    0.836904    4.031400
  H      1.635130    0.547341    4.992691
  H      1.879336    0.445743    3.266282
  C     -0.160039    0.178737    3.876583
  H     -0.831284    0.547613    4.658203
  H     -0.607510    0.489002    2.926683
  C     -0.103750   -1.341949    3.936219
  H      0.319855   -1.644380    4.896855
  H      0.587771   -1.703828    3.171716
  C     -1.473033   -1.983822    3.752445
  H     -1.911412   -1.710365    2.792260
  H     -1.416094   -3.070591    3.796502
  H     -2.160996   -1.655476    4.531678

 Multiplicity           Mult            ....    1
 Number of Electrons    NEL             ....  100
 Basis Dimension        Dim             .... 1776

ORBITAL ENERGIES
----------------

  NO   OCC          E(Eh)            E(eV)
   0   2.0000     -20.546071      -559.0870
   1   2.0000     -20.540476      -558.9348
   2   2.0000     -15.642483      -425.6536
   3   2.0000     -15.625893      -425.2022
   4   2.0000     -11.418874      -310.7233
   5   2.0000     -11.380895      -309.6899
   6   2.0000     -11.340085      -308.5794
   7   2.0000     -11.254879      -306.2608
   8   2.0000     -11.218109      -305.2603
   9   2.0000     -11.215964      -305.2019
  10   2.0000     -11.212789      -305.1155
  11   2.0000     -11.209385      -305.0229
  12   2.0000     -11.201194      -304.8000
  13   2.0000      -1.437447       -39.1149
  14   2.0000      -1.399290       -38.0766
  15   2.0000      -1.314246       -35.7624
  16   2.0000      -1.246591       -33.9215
  17   2.0000      -1.089064       -29.6350
  18   2.0000      -1.084770       -29.5181
  19   2.0000      -1.018457       -27.7136
  20   2.0000      -0.934825       -25.4379
  21   2.0000      -0.922557       -25.1041
  22   2.0000      -0.902512       -24.5586
  23   2.0000      -0.823294       -22.4030
  24   2.0000      -0.808099       -21.9895
  25   2.0000      -0.788478       -21.4556
  26   2.0000      -0.766245       -20.8506
  27   2.0000      -0.715552       -19.4712
  28   2.0000      -0.683818       -18.6076
  29   2.0000      -0.679017       -18.4770
  30   2.0000      -0.654575       -17.8119
  31   2.0000      -0.638588       -17.3769
  32   2.0000      -0.616363       -16.7721
  33   2.0000      -0.603671       -16.4267
  34   2.0000      -0.602674       -16.3996
  35   2.0000      -0.600108       -16.3298
  36   2.0000      -0.571130       -15.5412
  37   2.0000      -0.558289       -15.1918
  38   2.0000      -0.550980       -14.9929
  39   2.0000      -0.530434       -14.4338
  40   2.0000      -0.527893       -14.3647
  41   2.0000      -0.498302       -13.5595
  42   2.0000      -0.486256       -13.2317
  43   2.0000      -0.479340       -13.0435
  44   2.0000      -0.464630       -12.6432
  45   2.0000      -0.460164       -12.5217
  46   2.0000      -0.450607       -12.2617
  47   2.0000      -0.449544       -12.2327
  48   2.0000      -0.437744       -11.9116
  49   2.0000      -0.369962       -10.0672
  50   0.0000       0.013694         0.3726
  51   0.0000       0.027552         0.7497
  52   0.0000       0.027844         0.7577
  53   0.0000       0.031628         0.8607
  54   0.0000       0.039632         1.0784

MULLIKEN ATOMIC CHARGES
-----------------------
   0 N :   -0.745365
   1 H :    0.008669
   2 C :    1.388656
   3 O :   -0.942924
   4 C :   -0.535838
   5 H :    0.243564
   6 C :   -0.183435
   7 H :    0.346119
   8 N :   -0.655515
   9 H :    0.075335
  10 C :    2.133781
  11 O :   -0.979256
  12 C :   -1.011596
  13 H :    0.286403
  14 H :    0.233002
  15 H :    0.256812
  16 C :   -0.564783
  17 H :    0.300532
  18 H :    0.259346
  19 C :   -0.074460
  20 H :    0.268872
  21 H :    0.135371
  22 C :   -0.572103
  23 H :    0.295752
  24 H :    0.266881
  25 C :   -1.006965
  26 H :    0.300251
  27 H :    0.246367
  28 H :    0.226528
Sum of atomic charges:    0.0000000

LOEWDIN ATOMIC CHARGES
----------------------
   0 N :    0.785924
   1 H :   -0.510251
   2 C :   -0.868373
   3 O :    0.705817
   4 C :    0.342739
   5 H :   -0.345293
   6 C :    0.228509
   7 H :   -0.289196
   8 N :    0.818288
   9 H :   -0.483324
  10 C :   -1.006417
  11 O :    0.730800
  12 C :    0.930148
  13 H :   -0.312860
  14 H :   -0.278460
  15 H :   -0.275875
  16 C :    0.507870
  17 H :   -0.262580
  18 H :   -0.312182
  19 C :    0.490184
  20 H :   -0.256027
  21 H :   -0.328577
  22 C :    0.507850
  23 H :   -0.263681
  24 H :   -0.310832
  25 C :    0.933534
  26 H :   -0.323961
  27 H :   -0.275007
  28 H :   -0.278770

  Mayer bond orders larger than 0.100000
B(  0-N ,  1-H ) :   1.2830 B(  0-N ,  2-C ) :   0.9874 B(  0-N ,  3-O ) :   0.1657
B(  0-N , 10-C ) :   0.8384 B(  0-N , 11-O ) :   0.2605 B(  1-H , 10-C ) :  -0.1021
B(  2-C ,  3-O ) :   0.7279 B(  2-C ,  4-C ) :   1.1420 B(  3-O ,  4-C ) :   0.2856
B(  4-C ,  5-H ) :   1.0494 B(  4-C ,  6-C ) :   1.5538 B(  6-C ,  7-H ) :   1.0247
B(  6-C ,  8-N ) :   0.8917 B(  8-N ,  9-H ) :   1.1977 B(  8-N , 10-C ) :   0.8967
B(  8-N , 11-O ) :   0.2372 B( 10-C , 11-O ) :   0.6195 B( 12-C , 13-H ) :   0.8780
B( 12-C , 14-H ) :   1.0045 B( 12-C , 15-H ) :   1.0353 B( 12-C , 16-C ) :   1.0175
B( 12-C , 19-C ) :  -0.1351 B( 16-C , 17-H ) :   0.8829 B( 16-C , 18-H ) :   0.8934
B( 16-C , 19-C ) :   0.7525 B( 19-C , 20-H ) :   0.9115 B( 19-C , 21-H ) :   0.8920
B( 19-C , 22-C ) :   0.7423 B( 19-C , 25-C ) :  -0.1256 B( 22-C , 23-H ) :   0.8888
B( 22-C , 24-H ) :   0.8953 B( 22-C , 25-C ) :   1.0218 B( 25-C , 26-H ) :   0.8588
B( 25-C , 27-H ) :   1.0454 B( 25-C , 28-H ) :   1.0118

MP2 TOTAL ENERGY:     -611.619086369 Eh
FINAL SINGLE POINT ENERGY      -611.619086369071

DIPOLE MOMENT
-------------
                                X             Y             Z
Electronic contribution:     -0.53266      -2.46985     -17.97572
Nuclear contribution   :      1.09038       4.25304      17.98299
                        -----------------------------------------
Total Dipole Moment    :      0.55772       1.78319       0.00727
                        -----------------------------------------
Magnitude (a.u.)       :      1.86839
Magnitude (Debye)      :      4.74906

Rotational constants in cm-1:     0.027850     0.021704     0.017471
Rotational constants in MHz :   834.935511   650.675797   523.767483

                             ****ORCA TERMINATED NORMALLY****
TOTAL RUN TIME: 0 days 13 hours 50 minutes 45 seconds 551 msec
