                         Program Version 5.0.4 -  RELEASE  -
|  1> ! ri-mp2 aug-cc-pvdz aug-cc-pvdz/c tightscf
|  2> %pal nprocs 16 end
|  3> %maxcore 3800
|  4> %base "DZ_S66by10_27_1.0_dimer"
|  5>
|  6> *xyz 0 1
|  7> C    0.81874699    0.86417234    0.18828612
|  8> H    1.46611361    1.71666767    0.34472141
|  9> C    1.36899712   -0.39052394   -0.06669818
| 10> H    2.44303637   -0.51186194   -0.11057444
| 11> C    0.53437860   -1.48849320   -0.27188804
| 12> H    0.96084825   -2.46156422   -0.47550749
| 13> C   -0.84911561   -1.33050735   -0.21989643
| 14> H   -1.49706942   -2.18186028   -0.37955321
| 15> C   -1.39948546   -0.07603020    0.04043417
| 16> H   -2.47268667    0.04490778    0.09338206
| 17> C   -0.56529230    1.02140336    0.24227921
| 18> H   -0.99255667    1.99366131    0.44625817
| 19> N   -2.37285286    0.14962026    3.42736619
| 20> C   -1.75796693    1.30728807    3.70743038
| 21> H   -2.40557099    2.16045952    3.86994247
| 22> C   -0.37575203    1.44813581    3.79760119
| 23> H    0.05609673    2.41178592    4.02881749
| 24> C    0.42519936    0.33115650    3.58338728
| 25> H    1.50276853    0.40154078    3.63822179
| 26> C   -0.19535254   -0.87749853    3.28972770
| 27> H    0.38042196   -1.77312042    3.10565277
| 28> C   -1.58586682   -0.91553642    3.22427829
| 29> H   -2.09471975   -1.84398980    2.99543561
| 30> *
| 31>
| 32> $new_job
| 33> ! ri-mp2 aug-cc-pvtz aug-cc-pvtz/c tightscf
| 34> %pal nprocs 16 end
| 35> %maxcore 3800
| 36> %base "TZ_S66by10_27_1.0_dimer"
| 37>
| 38> *xyz 0 1
| 39> C    0.81874699    0.86417234    0.18828612
| 40> H    1.46611361    1.71666767    0.34472141
| 41> C    1.36899712   -0.39052394   -0.06669818
| 42> H    2.44303637   -0.51186194   -0.11057444
| 43> C    0.53437860   -1.48849320   -0.27188804
| 44> H    0.96084825   -2.46156422   -0.47550749
| 45> C   -0.84911561   -1.33050735   -0.21989643
| 46> H   -1.49706942   -2.18186028   -0.37955321
| 47> C   -1.39948546   -0.07603020    0.04043417
| 48> H   -2.47268667    0.04490778    0.09338206
| 49> C   -0.56529230    1.02140336    0.24227921
| 50> H   -0.99255667    1.99366131    0.44625817
| 51> N   -2.37285286    0.14962026    3.42736619
| 52> C   -1.75796693    1.30728807    3.70743038
| 53> H   -2.40557099    2.16045952    3.86994247
| 54> C   -0.37575203    1.44813581    3.79760119
| 55> H    0.05609673    2.41178592    4.02881749
| 56> C    0.42519936    0.33115650    3.58338728
| 57> H    1.50276853    0.40154078    3.63822179
| 58> C   -0.19535254   -0.87749853    3.28972770
| 59> H    0.38042196   -1.77312042    3.10565277
| 60> C   -1.58586682   -0.91553642    3.22427829
| 61> H   -2.09471975   -1.84398980    2.99543561
| 62> *
| 63>
| 64> $new_job
| 65> ! ri-mp2 aug-cc-pvqz aug-cc-pvqz/c tightscf
| 66> %pal nprocs 16 end
| 67> %maxcore 3800
| 68> %base "QZ_S66by10_27_1.0_dimer"
| 69>
| 70> *xyz 0 1
| 71> C    0.81874699    0.86417234    0.18828612
| 72> H    1.46611361    1.71666767    0.34472141
| 73> C    1.36899712   -0.39052394   -0.06669818
| 74> H    2.44303637   -0.51186194   -0.11057444
| 75> C    0.53437860   -1.48849320   -0.27188804
| 76> H    0.96084825   -2.46156422   -0.47550749
| 77> C   -0.84911561   -1.33050735   -0.21989643
| 78> H   -1.49706942   -2.18186028   -0.37955321
| 79> C   -1.39948546   -0.07603020    0.04043417
| 80> H   -2.47268667    0.04490778    0.09338206
| 81> C   -0.56529230    1.02140336    0.24227921
| 82> H   -0.99255667    1.99366131    0.44625817
| 83> N   -2.37285286    0.14962026    3.42736619
| 84> C   -1.75796693    1.30728807    3.70743038
| 85> H   -2.40557099    2.16045952    3.86994247
| 86> C   -0.37575203    1.44813581    3.79760119
| 87> H    0.05609673    2.41178592    4.02881749
| 88> C    0.42519936    0.33115650    3.58338728
| 89> H    1.50276853    0.40154078    3.63822179
| 90> C   -0.19535254   -0.87749853    3.28972770
| 91> H    0.38042196   -1.77312042    3.10565277
| 92> C   -1.58586682   -0.91553642    3.22427829
| 93> H   -2.09471975   -1.84398980    2.99543561
| 94> *
| 95>
| 96>
| 97>
| 98>
| 99>                          ****END OF INPUT****
 Total Charge           Charge          ....    0
 Multiplicity           Mult            ....    1
 Number of Electrons    NEL             ....   84
MP2 TOTAL ENERGY:     -479.115005461 Eh
FINAL SINGLE POINT ENERGY      -479.115005460748
MP2 TOTAL ENERGY:     -479.532952227 Eh
FINAL SINGLE POINT ENERGY      -479.532952226746

CARTESIAN COORDINATES (ANGSTROEM)
---------------------------------
  C      0.818747    0.864172    0.188286
  H      1.466114    1.716668    0.344721
  C      1.368997   -0.390524   -0.066698
  H      2.443036   -0.511862   -0.110574
  C      0.534379   -1.488493   -0.271888
  H      0.960848   -2.461564   -0.475507
  C     -0.849116   -1.330507   -0.219896
  H     -1.497069   -2.181860   -0.379553
  C     -1.399485   -0.076030    0.040434
  H     -2.472687    0.044908    0.093382
  C     -0.565292    1.021403    0.242279
  H     -0.992557    1.993661    0.446258
  N     -2.372853    0.149620    3.427366
  C     -1.757967    1.307288    3.707430
  H     -2.405571    2.160460    3.869942
  C     -0.375752    1.448136    3.797601
  H      0.056097    2.411786    4.028817
  C      0.425199    0.331157    3.583387
  H      1.502769    0.401541    3.638222
  C     -0.195353   -0.877499    3.289728
  H      0.380422   -1.773120    3.105653
  C     -1.585867   -0.915536    3.224278
  H     -2.094720   -1.843990    2.995436

 Multiplicity           Mult            ....    1
 Number of Electrons    NEL             ....   84
 Basis Dimension        Dim             .... 1466

ORBITAL ENERGIES
----------------

  NO   OCC          E(Eh)            E(eV)
   0   2.0000     -15.558448      -423.3669
   1   2.0000     -11.268265      -306.6251
   2   2.0000     -11.267681      -306.6092
   3   2.0000     -11.252270      -306.1898
   4   2.0000     -11.234485      -305.7059
   5   2.0000     -11.233676      -305.6839
   6   2.0000     -11.232909      -305.6630
   7   2.0000     -11.232874      -305.6620
   8   2.0000     -11.232148      -305.6423
   9   2.0000     -11.231569      -305.6265
  10   2.0000     -11.230801      -305.6056
  11   2.0000     -11.229756      -305.5772
  12   2.0000      -1.250155       -34.0184
  13   2.0000      -1.148385       -31.2492
  14   2.0000      -1.083007       -29.4701
  15   2.0000      -1.027131       -27.9497
  16   2.0000      -1.012852       -27.5611
  17   2.0000      -1.012697       -27.5569
  18   2.0000      -0.853068       -23.2132
  19   2.0000      -0.849576       -23.1181
  20   2.0000      -0.822460       -22.3803
  21   2.0000      -0.822238       -22.3742
  22   2.0000      -0.716255       -19.4903
  23   2.0000      -0.707940       -19.2640
  24   2.0000      -0.654203       -17.8018
  25   2.0000      -0.648266       -17.6402
  26   2.0000      -0.642642       -17.4872
  27   2.0000      -0.617300       -16.7976
  28   2.0000      -0.592275       -16.1166
  29   2.0000      -0.586673       -15.9642
  30   2.0000      -0.586345       -15.9552
  31   2.0000      -0.571079       -15.5398
  32   2.0000      -0.542541       -14.7633
  33   2.0000      -0.513931       -13.9848
  34   2.0000      -0.495204       -13.4752
  35   2.0000      -0.493238       -13.4217
  36   2.0000      -0.493173       -13.4199
  37   2.0000      -0.414454       -11.2779
  38   2.0000      -0.380203       -10.3458
  39   2.0000      -0.346962        -9.4413
  40   2.0000      -0.334370        -9.0987
  41   2.0000      -0.326923        -8.8960
  42   0.0000       0.022346         0.6081
  43   0.0000       0.026469         0.7203
  44   0.0000       0.029967         0.8155
  45   0.0000       0.035595         0.9686
  46   0.0000       0.038601         1.0504

MULLIKEN ATOMIC CHARGES
-----------------------
   0 C :   -0.302814
   1 H :    0.287712
   2 C :   -0.175493
   3 H :    0.307529
   4 C :   -0.376992
   5 H :    0.299311
   6 C :   -0.278548
   7 H :    0.319221
   8 C :   -0.258500
   9 H :    0.262002
  10 C :   -0.362892
  11 H :    0.295450
  12 N :   -0.807249
  13 C :   -0.198573
  14 H :    0.470375
  15 C :   -0.220156
  16 H :    0.296230
  17 C :   -0.295259
  18 H :    0.339530
  19 C :   -0.317449
  20 H :    0.306524
  21 C :   -0.041907
  22 H :    0.451948
Sum of atomic charges:    0.0000000

LOEWDIN ATOMIC CHARGES
----------------------
   0 C :    0.317877
   1 H :   -0.317785
   2 C :    0.325228
   3 H :   -0.323193
   4 C :    0.324610
   5 H :   -0.323193
   6 C :    0.321654
   7 H :   -0.319018
   8 C :    0.310945
   9 H :   -0.313925
  10 C :    0.311193
  11 H :   -0.315472
  12 N :    0.596070
  13 C :    0.062096
  14 H :   -0.352297
  15 C :    0.319459
  16 H :   -0.325377
  17 C :    0.312937
  18 H :   -0.304206
  19 C :    0.307412
  20 H :   -0.318373
  21 C :    0.047906
  22 H :   -0.344550

  Mayer bond orders larger than 0.100000
B(  0-C ,  1-H ) :   1.0625 B(  0-C ,  2-C ) :   1.1855 B(  0-C ,  6-C ) :   0.1842
B(  0-C , 10-C ) :   1.1725 B(  2-C ,  3-H ) :   1.0519 B(  2-C ,  4-C ) :   1.2530
B(  2-C ,  8-C ) :   0.2049 B(  4-C ,  5-H ) :   1.0508 B(  4-C ,  6-C ) :   1.2104
B(  4-C , 10-C ) :   0.1546 B(  6-C ,  7-H ) :   1.0205 B(  6-C ,  8-C ) :   1.2072
B(  8-C ,  9-H ) :   1.0824 B(  8-C , 10-C ) :   1.2073 B( 10-C , 11-H ) :   1.0246
B( 12-N , 13-C ) :   1.1709 B( 12-N , 14-H ) :  -0.1425 B( 12-N , 15-C ) :   0.1094
B( 12-N , 21-C ) :   1.0452 B( 12-N , 22-H ) :  -0.1621 B( 13-C , 14-H ) :   0.8884
B( 13-C , 15-C ) :   1.2273 B( 13-C , 19-C ) :   0.1145 B( 15-C , 16-H ) :   1.0332
B( 15-C , 17-C ) :   1.1517 B( 17-C , 18-H ) :   0.9697 B( 17-C , 19-C ) :   1.2015
B( 19-C , 20-H ) :   0.9938 B( 19-C , 21-C ) :   1.1067 B( 19-C , 22-H ) :  -0.1212
B( 21-C , 22-H ) :   0.9278

MP2 TOTAL ENERGY:     -479.665613183 Eh
FINAL SINGLE POINT ENERGY      -479.665613182791

DIPOLE MOMENT
-------------
                                X             Y             Z
Electronic contribution:     -1.81122       0.13899       1.63534
Nuclear contribution   :      2.68143      -0.09068      -1.64157
                        -----------------------------------------
Total Dipole Moment    :      0.87022       0.04831      -0.00623
                        -----------------------------------------
Magnitude (a.u.)       :      0.87158
Magnitude (Debye)      :      2.21538

Rotational constants in cm-1:     0.054643     0.023897     0.022619
Rotational constants in MHz :  1638.151243   716.415490   678.092999

                             ****ORCA TERMINATED NORMALLY****
TOTAL RUN TIME: 0 days 1 hours 54 minutes 21 seconds 517 msec
