                         Program Version 5.0.4 -  RELEASE  -
|  1> ! ri-mp2 aug-cc-pvdz aug-cc-pvdz/c tightscf
|  2> %pal nprocs 16 end
|  3> %maxcore 3800
|  4> %base "DZ_S66by10_56_0.95_dimer"
|  5>
|  6> *xyz 0 1
|  7> C    0.69231523    1.08829204    0.32484124
|  8> H    1.28194880    1.99194678    0.25251578
|  9> C    1.31818722   -0.15687008    0.28689607
| 10> H    2.39314337   -0.21947636    0.18840681
| 11> C    0.55801841   -1.32195045    0.38139986
| 12> H    1.04391922   -2.28757380    0.35761542
| 13> C   -0.82755236   -1.24142187    0.51168501
| 14> H   -1.41670095   -2.14525152    0.58533927
| 15> C   -1.45341138    0.00367145    0.54838107
| 16> H   -2.52823255    0.06570272    0.64984254
| 17> C   -0.69346094    1.16840108    0.45622907
| 18> H   -1.17873534    2.13440989    0.48572685
| 19> N    0.28838250   -0.21039271    3.72326229
| 20> H    0.42300085   -0.16635221    2.72019093
| 21> H    0.42987507    0.73475403    4.05573456
| 22> C   -1.08771698   -0.61677612    4.00069808
| 23> H   -1.24559355   -0.64532313    5.07725362
| 24> H   -1.85901917    0.02360467    3.56057908
| 25> H   -1.24240896   -1.62634392    3.62507638
| 26> *
| 27>
| 28> $new_job
| 29> ! ri-mp2 aug-cc-pvtz aug-cc-pvtz/c tightscf
| 30> %pal nprocs 16 end
| 31> %maxcore 3800
| 32> %base "TZ_S66by10_56_0.95_dimer"
| 33>
| 34> *xyz 0 1
| 35> C    0.69231523    1.08829204    0.32484124
| 36> H    1.28194880    1.99194678    0.25251578
| 37> C    1.31818722   -0.15687008    0.28689607
| 38> H    2.39314337   -0.21947636    0.18840681
| 39> C    0.55801841   -1.32195045    0.38139986
| 40> H    1.04391922   -2.28757380    0.35761542
| 41> C   -0.82755236   -1.24142187    0.51168501
| 42> H   -1.41670095   -2.14525152    0.58533927
| 43> C   -1.45341138    0.00367145    0.54838107
| 44> H   -2.52823255    0.06570272    0.64984254
| 45> C   -0.69346094    1.16840108    0.45622907
| 46> H   -1.17873534    2.13440989    0.48572685
| 47> N    0.28838250   -0.21039271    3.72326229
| 48> H    0.42300085   -0.16635221    2.72019093
| 49> H    0.42987507    0.73475403    4.05573456
| 50> C   -1.08771698   -0.61677612    4.00069808
| 51> H   -1.24559355   -0.64532313    5.07725362
| 52> H   -1.85901917    0.02360467    3.56057908
| 53> H   -1.24240896   -1.62634392    3.62507638
| 54> *
| 55>
| 56> $new_job
| 57> ! ri-mp2 aug-cc-pvqz aug-cc-pvqz/c tightscf
| 58> %pal nprocs 16 end
| 59> %maxcore 3800
| 60> %base "QZ_S66by10_56_0.95_dimer"
| 61>
| 62> *xyz 0 1
| 63> C    0.69231523    1.08829204    0.32484124
| 64> H    1.28194880    1.99194678    0.25251578
| 65> C    1.31818722   -0.15687008    0.28689607
| 66> H    2.39314337   -0.21947636    0.18840681
| 67> C    0.55801841   -1.32195045    0.38139986
| 68> H    1.04391922   -2.28757380    0.35761542
| 69> C   -0.82755236   -1.24142187    0.51168501
| 70> H   -1.41670095   -2.14525152    0.58533927
| 71> C   -1.45341138    0.00367145    0.54838107
| 72> H   -2.52823255    0.06570272    0.64984254
| 73> C   -0.69346094    1.16840108    0.45622907
| 74> H   -1.17873534    2.13440989    0.48572685
| 75> N    0.28838250   -0.21039271    3.72326229
| 76> H    0.42300085   -0.16635221    2.72019093
| 77> H    0.42987507    0.73475403    4.05573456
| 78> C   -1.08771698   -0.61677612    4.00069808
| 79> H   -1.24559355   -0.64532313    5.07725362
| 80> H   -1.85901917    0.02360467    3.56057908
| 81> H   -1.24240896   -1.62634392    3.62507638
| 82> *
| 83>
| 84>
| 85>
| 86>
| 87>                          ****END OF INPUT****
 Total Charge           Charge          ....    0
 Multiplicity           Mult            ....    1
 Number of Electrons    NEL             ....   60
MP2 TOTAL ENERGY:     -327.121143926 Eh
FINAL SINGLE POINT ENERGY      -327.121143926366
MP2 TOTAL ENERGY:     -327.419338254 Eh
FINAL SINGLE POINT ENERGY      -327.419338254023

CARTESIAN COORDINATES (ANGSTROEM)
---------------------------------
  C      0.692315    1.088292    0.324841
  H      1.281949    1.991947    0.252516
  C      1.318187   -0.156870    0.286896
  H      2.393143   -0.219476    0.188407
  C      0.558018   -1.321950    0.381400
  H      1.043919   -2.287574    0.357615
  C     -0.827552   -1.241422    0.511685
  H     -1.416701   -2.145252    0.585339
  C     -1.453411    0.003671    0.548381
  H     -2.528233    0.065703    0.649843
  C     -0.693461    1.168401    0.456229
  H     -1.178735    2.134410    0.485727
  N      0.288382   -0.210393    3.723262
  H      0.423001   -0.166352    2.720191
  H      0.429875    0.734754    4.055735
  C     -1.087717   -0.616776    4.000698
  H     -1.245594   -0.645323    5.077254
  H     -1.859019    0.023605    3.560579
  H     -1.242409   -1.626344    3.625076

 Multiplicity           Mult            ....    1
 Number of Electrons    NEL             ....   60
 Basis Dimension        Dim             .... 1146

ORBITAL ENERGIES
----------------

  NO   OCC          E(Eh)            E(eV)
   0   2.0000     -15.520966      -422.3470
   1   2.0000     -11.241653      -305.9009
   2   2.0000     -11.240928      -305.8812
   3   2.0000     -11.240781      -305.8772
   4   2.0000     -11.239802      -305.8506
   5   2.0000     -11.239511      -305.8426
   6   2.0000     -11.238885      -305.8256
   7   2.0000     -11.227550      -305.5172
   8   2.0000      -1.160879       -31.5891
   9   2.0000      -1.153119       -31.3780
  10   2.0000      -1.021522       -27.7970
  11   2.0000      -1.021366       -27.7928
  12   2.0000      -0.883371       -24.0378
  13   2.0000      -0.830449       -22.5977
  14   2.0000      -0.830351       -22.5950
  15   2.0000      -0.716329       -19.4923
  16   2.0000      -0.650319       -17.6961
  17   2.0000      -0.649508       -17.6740
  18   2.0000      -0.625516       -17.0211
  19   2.0000      -0.595567       -16.2062
  20   2.0000      -0.594578       -16.1793
  21   2.0000      -0.592493       -16.1226
  22   2.0000      -0.542897       -14.7730
  23   2.0000      -0.511695       -13.9239
  24   2.0000      -0.501254       -13.6398
  25   2.0000      -0.501093       -13.6354
  26   2.0000      -0.498802       -13.5731
  27   2.0000      -0.379978       -10.3397
  28   2.0000      -0.344428        -9.3724
  29   2.0000      -0.344095        -9.3633
  30   0.0000       0.023771         0.6468
  31   0.0000       0.028840         0.7848
  32   0.0000       0.029998         0.8163
  33   0.0000       0.037696         1.0258
  34   0.0000       0.041445         1.1278

MULLIKEN ATOMIC CHARGES
-----------------------
   0 C :   -0.293205
   1 H :    0.322788
   2 C :   -0.322647
   3 H :    0.290776
   4 C :   -0.272149
   5 H :    0.283689
   6 C :   -0.375264
   7 H :    0.312773
   8 C :   -0.268910
   9 H :    0.290761
  10 C :   -0.338747
  11 H :    0.294255
  12 N :   -0.749127
  13 H :    0.458566
  14 H :    0.244355
  15 C :   -0.860784
  16 H :    0.433354
  17 H :    0.268388
  18 H :    0.281126
Sum of atomic charges:    0.0000000

LOEWDIN ATOMIC CHARGES
----------------------
   0 C :    0.332823
   1 H :   -0.318971
   2 C :    0.331373
   3 H :   -0.316288
   4 C :    0.331833
   5 H :   -0.314086
   6 C :    0.321387
   7 H :   -0.314917
   8 C :    0.316903
   9 H :   -0.316468
  10 C :    0.332527
  11 H :   -0.318687
  12 N :    1.272135
  13 H :   -0.647640
  14 H :   -0.511225
  15 C :    0.740081
  16 H :   -0.308308
  17 H :   -0.297890
  18 H :   -0.314581

  Mayer bond orders larger than 0.100000
B(  0-C ,  1-H ) :   1.0482 B(  0-C ,  2-C ) :   1.1422 B(  0-C ,  6-C ) :   0.1393
B(  0-C , 10-C ) :   1.2269 B(  2-C ,  3-H ) :   1.0841 B(  2-C ,  4-C ) :   1.2255
B(  2-C ,  8-C ) :   0.1241 B(  4-C ,  5-H ) :   1.0826 B(  4-C ,  6-C ) :   1.2410
B(  4-C , 10-C ) :   0.1986 B(  6-C ,  7-H ) :   1.0438 B(  6-C ,  8-C ) :   1.1773
B(  8-C ,  9-H ) :   1.0575 B(  8-C , 10-C ) :   1.2381 B( 10-C , 11-H ) :   1.0635
B( 12-N , 13-H ) :   0.7514 B( 12-N , 14-H ) :   0.9330 B( 12-N , 15-C ) :   1.0037
B( 15-C , 16-H ) :   0.8043 B( 15-C , 17-H ) :   0.9168 B( 15-C , 18-H ) :   0.9277

MP2 TOTAL ENERGY:     -327.512332274 Eh
FINAL SINGLE POINT ENERGY      -327.512332273925

DIPOLE MOMENT
-------------
                                X             Y             Z
Electronic contribution:      1.64325       0.65637      -6.26446
Nuclear contribution   :     -1.96978      -0.30296       5.86271
                        -----------------------------------------
Total Dipole Moment    :     -0.32652       0.35341      -0.40174
                        -----------------------------------------
Magnitude (a.u.)       :      0.62683
Magnitude (Debye)      :      1.59327

Rotational constants in cm-1:     0.088800     0.045783     0.044711
Rotational constants in MHz :  2662.162369  1372.535575  1340.416484

                             ****ORCA TERMINATED NORMALLY****
TOTAL RUN TIME: 0 days 0 hours 34 minutes 30 seconds 404 msec
