                         Program Version 5.0.4 -  RELEASE  -
|  1> ! ri-mp2 aug-cc-pvdz aug-cc-pvdz/c tightscf
|  2> %pal nprocs 16 end
|  3> %maxcore 3800
|  4> %base "DZ_S66by10_44_0.8_dimer"
|  5> %scf STABPerform true end
|  6>
|  7> *xyz 0 1
|  8> C    0.66640038    0.18381078    0.41973683
|  9> H    1.22888182   -0.32988301    1.18625971
| 10> H    1.22803556    0.69720813   -0.34760989
| 11> C   -0.66597358    0.18297343    0.41961191
| 12> H   -1.22792171   -0.33149890    1.18610334
| 13> H   -1.22818427    0.69564575   -0.34774808
| 14> C   -2.53271908   -0.35816653    3.59937659
| 15> H   -2.56221252   -0.97118731    2.69818671
| 16> H   -2.56885303   -1.03238715    4.45499360
| 17> H   -3.43389043    0.25284990    3.61662253
| 18> C   -1.27128259    0.49450889    3.63519453
| 19> H   -1.27168846    1.11460246    4.53458847
| 20> H   -1.26289424    1.18141720    2.78613411
| 21> C   -0.00000833   -0.34304869    3.60825132
| 22> H   -0.00016239   -1.02972139    4.46008333
| 23> H    0.00013274   -0.97062652    2.71160883
| 24> C    1.27121208    0.49453774    3.63565586
| 25> H    1.27148508    1.11434849    4.53514127
| 26> H    1.26301725    1.18161239    2.78674823
| 27> C    2.53266346   -0.35818677    3.59983167
| 28> H    2.56228693   -0.97104327    2.69852249
| 29> H    3.43384157    0.25274940    3.61740971
| 30> H    2.56858182   -1.03264285    4.45533738
| 31> *
| 32>
| 33> $new_job
| 34> ! ri-mp2 aug-cc-pvtz aug-cc-pvtz/c tightscf
| 35> %pal nprocs 16 end
| 36> %maxcore 3800
| 37> %base "TZ_S66by10_44_0.8_dimer"
| 38>
| 39> *xyz 0 1
| 40> C    0.66640038    0.18381078    0.41973683
| 41> H    1.22888182   -0.32988301    1.18625971
| 42> H    1.22803556    0.69720813   -0.34760989
| 43> C   -0.66597358    0.18297343    0.41961191
| 44> H   -1.22792171   -0.33149890    1.18610334
| 45> H   -1.22818427    0.69564575   -0.34774808
| 46> C   -2.53271908   -0.35816653    3.59937659
| 47> H   -2.56221252   -0.97118731    2.69818671
| 48> H   -2.56885303   -1.03238715    4.45499360
| 49> H   -3.43389043    0.25284990    3.61662253
| 50> C   -1.27128259    0.49450889    3.63519453
| 51> H   -1.27168846    1.11460246    4.53458847
| 52> H   -1.26289424    1.18141720    2.78613411
| 53> C   -0.00000833   -0.34304869    3.60825132
| 54> H   -0.00016239   -1.02972139    4.46008333
| 55> H    0.00013274   -0.97062652    2.71160883
| 56> C    1.27121208    0.49453774    3.63565586
| 57> H    1.27148508    1.11434849    4.53514127
| 58> H    1.26301725    1.18161239    2.78674823
| 59> C    2.53266346   -0.35818677    3.59983167
| 60> H    2.56228693   -0.97104327    2.69852249
| 61> H    3.43384157    0.25274940    3.61740971
| 62> H    2.56858182   -1.03264285    4.45533738
| 63> *
| 64>
| 65> $new_job
| 66> ! ri-mp2 aug-cc-pvqz aug-cc-pvqz/c tightscf
| 67> %pal nprocs 16 end
| 68> %maxcore 3800
| 69> %base "QZ_S66by10_44_0.8_dimer"
| 70>
| 71> *xyz 0 1
| 72> C    0.66640038    0.18381078    0.41973683
| 73> H    1.22888182   -0.32988301    1.18625971
| 74> H    1.22803556    0.69720813   -0.34760989
| 75> C   -0.66597358    0.18297343    0.41961191
| 76> H   -1.22792171   -0.33149890    1.18610334
| 77> H   -1.22818427    0.69564575   -0.34774808
| 78> C   -2.53271908   -0.35816653    3.59937659
| 79> H   -2.56221252   -0.97118731    2.69818671
| 80> H   -2.56885303   -1.03238715    4.45499360
| 81> H   -3.43389043    0.25284990    3.61662253
| 82> C   -1.27128259    0.49450889    3.63519453
| 83> H   -1.27168846    1.11460246    4.53458847
| 84> H   -1.26289424    1.18141720    2.78613411
| 85> C   -0.00000833   -0.34304869    3.60825132
| 86> H   -0.00016239   -1.02972139    4.46008333
| 87> H    0.00013274   -0.97062652    2.71160883
| 88> C    1.27121208    0.49453774    3.63565586
| 89> H    1.27148508    1.11434849    4.53514127
| 90> H    1.26301725    1.18161239    2.78674823
| 91> C    2.53266346   -0.35818677    3.59983167
| 92> H    2.56228693   -0.97104327    2.69852249
| 93> H    3.43384157    0.25274940    3.61740971
| 94> H    2.56858182   -1.03264285    4.45533738
| 95> *
| 96>
| 97>
| 98>
| 99>
|100>                          ****END OF INPUT****
 Total Charge           Charge          ....    0
 Multiplicity           Mult            ....    1
 Number of Electrons    NEL             ....   58
MP2 TOTAL ENERGY:     -275.442438330 Eh
FINAL SINGLE POINT ENERGY      -275.442438329839
MP2 TOTAL ENERGY:     -275.715333583 Eh
FINAL SINGLE POINT ENERGY      -275.715333582734

CARTESIAN COORDINATES (ANGSTROEM)
---------------------------------
  C      0.666400    0.183811    0.419737
  H      1.228882   -0.329883    1.186260
  H      1.228036    0.697208   -0.347610
  C     -0.665974    0.182973    0.419612
  H     -1.227922   -0.331499    1.186103
  H     -1.228184    0.695646   -0.347748
  C     -2.532719   -0.358167    3.599377
  H     -2.562213   -0.971187    2.698187
  H     -2.568853   -1.032387    4.454994
  H     -3.433890    0.252850    3.616623
  C     -1.271283    0.494509    3.635195
  H     -1.271688    1.114602    4.534588
  H     -1.262894    1.181417    2.786134
  C     -0.000008   -0.343049    3.608251
  H     -0.000162   -1.029721    4.460083
  H      0.000133   -0.970627    2.711609
  C      1.271212    0.494538    3.635656
  H      1.271485    1.114348    4.535141
  H      1.263017    1.181612    2.786748
  C      2.532663   -0.358187    3.599832
  H      2.562287   -0.971043    2.698522
  H      3.433842    0.252749    3.617410
  H      2.568582   -1.032643    4.455337

 Multiplicity           Mult            ....    1
 Number of Electrons    NEL             ....   58
 Basis Dimension        Dim             .... 1296

ORBITAL ENERGIES
----------------

  NO   OCC          E(Eh)            E(eV)
   0   2.0000     -11.226250      -305.4818
   1   2.0000     -11.224521      -305.4348
   2   2.0000     -11.210078      -305.0417
   3   2.0000     -11.209922      -305.0375
   4   2.0000     -11.208756      -305.0057
   5   2.0000     -11.208034      -304.9861
   6   2.0000     -11.208022      -304.9858
   7   2.0000      -1.083698       -29.4889
   8   2.0000      -1.033007       -28.1095
   9   2.0000      -1.017163       -27.6784
  10   2.0000      -0.920741       -25.0546
  11   2.0000      -0.821343       -22.3499
  12   2.0000      -0.793777       -21.5998
  13   2.0000      -0.786257       -21.3951
  14   2.0000      -0.674088       -18.3429
  15   2.0000      -0.622617       -16.9423
  16   2.0000      -0.600836       -16.3496
  17   2.0000      -0.597285       -16.2530
  18   2.0000      -0.583552       -15.8792
  19   2.0000      -0.555139       -15.1061
  20   2.0000      -0.549534       -14.9536
  21   2.0000      -0.528326       -14.3765
  22   2.0000      -0.505881       -13.7657
  23   2.0000      -0.493857       -13.4385
  24   2.0000      -0.477534       -12.9944
  25   2.0000      -0.462621       -12.5886
  26   2.0000      -0.461030       -12.5453
  27   2.0000      -0.447566       -12.1789
  28   2.0000      -0.373408       -10.1610
  29   0.0000       0.026108         0.7104
  30   0.0000       0.028495         0.7754
  31   0.0000       0.031488         0.8568
  32   0.0000       0.034118         0.9284
  33   0.0000       0.043868         1.1937

MULLIKEN ATOMIC CHARGES
-----------------------
   0 C :   -0.931643
   1 H :    0.538907
   2 H :    0.340529
   3 C :   -0.931713
   4 H :    0.538657
   5 H :    0.340845
   6 C :   -0.954947
   7 H :    0.236210
   8 H :    0.201199
   9 H :    0.251933
  10 C :   -0.521642
  11 H :    0.281077
  12 H :    0.257408
  13 C :   -0.107849
  14 H :    0.303712
  15 H :    0.406037
  16 C :   -0.521619
  17 H :    0.281104
  18 H :    0.257410
  19 C :   -0.954885
  20 H :    0.236242
  21 H :    0.251914
  22 H :    0.201112
Sum of atomic charges:   -0.0000000

LOEWDIN ATOMIC CHARGES
----------------------
   0 C :    0.801971
   1 H :   -0.440068
   2 H :   -0.332848
   3 C :    0.801940
   4 H :   -0.439983
   5 H :   -0.332874
   6 C :    0.940676
   7 H :   -0.298352
   8 H :   -0.277990
   9 H :   -0.272934
  10 C :    0.506997
  11 H :   -0.262183
  12 H :   -0.308970
  13 C :    0.489816
  14 H :   -0.253980
  15 H :   -0.348470
  16 C :    0.507045
  17 H :   -0.262261
  18 H :   -0.308992
  19 C :    0.940699
  20 H :   -0.298331
  21 H :   -0.272969
  22 H :   -0.277939

  Mayer bond orders larger than 0.100000
B(  0-C ,  1-H ) :   0.5571 B(  0-C ,  2-H ) :   0.9879 B(  0-C ,  3-C ) :   2.1131
B(  3-C ,  4-H ) :   0.5573 B(  3-C ,  5-H ) :   0.9875 B(  6-C ,  7-H ) :   0.9395
B(  6-C ,  8-H ) :   1.0256 B(  6-C ,  9-H ) :   1.0291 B(  6-C , 10-C ) :   0.9578
B(  6-C , 13-C ) :  -0.1237 B( 10-C , 11-H ) :   0.9040 B( 10-C , 12-H ) :   0.9070
B( 10-C , 13-C ) :   0.7661 B( 13-C , 14-H ) :   0.8770 B( 13-C , 15-H ) :   0.8516
B( 13-C , 16-C ) :   0.7661 B( 13-C , 19-C ) :  -0.1237 B( 16-C , 17-H ) :   0.9041
B( 16-C , 18-H ) :   0.9069 B( 16-C , 19-C ) :   0.9577 B( 19-C , 20-H ) :   0.9395
B( 19-C , 21-H ) :   1.0290 B( 19-C , 22-H ) :   1.0257

MP2 TOTAL ENERGY:     -275.796230138 Eh
FINAL SINGLE POINT ENERGY      -275.796230137684

DIPOLE MOMENT
-------------
                                X             Y             Z
Electronic contribution:      0.00014       0.76715      -1.35465
Nuclear contribution   :     -0.00017      -0.67391       1.41064
                        -----------------------------------------
Total Dipole Moment    :     -0.00002       0.09324       0.05598
                        -----------------------------------------
Magnitude (a.u.)       :      0.10875
Magnitude (Debye)      :      0.27643

Rotational constants in cm-1:     0.070184     0.058303     0.034835
Rotational constants in MHz :  2104.062372  1747.873304  1044.321563

                             ****ORCA TERMINATED NORMALLY****
TOTAL RUN TIME: 0 days 3 hours 14 minutes 23 seconds 508 msec
