                         Program Version 5.0.4 -  RELEASE  -
|  1> ! ri-mp2 aug-cc-pvdz aug-cc-pvdz/c tightscf
|  2> %pal nprocs 16 end
|  3> %maxcore 3800
|  4> %base "DZ_S66by10_39_1.1_dimer"
|  5>
|  6> *xyz 0 1
|  7> C    0.76554546    0.86824433    0.82099095
|  8> H    1.43747647    1.68000664    1.06510281
|  9> C    1.23765260   -0.44283807    0.79388795
| 10> H    2.27575877   -0.64853808    1.01771141
| 11> C    0.37223723   -1.48853667    0.47726862
| 12> H    0.73818789   -2.50608012    0.45705609
| 13> C   -0.96493318   -1.22297162    0.18687834
| 14> H   -1.63645949   -2.03456079   -0.05777362
| 15> C   -1.43706509    0.08840558    0.21327714
| 16> H   -2.47468432    0.29430216   -0.01146746
| 17> C   -0.57190649    1.13402416    0.53081281
| 18> H   -0.93769935    2.15171058    0.55107764
| 19> C   -0.75003186   -0.70303674    4.35641733
| 20> H   -0.85628570   -0.52808758    3.28411046
| 21> H   -1.40166944   -1.53230063    4.62956799
| 22> C    0.71950932   -0.96009983    4.70054721
| 23> H    1.21474010   -1.59768487    3.96996293
| 24> H    0.78278850   -1.46031360    5.66801384
| 25> C    1.35964637    0.44529685    4.79150006
| 26> H    2.00991469    0.63796778    3.93964714
| 27> H    1.97251355    0.53446627    5.68722543
| 28> C    0.18060025    1.44447387    4.81837210
| 29> H    0.06344876    1.90344426    3.83608676
| 30> H    0.32619384    2.24597870    5.54077070
| 31> C   -1.05317152    0.58737868    5.11402096
| 32> H   -1.98416003    1.06311612    4.80810782
| 33> H   -1.11859728    0.37805776    6.18455621
| 34> *
| 35>
| 36> $new_job
| 37> ! ri-mp2 aug-cc-pvtz aug-cc-pvtz/c tightscf
| 38> %pal nprocs 16 end
| 39> %maxcore 3800
| 40> %base "TZ_S66by10_39_1.1_dimer"
| 41>
| 42> *xyz 0 1
| 43> C    0.76554546    0.86824433    0.82099095
| 44> H    1.43747647    1.68000664    1.06510281
| 45> C    1.23765260   -0.44283807    0.79388795
| 46> H    2.27575877   -0.64853808    1.01771141
| 47> C    0.37223723   -1.48853667    0.47726862
| 48> H    0.73818789   -2.50608012    0.45705609
| 49> C   -0.96493318   -1.22297162    0.18687834
| 50> H   -1.63645949   -2.03456079   -0.05777362
| 51> C   -1.43706509    0.08840558    0.21327714
| 52> H   -2.47468432    0.29430216   -0.01146746
| 53> C   -0.57190649    1.13402416    0.53081281
| 54> H   -0.93769935    2.15171058    0.55107764
| 55> C   -0.75003186   -0.70303674    4.35641733
| 56> H   -0.85628570   -0.52808758    3.28411046
| 57> H   -1.40166944   -1.53230063    4.62956799
| 58> C    0.71950932   -0.96009983    4.70054721
| 59> H    1.21474010   -1.59768487    3.96996293
| 60> H    0.78278850   -1.46031360    5.66801384
| 61> C    1.35964637    0.44529685    4.79150006
| 62> H    2.00991469    0.63796778    3.93964714
| 63> H    1.97251355    0.53446627    5.68722543
| 64> C    0.18060025    1.44447387    4.81837210
| 65> H    0.06344876    1.90344426    3.83608676
| 66> H    0.32619384    2.24597870    5.54077070
| 67> C   -1.05317152    0.58737868    5.11402096
| 68> H   -1.98416003    1.06311612    4.80810782
| 69> H   -1.11859728    0.37805776    6.18455621
| 70> *
| 71>
| 72> $new_job
| 73> ! ri-mp2 aug-cc-pvqz aug-cc-pvqz/c tightscf
| 74> %pal nprocs 16 end
| 75> %maxcore 3800
| 76> %base "QZ_S66by10_39_1.1_dimer"
| 77>
| 78> *xyz 0 1
| 79> C    0.76554546    0.86824433    0.82099095
| 80> H    1.43747647    1.68000664    1.06510281
| 81> C    1.23765260   -0.44283807    0.79388795
| 82> H    2.27575877   -0.64853808    1.01771141
| 83> C    0.37223723   -1.48853667    0.47726862
| 84> H    0.73818789   -2.50608012    0.45705609
| 85> C   -0.96493318   -1.22297162    0.18687834
| 86> H   -1.63645949   -2.03456079   -0.05777362
| 87> C   -1.43706509    0.08840558    0.21327714
| 88> H   -2.47468432    0.29430216   -0.01146746
| 89> C   -0.57190649    1.13402416    0.53081281
| 90> H   -0.93769935    2.15171058    0.55107764
| 91> C   -0.75003186   -0.70303674    4.35641733
| 92> H   -0.85628570   -0.52808758    3.28411046
| 93> H   -1.40166944   -1.53230063    4.62956799
| 94> C    0.71950932   -0.96009983    4.70054721
| 95> H    1.21474010   -1.59768487    3.96996293
| 96> H    0.78278850   -1.46031360    5.66801384
| 97> C    1.35964637    0.44529685    4.79150006
| 98> H    2.00991469    0.63796778    3.93964714
| 99> H    1.97251355    0.53446627    5.68722543
|100> C    0.18060025    1.44447387    4.81837210
|101> H    0.06344876    1.90344426    3.83608676
|102> H    0.32619384    2.24597870    5.54077070
|103> C   -1.05317152    0.58737868    5.11402096
|104> H   -1.98416003    1.06311612    4.80810782
|105> H   -1.11859728    0.37805776    6.18455621
|106> *
|107>
|108>
|109>
|110>
|111>                          ****END OF INPUT****
 Total Charge           Charge          ....    0
 Multiplicity           Mult            ....    1
 Number of Electrons    NEL             ....   82
MP2 TOTAL ENERGY:     -427.470024883 Eh
FINAL SINGLE POINT ENERGY      -427.470024882593
MP2 TOTAL ENERGY:     -427.863245493 Eh
FINAL SINGLE POINT ENERGY      -427.863245492969

CARTESIAN COORDINATES (ANGSTROEM)
---------------------------------
  C      0.765545    0.868244    0.820991
  H      1.437476    1.680007    1.065103
  C      1.237653   -0.442838    0.793888
  H      2.275759   -0.648538    1.017711
  C      0.372237   -1.488537    0.477269
  H      0.738188   -2.506080    0.457056
  C     -0.964933   -1.222972    0.186878
  H     -1.636459   -2.034561   -0.057774
  C     -1.437065    0.088406    0.213277
  H     -2.474684    0.294302   -0.011467
  C     -0.571906    1.134024    0.530813
  H     -0.937699    2.151711    0.551078
  C     -0.750032   -0.703037    4.356417
  H     -0.856286   -0.528088    3.284110
  H     -1.401669   -1.532301    4.629568
  C      0.719509   -0.960100    4.700547
  H      1.214740   -1.597685    3.969963
  H      0.782788   -1.460314    5.668014
  C      1.359646    0.445297    4.791500
  H      2.009915    0.637968    3.939647
  H      1.972514    0.534466    5.687225
  C      0.180600    1.444474    4.818372
  H      0.063449    1.903444    3.836087
  H      0.326194    2.245979    5.540771
  C     -1.053172    0.587379    5.114021
  H     -1.984160    1.063116    4.808108
  H     -1.118597    0.378058    6.184556

 Multiplicity           Mult            ....    1
 Number of Electrons    NEL             ....   82
 Basis Dimension        Dim             .... 1616

ORBITAL ENERGIES
----------------

  NO   OCC          E(Eh)            E(eV)
   0   2.0000     -11.237068      -305.7762
   1   2.0000     -11.236492      -305.7605
   2   2.0000     -11.236471      -305.7599
   3   2.0000     -11.235256      -305.7269
   4   2.0000     -11.235223      -305.7260
   5   2.0000     -11.234622      -305.7096
   6   2.0000     -11.203843      -304.8721
   7   2.0000     -11.203128      -304.8526
   8   2.0000     -11.202413      -304.8331
   9   2.0000     -11.202204      -304.8275
  10   2.0000     -11.199019      -304.7408
  11   2.0000      -1.152201       -31.3530
  12   2.0000      -1.109474       -30.1903
  13   2.0000      -1.016595       -27.6629
  14   2.0000      -1.016521       -27.6610
  15   2.0000      -0.950033       -25.8517
  16   2.0000      -0.949271       -25.8310
  17   2.0000      -0.825992       -22.4764
  18   2.0000      -0.825971       -22.4758
  19   2.0000      -0.769774       -20.9466
  20   2.0000      -0.760935       -20.7061
  21   2.0000      -0.711745       -19.3676
  22   2.0000      -0.646081       -17.5808
  23   2.0000      -0.644018       -17.5246
  24   2.0000      -0.638139       -17.3646
  25   2.0000      -0.621113       -16.9013
  26   2.0000      -0.590148       -16.0587
  27   2.0000      -0.590087       -16.0571
  28   2.0000      -0.563947       -15.3458
  29   2.0000      -0.562272       -15.3002
  30   2.0000      -0.505882       -13.7658
  31   2.0000      -0.496897       -13.5213
  32   2.0000      -0.496889       -13.5210
  33   2.0000      -0.468718       -12.7545
  34   2.0000      -0.467522       -12.7219
  35   2.0000      -0.457604       -12.4520
  36   2.0000      -0.452336       -12.3087
  37   2.0000      -0.451796       -12.2940
  38   2.0000      -0.443206       -12.0603
  39   2.0000      -0.339188        -9.2298
  40   2.0000      -0.339074        -9.2267
  41   0.0000       0.022765         0.6195
  42   0.0000       0.028395         0.7727
  43   0.0000       0.029087         0.7915
  44   0.0000       0.032963         0.8970
  45   0.0000       0.039484         1.0744

MULLIKEN ATOMIC CHARGES
-----------------------
   0 C :   -0.262270
   1 H :    0.289294
   2 C :   -0.310930
   3 H :    0.266445
   4 C :   -0.309397
   5 H :    0.270249
   6 C :   -0.258874
   7 H :    0.340475
   8 C :   -0.292395
   9 H :    0.316739
  10 C :   -0.366233
  11 H :    0.299059
  12 C :   -0.749551
  13 H :    0.535016
  14 H :    0.350537
  15 C :   -0.688937
  16 H :    0.356743
  17 H :    0.269070
  18 C :   -0.535301
  19 H :    0.220823
  20 H :    0.319052
  21 C :   -0.674663
  22 H :    0.315122
  23 H :    0.317264
  24 C :   -0.581807
  25 H :    0.316711
  26 H :    0.247759
Sum of atomic charges:   -0.0000000

LOEWDIN ATOMIC CHARGES
----------------------
   0 C :    0.319684
   1 H :   -0.319755
   2 C :    0.321318
   3 H :   -0.319080
   4 C :    0.328989
   5 H :   -0.321166
   6 C :    0.330353
   7 H :   -0.322825
   8 C :    0.330765
   9 H :   -0.322992
  10 C :    0.329165
  11 H :   -0.321144
  12 C :    0.515771
  13 H :   -0.297728
  14 H :   -0.249646
  15 C :    0.533922
  16 H :   -0.266280
  17 H :   -0.268323
  18 C :    0.546110
  19 H :   -0.278701
  20 H :   -0.267260
  21 C :    0.532064
  22 H :   -0.283583
  23 H :   -0.258663
  24 C :    0.527219
  25 H :   -0.255009
  26 H :   -0.263204

  Mayer bond orders larger than 0.100000
B(  0-C ,  1-H ) :   1.0443 B(  0-C ,  2-C ) :   1.1725 B(  0-C ,  6-C ) :   0.1493
B(  0-C , 10-C ) :   1.2088 B(  2-C ,  3-H ) :   1.0761 B(  2-C ,  4-C ) :   1.2071
B(  2-C ,  8-C ) :   0.1638 B(  4-C ,  5-H ) :   1.0927 B(  4-C ,  6-C ) :   1.2051
B(  4-C , 10-C ) :   0.2125 B(  6-C ,  7-H ) :   1.0257 B(  6-C ,  8-C ) :   1.1797
B(  8-C ,  9-H ) :   1.0451 B(  8-C , 10-C ) :   1.2289 B( 10-C , 11-H ) :   1.0598
B( 12-C , 13-H ) :   0.6794 B( 12-C , 14-H ) :   0.8708 B( 12-C , 15-C ) :   0.9348
B( 12-C , 24-C ) :   1.0008 B( 15-C , 16-H ) :   0.8356 B( 15-C , 17-H ) :   0.9577
B( 15-C , 18-C ) :   0.9820 B( 18-C , 19-H ) :   0.9634 B( 18-C , 20-H ) :   0.8933
B( 18-C , 21-C ) :   0.9629 B( 21-C , 22-H ) :   0.8575 B( 21-C , 23-H ) :   0.8971
B( 21-C , 24-C ) :   1.0017 B( 24-C , 25-H ) :   0.8460 B( 24-C , 26-H ) :   0.9452

MP2 TOTAL ENERGY:     -427.984422977 Eh
FINAL SINGLE POINT ENERGY      -427.984422976924

DIPOLE MOMENT
-------------
                                X             Y             Z
Electronic contribution:     -0.54464      -0.81254      -9.79004
Nuclear contribution   :      0.51663       0.78981       9.68398
                        -----------------------------------------
Total Dipole Moment    :     -0.02801      -0.02273      -0.10605
                        -----------------------------------------
Magnitude (a.u.)       :      0.11202
Magnitude (Debye)      :      0.28473

Rotational constants in cm-1:     0.057237     0.020040     0.019758
Rotational constants in MHz :  1715.935155   600.789842   592.320308

                             ****ORCA TERMINATED NORMALLY****
TOTAL RUN TIME: 0 days 1 hours 43 minutes 18 seconds 386 msec
