                         Program Version 5.0.4 -  RELEASE  -
|  1> ! ri-mp2 aug-cc-pvdz aug-cc-pvdz/c tightscf
|  2> %pal nprocs 16 end
|  3> %maxcore 3800
|  4> %base "DZ_S66by10_37_0.9_dimer"
|  5> %scf STABPerform true end
|  6>
|  7> *xyz 0 1
|  8> C    0.79991408   -1.02205164    0.68773696
|  9> H    0.85355588   -1.12205101   -0.39801435
| 10> H    1.49140210   -1.74416936    1.11972040
| 11> C    1.11688700    0.42495279    1.09966205
| 12> H    1.83814230    0.89014504    0.43045256
| 13> H    1.55556959    0.43982464    2.09708356
| 14> C   -0.24455916    1.16568959    1.10297714
| 15> H   -0.25807760    2.00086313    0.40532333
| 16> H   -0.44880450    1.57699582    2.09098447
| 17> C   -1.29871418    0.10381191    0.73930899
| 18> H   -1.47356078    0.10524338   -0.33800545
| 19> H   -2.25673428    0.27804118    1.22715843
| 20> C   -0.64687993   -1.22006836    1.13630660
| 21> H   -1.12443918   -2.08762702    0.68299327
| 22> H   -0.68601864   -1.34528332    2.22022006
| 23> C    0.04220617    0.07932919    5.27401743
| 24> C   -0.05413802   -0.07275679    6.78965791
| 25> H    0.93840834   -0.08822299    7.24201513
| 26> H   -0.61306279    0.75512771    7.22809282
| 27> H   -0.56130272   -1.00142287    7.05500750
| 28> C    0.75625942    1.38623430    4.93839255
| 29> H    0.83777896    1.51973343    3.85871067
| 30> H    0.21278703    2.24092274    5.34389393
| 31> H    1.76386396    1.39688472    5.35662555
| 32> C   -1.36280564    0.09915384    4.67669790
| 33> H   -1.32587405    0.21634377    3.59284894
| 34> H   -1.94510517    0.92657739    5.08504382
| 35> H   -1.89270870   -0.82863301    4.89802720
| 36> C    0.83010599   -1.09415572    4.69667925
| 37> H    0.33488567   -2.04114645    4.91692240
| 38> H    0.92494916   -1.00697295    3.61354448
| 39> H    1.83482407   -1.13156035    5.12042771
| 40> *
| 41>
| 42> $new_job
| 43> ! ri-mp2 aug-cc-pvtz aug-cc-pvtz/c tightscf
| 44> %pal nprocs 16 end
| 45> %maxcore 3800
| 46> %base "TZ_S66by10_37_0.9_dimer"
| 47>
| 48> *xyz 0 1
| 49> C    0.79991408   -1.02205164    0.68773696
| 50> H    0.85355588   -1.12205101   -0.39801435
| 51> H    1.49140210   -1.74416936    1.11972040
| 52> C    1.11688700    0.42495279    1.09966205
| 53> H    1.83814230    0.89014504    0.43045256
| 54> H    1.55556959    0.43982464    2.09708356
| 55> C   -0.24455916    1.16568959    1.10297714
| 56> H   -0.25807760    2.00086313    0.40532333
| 57> H   -0.44880450    1.57699582    2.09098447
| 58> C   -1.29871418    0.10381191    0.73930899
| 59> H   -1.47356078    0.10524338   -0.33800545
| 60> H   -2.25673428    0.27804118    1.22715843
| 61> C   -0.64687993   -1.22006836    1.13630660
| 62> H   -1.12443918   -2.08762702    0.68299327
| 63> H   -0.68601864   -1.34528332    2.22022006
| 64> C    0.04220617    0.07932919    5.27401743
| 65> C   -0.05413802   -0.07275679    6.78965791
| 66> H    0.93840834   -0.08822299    7.24201513
| 67> H   -0.61306279    0.75512771    7.22809282
| 68> H   -0.56130272   -1.00142287    7.05500750
| 69> C    0.75625942    1.38623430    4.93839255
| 70> H    0.83777896    1.51973343    3.85871067
| 71> H    0.21278703    2.24092274    5.34389393
| 72> H    1.76386396    1.39688472    5.35662555
| 73> C   -1.36280564    0.09915384    4.67669790
| 74> H   -1.32587405    0.21634377    3.59284894
| 75> H   -1.94510517    0.92657739    5.08504382
| 76> H   -1.89270870   -0.82863301    4.89802720
| 77> C    0.83010599   -1.09415572    4.69667925
| 78> H    0.33488567   -2.04114645    4.91692240
| 79> H    0.92494916   -1.00697295    3.61354448
| 80> H    1.83482407   -1.13156035    5.12042771
| 81> *
| 82>
| 83> $new_job
| 84> ! ri-mp2 aug-cc-pvqz aug-cc-pvqz/c tightscf
| 85> %pal nprocs 16 end
| 86> %maxcore 3800
| 87> %base "QZ_S66by10_37_0.9_dimer"
| 88>
| 89> *xyz 0 1
| 90> C    0.79991408   -1.02205164    0.68773696
| 91> H    0.85355588   -1.12205101   -0.39801435
| 92> H    1.49140210   -1.74416936    1.11972040
| 93> C    1.11688700    0.42495279    1.09966205
| 94> H    1.83814230    0.89014504    0.43045256
| 95> H    1.55556959    0.43982464    2.09708356
| 96> C   -0.24455916    1.16568959    1.10297714
| 97> H   -0.25807760    2.00086313    0.40532333
| 98> H   -0.44880450    1.57699582    2.09098447
| 99> C   -1.29871418    0.10381191    0.73930899
|100> H   -1.47356078    0.10524338   -0.33800545
|101> H   -2.25673428    0.27804118    1.22715843
|102> C   -0.64687993   -1.22006836    1.13630660
|103> H   -1.12443918   -2.08762702    0.68299327
|104> H   -0.68601864   -1.34528332    2.22022006
|105> C    0.04220617    0.07932919    5.27401743
|106> C   -0.05413802   -0.07275679    6.78965791
|107> H    0.93840834   -0.08822299    7.24201513
|108> H   -0.61306279    0.75512771    7.22809282
|109> H   -0.56130272   -1.00142287    7.05500750
|110> C    0.75625942    1.38623430    4.93839255
|111> H    0.83777896    1.51973343    3.85871067
|112> H    0.21278703    2.24092274    5.34389393
|113> H    1.76386396    1.39688472    5.35662555
|114> C   -1.36280564    0.09915384    4.67669790
|115> H   -1.32587405    0.21634377    3.59284894
|116> H   -1.94510517    0.92657739    5.08504382
|117> H   -1.89270870   -0.82863301    4.89802720
|118> C    0.83010599   -1.09415572    4.69667925
|119> H    0.33488567   -2.04114645    4.91692240
|120> H    0.92494916   -1.00697295    3.61354448
|121> H    1.83482407   -1.13156035    5.12042771
|122> *
|123>
|124>
|125>
|126>
|127>                          ****END OF INPUT****
 Total Charge           Charge          ....    0
 Multiplicity           Mult            ....    1
 Number of Electrons    NEL             ....   82
MP2 TOTAL ENERGY:     -393.051017642 Eh
FINAL SINGLE POINT ENERGY      -393.051017641724
MP2 TOTAL ENERGY:     -393.433711370 Eh
FINAL SINGLE POINT ENERGY      -393.433711369815

CARTESIAN COORDINATES (ANGSTROEM)
---------------------------------
  C      0.799914   -1.022052    0.687737
  H      0.853556   -1.122051   -0.398014
  H      1.491402   -1.744169    1.119720
  C      1.116887    0.424953    1.099662
  H      1.838142    0.890145    0.430453
  H      1.555570    0.439825    2.097084
  C     -0.244559    1.165690    1.102977
  H     -0.258078    2.000863    0.405323
  H     -0.448804    1.576996    2.090984
  C     -1.298714    0.103812    0.739309
  H     -1.473561    0.105243   -0.338005
  H     -2.256734    0.278041    1.227158
  C     -0.646880   -1.220068    1.136307
  H     -1.124439   -2.087627    0.682993
  H     -0.686019   -1.345283    2.220220
  C      0.042206    0.079329    5.274017
  C     -0.054138   -0.072757    6.789658
  H      0.938408   -0.088223    7.242015
  H     -0.613063    0.755128    7.228093
  H     -0.561303   -1.001423    7.055008
  C      0.756259    1.386234    4.938393
  H      0.837779    1.519733    3.858711
  H      0.212787    2.240923    5.343894
  H      1.763864    1.396885    5.356626
  C     -1.362806    0.099154    4.676698
  H     -1.325874    0.216344    3.592849
  H     -1.945105    0.926577    5.085044
  H     -1.892709   -0.828633    4.898027
  C      0.830106   -1.094156    4.696679
  H      0.334886   -2.041146    4.916922
  H      0.924949   -1.006973    3.613544
  H      1.834824   -1.131560    5.120428

 Multiplicity           Mult            ....    1
 Number of Electrons    NEL             ....   82
 Basis Dimension        Dim             .... 1812

ORBITAL ENERGIES
----------------

  NO   OCC          E(Eh)            E(eV)
   0   2.0000     -11.225664      -305.4658
   1   2.0000     -11.209831      -305.0350
   2   2.0000     -11.209582      -305.0282
   3   2.0000     -11.209263      -305.0196
   4   2.0000     -11.208860      -305.0086
   5   2.0000     -11.207438      -304.9699
   6   2.0000     -11.204069      -304.8782
   7   2.0000     -11.203921      -304.8742
   8   2.0000     -11.203827      -304.8716
   9   2.0000     -11.203690      -304.8679
  10   2.0000      -1.117216       -30.4010
  11   2.0000      -1.106057       -30.0973
  12   2.0000      -0.958064       -26.0703
  13   2.0000      -0.957522       -26.0555
  14   2.0000      -0.929122       -25.2827
  15   2.0000      -0.928769       -25.2731
  16   2.0000      -0.928694       -25.2710
  17   2.0000      -0.778259       -21.1775
  18   2.0000      -0.768760       -20.9190
  19   2.0000      -0.730667       -19.8825
  20   2.0000      -0.655746       -17.8438
  21   2.0000      -0.645504       -17.5651
  22   2.0000      -0.613031       -16.6814
  23   2.0000      -0.612437       -16.6652
  24   2.0000      -0.608458       -16.5570
  25   2.0000      -0.577806       -15.7229
  26   2.0000      -0.574283       -15.6270
  27   2.0000      -0.550433       -14.9780
  28   2.0000      -0.548604       -14.9283
  29   2.0000      -0.509597       -13.8668
  30   2.0000      -0.509109       -13.8536
  31   2.0000      -0.508853       -13.8466
  32   2.0000      -0.476465       -12.9653
  33   2.0000      -0.475756       -12.9460
  34   2.0000      -0.465336       -12.6624
  35   2.0000      -0.464949       -12.6519
  36   2.0000      -0.460399       -12.5281
  37   2.0000      -0.453218       -12.3327
  38   2.0000      -0.452255       -12.3065
  39   2.0000      -0.449524       -12.2322
  40   2.0000      -0.443542       -12.0694
  41   0.0000       0.022539         0.6133
  42   0.0000       0.028331         0.7709
  43   0.0000       0.029263         0.7963
  44   0.0000       0.029478         0.8021
  45   0.0000       0.039802         1.0831

MULLIKEN ATOMIC CHARGES
-----------------------
   0 C :   -0.665032
   1 H :    0.249538
   2 H :    0.258911
   3 C :   -0.598590
   4 H :    0.308791
   5 H :    0.372340
   6 C :   -0.575461
   7 H :    0.301597
   8 H :    0.367032
   9 C :   -0.658431
  10 H :    0.248258
  11 H :    0.262827
  12 C :   -0.569914
  13 H :    0.333762
  14 H :    0.414659
  15 C :    2.107057
  16 C :   -1.174140
  17 H :    0.220969
  18 H :    0.220418
  19 H :    0.204533
  20 C :   -1.328631
  21 H :    0.432711
  22 H :    0.163120
  23 H :    0.161991
  24 C :   -1.248274
  25 H :    0.379336
  26 H :    0.114736
  27 H :    0.217824
  28 C :   -1.239586
  29 H :    0.217828
  30 H :    0.390170
  31 H :    0.109651
Sum of atomic charges:   -0.0000000

LOEWDIN ATOMIC CHARGES
----------------------
   0 C :    0.542915
   1 H :   -0.263265
   2 H :   -0.253449
   3 C :    0.558596
   4 H :   -0.253130
   5 H :   -0.311382
   6 C :    0.560907
   7 H :   -0.254428
   8 H :   -0.309055
   9 C :    0.543827
  10 H :   -0.263750
  11 H :   -0.255302
  12 C :    0.527992
  13 H :   -0.243632
  14 H :   -0.322656
  15 C :   -0.303475
  16 C :    0.906924
  17 H :   -0.270943
  18 H :   -0.270899
  19 H :   -0.270302
  20 C :    0.916165
  21 H :   -0.321119
  22 H :   -0.260503
  23 H :   -0.260503
  24 C :    0.914284
  25 H :   -0.337932
  26 H :   -0.257307
  27 H :   -0.255826
  28 C :    0.914906
  29 H :   -0.256097
  30 H :   -0.333873
  31 H :   -0.257688

  Mayer bond orders larger than 0.100000
B(  0-C ,  1-H ) :   0.9794 B(  0-C ,  2-H ) :   0.9155 B(  0-C ,  3-C ) :   0.9327
B(  0-C , 12-C ) :   0.9005 B(  3-C ,  4-H ) :   0.9449 B(  3-C ,  5-H ) :   0.8527
B(  3-C ,  6-C ) :   0.8482 B(  6-C ,  7-H ) :   0.9464 B(  6-C ,  8-H ) :   0.8588
B(  6-C ,  9-C ) :   0.9429 B(  9-C , 10-H ) :   0.9855 B(  9-C , 11-H ) :   0.9175
B(  9-C , 12-C ) :   0.8741 B( 12-C , 13-H ) :   0.8870 B( 12-C , 14-H ) :   0.7997
B( 15-C , 16-C ) :  -0.1181 B( 15-C , 17-H ) :  -0.1954 B( 15-C , 18-H ) :  -0.1961
B( 15-C , 19-H ) :  -0.2150 B( 15-C , 20-C ) :   0.2991 B( 15-C , 22-H ) :  -0.1065
B( 15-C , 23-H ) :  -0.1063 B( 15-C , 24-C ) :   0.3345 B( 15-C , 28-C ) :   0.3187
B( 16-C , 17-H ) :   1.1042 B( 16-C , 18-H ) :   1.1045 B( 16-C , 19-H ) :   1.1237
B( 16-C , 20-C ) :   0.1860 B( 16-C , 24-C ) :   0.1774 B( 16-C , 28-C ) :   0.1764
B( 20-C , 21-H ) :   0.8180 B( 20-C , 22-H ) :   1.1460 B( 20-C , 23-H ) :   1.1481
B( 20-C , 24-C ) :   0.1513 B( 20-C , 28-C ) :   0.1492 B( 24-C , 25-H ) :   0.8930
B( 24-C , 26-H ) :   1.1908 B( 24-C , 27-H ) :   1.0747 B( 24-C , 28-C ) :   0.1417
B( 28-C , 29-H ) :   1.0752 B( 28-C , 30-H ) :   0.8914 B( 28-C , 31-H ) :   1.2023

MP2 TOTAL ENERGY:     -393.547909775 Eh
FINAL SINGLE POINT ENERGY      -393.547909774610

DIPOLE MOMENT
-------------
                                X             Y             Z
Electronic contribution:     -0.10997      -0.22571      -3.46745
Nuclear contribution   :      0.10792       0.22120       3.43544
                        -----------------------------------------
Total Dipole Moment    :     -0.00205      -0.00451      -0.03201
                        -----------------------------------------
Magnitude (a.u.)       :      0.03239
Magnitude (Debye)      :      0.08234

Rotational constants in cm-1:     0.068755     0.019703     0.019679
Rotational constants in MHz :  2061.217385   590.681354   589.971636

                             ****ORCA TERMINATED NORMALLY****
TOTAL RUN TIME: 0 days 20 hours 35 minutes 11 seconds 235 msec
