                         Program Version 5.0.4 -  RELEASE  -
|  1> ! ri-mp2 aug-cc-pvdz aug-cc-pvdz/c tightscf
|  2> %pal nprocs 16 end
|  3> %maxcore 3800
|  4> %base "DZ_S66by10_55_0.95_dimer"
|  5>
|  6> *xyz 0 1
|  7> C    0.75974918    1.03127506    0.37377239
|  8> H    1.43501626    1.87566427    0.37470462
|  9> C    1.26661779   -0.26736234    0.42127308
| 10> H    2.33491597   -0.42918019    0.45943234
| 11> C    0.39532054   -1.35599116    0.42490511
| 12> H    0.78866193   -2.36249259    0.46303549
| 13> C   -0.98220564   -1.14665441    0.38127024
| 14> H   -1.65765632   -1.99114019    0.38512100
| 15> C   -1.48934612    0.15114979    0.33757234
| 16> H   -2.55794704    0.31375049    0.30771900
| 17> C   -0.61877516    1.24033121    0.33388373
| 18> H   -1.01176161    2.24710690    0.30436922
| 19> O    0.05717829    0.31185237    3.56198095
| 20> H    0.14327851    0.36172546    2.60478741
| 21> C   -0.83897231   -0.74576171    3.84503599
| 22> H   -0.93469300   -0.80249629    4.92597213
| 23> H   -1.83112190   -0.57406397    3.42124579
| 24> H   -0.47251199   -1.70880278    3.48212447
| 25> *
| 26>
| 27> $new_job
| 28> ! ri-mp2 aug-cc-pvtz aug-cc-pvtz/c tightscf
| 29> %pal nprocs 16 end
| 30> %maxcore 3800
| 31> %base "TZ_S66by10_55_0.95_dimer"
| 32>
| 33> *xyz 0 1
| 34> C    0.75974918    1.03127506    0.37377239
| 35> H    1.43501626    1.87566427    0.37470462
| 36> C    1.26661779   -0.26736234    0.42127308
| 37> H    2.33491597   -0.42918019    0.45943234
| 38> C    0.39532054   -1.35599116    0.42490511
| 39> H    0.78866193   -2.36249259    0.46303549
| 40> C   -0.98220564   -1.14665441    0.38127024
| 41> H   -1.65765632   -1.99114019    0.38512100
| 42> C   -1.48934612    0.15114979    0.33757234
| 43> H   -2.55794704    0.31375049    0.30771900
| 44> C   -0.61877516    1.24033121    0.33388373
| 45> H   -1.01176161    2.24710690    0.30436922
| 46> O    0.05717829    0.31185237    3.56198095
| 47> H    0.14327851    0.36172546    2.60478741
| 48> C   -0.83897231   -0.74576171    3.84503599
| 49> H   -0.93469300   -0.80249629    4.92597213
| 50> H   -1.83112190   -0.57406397    3.42124579
| 51> H   -0.47251199   -1.70880278    3.48212447
| 52> *
| 53>
| 54> $new_job
| 55> ! ri-mp2 aug-cc-pvqz aug-cc-pvqz/c tightscf
| 56> %pal nprocs 16 end
| 57> %maxcore 3800
| 58> %base "QZ_S66by10_55_0.95_dimer"
| 59>
| 60> *xyz 0 1
| 61> C    0.75974918    1.03127506    0.37377239
| 62> H    1.43501626    1.87566427    0.37470462
| 63> C    1.26661779   -0.26736234    0.42127308
| 64> H    2.33491597   -0.42918019    0.45943234
| 65> C    0.39532054   -1.35599116    0.42490511
| 66> H    0.78866193   -2.36249259    0.46303549
| 67> C   -0.98220564   -1.14665441    0.38127024
| 68> H   -1.65765632   -1.99114019    0.38512100
| 69> C   -1.48934612    0.15114979    0.33757234
| 70> H   -2.55794704    0.31375049    0.30771900
| 71> C   -0.61877516    1.24033121    0.33388373
| 72> H   -1.01176161    2.24710690    0.30436922
| 73> O    0.05717829    0.31185237    3.56198095
| 74> H    0.14327851    0.36172546    2.60478741
| 75> C   -0.83897231   -0.74576171    3.84503599
| 76> H   -0.93469300   -0.80249629    4.92597213
| 77> H   -1.83112190   -0.57406397    3.42124579
| 78> H   -0.47251199   -1.70880278    3.48212447
| 79> *
| 80>
| 81>
| 82>
| 83>
| 84>                          ****END OF INPUT****
 Total Charge           Charge          ....    0
 Multiplicity           Mult            ....    1
 Number of Electrons    NEL             ....   60
MP2 TOTAL ENERGY:     -346.970682696 Eh
FINAL SINGLE POINT ENERGY      -346.970682695918
MP2 TOTAL ENERGY:     -347.282705150 Eh
FINAL SINGLE POINT ENERGY      -347.282705149804

CARTESIAN COORDINATES (ANGSTROEM)
---------------------------------
  C      0.759749    1.031275    0.373772
  H      1.435016    1.875664    0.374705
  C      1.266618   -0.267362    0.421273
  H      2.334916   -0.429180    0.459432
  C      0.395321   -1.355991    0.424905
  H      0.788662   -2.362493    0.463035
  C     -0.982206   -1.146654    0.381270
  H     -1.657656   -1.991140    0.385121
  C     -1.489346    0.151150    0.337572
  H     -2.557947    0.313750    0.307719
  C     -0.618775    1.240331    0.333884
  H     -1.011762    2.247107    0.304369
  O      0.057178    0.311852    3.561981
  H      0.143279    0.361725    2.604787
  C     -0.838972   -0.745762    3.845036
  H     -0.934693   -0.802496    4.925972
  H     -1.831122   -0.574064    3.421246
  H     -0.472512   -1.708803    3.482124

 Multiplicity           Mult            ....    1
 Number of Electrons    NEL             ....   60
 Basis Dimension        Dim             .... 1100

ORBITAL ENERGIES
----------------

  NO   OCC          E(Eh)            E(eV)
   0   2.0000     -20.535107      -558.7887
   1   2.0000     -11.254018      -306.2374
   2   2.0000     -11.246248      -306.0260
   3   2.0000     -11.245723      -306.0117
   4   2.0000     -11.245660      -306.0100
   5   2.0000     -11.244406      -305.9758
   6   2.0000     -11.244275      -305.9723
   7   2.0000     -11.243731      -305.9575
   8   2.0000      -1.339365       -36.4460
   9   2.0000      -1.162735       -31.6396
  10   2.0000      -1.026533       -27.9334
  11   2.0000      -1.026130       -27.9224
  12   2.0000      -0.909512       -24.7491
  13   2.0000      -0.834944       -22.7200
  14   2.0000      -0.834937       -22.7198
  15   2.0000      -0.720912       -19.6170
  16   2.0000      -0.677830       -18.4447
  17   2.0000      -0.654366       -17.8062
  18   2.0000      -0.630105       -17.1460
  19   2.0000      -0.604537       -16.4503
  20   2.0000      -0.599124       -16.3030
  21   2.0000      -0.599038       -16.3006
  22   2.0000      -0.577360       -15.7108
  23   2.0000      -0.514800       -14.0084
  24   2.0000      -0.505573       -13.7573
  25   2.0000      -0.505498       -13.7553
  26   2.0000      -0.487600       -13.2683
  27   2.0000      -0.433204       -11.7881
  28   2.0000      -0.349401        -9.5077
  29   2.0000      -0.349372        -9.5069
  30   0.0000       0.023655         0.6437
  31   0.0000       0.028985         0.7887
  32   0.0000       0.029263         0.7963
  33   0.0000       0.038599         1.0503
  34   0.0000       0.041018         1.1161

MULLIKEN ATOMIC CHARGES
-----------------------
   0 C :   -0.201703
   1 H :    0.291561
   2 C :   -0.361561
   3 H :    0.309268
   4 C :   -0.331768
   5 H :    0.302351
   6 C :   -0.277155
   7 H :    0.275784
   8 C :   -0.332435
   9 H :    0.304341
  10 C :   -0.367210
  11 H :    0.306712
  12 O :   -0.779453
  13 H :    0.486087
  14 C :   -0.623187
  15 H :    0.475240
  16 H :    0.262313
  17 H :    0.260815
Sum of atomic charges:    0.0000000

LOEWDIN ATOMIC CHARGES
----------------------
   0 C :    0.330676
   1 H :   -0.312120
   2 C :    0.335241
   3 H :   -0.313290
   4 C :    0.330545
   5 H :   -0.316058
   6 C :    0.318815
   7 H :   -0.315486
   8 C :    0.330160
   9 H :   -0.316222
  10 C :    0.335771
  11 H :   -0.313527
  12 O :    1.271912
  13 H :   -0.960791
  14 C :    0.566359
  15 H :   -0.334600
  16 H :   -0.318637
  17 H :   -0.318749

  Mayer bond orders larger than 0.100000
B(  0-C ,  1-H ) :   1.0782 B(  0-C ,  2-C ) :   1.1802 B(  0-C ,  6-C ) :   0.1222
B(  0-C , 10-C ) :   1.1803 B(  2-C ,  3-H ) :   1.0607 B(  2-C ,  4-C ) :   1.2457
B(  2-C ,  8-C ) :   0.1502 B(  4-C ,  5-H ) :   1.0538 B(  4-C ,  6-C ) :   1.2006
B(  4-C , 10-C ) :   0.1503 B(  6-C ,  7-H ) :   1.0707 B(  6-C ,  8-C ) :   1.1974
B(  8-C ,  9-H ) :   1.0510 B(  8-C , 10-C ) :   1.2482 B( 10-C , 11-H ) :   1.0636
B( 12-O , 13-H ) :   0.8090 B( 12-O , 14-C ) :   0.8322 B( 14-C , 15-H ) :   0.7548
B( 14-C , 16-H ) :   0.9190 B( 14-C , 17-H ) :   0.9198

MP2 TOTAL ENERGY:     -347.381018991 Eh
FINAL SINGLE POINT ENERGY      -347.381018991192

DIPOLE MOMENT
-------------
                                X             Y             Z
Electronic contribution:      1.44783       1.53071      -3.85747
Nuclear contribution   :     -1.74004      -1.91729       3.17937
                        -----------------------------------------
Total Dipole Moment    :     -0.29221      -0.38659      -0.67811
                        -----------------------------------------
Magnitude (a.u.)       :      0.83346
Magnitude (Debye)      :      2.11850

Rotational constants in cm-1:     0.087018     0.048849     0.047027
Rotational constants in MHz :  2608.728267  1464.461637  1409.833605

                             ****ORCA TERMINATED NORMALLY****
TOTAL RUN TIME: 0 days 0 hours 26 minutes 46 seconds 56 msec
