                         Program Version 5.0.4 -  RELEASE  -
|  1> ! ri-mp2 aug-cc-pvdz aug-cc-pvdz/c tightscf
|  2> %pal nprocs 16 end
|  3> %maxcore 3800
|  4> %base "DZ_S66by10_39_1.5_dimer"
|  5>
|  6> *xyz 0 1
|  7> C    0.76554546    0.86824433    0.82099095
|  8> H    1.43747647    1.68000664    1.06510281
|  9> C    1.23765260   -0.44283807    0.79388795
| 10> H    2.27575877   -0.64853808    1.01771141
| 11> C    0.37223723   -1.48853667    0.47726862
| 12> H    0.73818789   -2.50608012    0.45705609
| 13> C   -0.96493318   -1.22297162    0.18687834
| 14> H   -1.63645949   -2.03456079   -0.05777362
| 15> C   -1.43706509    0.08840558    0.21327714
| 16> H   -2.47468432    0.29430216   -0.01146746
| 17> C   -0.57190649    1.13402416    0.53081281
| 18> H   -0.93769935    2.15171058    0.55107764
| 19> C   -0.69370071   -0.60340880    5.60124593
| 20> H   -0.79995455   -0.42845964    4.52893906
| 21> H   -1.34533828   -1.43267270    5.87439659
| 22> C    0.77584048   -0.86047189    5.94537581
| 23> H    1.27107126   -1.49805694    5.21479153
| 24> H    0.83911965   -1.36068567    6.91284244
| 25> C    1.41597752    0.54492478    6.03632866
| 26> H    2.06624584    0.73759571    5.18447574
| 27> H    2.02884471    0.63409420    6.93205402
| 28> C    0.23693140    1.54410180    6.06320070
| 29> H    0.11977991    2.00307219    5.08091536
| 30> H    0.38252499    2.34560663    6.78559930
| 31> C   -0.99684037    0.68700661    6.35884956
| 32> H   -1.92782888    1.16274406    6.05293642
| 33> H   -1.06226613    0.47768570    7.42938480
| 34> *
| 35>
| 36> $new_job
| 37> ! ri-mp2 aug-cc-pvtz aug-cc-pvtz/c tightscf
| 38> %pal nprocs 16 end
| 39> %maxcore 3800
| 40> %base "TZ_S66by10_39_1.5_dimer"
| 41>
| 42> *xyz 0 1
| 43> C    0.76554546    0.86824433    0.82099095
| 44> H    1.43747647    1.68000664    1.06510281
| 45> C    1.23765260   -0.44283807    0.79388795
| 46> H    2.27575877   -0.64853808    1.01771141
| 47> C    0.37223723   -1.48853667    0.47726862
| 48> H    0.73818789   -2.50608012    0.45705609
| 49> C   -0.96493318   -1.22297162    0.18687834
| 50> H   -1.63645949   -2.03456079   -0.05777362
| 51> C   -1.43706509    0.08840558    0.21327714
| 52> H   -2.47468432    0.29430216   -0.01146746
| 53> C   -0.57190649    1.13402416    0.53081281
| 54> H   -0.93769935    2.15171058    0.55107764
| 55> C   -0.69370071   -0.60340880    5.60124593
| 56> H   -0.79995455   -0.42845964    4.52893906
| 57> H   -1.34533828   -1.43267270    5.87439659
| 58> C    0.77584048   -0.86047189    5.94537581
| 59> H    1.27107126   -1.49805694    5.21479153
| 60> H    0.83911965   -1.36068567    6.91284244
| 61> C    1.41597752    0.54492478    6.03632866
| 62> H    2.06624584    0.73759571    5.18447574
| 63> H    2.02884471    0.63409420    6.93205402
| 64> C    0.23693140    1.54410180    6.06320070
| 65> H    0.11977991    2.00307219    5.08091536
| 66> H    0.38252499    2.34560663    6.78559930
| 67> C   -0.99684037    0.68700661    6.35884956
| 68> H   -1.92782888    1.16274406    6.05293642
| 69> H   -1.06226613    0.47768570    7.42938480
| 70> *
| 71>
| 72> $new_job
| 73> ! ri-mp2 aug-cc-pvqz aug-cc-pvqz/c tightscf
| 74> %pal nprocs 16 end
| 75> %maxcore 3800
| 76> %base "QZ_S66by10_39_1.5_dimer"
| 77>
| 78> *xyz 0 1
| 79> C    0.76554546    0.86824433    0.82099095
| 80> H    1.43747647    1.68000664    1.06510281
| 81> C    1.23765260   -0.44283807    0.79388795
| 82> H    2.27575877   -0.64853808    1.01771141
| 83> C    0.37223723   -1.48853667    0.47726862
| 84> H    0.73818789   -2.50608012    0.45705609
| 85> C   -0.96493318   -1.22297162    0.18687834
| 86> H   -1.63645949   -2.03456079   -0.05777362
| 87> C   -1.43706509    0.08840558    0.21327714
| 88> H   -2.47468432    0.29430216   -0.01146746
| 89> C   -0.57190649    1.13402416    0.53081281
| 90> H   -0.93769935    2.15171058    0.55107764
| 91> C   -0.69370071   -0.60340880    5.60124593
| 92> H   -0.79995455   -0.42845964    4.52893906
| 93> H   -1.34533828   -1.43267270    5.87439659
| 94> C    0.77584048   -0.86047189    5.94537581
| 95> H    1.27107126   -1.49805694    5.21479153
| 96> H    0.83911965   -1.36068567    6.91284244
| 97> C    1.41597752    0.54492478    6.03632866
| 98> H    2.06624584    0.73759571    5.18447574
| 99> H    2.02884471    0.63409420    6.93205402
|100> C    0.23693140    1.54410180    6.06320070
|101> H    0.11977991    2.00307219    5.08091536
|102> H    0.38252499    2.34560663    6.78559930
|103> C   -0.99684037    0.68700661    6.35884956
|104> H   -1.92782888    1.16274406    6.05293642
|105> H   -1.06226613    0.47768570    7.42938480
|106> *
|107>
|108>
|109>
|110>
|111>                          ****END OF INPUT****
 Total Charge           Charge          ....    0
 Multiplicity           Mult            ....    1
 Number of Electrons    NEL             ....   82
MP2 TOTAL ENERGY:     -427.462960969 Eh
FINAL SINGLE POINT ENERGY      -427.462960968795
MP2 TOTAL ENERGY:     -427.857631832 Eh
FINAL SINGLE POINT ENERGY      -427.857631831709

CARTESIAN COORDINATES (ANGSTROEM)
---------------------------------
  C      0.765545    0.868244    0.820991
  H      1.437476    1.680007    1.065103
  C      1.237653   -0.442838    0.793888
  H      2.275759   -0.648538    1.017711
  C      0.372237   -1.488537    0.477269
  H      0.738188   -2.506080    0.457056
  C     -0.964933   -1.222972    0.186878
  H     -1.636459   -2.034561   -0.057774
  C     -1.437065    0.088406    0.213277
  H     -2.474684    0.294302   -0.011467
  C     -0.571906    1.134024    0.530813
  H     -0.937699    2.151711    0.551078
  C     -0.693701   -0.603409    5.601246
  H     -0.799955   -0.428460    4.528939
  H     -1.345338   -1.432673    5.874397
  C      0.775840   -0.860472    5.945376
  H      1.271071   -1.498057    5.214792
  H      0.839120   -1.360686    6.912842
  C      1.415978    0.544925    6.036329
  H      2.066246    0.737596    5.184476
  H      2.028845    0.634094    6.932054
  C      0.236931    1.544102    6.063201
  H      0.119780    2.003072    5.080915
  H      0.382525    2.345607    6.785599
  C     -0.996840    0.687007    6.358850
  H     -1.927829    1.162744    6.052936
  H     -1.062266    0.477686    7.429385

 Multiplicity           Mult            ....    1
 Number of Electrons    NEL             ....   82
 Basis Dimension        Dim             .... 1616

ORBITAL ENERGIES
----------------

  NO   OCC          E(Eh)            E(eV)
   0   2.0000     -11.236244      -305.7537
   1   2.0000     -11.235663      -305.7379
   2   2.0000     -11.235661      -305.7379
   3   2.0000     -11.234423      -305.7042
   4   2.0000     -11.234415      -305.7040
   5   2.0000     -11.233805      -305.6874
   6   2.0000     -11.206097      -304.9334
   7   2.0000     -11.205622      -304.9205
   8   2.0000     -11.205183      -304.9085
   9   2.0000     -11.204966      -304.9026
  10   2.0000     -11.203583      -304.8650
  11   2.0000      -1.151046       -31.3215
  12   2.0000      -1.112466       -30.2717
  13   2.0000      -1.015545       -27.6344
  14   2.0000      -1.015453       -27.6319
  15   2.0000      -0.952780       -25.9265
  16   2.0000      -0.952136       -25.9089
  17   2.0000      -0.824998       -22.4493
  18   2.0000      -0.824977       -22.4488
  19   2.0000      -0.772822       -21.0295
  20   2.0000      -0.763395       -20.7730
  21   2.0000      -0.710692       -19.3389
  22   2.0000      -0.646469       -17.5913
  23   2.0000      -0.645121       -17.5546
  24   2.0000      -0.640851       -17.4384
  25   2.0000      -0.620174       -16.8758
  26   2.0000      -0.589163       -16.0319
  27   2.0000      -0.589049       -16.0288
  28   2.0000      -0.566605       -15.4181
  29   2.0000      -0.564897       -15.3716
  30   2.0000      -0.503622       -13.7043
  31   2.0000      -0.495977       -13.4962
  32   2.0000      -0.495971       -13.4961
  33   2.0000      -0.471456       -12.8290
  34   2.0000      -0.470444       -12.8014
  35   2.0000      -0.460147       -12.5212
  36   2.0000      -0.456769       -12.4293
  37   2.0000      -0.455269       -12.3885
  38   2.0000      -0.445703       -12.1282
  39   2.0000      -0.338002        -9.1975
  40   2.0000      -0.337923        -9.1953
  41   0.0000       0.023309         0.6343
  42   0.0000       0.028374         0.7721
  43   0.0000       0.028999         0.7891
  44   0.0000       0.032269         0.8781
  45   0.0000       0.039167         1.0658

MULLIKEN ATOMIC CHARGES
-----------------------
   0 C :   -0.335819
   1 H :    0.315136
   2 C :   -0.358832
   3 H :    0.317470
   4 C :   -0.312552
   5 H :    0.326172
   6 C :   -0.325763
   7 H :    0.338306
   8 C :   -0.316550
   9 H :    0.341330
  10 C :   -0.318570
  11 H :    0.323704
  12 C :   -0.663574
  13 H :    0.379596
  14 H :    0.367244
  15 C :   -0.663818
  16 H :    0.345022
  17 H :    0.257234
  18 C :   -0.496201
  19 H :    0.237412
  20 H :    0.295685
  21 C :   -0.629612
  22 H :    0.257565
  23 H :    0.337531
  24 C :   -0.590795
  25 H :    0.350671
  26 H :    0.222005
Sum of atomic charges:    0.0000000

LOEWDIN ATOMIC CHARGES
----------------------
   0 C :    0.325593
   1 H :   -0.327031
   2 C :    0.326096
   3 H :   -0.326821
   4 C :    0.327832
   5 H :   -0.326801
   6 C :    0.328290
   7 H :   -0.326960
   8 C :    0.328119
   9 H :   -0.326966
  10 C :    0.327441
  11 H :   -0.326973
  12 C :    0.518447
  13 H :   -0.268284
  14 H :   -0.255238
  15 C :    0.533724
  16 H :   -0.262843
  17 H :   -0.270841
  18 C :    0.547571
  19 H :   -0.271390
  20 H :   -0.269580
  21 C :    0.532113
  22 H :   -0.274461
  23 H :   -0.260730
  24 C :    0.520757
  25 H :   -0.256880
  26 H :   -0.264183

  Mayer bond orders larger than 0.100000
B(  0-C ,  1-H ) :   1.0106 B(  0-C ,  2-C ) :   1.2309 B(  0-C ,  6-C ) :   0.1187
B(  0-C , 10-C ) :   1.2246 B(  2-C ,  3-H ) :   1.0048 B(  2-C ,  4-C ) :   1.2542
B(  2-C ,  8-C ) :   0.1352 B(  4-C ,  5-H ) :   1.0036 B(  4-C ,  6-C ) :   1.2275
B(  4-C , 10-C ) :   0.1479 B(  6-C ,  7-H ) :   0.9961 B(  6-C ,  8-C ) :   1.2179
B(  8-C ,  9-H ) :   0.9923 B(  8-C , 10-C ) :   1.2504 B( 10-C , 11-H ) :   1.0031
B( 12-C , 13-H ) :   0.7854 B( 12-C , 14-H ) :   0.8214 B( 12-C , 15-C ) :   0.9841
B( 12-C , 24-C ) :   0.9532 B( 15-C , 16-H ) :   0.8428 B( 15-C , 17-H ) :   0.9561
B( 15-C , 18-C ) :   0.9602 B( 18-C , 19-H ) :   0.9409 B( 18-C , 20-H ) :   0.8978
B( 18-C , 21-C ) :   0.9499 B( 21-C , 22-H ) :   0.9168 B( 21-C , 23-H ) :   0.8660
B( 21-C , 24-C ) :   0.9965 B( 24-C , 25-H ) :   0.8109 B( 24-C , 26-H ) :   0.9543

MP2 TOTAL ENERGY:     -427.979592913 Eh
FINAL SINGLE POINT ENERGY      -427.979592913150

DIPOLE MOMENT
-------------
                                X             Y             Z
Electronic contribution:     -0.66627      -1.03166     -12.57903
Nuclear contribution   :      0.64508       1.01700      12.52257
                        -----------------------------------------
Total Dipole Moment    :     -0.02119      -0.01467      -0.05646
                        -----------------------------------------
Magnitude (a.u.)       :      0.06206
Magnitude (Debye)      :      0.15774

Rotational constants in cm-1:     0.057019     0.013033     0.012924
Rotational constants in MHz :  1709.383328   390.719192   387.450319

                             ****ORCA TERMINATED NORMALLY****
TOTAL RUN TIME: 0 days 1 hours 15 minutes 25 seconds 96 msec
