                         Program Version 5.0.4 -  RELEASE  -
|  1> ! ri-mp2 aug-cc-pvdz aug-cc-pvdz/c tightscf
|  2> %pal nprocs 16 end
|  3> %maxcore 3800
|  4> %base "DZ_S66by10_55_0.7_dimer"
|  5>
|  6> *xyz 0 1
|  7> C    0.75974918    1.03127506    0.37377239
|  8> H    1.43501626    1.87566427    0.37470462
|  9> C    1.26661779   -0.26736234    0.42127308
| 10> H    2.33491597   -0.42918019    0.45943234
| 11> C    0.39532054   -1.35599116    0.42490511
| 12> H    0.78866193   -2.36249259    0.46303549
| 13> C   -0.98220564   -1.14665441    0.38127024
| 14> H   -1.65765632   -1.99114019    0.38512100
| 15> C   -1.48934612    0.15114979    0.33757234
| 16> H   -2.55794704    0.31375049    0.30771900
| 17> C   -0.61877516    1.24033121    0.33388373
| 18> H   -1.01176161    2.24710690    0.30436922
| 19> O    0.11170202    0.34226629    2.90114728
| 20> H    0.19780223    0.39213938    1.94395373
| 21> C   -0.78444858   -0.71534778    3.18420231
| 22> H   -0.88016928   -0.77208236    4.26513845
| 23> H   -1.77659817   -0.54365004    2.76041211
| 24> H   -0.41798826   -1.67838885    2.82129080
| 25> *
| 26>
| 27> $new_job
| 28> ! ri-mp2 aug-cc-pvtz aug-cc-pvtz/c tightscf
| 29> %pal nprocs 16 end
| 30> %maxcore 3800
| 31> %base "TZ_S66by10_55_0.7_dimer"
| 32>
| 33> *xyz 0 1
| 34> C    0.75974918    1.03127506    0.37377239
| 35> H    1.43501626    1.87566427    0.37470462
| 36> C    1.26661779   -0.26736234    0.42127308
| 37> H    2.33491597   -0.42918019    0.45943234
| 38> C    0.39532054   -1.35599116    0.42490511
| 39> H    0.78866193   -2.36249259    0.46303549
| 40> C   -0.98220564   -1.14665441    0.38127024
| 41> H   -1.65765632   -1.99114019    0.38512100
| 42> C   -1.48934612    0.15114979    0.33757234
| 43> H   -2.55794704    0.31375049    0.30771900
| 44> C   -0.61877516    1.24033121    0.33388373
| 45> H   -1.01176161    2.24710690    0.30436922
| 46> O    0.11170202    0.34226629    2.90114728
| 47> H    0.19780223    0.39213938    1.94395373
| 48> C   -0.78444858   -0.71534778    3.18420231
| 49> H   -0.88016928   -0.77208236    4.26513845
| 50> H   -1.77659817   -0.54365004    2.76041211
| 51> H   -0.41798826   -1.67838885    2.82129080
| 52> *
| 53>
| 54> $new_job
| 55> ! ri-mp2 aug-cc-pvqz aug-cc-pvqz/c tightscf
| 56> %pal nprocs 16 end
| 57> %maxcore 3800
| 58> %base "QZ_S66by10_55_0.7_dimer"
| 59>
| 60> *xyz 0 1
| 61> C    0.75974918    1.03127506    0.37377239
| 62> H    1.43501626    1.87566427    0.37470462
| 63> C    1.26661779   -0.26736234    0.42127308
| 64> H    2.33491597   -0.42918019    0.45943234
| 65> C    0.39532054   -1.35599116    0.42490511
| 66> H    0.78866193   -2.36249259    0.46303549
| 67> C   -0.98220564   -1.14665441    0.38127024
| 68> H   -1.65765632   -1.99114019    0.38512100
| 69> C   -1.48934612    0.15114979    0.33757234
| 70> H   -2.55794704    0.31375049    0.30771900
| 71> C   -0.61877516    1.24033121    0.33388373
| 72> H   -1.01176161    2.24710690    0.30436922
| 73> O    0.11170202    0.34226629    2.90114728
| 74> H    0.19780223    0.39213938    1.94395373
| 75> C   -0.78444858   -0.71534778    3.18420231
| 76> H   -0.88016928   -0.77208236    4.26513845
| 77> H   -1.77659817   -0.54365004    2.76041211
| 78> H   -0.41798826   -1.67838885    2.82129080
| 79> *
| 80>
| 81>
| 82>
| 83>
| 84>                          ****END OF INPUT****
 Total Charge           Charge          ....    0
 Multiplicity           Mult            ....    1
 Number of Electrons    NEL             ....   60
MP2 TOTAL ENERGY:     -346.949340603 Eh
FINAL SINGLE POINT ENERGY      -346.949340602675
MP2 TOTAL ENERGY:     -347.261431026 Eh
FINAL SINGLE POINT ENERGY      -347.261431025819

CARTESIAN COORDINATES (ANGSTROEM)
---------------------------------
  C      0.759749    1.031275    0.373772
  H      1.435016    1.875664    0.374705
  C      1.266618   -0.267362    0.421273
  H      2.334916   -0.429180    0.459432
  C      0.395321   -1.355991    0.424905
  H      0.788662   -2.362493    0.463035
  C     -0.982206   -1.146654    0.381270
  H     -1.657656   -1.991140    0.385121
  C     -1.489346    0.151150    0.337572
  H     -2.557947    0.313750    0.307719
  C     -0.618775    1.240331    0.333884
  H     -1.011762    2.247107    0.304369
  O      0.111702    0.342266    2.901147
  H      0.197802    0.392139    1.943954
  C     -0.784449   -0.715348    3.184202
  H     -0.880169   -0.772082    4.265138
  H     -1.776598   -0.543650    2.760412
  H     -0.417988   -1.678389    2.821291

 Multiplicity           Mult            ....    1
 Number of Electrons    NEL             ....   60
 Basis Dimension        Dim             .... 1100

ORBITAL ENERGIES
----------------

  NO   OCC          E(Eh)            E(eV)
   0   2.0000     -20.517072      -558.2979
   1   2.0000     -11.247378      -306.0567
   2   2.0000     -11.247074      -306.0484
   3   2.0000     -11.247046      -306.0477
   4   2.0000     -11.245214      -305.9978
   5   2.0000     -11.244297      -305.9729
   6   2.0000     -11.244079      -305.9669
   7   2.0000     -11.243198      -305.9430
   8   2.0000      -1.333271       -36.2801
   9   2.0000      -1.168127       -31.7864
  10   2.0000      -1.033322       -28.1181
  11   2.0000      -1.029419       -28.0119
  12   2.0000      -0.903684       -24.5905
  13   2.0000      -0.837477       -22.7889
  14   2.0000      -0.837428       -22.7876
  15   2.0000      -0.726968       -19.7818
  16   2.0000      -0.684068       -18.6144
  17   2.0000      -0.655735       -17.8435
  18   2.0000      -0.632269       -17.2049
  19   2.0000      -0.602356       -16.3909
  20   2.0000      -0.602242       -16.3878
  21   2.0000      -0.599025       -16.3003
  22   2.0000      -0.569978       -15.5099
  23   2.0000      -0.507433       -13.8080
  24   2.0000      -0.507354       -13.8058
  25   2.0000      -0.504173       -13.7193
  26   2.0000      -0.479668       -13.0524
  27   2.0000      -0.424888       -11.5618
  28   2.0000      -0.349266        -9.5040
  29   2.0000      -0.344883        -9.3848
  30   0.0000       0.023208         0.6315
  31   0.0000       0.028978         0.7885
  32   0.0000       0.029279         0.7967
  33   0.0000       0.039145         1.0652
  34   0.0000       0.040935         1.1139

MULLIKEN ATOMIC CHARGES
-----------------------
   0 C :   -0.069073
   1 H :    0.309266
   2 C :   -0.631961
   3 H :    0.280570
   4 C :   -0.267333
   5 H :    0.266659
   6 C :   -0.294803
   7 H :    0.325541
   8 C :   -0.249714
   9 H :    0.270754
  10 C :   -0.628067
  11 H :    0.275641
  12 O :   -0.892551
  13 H :    0.959837
  14 C :   -0.473266
  15 H :    0.369963
  16 H :    0.225011
  17 H :    0.223527
Sum of atomic charges:   -0.0000000

LOEWDIN ATOMIC CHARGES
----------------------
   0 C :    0.342069
   1 H :   -0.279637
   2 C :    0.362358
   3 H :   -0.287470
   4 C :    0.347962
   5 H :   -0.296816
   6 C :    0.311265
   7 H :   -0.293582
   8 C :    0.346187
   9 H :   -0.297204
  10 C :    0.363972
  11 H :   -0.288416
  12 O :    1.339874
  13 H :   -1.262719
  14 C :    0.580894
  15 H :   -0.315436
  16 H :   -0.336511
  17 H :   -0.336790

  Mayer bond orders larger than 0.100000
B(  0-C ,  1-H ) :   1.0589 B(  0-C ,  2-C ) :   1.1834 B(  0-C ,  6-C ) :   0.1297
B(  0-C , 10-C ) :   1.1865 B(  0-C , 13-H ) :  -0.1461 B(  2-C ,  3-H ) :   1.0884
B(  2-C ,  4-C ) :   1.2984 B(  2-C ,  8-C ) :   0.1032 B(  2-C , 10-C ) :   0.2556
B(  2-C , 13-H ) :  -0.2189 B(  4-C ,  5-H ) :   1.0838 B(  4-C ,  6-C ) :   1.2179
B(  4-C , 10-C ) :   0.1032 B(  6-C ,  7-H ) :   1.0161 B(  6-C ,  8-C ) :   1.2067
B(  8-C ,  9-H ) :   1.0778 B(  8-C , 10-C ) :   1.2935 B( 10-C , 11-H ) :   1.0946
B( 10-C , 13-H ) :  -0.2170 B( 12-O , 13-H ) :   0.5441 B( 12-O , 14-C ) :   0.8096
B( 14-C , 15-H ) :   0.8750 B( 14-C , 16-H ) :   0.9379 B( 14-C , 17-H ) :   0.9380

MP2 TOTAL ENERGY:     -347.359279231 Eh
FINAL SINGLE POINT ENERGY      -347.359279230743

DIPOLE MOMENT
-------------
                                X             Y             Z
Electronic contribution:      1.39564       1.50463      -3.16177
Nuclear contribution   :     -1.68365      -1.88584       2.49591
                        -----------------------------------------
Total Dipole Moment    :     -0.28800      -0.38121      -0.66586
                        -----------------------------------------
Magnitude (a.u.)       :      0.81954
Magnitude (Debye)      :      2.08310

Rotational constants in cm-1:     0.087750     0.065621     0.062750
Rotational constants in MHz :  2630.693046  1967.270790  1881.189191

                             ****ORCA TERMINATED NORMALLY****
TOTAL RUN TIME: 0 days 0 hours 35 minutes 13 seconds 676 msec
