                         Program Version 5.0.4 -  RELEASE  -
|  1> ! ri-mp2 aug-cc-pvdz aug-cc-pvdz/c tightscf
|  2> %pal nprocs 16 end
|  3> %maxcore 3800
|  4> %base "DZ_S66by10_66_0.7_dimer"
|  5>
|  6> *xyz 0 1
|  7> N   -0.54105920    0.02957620   -0.20899508
|  8> H    0.05555335   -0.78611810   -0.13029335
|  9> H   -1.46966940   -0.27470845    0.05314338
| 10> C   -0.07879927    1.04239036    0.73845886
| 11> H   -0.72015294    1.91941377    0.67198026
| 12> H   -0.05075819    0.72382293    1.78551453
| 13> H    0.92643072    1.35660379    0.46199919
| 14> N    1.66800789   -1.11807557   -0.01713550
| 15> C    2.00644420   -0.30573151   -1.02884797
| 16> H    1.46377698   -0.45026949   -1.95422933
| 17> C    2.97777346    0.68640229   -0.92848097
| 18> H    3.20262590    1.31074258   -1.78133166
| 19> C    3.63861353    0.85594373    0.28378347
| 20> H    4.39646748    1.61818106    0.40016760
| 21> C    3.29848062    0.02098120    1.34290642
| 22> H    3.78106903    0.11144344    2.30560707
| 23> C    2.31469906   -0.94380781    1.14372304
| 24> H    2.02861473   -1.60755541    1.95033370
| 25> *
| 26>
| 27> $new_job
| 28> ! ri-mp2 aug-cc-pvtz aug-cc-pvtz/c tightscf
| 29> %pal nprocs 16 end
| 30> %maxcore 3800
| 31> %base "TZ_S66by10_66_0.7_dimer"
| 32>
| 33> *xyz 0 1
| 34> N   -0.54105920    0.02957620   -0.20899508
| 35> H    0.05555335   -0.78611810   -0.13029335
| 36> H   -1.46966940   -0.27470845    0.05314338
| 37> C   -0.07879927    1.04239036    0.73845886
| 38> H   -0.72015294    1.91941377    0.67198026
| 39> H   -0.05075819    0.72382293    1.78551453
| 40> H    0.92643072    1.35660379    0.46199919
| 41> N    1.66800789   -1.11807557   -0.01713550
| 42> C    2.00644420   -0.30573151   -1.02884797
| 43> H    1.46377698   -0.45026949   -1.95422933
| 44> C    2.97777346    0.68640229   -0.92848097
| 45> H    3.20262590    1.31074258   -1.78133166
| 46> C    3.63861353    0.85594373    0.28378347
| 47> H    4.39646748    1.61818106    0.40016760
| 48> C    3.29848062    0.02098120    1.34290642
| 49> H    3.78106903    0.11144344    2.30560707
| 50> C    2.31469906   -0.94380781    1.14372304
| 51> H    2.02861473   -1.60755541    1.95033370
| 52> *
| 53>
| 54> $new_job
| 55> ! ri-mp2 aug-cc-pvqz aug-cc-pvqz/c tightscf
| 56> %pal nprocs 16 end
| 57> %maxcore 3800
| 58> %base "QZ_S66by10_66_0.7_dimer"
| 59>
| 60> *xyz 0 1
| 61> N   -0.54105920    0.02957620   -0.20899508
| 62> H    0.05555335   -0.78611810   -0.13029335
| 63> H   -1.46966940   -0.27470845    0.05314338
| 64> C   -0.07879927    1.04239036    0.73845886
| 65> H   -0.72015294    1.91941377    0.67198026
| 66> H   -0.05075819    0.72382293    1.78551453
| 67> H    0.92643072    1.35660379    0.46199919
| 68> N    1.66800789   -1.11807557   -0.01713550
| 69> C    2.00644420   -0.30573151   -1.02884797
| 70> H    1.46377698   -0.45026949   -1.95422933
| 71> C    2.97777346    0.68640229   -0.92848097
| 72> H    3.20262590    1.31074258   -1.78133166
| 73> C    3.63861353    0.85594373    0.28378347
| 74> H    4.39646748    1.61818106    0.40016760
| 75> C    3.29848062    0.02098120    1.34290642
| 76> H    3.78106903    0.11144344    2.30560707
| 77> C    2.31469906   -0.94380781    1.14372304
| 78> H    2.02861473   -1.60755541    1.95033370
| 79> *
| 80>
| 81>
| 82>
| 83>
| 84>                          ****END OF INPUT****
 Total Charge           Charge          ....    0
 Multiplicity           Mult            ....    1
 Number of Electrons    NEL             ....   60
MP2 TOTAL ENERGY:     -343.130428664 Eh
FINAL SINGLE POINT ENERGY      -343.130428664405
MP2 TOTAL ENERGY:     -343.438014138 Eh
FINAL SINGLE POINT ENERGY      -343.438014137614

CARTESIAN COORDINATES (ANGSTROEM)
---------------------------------
  N     -0.541059    0.029576   -0.208995
  H      0.055553   -0.786118   -0.130293
  H     -1.469669   -0.274708    0.053143
  C     -0.078799    1.042390    0.738459
  H     -0.720153    1.919414    0.671980
  H     -0.050758    0.723823    1.785515
  H      0.926431    1.356604    0.461999
  N      1.668008   -1.118076   -0.017136
  C      2.006444   -0.305732   -1.028848
  H      1.463777   -0.450269   -1.954229
  C      2.977773    0.686402   -0.928481
  H      3.202626    1.310743   -1.781332
  C      3.638614    0.855944    0.283783
  H      4.396467    1.618181    0.400168
  C      3.298481    0.020981    1.342906
  H      3.781069    0.111443    2.305607
  C      2.314699   -0.943808    1.143723
  H      2.028615   -1.607555    1.950334

 Multiplicity           Mult            ....    1
 Number of Electrons    NEL             ....   60
 Basis Dimension        Dim             .... 1100

ORBITAL ENERGIES
----------------

  NO   OCC          E(Eh)            E(eV)
   0   2.0000     -15.568166      -423.6313
   1   2.0000     -15.501573      -421.8193
   2   2.0000     -11.281163      -306.9760
   3   2.0000     -11.277129      -306.8663
   4   2.0000     -11.263312      -306.4903
   5   2.0000     -11.244513      -305.9787
   6   2.0000     -11.242934      -305.9358
   7   2.0000     -11.219506      -305.2983
   8   2.0000      -1.269524       -34.5455
   9   2.0000      -1.147646       -31.2290
  10   2.0000      -1.094865       -29.7928
  11   2.0000      -1.038654       -28.2632
  12   2.0000      -0.880938       -23.9715
  13   2.0000      -0.863304       -23.4917
  14   2.0000      -0.860921       -23.4268
  15   2.0000      -0.730118       -19.8675
  16   2.0000      -0.671492       -18.2722
  17   2.0000      -0.660362       -17.9694
  18   2.0000      -0.656572       -17.8662
  19   2.0000      -0.602836       -16.4040
  20   2.0000      -0.591495       -16.0954
  21   2.0000      -0.578661       -15.7462
  22   2.0000      -0.543070       -14.7777
  23   2.0000      -0.524311       -14.2672
  24   2.0000      -0.521883       -14.2012
  25   2.0000      -0.501087       -13.6353
  26   2.0000      -0.427722       -11.6389
  27   2.0000      -0.386172       -10.5083
  28   2.0000      -0.364778        -9.9261
  29   2.0000      -0.350478        -9.5370
  30   0.0000       0.021588         0.5874
  31   0.0000       0.028418         0.7733
  32   0.0000       0.031886         0.8677
  33   0.0000       0.038563         1.0494
  34   0.0000       0.043106         1.1730

MULLIKEN ATOMIC CHARGES
-----------------------
   0 N :   -0.691532
   1 H :    0.337048
   2 H :    0.167007
   3 C :   -0.732407
   4 H :    0.317956
   5 H :    0.238913
   6 H :    0.354139
   7 N :   -0.570391
   8 C :    0.057581
   9 H :    0.456610
  10 C :   -0.453241
  11 H :    0.294951
  12 C :   -0.266471
  13 H :    0.371604
  14 C :   -0.497338
  15 H :    0.317672
  16 C :   -0.163966
  17 H :    0.461865
Sum of atomic charges:   -0.0000000

LOEWDIN ATOMIC CHARGES
----------------------
   0 N :    1.262032
   1 H :   -0.884949
   2 H :   -0.486228
   3 C :    0.741640
   4 H :   -0.290792
   5 H :   -0.273613
   6 H :   -0.397229
   7 N :    0.634731
   8 C :    0.092888
   9 H :   -0.309479
  10 C :    0.358438
  11 H :   -0.314619
  12 C :    0.343997
  13 H :   -0.306677
  14 C :    0.346754
  15 H :   -0.322487
  16 C :    0.128045
  17 H :   -0.322450

  Mayer bond orders larger than 0.100000
B(  0-N ,  1-H ) :   0.8048 B(  0-N ,  2-H ) :   1.0013 B(  0-N ,  3-C ) :   0.9554
B(  3-C ,  4-H ) :   0.9272 B(  3-C ,  5-H ) :   0.9405 B(  3-C ,  6-H ) :   0.8603
B(  7-N ,  8-C ) :   1.0922 B(  7-N ,  9-H ) :  -0.1510 B(  7-N , 16-C ) :   1.2107
B(  7-N , 17-H ) :  -0.1299 B(  8-C ,  9-H ) :   0.9093 B(  8-C , 10-C ) :   1.1462
B(  8-C , 14-C ) :   0.1294 B( 10-C , 11-H ) :   1.0493 B( 10-C , 12-C ) :   1.2560
B( 12-C , 13-H ) :   0.9776 B( 12-C , 14-C ) :   1.2617 B( 14-C , 15-H ) :   1.0166
B( 14-C , 16-C ) :   1.2321 B( 16-C , 17-H ) :   0.9085

MP2 TOTAL ENERGY:     -343.534631477 Eh
FINAL SINGLE POINT ENERGY      -343.534631476660

DIPOLE MOMENT
-------------
                                X             Y             Z
Electronic contribution:      5.03475      -2.91873      -1.36597
Nuclear contribution   :     -4.23613       3.24719       1.88671
                        -----------------------------------------
Total Dipole Moment    :      0.79862       0.32846       0.52074
                        -----------------------------------------
Magnitude (a.u.)       :      1.00839
Magnitude (Debye)      :      2.56313

Rotational constants in cm-1:     0.108466     0.053660     0.050766
Rotational constants in MHz :  3251.725582  1608.673243  1521.912435

                             ****ORCA TERMINATED NORMALLY****
TOTAL RUN TIME: 0 days 0 hours 32 minutes 47 seconds 843 msec
