                         Program Version 5.0.4 -  RELEASE  -
|  1> ! ri-mp2 aug-cc-pvdz aug-cc-pvdz/c tightscf
|  2> %pal nprocs 16 end
|  3> %maxcore 3800
|  4> %base "DZ_S66by10_50_0.8_dimer"
|  5>
|  6> *xyz 0 1
|  7> C    0.83661195    1.11485600    0.23100790
|  8> H    1.48545250    1.97968049    0.21470491
|  9> C    1.38418781   -0.16696533    0.26005688
| 10> H    2.45768419   -0.29628753    0.26605977
| 11> C    0.54747934   -1.28184652    0.28693051
| 12> H    0.97191784   -2.27597918    0.31387670
| 13> C   -0.83666710   -1.11500365    0.28456279
| 14> H   -1.48555353   -1.97956851    0.30969784
| 15> C   -1.38416274    0.16685015    0.25560540
| 16> H   -2.45764469    0.29645927    0.25854055
| 17> C   -0.54749833    1.28174826    0.22897743
| 18> H   -0.97214124    2.27600137    0.21116093
| 19> C    0.00506268    0.05916884    3.09824639
| 20> H    0.00205355    0.04161329    2.03417088
| 21> C    0.00872313    0.07874969    4.31062256
| 22> H    0.01183554    0.09592262    5.37181957
| 23> *
| 24>
| 25> $new_job
| 26> ! ri-mp2 aug-cc-pvtz aug-cc-pvtz/c tightscf
| 27> %pal nprocs 16 end
| 28> %maxcore 3800
| 29> %base "TZ_S66by10_50_0.8_dimer"
| 30>
| 31> *xyz 0 1
| 32> C    0.83661195    1.11485600    0.23100790
| 33> H    1.48545250    1.97968049    0.21470491
| 34> C    1.38418781   -0.16696533    0.26005688
| 35> H    2.45768419   -0.29628753    0.26605977
| 36> C    0.54747934   -1.28184652    0.28693051
| 37> H    0.97191784   -2.27597918    0.31387670
| 38> C   -0.83666710   -1.11500365    0.28456279
| 39> H   -1.48555353   -1.97956851    0.30969784
| 40> C   -1.38416274    0.16685015    0.25560540
| 41> H   -2.45764469    0.29645927    0.25854055
| 42> C   -0.54749833    1.28174826    0.22897743
| 43> H   -0.97214124    2.27600137    0.21116093
| 44> C    0.00506268    0.05916884    3.09824639
| 45> H    0.00205355    0.04161329    2.03417088
| 46> C    0.00872313    0.07874969    4.31062256
| 47> H    0.01183554    0.09592262    5.37181957
| 48> *
| 49>
| 50> $new_job
| 51> ! ri-mp2 aug-cc-pvqz aug-cc-pvqz/c tightscf
| 52> %pal nprocs 16 end
| 53> %maxcore 3800
| 54> %base "QZ_S66by10_50_0.8_dimer"
| 55>
| 56> *xyz 0 1
| 57> C    0.83661195    1.11485600    0.23100790
| 58> H    1.48545250    1.97968049    0.21470491
| 59> C    1.38418781   -0.16696533    0.26005688
| 60> H    2.45768419   -0.29628753    0.26605977
| 61> C    0.54747934   -1.28184652    0.28693051
| 62> H    0.97191784   -2.27597918    0.31387670
| 63> C   -0.83666710   -1.11500365    0.28456279
| 64> H   -1.48555353   -1.97956851    0.30969784
| 65> C   -1.38416274    0.16685015    0.25560540
| 66> H   -2.45764469    0.29645927    0.25854055
| 67> C   -0.54749833    1.28174826    0.22897743
| 68> H   -0.97214124    2.27600137    0.21116093
| 69> C    0.00506268    0.05916884    3.09824639
| 70> H    0.00205355    0.04161329    2.03417088
| 71> C    0.00872313    0.07874969    4.31062256
| 72> H    0.01183554    0.09592262    5.37181957
| 73> *
| 74>
| 75>
| 76>
| 77>
| 78>                          ****END OF INPUT****
 Total Charge           Charge          ....    0
 Multiplicity           Mult            ....    1
 Number of Electrons    NEL             ....   56
MP2 TOTAL ENERGY:     -308.632667517 Eh
FINAL SINGLE POINT ENERGY      -308.632667517213
MP2 TOTAL ENERGY:     -308.908598088 Eh
FINAL SINGLE POINT ENERGY      -308.908598087636

CARTESIAN COORDINATES (ANGSTROEM)
---------------------------------
  C      0.836612    1.114856    0.231008
  H      1.485452    1.979680    0.214705
  C      1.384188   -0.166965    0.260057
  H      2.457684   -0.296288    0.266060
  C      0.547479   -1.281847    0.286931
  H      0.971918   -2.275979    0.313877
  C     -0.836667   -1.115004    0.284563
  H     -1.485554   -1.979569    0.309698
  C     -1.384163    0.166850    0.255605
  H     -2.457645    0.296459    0.258541
  C     -0.547498    1.281748    0.228977
  H     -0.972141    2.276001    0.211161
  C      0.005063    0.059169    3.098246
  H      0.002054    0.041613    2.034171
  C      0.008723    0.078750    4.310623
  H      0.011836    0.095923    5.371820

 Multiplicity           Mult            ....    1
 Number of Electrons    NEL             ....   56
 Basis Dimension        Dim             .... 1008

ORBITAL ENERGIES
----------------

  NO   OCC          E(Eh)            E(eV)
   0   2.0000     -11.245156      -305.9963
   1   2.0000     -11.244580      -305.9806
   2   2.0000     -11.244576      -305.9805
   3   2.0000     -11.243334      -305.9467
   4   2.0000     -11.243331      -305.9466
   5   2.0000     -11.242721      -305.9300
   6   2.0000     -11.217751      -305.2505
   7   2.0000     -11.214132      -305.1521
   8   2.0000      -1.165867       -31.7249
   9   2.0000      -1.026520       -27.9330
  10   2.0000      -1.026511       -27.9328
  11   2.0000      -1.004236       -27.3267
  12   2.0000      -0.834237       -22.7007
  13   2.0000      -0.834219       -22.7003
  14   2.0000      -0.754520       -20.5315
  15   2.0000      -0.719642       -19.5825
  16   2.0000      -0.664763       -18.0891
  17   2.0000      -0.653108       -17.7720
  18   2.0000      -0.629430       -17.1277
  19   2.0000      -0.599064       -16.3014
  20   2.0000      -0.599049       -16.3010
  21   2.0000      -0.504764       -13.7353
  22   2.0000      -0.504736       -13.7346
  23   2.0000      -0.496731       -13.5167
  24   2.0000      -0.391953       -10.6656
  25   2.0000      -0.391951       -10.6655
  26   2.0000      -0.346195        -9.4204
  27   2.0000      -0.346189        -9.4203
  28   0.0000       0.023276         0.6334
  29   0.0000       0.029951         0.8150
  30   0.0000       0.029952         0.8150
  31   0.0000       0.031981         0.8702
  32   0.0000       0.042157         1.1472

MULLIKEN ATOMIC CHARGES
-----------------------
   0 C :   -0.337788
   1 H :    0.260296
   2 C :   -0.337654
   3 H :    0.260768
   4 C :   -0.337325
   5 H :    0.260640
   6 C :   -0.337739
   7 H :    0.260650
   8 C :   -0.337716
   9 H :    0.260592
  10 C :   -0.337774
  11 H :    0.260414
  12 C :   -0.666403
  13 H :    2.667603
  14 C :   -1.725613
  15 H :    0.187050
Sum of atomic charges:   -0.0000000

LOEWDIN ATOMIC CHARGES
----------------------
   0 C :    0.331418
   1 H :   -0.305579
   2 C :    0.331268
   3 H :   -0.305544
   4 C :    0.331026
   5 H :   -0.305530
   6 C :    0.331180
   7 H :   -0.305533
   8 C :    0.331394
   9 H :   -0.305570
  10 C :    0.331465
  11 H :   -0.305594
  12 C :    0.507827
  13 H :   -0.732332
  14 C :    0.554628
  15 H :   -0.484524

  Mayer bond orders larger than 0.100000
B(  0-C ,  1-H ) :   1.0993 B(  0-C ,  2-C ) :   1.2293 B(  0-C ,  6-C ) :   0.1319
B(  0-C , 10-C ) :   1.2299 B(  0-C , 13-H ) :  -0.2581 B(  2-C ,  3-H ) :   1.0986
B(  2-C ,  4-C ) :   1.2286 B(  2-C ,  8-C ) :   0.1319 B(  2-C , 13-H ) :  -0.2583
B(  4-C ,  5-H ) :   1.0987 B(  4-C ,  6-C ) :   1.2286 B(  4-C , 10-C ) :   0.1319
B(  4-C , 13-H ) :  -0.2581 B(  6-C ,  7-H ) :   1.0987 B(  6-C ,  8-C ) :   1.2292
B(  6-C , 13-H ) :  -0.2583 B(  8-C ,  9-H ) :   1.0989 B(  8-C , 10-C ) :   1.2297
B(  8-C , 13-H ) :  -0.2581 B( 10-C , 11-H ) :   1.0992 B( 10-C , 13-H ) :  -0.2581
B( 12-C , 13-H ) :  -1.3544 B( 12-C , 14-C ) :   1.9906 B( 12-C , 15-H ) :  -0.2449
B( 13-H , 14-C ) :  -1.4956 B( 13-H , 15-H ) :  -0.5265 B( 14-C , 15-H ) :   1.8241

MP2 TOTAL ENERGY:     -308.994139767 Eh
FINAL SINGLE POINT ENERGY      -308.994139766826

DIPOLE MOMENT
-------------
                                X             Y             Z
Electronic contribution:     -0.00034      -0.00818      -0.36499
Nuclear contribution   :     -0.00011       0.00025       0.02079
                        -----------------------------------------
Total Dipole Moment    :     -0.00045      -0.00794      -0.34420
                        -----------------------------------------
Magnitude (a.u.)       :      0.34429
Magnitude (Debye)      :      0.87512

Rotational constants in cm-1:     0.095168     0.050318     0.050317
Rotational constants in MHz :  2853.068890  1508.503682  1508.470271

                             ****ORCA TERMINATED NORMALLY****
TOTAL RUN TIME: 0 days 0 hours 25 minutes 11 seconds 144 msec
