                         Program Version 5.0.4 -  RELEASE  -
|  1> ! ri-mp2 aug-cc-pvdz aug-cc-pvdz/c tightscf
|  2> %pal nprocs 16 end
|  3> %maxcore 3800
|  4> %base "DZ_S66by10_10_2.0_dimer"
|  5> %scf STABPerform true end
|  6>
|  7> *xyz 0 1
|  8> N   -0.63864138    0.47091637    0.04456848
|  9> H    0.18995436   -0.11393716   -0.00577361
| 10> H   -1.30046894    0.08125680   -0.61366848
| 11> C   -1.19865882    0.39139858    1.39194660
| 12> H   -2.09273777    1.00924471    1.45316749
| 13> H   -1.46274551   -0.61584367    1.72945219
| 14> H   -0.48027554    0.79867491    2.10108731
| 15> N    4.99026857   -0.85624394    0.43497676
| 16> H    5.28653724   -0.58170621   -0.49300848
| 17> H    5.61381823   -1.60393426    0.71017162
| 18> C    5.15049854    0.27896665    1.34865206
| 19> H    4.88030824   -0.03572913    2.35430517
| 20> H    6.15790885    0.70074321    1.38562380
| 21> H    4.45795816    1.06474213    1.05599482
| 22> *
| 23>
| 24> $new_job
| 25> ! ri-mp2 aug-cc-pvtz aug-cc-pvtz/c tightscf
| 26> %pal nprocs 16 end
| 27> %maxcore 3800
| 28> %base "TZ_S66by10_10_2.0_dimer"
| 29>
| 30> *xyz 0 1
| 31> N   -0.63864138    0.47091637    0.04456848
| 32> H    0.18995436   -0.11393716   -0.00577361
| 33> H   -1.30046894    0.08125680   -0.61366848
| 34> C   -1.19865882    0.39139858    1.39194660
| 35> H   -2.09273777    1.00924471    1.45316749
| 36> H   -1.46274551   -0.61584367    1.72945219
| 37> H   -0.48027554    0.79867491    2.10108731
| 38> N    4.99026857   -0.85624394    0.43497676
| 39> H    5.28653724   -0.58170621   -0.49300848
| 40> H    5.61381823   -1.60393426    0.71017162
| 41> C    5.15049854    0.27896665    1.34865206
| 42> H    4.88030824   -0.03572913    2.35430517
| 43> H    6.15790885    0.70074321    1.38562380
| 44> H    4.45795816    1.06474213    1.05599482
| 45> *
| 46>
| 47> $new_job
| 48> ! ri-mp2 aug-cc-pvqz aug-cc-pvqz/c tightscf
| 49> %pal nprocs 16 end
| 50> %maxcore 3800
| 51> %base "QZ_S66by10_10_2.0_dimer"
| 52>
| 53> *xyz 0 1
| 54> N   -0.63864138    0.47091637    0.04456848
| 55> H    0.18995436   -0.11393716   -0.00577361
| 56> H   -1.30046894    0.08125680   -0.61366848
| 57> C   -1.19865882    0.39139858    1.39194660
| 58> H   -2.09273777    1.00924471    1.45316749
| 59> H   -1.46274551   -0.61584367    1.72945219
| 60> H   -0.48027554    0.79867491    2.10108731
| 61> N    4.99026857   -0.85624394    0.43497676
| 62> H    5.28653724   -0.58170621   -0.49300848
| 63> H    5.61381823   -1.60393426    0.71017162
| 64> C    5.15049854    0.27896665    1.34865206
| 65> H    4.88030824   -0.03572913    2.35430517
| 66> H    6.15790885    0.70074321    1.38562380
| 67> H    4.45795816    1.06474213    1.05599482
| 68> *
| 69>
| 70>
| 71>
| 72>
| 73>                          ****END OF INPUT****
 Total Charge           Charge          ....    0
 Multiplicity           Mult            ....    1
 Number of Electrons    NEL             ....   36
MP2 TOTAL ENERGY:     -191.146962192 Eh
FINAL SINGLE POINT ENERGY      -191.146962192333
MP2 TOTAL ENERGY:     -191.334809321 Eh
FINAL SINGLE POINT ENERGY      -191.334809321005

CARTESIAN COORDINATES (ANGSTROEM)
---------------------------------
  N     -0.638641    0.470916    0.044568
  H      0.189954   -0.113937   -0.005774
  H     -1.300469    0.081257   -0.613668
  C     -1.198659    0.391399    1.391947
  H     -2.092738    1.009245    1.453167
  H     -1.462746   -0.615844    1.729452
  H     -0.480276    0.798675    2.101087
  N      4.990269   -0.856244    0.434977
  H      5.286537   -0.581706   -0.493008
  H      5.613818   -1.603934    0.710172
  C      5.150499    0.278967    1.348652
  H      4.880308   -0.035729    2.354305
  H      6.157909    0.700743    1.385624
  H      4.457958    1.064742    1.055995

 Multiplicity           Mult            ....    1
 Number of Electrons    NEL             ....   36
 Basis Dimension        Dim             ....  780

ORBITAL ENERGIES
----------------

  NO   OCC          E(Eh)            E(eV)
   0   2.0000     -15.539318      -422.8463
   1   2.0000     -15.534224      -422.7077
   2   2.0000     -11.239791      -305.8503
   3   2.0000     -11.235383      -305.7303
   4   2.0000      -1.171042       -31.8657
   5   2.0000      -1.166664       -31.7465
   6   2.0000      -0.896780       -24.4026
   7   2.0000      -0.891393       -24.2560
   8   2.0000      -0.662614       -18.0306
   9   2.0000      -0.658289       -17.9130
  10   2.0000      -0.605074       -16.4649
  11   2.0000      -0.600044       -16.3280
  12   2.0000      -0.555694       -15.1212
  13   2.0000      -0.551500       -15.0071
  14   2.0000      -0.517824       -14.0907
  15   2.0000      -0.512258       -13.9393
  16   2.0000      -0.395261       -10.7556
  17   2.0000      -0.389581       -10.6010
  18   0.0000       0.024724         0.6728
  19   0.0000       0.031498         0.8571
  20   0.0000       0.035899         0.9768
  21   0.0000       0.038354         1.0437
  22   0.0000       0.046205         1.2573

MULLIKEN ATOMIC CHARGES
-----------------------
   0 N :   -0.630710
   1 H :    0.262259
   2 H :    0.239962
   3 C :   -0.678061
   4 H :    0.282186
   5 H :    0.244560
   6 H :    0.279507
   7 N :   -0.641720
   8 H :    0.248175
   9 H :    0.254717
  10 C :   -0.698183
  11 H :    0.275662
  12 H :    0.277296
  13 H :    0.284351
Sum of atomic charges:    0.0000000

LOEWDIN ATOMIC CHARGES
----------------------
   0 N :    1.249965
   1 H :   -0.527085
   2 H :   -0.533357
   3 C :    0.740227
   4 H :   -0.316148
   5 H :   -0.295761
   6 H :   -0.318112
   7 N :    1.251137
   8 H :   -0.532734
   9 H :   -0.532414
  10 C :    0.746611
  11 H :   -0.317747
  12 H :   -0.296532
  13 H :   -0.318050

  Mayer bond orders larger than 0.100000
B(  0-N ,  1-H ) :   0.9090 B(  0-N ,  2-H ) :   0.9380 B(  0-N ,  3-C ) :   0.9731
B(  3-C ,  4-H ) :   0.9193 B(  3-C ,  5-H ) :   0.9379 B(  3-C ,  6-H ) :   0.9153
B(  7-N ,  8-H ) :   0.9209 B(  7-N ,  9-H ) :   0.9187 B(  7-N , 10-C ) :   0.9752
B( 10-C , 11-H ) :   0.9213 B( 10-C , 12-H ) :   0.9202 B( 10-C , 13-H ) :   0.9106

MP2 TOTAL ENERGY:     -191.392302068 Eh
FINAL SINGLE POINT ENERGY      -191.392302067722

DIPOLE MOMENT
-------------
                                X             Y             Z
Electronic contribution:      0.12502      -0.52853      -1.51055
Nuclear contribution   :      0.32704       0.14927       1.61341
                        -----------------------------------------
Total Dipole Moment    :      0.45206      -0.37926       0.10285
                        -----------------------------------------
Magnitude (a.u.)       :      0.59898
Magnitude (Debye)      :      1.52248

Rotational constants in cm-1:     0.393379     0.028632     0.027685
Rotational constants in MHz : 11793.202974   858.369826   829.968195

                             ****ORCA TERMINATED NORMALLY****
TOTAL RUN TIME: 0 days 0 hours 16 minutes 20 seconds 721 msec
