                         Program Version 5.0.4 -  RELEASE  -
|  1> ! ri-mp2 aug-cc-pvdz aug-cc-pvdz/c tightscf
|  2> %pal nprocs 16 end
|  3> %maxcore 3800
|  4> %base "DZ_S66by10_34_1.0_dimer"
|  5> %scf STABPerform true end
|  6>
|  7> *xyz 0 1
|  8> C   -2.53330865   -0.29487907    0.71314876
|  9> H   -2.56362682   -0.97708181   -0.13642264
| 10> H   -2.56697835   -0.89587590    1.62173177
| 11> H   -3.43442611    0.31595713    0.68410447
| 12> C   -1.27188487    0.55765547    0.67435468
| 13> H   -1.27102630    1.25656571    1.51431940
| 14> H   -1.26663255    1.16789581   -0.23182653
| 15> C   -0.00013504   -0.27841822    0.71960315
| 16> H   -0.00015938   -0.88722952    1.62863709
| 17> H   -0.00036543   -0.98071418   -0.11940439
| 18> C    1.27189476    0.55738219    0.67406108
| 19> H    1.27097175    1.25663331    1.51370541
| 20> H    1.26663649    1.16718250   -0.23238692
| 21> C    2.53340376   -0.29494176    0.71328015
| 22> H    2.56391919   -0.97777410   -0.13577836
| 23> H    3.43430956    0.31625432    0.68359945
| 24> H    2.56755821   -0.89520887    1.62232865
| 25> C    2.53355724    0.29463171    4.53222529
| 26> H    2.56814173    0.89443840    3.62289974
| 27> H    2.56406055    0.97783828    5.38097011
| 28> H    3.43423793   -0.31686560    4.56243423
| 29> C    1.27173104   -0.55725556    4.57152954
| 30> H    1.26628733   -1.16698328    5.47802650
| 31> H    1.27060053   -1.25660931    3.73194848
| 32> C   -0.00004395    0.27884353    4.52591310
| 33> H   -0.00019888    0.98115351    5.36489758
| 34> H    0.00003294    0.88761995    3.61684347
| 35> C   -1.27180479   -0.55729844    4.57118464
| 36> H   -1.26642255   -1.16740789    5.47743475
| 37> H   -1.27069845   -1.25632134    3.73132099
| 38> C   -2.53352402    0.29474786    4.53220694
| 39> H   -2.56771732    0.89528153    3.62333018
| 40> H   -3.43432600   -0.31655049    4.56172012
| 41> H   -2.56406355    0.97733410    5.38146833
| 42> *
| 43>
| 44> $new_job
| 45> ! ri-mp2 aug-cc-pvtz aug-cc-pvtz/c tightscf
| 46> %pal nprocs 16 end
| 47> %maxcore 3800
| 48> %base "TZ_S66by10_34_1.0_dimer"
| 49>
| 50> *xyz 0 1
| 51> C   -2.53330865   -0.29487907    0.71314876
| 52> H   -2.56362682   -0.97708181   -0.13642264
| 53> H   -2.56697835   -0.89587590    1.62173177
| 54> H   -3.43442611    0.31595713    0.68410447
| 55> C   -1.27188487    0.55765547    0.67435468
| 56> H   -1.27102630    1.25656571    1.51431940
| 57> H   -1.26663255    1.16789581   -0.23182653
| 58> C   -0.00013504   -0.27841822    0.71960315
| 59> H   -0.00015938   -0.88722952    1.62863709
| 60> H   -0.00036543   -0.98071418   -0.11940439
| 61> C    1.27189476    0.55738219    0.67406108
| 62> H    1.27097175    1.25663331    1.51370541
| 63> H    1.26663649    1.16718250   -0.23238692
| 64> C    2.53340376   -0.29494176    0.71328015
| 65> H    2.56391919   -0.97777410   -0.13577836
| 66> H    3.43430956    0.31625432    0.68359945
| 67> H    2.56755821   -0.89520887    1.62232865
| 68> C    2.53355724    0.29463171    4.53222529
| 69> H    2.56814173    0.89443840    3.62289974
| 70> H    2.56406055    0.97783828    5.38097011
| 71> H    3.43423793   -0.31686560    4.56243423
| 72> C    1.27173104   -0.55725556    4.57152954
| 73> H    1.26628733   -1.16698328    5.47802650
| 74> H    1.27060053   -1.25660931    3.73194848
| 75> C   -0.00004395    0.27884353    4.52591310
| 76> H   -0.00019888    0.98115351    5.36489758
| 77> H    0.00003294    0.88761995    3.61684347
| 78> C   -1.27180479   -0.55729844    4.57118464
| 79> H   -1.26642255   -1.16740789    5.47743475
| 80> H   -1.27069845   -1.25632134    3.73132099
| 81> C   -2.53352402    0.29474786    4.53220694
| 82> H   -2.56771732    0.89528153    3.62333018
| 83> H   -3.43432600   -0.31655049    4.56172012
| 84> H   -2.56406355    0.97733410    5.38146833
| 85> *
| 86>
| 87> $new_job
| 88> ! ri-mp2 aug-cc-pvqz aug-cc-pvqz/c tightscf
| 89> %pal nprocs 16 end
| 90> %maxcore 3800
| 91> %base "QZ_S66by10_34_1.0_dimer"
| 92>
| 93> *xyz 0 1
| 94> C   -2.53330865   -0.29487907    0.71314876
| 95> H   -2.56362682   -0.97708181   -0.13642264
| 96> H   -2.56697835   -0.89587590    1.62173177
| 97> H   -3.43442611    0.31595713    0.68410447
| 98> C   -1.27188487    0.55765547    0.67435468
| 99> H   -1.27102630    1.25656571    1.51431940
|100> H   -1.26663255    1.16789581   -0.23182653
|101> C   -0.00013504   -0.27841822    0.71960315
|102> H   -0.00015938   -0.88722952    1.62863709
|103> H   -0.00036543   -0.98071418   -0.11940439
|104> C    1.27189476    0.55738219    0.67406108
|105> H    1.27097175    1.25663331    1.51370541
|106> H    1.26663649    1.16718250   -0.23238692
|107> C    2.53340376   -0.29494176    0.71328015
|108> H    2.56391919   -0.97777410   -0.13577836
|109> H    3.43430956    0.31625432    0.68359945
|110> H    2.56755821   -0.89520887    1.62232865
|111> C    2.53355724    0.29463171    4.53222529
|112> H    2.56814173    0.89443840    3.62289974
|113> H    2.56406055    0.97783828    5.38097011
|114> H    3.43423793   -0.31686560    4.56243423
|115> C    1.27173104   -0.55725556    4.57152954
|116> H    1.26628733   -1.16698328    5.47802650
|117> H    1.27060053   -1.25660931    3.73194848
|118> C   -0.00004395    0.27884353    4.52591310
|119> H   -0.00019888    0.98115351    5.36489758
|120> H    0.00003294    0.88761995    3.61684347
|121> C   -1.27180479   -0.55729844    4.57118464
|122> H   -1.26642255   -1.16740789    5.47743475
|123> H   -1.27069845   -1.25632134    3.73132099
|124> C   -2.53352402    0.29474786    4.53220694
|125> H   -2.56771732    0.89528153    3.62333018
|126> H   -3.43432600   -0.31655049    4.56172012
|127> H   -2.56406355    0.97733410    5.38146833
|128> *
|129>
|130>
|131>
|132>
|133>                          ****END OF INPUT****
 Total Charge           Charge          ....    0
 Multiplicity           Mult            ....    1
 Number of Electrons    NEL             ....   84
MP2 TOTAL ENERGY:     -394.236216280 Eh
FINAL SINGLE POINT ENERGY      -394.236216279794
MP2 TOTAL ENERGY:     -394.628456509 Eh
FINAL SINGLE POINT ENERGY      -394.628456508986

CARTESIAN COORDINATES (ANGSTROEM)
---------------------------------
  C     -2.533309   -0.294879    0.713149
  H     -2.563627   -0.977082   -0.136423
  H     -2.566978   -0.895876    1.621732
  H     -3.434426    0.315957    0.684104
  C     -1.271885    0.557655    0.674355
  H     -1.271026    1.256566    1.514319
  H     -1.266633    1.167896   -0.231827
  C     -0.000135   -0.278418    0.719603
  H     -0.000159   -0.887230    1.628637
  H     -0.000365   -0.980714   -0.119404
  C      1.271895    0.557382    0.674061
  H      1.270972    1.256633    1.513705
  H      1.266636    1.167183   -0.232387
  C      2.533404   -0.294942    0.713280
  H      2.563919   -0.977774   -0.135778
  H      3.434310    0.316254    0.683599
  H      2.567558   -0.895209    1.622329
  C      2.533557    0.294632    4.532225
  H      2.568142    0.894438    3.622900
  H      2.564061    0.977838    5.380970
  H      3.434238   -0.316866    4.562434
  C      1.271731   -0.557256    4.571530
  H      1.266287   -1.166983    5.478027
  H      1.270601   -1.256609    3.731948
  C     -0.000044    0.278844    4.525913
  H     -0.000199    0.981154    5.364898
  H      0.000033    0.887620    3.616843
  C     -1.271805   -0.557298    4.571185
  H     -1.266423   -1.167408    5.477435
  H     -1.270698   -1.256321    3.731321
  C     -2.533524    0.294748    4.532207
  H     -2.567717    0.895282    3.623330
  H     -3.434326   -0.316550    4.561720
  H     -2.564064    0.977334    5.381468

 Multiplicity           Mult            ....    1
 Number of Electrons    NEL             ....   84
 Basis Dimension        Dim             .... 1904

ORBITAL ENERGIES
----------------

  NO   OCC          E(Eh)            E(eV)
   0   2.0000     -11.212021      -305.0946
   1   2.0000     -11.212020      -305.0946
   2   2.0000     -11.211955      -305.0928
   3   2.0000     -11.211954      -305.0928
   4   2.0000     -11.209366      -305.0224
   5   2.0000     -11.209365      -305.0223
   6   2.0000     -11.205998      -304.9307
   7   2.0000     -11.205995      -304.9306
   8   2.0000     -11.205993      -304.9306
   9   2.0000     -11.205992      -304.9306
  10   2.0000      -1.084129       -29.5007
  11   2.0000      -1.079487       -29.3743
  12   2.0000      -1.017949       -27.6998
  13   2.0000      -1.013655       -27.5830
  14   2.0000      -0.921476       -25.0746
  15   2.0000      -0.917250       -24.9596
  16   2.0000      -0.820434       -22.3251
  17   2.0000      -0.820338       -22.3225
  18   2.0000      -0.788885       -21.4667
  19   2.0000      -0.783038       -21.3075
  20   2.0000      -0.661861       -18.0102
  21   2.0000      -0.635286       -17.2870
  22   2.0000      -0.605024       -16.4636
  23   2.0000      -0.600837       -16.3496
  24   2.0000      -0.597425       -16.2568
  25   2.0000      -0.582770       -15.8580
  26   2.0000      -0.555858       -15.1257
  27   2.0000      -0.553560       -15.0631
  28   2.0000      -0.548010       -14.9121
  29   2.0000      -0.547561       -14.8999
  30   2.0000      -0.534757       -14.5515
  31   2.0000      -0.518462       -14.1081
  32   2.0000      -0.496162       -13.5013
  33   2.0000      -0.493887       -13.4394
  34   2.0000      -0.479323       -13.0430
  35   2.0000      -0.474398       -12.9090
  36   2.0000      -0.469836       -12.7849
  37   2.0000      -0.467188       -12.7128
  38   2.0000      -0.457309       -12.4440
  39   2.0000      -0.450397       -12.2559
  40   2.0000      -0.447997       -12.1906
  41   2.0000      -0.446698       -12.1553
  42   0.0000       0.025566         0.6957
  43   0.0000       0.027879         0.7586
  44   0.0000       0.028791         0.7834
  45   0.0000       0.029259         0.7962
  46   0.0000       0.038680         1.0525

MULLIKEN ATOMIC CHARGES
-----------------------
   0 C :   -1.099457
   1 H :    0.260286
   2 H :    0.301445
   3 H :    0.204686
   4 C :   -0.469568
   5 H :    0.320537
   6 H :    0.269996
   7 C :   -0.143376
   8 H :    0.284076
   9 H :    0.283585
  10 C :   -0.469900
  11 H :    0.320759
  12 H :    0.269890
  13 C :   -1.099338
  14 H :    0.260195
  15 H :    0.204607
  16 H :    0.301568
  17 C :   -1.099385
  18 H :    0.301645
  19 H :    0.260145
  20 H :    0.204528
  21 C :   -0.469390
  22 H :    0.269819
  23 H :    0.320723
  24 C :   -0.144182
  25 H :    0.283640
  26 H :    0.284328
  27 C :   -0.469237
  28 H :    0.269939
  29 H :    0.320615
  30 C :   -1.099481
  31 H :    0.301563
  32 H :    0.204533
  33 H :    0.260206
Sum of atomic charges:    0.0000000

LOEWDIN ATOMIC CHARGES
----------------------
   0 C :    0.930637
   1 H :   -0.278962
   2 H :   -0.303749
   3 H :   -0.274801
   4 C :    0.510120
   5 H :   -0.288119
   6 H :   -0.265233
   7 C :    0.498014
   8 H :   -0.296901
   9 H :   -0.260885
  10 C :    0.510188
  11 H :   -0.288142
  12 H :   -0.265292
  13 C :    0.930632
  14 H :   -0.278939
  15 H :   -0.274801
  16 H :   -0.303762
  17 C :    0.930673
  18 H :   -0.303786
  19 H :   -0.278957
  20 H :   -0.274802
  21 C :    0.510125
  22 H :   -0.265300
  23 H :   -0.288125
  24 C :    0.498065
  25 H :   -0.260870
  26 H :   -0.296851
  27 C :    0.510104
  28 H :   -0.265278
  29 H :   -0.288152
  30 C :    0.930664
  31 H :   -0.303746
  32 H :   -0.274820
  33 H :   -0.278950

  Mayer bond orders larger than 0.100000
B(  0-C ,  1-H ) :   1.0019 B(  0-C ,  2-H ) :   0.8543 B(  0-C ,  3-H ) :   1.0830
B(  0-C ,  4-C ) :   0.9690 B(  0-C ,  7-C ) :  -0.1344 B(  3-H ,  4-C ) :  -0.1153
B(  4-C ,  5-H ) :   0.8079 B(  4-C ,  6-H ) :   0.9131 B(  4-C ,  7-C ) :   0.8191
B(  7-C ,  8-H ) :   0.8708 B(  7-C ,  9-H ) :   0.9144 B(  7-C , 10-C ) :   0.8192
B(  7-C , 13-C ) :  -0.1343 B( 10-C , 11-H ) :   0.8079 B( 10-C , 12-H ) :   0.9131
B( 10-C , 13-C ) :   0.9688 B( 10-C , 15-H ) :  -0.1154 B( 13-C , 14-H ) :   1.0020
B( 13-C , 15-H ) :   1.0831 B( 13-C , 16-H ) :   0.8541 B( 17-C , 18-H ) :   0.8540
B( 17-C , 19-H ) :   1.0021 B( 17-C , 20-H ) :   1.0833 B( 17-C , 21-C ) :   0.9683
B( 17-C , 24-C ) :  -0.1340 B( 20-H , 21-C ) :  -0.1155 B( 21-C , 22-H ) :   0.9132
B( 21-C , 23-H ) :   0.8079 B( 21-C , 24-C ) :   0.8194 B( 24-C , 25-H ) :   0.9143
B( 24-C , 26-H ) :   0.8705 B( 24-C , 27-C ) :   0.8194 B( 24-C , 30-C ) :  -0.1342
B( 27-C , 28-H ) :   0.9132 B( 27-C , 29-H ) :   0.8079 B( 27-C , 30-C ) :   0.9684
B( 27-C , 32-H ) :  -0.1155 B( 30-C , 31-H ) :   0.8541 B( 30-C , 32-H ) :   1.0833
B( 30-C , 33-H ) :   1.0020

MP2 TOTAL ENERGY:     -394.744155832 Eh
FINAL SINGLE POINT ENERGY      -394.744155832461

DIPOLE MOMENT
-------------
                                X             Y             Z
Electronic contribution:     -0.00031       0.00124       0.00009
Nuclear contribution   :      0.00030      -0.00124      -0.00009
                        -----------------------------------------
Total Dipole Moment    :     -0.00000      -0.00001       0.00000
                        -----------------------------------------
Magnitude (a.u.)       :      0.00001
Magnitude (Debye)      :      0.00002

Rotational constants in cm-1:     0.031031     0.028413     0.016063
Rotational constants in MHz :   930.297697   851.808344   481.564397

                             ****ORCA TERMINATED NORMALLY****
TOTAL RUN TIME: 1 days 10 hours 7 minutes 34 seconds 227 msec
