                         Program Version 5.0.4 -  RELEASE  -
|  1> ! ri-mp2 aug-cc-pvdz aug-cc-pvdz/c tightscf
|  2> %pal nprocs 16 end
|  3> %maxcore 3800
|  4> %base "DZ_S66by10_15_1.0_dimer"
|  5> %scf STABPerform true end
|  6>
|  7> *xyz 0 1
|  8> C   -0.70150294   -0.29062770    2.40688440
|  9> H   -1.18329596    0.39564777    3.09887422
| 10> H    0.34956157   -0.03032157    2.30783303
| 11> H   -0.79405685   -1.29160545    2.82403929
| 12> C   -1.44854625   -0.24487664    1.09181530
| 13> O   -2.66045000   -0.42847909    1.03434577
| 14> N   -0.67005656    0.00591656    0.00977691
| 15> H    0.32667532    0.12256396    0.14159284
| 16> C   -1.22705457    0.08979374   -1.31996754
| 17> H   -2.29202426   -0.10650119   -1.24087756
| 18> H   -1.07780169    1.07994030   -1.74854354
| 19> H   -0.77662849   -0.64799919   -1.98337273
| 20> C    2.06392187   -2.35305148    0.68813041
| 21> H    2.62214668   -3.26305471    0.48222241
| 22> H    1.13523001   -2.35958093    0.12380500
| 23> H    1.80470294   -2.32960478    1.74507141
| 24> C    2.83155781   -1.09863944    0.35189368
| 25> O    2.28637117    0.00279737    0.29492128
| 26> N    4.15831603   -1.26745321    0.13814571
| 27> H    4.53463733   -2.19469890    0.21490303
| 28> C    5.04555421   -0.16098723   -0.15080283
| 29> H    4.43136183    0.72982254   -0.23062654
| 30> H    5.77296876   -0.02152150    0.64660048
| 31> H    5.57054450   -0.32096896   -1.08994517
| 32> *
| 33>
| 34> $new_job
| 35> ! ri-mp2 aug-cc-pvtz aug-cc-pvtz/c tightscf
| 36> %pal nprocs 16 end
| 37> %maxcore 3800
| 38> %base "TZ_S66by10_15_1.0_dimer"
| 39>
| 40> *xyz 0 1
| 41> C   -0.70150294   -0.29062770    2.40688440
| 42> H   -1.18329596    0.39564777    3.09887422
| 43> H    0.34956157   -0.03032157    2.30783303
| 44> H   -0.79405685   -1.29160545    2.82403929
| 45> C   -1.44854625   -0.24487664    1.09181530
| 46> O   -2.66045000   -0.42847909    1.03434577
| 47> N   -0.67005656    0.00591656    0.00977691
| 48> H    0.32667532    0.12256396    0.14159284
| 49> C   -1.22705457    0.08979374   -1.31996754
| 50> H   -2.29202426   -0.10650119   -1.24087756
| 51> H   -1.07780169    1.07994030   -1.74854354
| 52> H   -0.77662849   -0.64799919   -1.98337273
| 53> C    2.06392187   -2.35305148    0.68813041
| 54> H    2.62214668   -3.26305471    0.48222241
| 55> H    1.13523001   -2.35958093    0.12380500
| 56> H    1.80470294   -2.32960478    1.74507141
| 57> C    2.83155781   -1.09863944    0.35189368
| 58> O    2.28637117    0.00279737    0.29492128
| 59> N    4.15831603   -1.26745321    0.13814571
| 60> H    4.53463733   -2.19469890    0.21490303
| 61> C    5.04555421   -0.16098723   -0.15080283
| 62> H    4.43136183    0.72982254   -0.23062654
| 63> H    5.77296876   -0.02152150    0.64660048
| 64> H    5.57054450   -0.32096896   -1.08994517
| 65> *
| 66>
| 67> $new_job
| 68> ! ri-mp2 aug-cc-pvqz aug-cc-pvqz/c tightscf
| 69> %pal nprocs 16 end
| 70> %maxcore 3800
| 71> %base "QZ_S66by10_15_1.0_dimer"
| 72>
| 73> *xyz 0 1
| 74> C   -0.70150294   -0.29062770    2.40688440
| 75> H   -1.18329596    0.39564777    3.09887422
| 76> H    0.34956157   -0.03032157    2.30783303
| 77> H   -0.79405685   -1.29160545    2.82403929
| 78> C   -1.44854625   -0.24487664    1.09181530
| 79> O   -2.66045000   -0.42847909    1.03434577
| 80> N   -0.67005656    0.00591656    0.00977691
| 81> H    0.32667532    0.12256396    0.14159284
| 82> C   -1.22705457    0.08979374   -1.31996754
| 83> H   -2.29202426   -0.10650119   -1.24087756
| 84> H   -1.07780169    1.07994030   -1.74854354
| 85> H   -0.77662849   -0.64799919   -1.98337273
| 86> C    2.06392187   -2.35305148    0.68813041
| 87> H    2.62214668   -3.26305471    0.48222241
| 88> H    1.13523001   -2.35958093    0.12380500
| 89> H    1.80470294   -2.32960478    1.74507141
| 90> C    2.83155781   -1.09863944    0.35189368
| 91> O    2.28637117    0.00279737    0.29492128
| 92> N    4.15831603   -1.26745321    0.13814571
| 93> H    4.53463733   -2.19469890    0.21490303
| 94> C    5.04555421   -0.16098723   -0.15080283
| 95> H    4.43136183    0.72982254   -0.23062654
| 96> H    5.77296876   -0.02152150    0.64660048
| 97> H    5.57054450   -0.32096896   -1.08994517
| 98> *
| 99>
|100>
|101>
|102>
|103>                          ****END OF INPUT****
 Total Charge           Charge          ....    0
 Multiplicity           Mult            ....    1
 Number of Electrons    NEL             ....   80
MP2 TOTAL ENERGY:     -495.709064453 Eh
FINAL SINGLE POINT ENERGY      -495.709064453267
MP2 TOTAL ENERGY:     -496.155690949 Eh
FINAL SINGLE POINT ENERGY      -496.155690949159

CARTESIAN COORDINATES (ANGSTROEM)
---------------------------------
  C     -0.701503   -0.290628    2.406884
  H     -1.183296    0.395648    3.098874
  H      0.349562   -0.030322    2.307833
  H     -0.794057   -1.291605    2.824039
  C     -1.448546   -0.244877    1.091815
  O     -2.660450   -0.428479    1.034346
  N     -0.670057    0.005917    0.009777
  H      0.326675    0.122564    0.141593
  C     -1.227055    0.089794   -1.319968
  H     -2.292024   -0.106501   -1.240878
  H     -1.077802    1.079940   -1.748544
  H     -0.776628   -0.647999   -1.983373
  C      2.063922   -2.353051    0.688130
  H      2.622147   -3.263055    0.482222
  H      1.135230   -2.359581    0.123805
  H      1.804703   -2.329605    1.745071
  C      2.831558   -1.098639    0.351894
  O      2.286371    0.002797    0.294921
  N      4.158316   -1.267453    0.138146
  H      4.534637   -2.194699    0.214903
  C      5.045554   -0.160987   -0.150803
  H      4.431362    0.729823   -0.230627
  H      5.772969   -0.021521    0.646600
  H      5.570544   -0.320969   -1.089945

 Multiplicity           Mult            ....    1
 Number of Electrons    NEL             ....   80
 Basis Dimension        Dim             .... 1444

ORBITAL ENERGIES
----------------

  NO   OCC          E(Eh)            E(eV)
   0   2.0000     -20.533312      -558.7398
   1   2.0000     -20.487247      -557.4863
   2   2.0000     -15.605399      -424.6445
   3   2.0000     -15.554109      -423.2488
   4   2.0000     -11.370839      -309.4163
   5   2.0000     -11.324615      -308.1584
   6   2.0000     -11.270609      -306.6889
   7   2.0000     -11.250501      -306.1417
   8   2.0000     -11.235675      -305.7383
   9   2.0000     -11.214814      -305.1706
  10   2.0000      -1.398351       -38.0511
  11   2.0000      -1.350760       -36.7560
  12   2.0000      -1.251868       -34.0651
  13   2.0000      -1.205110       -32.7927
  14   2.0000      -1.037869       -28.2419
  15   2.0000      -0.998497       -27.1705
  16   2.0000      -0.950205       -25.8564
  17   2.0000      -0.911303       -24.7978
  18   2.0000      -0.813366       -22.1328
  19   2.0000      -0.763382       -20.7727
  20   2.0000      -0.710769       -19.3410
  21   2.0000      -0.676578       -18.4106
  22   2.0000      -0.669285       -18.2122
  23   2.0000      -0.652645       -17.7594
  24   2.0000      -0.632918       -17.2226
  25   2.0000      -0.613660       -16.6985
  26   2.0000      -0.604989       -16.4626
  27   2.0000      -0.603174       -16.4132
  28   2.0000      -0.573516       -15.6062
  29   2.0000      -0.568541       -15.4708
  30   2.0000      -0.562490       -15.3061
  31   2.0000      -0.557542       -15.1715
  32   2.0000      -0.534498       -14.5444
  33   2.0000      -0.526613       -14.3299
  34   2.0000      -0.523821       -14.2539
  35   2.0000      -0.485235       -13.2039
  36   2.0000      -0.446852       -12.1595
  37   2.0000      -0.414782       -11.2868
  38   2.0000      -0.399663       -10.8754
  39   2.0000      -0.367259        -9.9936
  40   0.0000       0.011869         0.3230
  41   0.0000       0.025168         0.6849
  42   0.0000       0.027580         0.7505
  43   0.0000       0.032011         0.8711
  44   0.0000       0.041864         1.1392

MULLIKEN ATOMIC CHARGES
-----------------------
   0 C :   -0.862105
   1 H :    0.300644
   2 H :    0.299363
   3 H :    0.256560
   4 C :    0.951134
   5 O :   -0.920778
   6 N :   -0.431653
   7 H :    0.410532
   8 C :   -0.913603
   9 H :    0.304545
  10 H :    0.305879
  11 H :    0.329338
  12 C :   -0.806131
  13 H :    0.344902
  14 H :    0.256506
  15 H :    0.284589
  16 C :    1.024755
  17 O :   -0.942279
  18 N :   -0.538272
  19 H :    0.246319
  20 C :   -0.823195
  21 H :    0.296149
  22 H :    0.302800
  23 H :    0.324001
Sum of atomic charges:   -0.0000000

LOEWDIN ATOMIC CHARGES
----------------------
   0 C :    0.880791
   1 H :   -0.299016
   2 H :   -0.338067
   3 H :   -0.297680
   4 C :   -0.836431
   5 O :    0.691489
   6 N :    0.818327
   7 H :   -0.731665
   8 C :    0.783862
   9 H :   -0.366860
  10 H :   -0.283909
  11 H :   -0.286845
  12 C :    0.907781
  13 H :   -0.302074
  14 H :   -0.306144
  15 H :   -0.289875
  16 C :   -0.763021
  17 O :    0.810045
  18 N :    0.839870
  19 H :   -0.502818
  20 C :    0.800025
  21 H :   -0.361342
  22 H :   -0.282180
  23 H :   -0.284263

  Mayer bond orders larger than 0.100000
B(  0-C ,  1-H ) :   0.9442 B(  0-C ,  2-H ) :   0.9621 B(  0-C ,  3-H ) :   0.9409
B(  0-C ,  4-C ) :   0.9162 B(  0-C ,  5-O ) :   0.1205 B(  4-C ,  5-O ) :   1.0469
B(  4-C ,  6-N ) :   1.1949 B(  5-O ,  6-N ) :   0.2487 B(  6-N ,  7-H ) :   0.7886
B(  6-N ,  8-C ) :   0.8513 B(  8-C ,  9-H ) :   0.9308 B(  8-C , 10-H ) :   0.9524
B(  8-C , 11-H ) :   0.9110 B( 12-C , 13-H ) :   0.9403 B( 12-C , 14-H ) :   0.9574
B( 12-C , 15-H ) :   0.8917 B( 12-C , 16-C ) :   0.8248 B( 16-C , 17-O ) :   1.2889
B( 16-C , 18-N ) :   1.1211 B( 18-N , 19-H ) :   0.9833 B( 18-N , 20-C ) :   0.8823
B( 20-C , 21-H ) :   0.9205 B( 20-C , 22-H ) :   0.9404 B( 20-C , 23-H ) :   0.9252

MP2 TOTAL ENERGY:     -496.297452436 Eh
FINAL SINGLE POINT ENERGY      -496.297452435539

DIPOLE MOMENT
-------------
                                X             Y             Z
Electronic contribution:     -3.26711       1.02362       0.67732
Nuclear contribution   :      6.35035      -2.08878      -0.92012
                        -----------------------------------------
Total Dipole Moment    :      3.08325      -1.06517      -0.24280
                        -----------------------------------------
Magnitude (a.u.)       :      3.27108
Magnitude (Debye)      :      8.31442

Rotational constants in cm-1:     0.080161     0.016475     0.015358
Rotational constants in MHz :  2403.178432   493.907556   460.418485

                             ****ORCA TERMINATED NORMALLY****
TOTAL RUN TIME: 0 days 6 hours 17 minutes 56 seconds 274 msec
