                         Program Version 5.0.4 -  RELEASE  -
|  1> ! ri-mp2 aug-cc-pvdz aug-cc-pvdz/c tightscf
|  2> %pal nprocs 16 end
|  3> %maxcore 3800
|  4> %base "DZ_S66by10_7_2.0_dimer"
|  5> %scf STABPerform true end
|  6>
|  7> *xyz 0 1
|  8> O   -0.20877739   -0.21687067   -1.03240597
|  9> H    0.71112593   -0.38689175   -0.77396240
| 10> C   -1.02217337   -0.74117114   -0.00545419
| 11> H   -2.05749119   -0.53870733   -0.26859725
| 12> H   -0.90774336   -1.82182632    0.10853710
| 13> H   -0.82463111   -0.27549472    0.96464547
| 14> C    4.22754957    1.92284476    1.21021475
| 15> H    4.73394320    2.88429385    1.17534439
| 16> H    3.81700545    1.77670889    2.20809139
| 17> H    3.39790177    1.91333149    0.50870922
| 18> C    5.14317995    0.76790594    0.89429854
| 19> O    4.71898516   -0.35200485    0.60921700
| 20> N    6.46931687    1.02963022    0.95349790
| 21> H    6.76732932    1.94005836    1.25118509
| 22> C    7.45172290   -0.01048108    0.73075408
| 23> H    7.09516571   -0.66141841   -0.06142288
| 24> H    8.39209214    0.44304275    0.43224038
| 25> H    7.61123301   -0.61500799    1.62282962
| 26> *
| 27>
| 28> $new_job
| 29> ! ri-mp2 aug-cc-pvtz aug-cc-pvtz/c tightscf
| 30> %pal nprocs 16 end
| 31> %maxcore 3800
| 32> %base "TZ_S66by10_7_2.0_dimer"
| 33>
| 34> *xyz 0 1
| 35> O   -0.20877739   -0.21687067   -1.03240597
| 36> H    0.71112593   -0.38689175   -0.77396240
| 37> C   -1.02217337   -0.74117114   -0.00545419
| 38> H   -2.05749119   -0.53870733   -0.26859725
| 39> H   -0.90774336   -1.82182632    0.10853710
| 40> H   -0.82463111   -0.27549472    0.96464547
| 41> C    4.22754957    1.92284476    1.21021475
| 42> H    4.73394320    2.88429385    1.17534439
| 43> H    3.81700545    1.77670889    2.20809139
| 44> H    3.39790177    1.91333149    0.50870922
| 45> C    5.14317995    0.76790594    0.89429854
| 46> O    4.71898516   -0.35200485    0.60921700
| 47> N    6.46931687    1.02963022    0.95349790
| 48> H    6.76732932    1.94005836    1.25118509
| 49> C    7.45172290   -0.01048108    0.73075408
| 50> H    7.09516571   -0.66141841   -0.06142288
| 51> H    8.39209214    0.44304275    0.43224038
| 52> H    7.61123301   -0.61500799    1.62282962
| 53> *
| 54>
| 55> $new_job
| 56> ! ri-mp2 aug-cc-pvqz aug-cc-pvqz/c tightscf
| 57> %pal nprocs 16 end
| 58> %maxcore 3800
| 59> %base "QZ_S66by10_7_2.0_dimer"
| 60>
| 61> *xyz 0 1
| 62> O   -0.20877739   -0.21687067   -1.03240597
| 63> H    0.71112593   -0.38689175   -0.77396240
| 64> C   -1.02217337   -0.74117114   -0.00545419
| 65> H   -2.05749119   -0.53870733   -0.26859725
| 66> H   -0.90774336   -1.82182632    0.10853710
| 67> H   -0.82463111   -0.27549472    0.96464547
| 68> C    4.22754957    1.92284476    1.21021475
| 69> H    4.73394320    2.88429385    1.17534439
| 70> H    3.81700545    1.77670889    2.20809139
| 71> H    3.39790177    1.91333149    0.50870922
| 72> C    5.14317995    0.76790594    0.89429854
| 73> O    4.71898516   -0.35200485    0.60921700
| 74> N    6.46931687    1.02963022    0.95349790
| 75> H    6.76732932    1.94005836    1.25118509
| 76> C    7.45172290   -0.01048108    0.73075408
| 77> H    7.09516571   -0.66141841   -0.06142288
| 78> H    8.39209214    0.44304275    0.43224038
| 79> H    7.61123301   -0.61500799    1.62282962
| 80> *
| 81>
| 82>
| 83>
| 84>
| 85>                          ****END OF INPUT****
 Total Charge           Charge          ....    0
 Multiplicity           Mult            ....    1
 Number of Electrons    NEL             ....   58
MP2 TOTAL ENERGY:     -363.269762735 Eh
FINAL SINGLE POINT ENERGY      -363.269762735060
MP2 TOTAL ENERGY:     -363.600941141 Eh
FINAL SINGLE POINT ENERGY      -363.600941141056

CARTESIAN COORDINATES (ANGSTROEM)
---------------------------------
  O     -0.208777   -0.216871   -1.032406
  H      0.711126   -0.386892   -0.773962
  C     -1.022173   -0.741171   -0.005454
  H     -2.057491   -0.538707   -0.268597
  H     -0.907743   -1.821826    0.108537
  H     -0.824631   -0.275495    0.964645
  C      4.227550    1.922845    1.210215
  H      4.733943    2.884294    1.175344
  H      3.817005    1.776709    2.208091
  H      3.397902    1.913331    0.508709
  C      5.143180    0.767906    0.894299
  O      4.718985   -0.352005    0.609217
  N      6.469317    1.029630    0.953498
  H      6.767329    1.940058    1.251185
  C      7.451723   -0.010481    0.730754
  H      7.095166   -0.661418   -0.061423
  H      8.392092    0.443043    0.432240
  H      7.611233   -0.615008    1.622830

 Multiplicity           Mult            ....    1
 Number of Electrons    NEL             ....   58
 Basis Dimension        Dim             .... 1066

ORBITAL ENERGIES
----------------

  NO   OCC          E(Eh)            E(eV)
   0   2.0000     -20.549998      -559.1939
   1   2.0000     -20.511035      -558.1336
   2   2.0000     -15.587986      -424.1707
   3   2.0000     -11.348440      -308.8068
   4   2.0000     -11.261739      -306.4475
   5   2.0000     -11.259247      -306.3797
   6   2.0000     -11.238125      -305.8049
   7   2.0000      -1.373763       -37.3820
   8   2.0000      -1.350687       -36.7541
   9   2.0000      -1.233031       -33.5525
  10   2.0000      -1.023127       -27.8407
  11   2.0000      -0.936587       -25.4858
  12   2.0000      -0.916381       -24.9360
  13   2.0000      -0.793962       -21.6048
  14   2.0000      -0.693751       -18.8779
  15   2.0000      -0.683395       -18.5961
  16   2.0000      -0.655059       -17.8251
  17   2.0000      -0.637756       -17.3542
  18   2.0000      -0.612983       -16.6801
  19   2.0000      -0.589159       -16.0318
  20   2.0000      -0.587851       -15.9962
  21   2.0000      -0.582042       -15.8382
  22   2.0000      -0.561255       -15.2725
  23   2.0000      -0.550658       -14.9842
  24   2.0000      -0.504036       -13.7155
  25   2.0000      -0.496385       -13.5073
  26   2.0000      -0.442714       -12.0469
  27   2.0000      -0.424630       -11.5548
  28   2.0000      -0.395480       -10.7616
  29   0.0000       0.018177         0.4946
  30   0.0000       0.029136         0.7928
  31   0.0000       0.032910         0.8955
  32   0.0000       0.036127         0.9831
  33   0.0000       0.042596         1.1591

MULLIKEN ATOMIC CHARGES
-----------------------
   0 O :   -0.721079
   1 H :    0.352162
   2 C :   -0.421411
   3 H :    0.301951
   4 H :    0.249972
   5 H :    0.238868
   6 C :   -0.793417
   7 H :    0.250914
   8 H :    0.284006
   9 H :    0.298615
  10 C :    0.891219
  11 O :   -0.844719
  12 N :   -0.484512
  13 H :    0.252409
  14 C :   -0.789857
  15 H :    0.293227
  16 H :    0.356037
  17 H :    0.285615
Sum of atomic charges:   -0.0000000

LOEWDIN ATOMIC CHARGES
----------------------
   0 O :    1.220073
   1 H :   -0.795752
   2 C :    0.558810
   3 H :   -0.342904
   4 H :   -0.320368
   5 H :   -0.320495
   6 C :    0.891234
   7 H :   -0.311998
   8 H :   -0.292714
   9 H :   -0.307921
  10 C :   -0.847704
  11 O :    0.688171
  12 N :    0.813669
  13 H :   -0.505329
  14 C :    0.779029
  15 H :   -0.328938
  16 H :   -0.295183
  17 H :   -0.281679

  Mayer bond orders larger than 0.100000
B(  0-O ,  1-H ) :   0.8851 B(  0-O ,  2-C ) :   0.8242 B(  2-C ,  3-H ) :   0.9034
B(  2-C ,  4-H ) :   0.9229 B(  2-C ,  5-H ) :   0.9257 B(  6-C ,  7-H ) :   0.9981
B(  6-C ,  8-H ) :   0.9023 B(  6-C ,  9-H ) :   0.9453 B(  6-C , 10-C ) :   0.8667
B( 10-C , 11-O ) :   1.2850 B( 10-C , 12-N ) :   1.1580 B( 11-O , 12-N ) :   0.1619
B( 12-N , 13-H ) :   0.9644 B( 12-N , 14-C ) :   0.7960 B( 14-C , 15-H ) :   0.9425
B( 14-C , 16-H ) :   0.8960 B( 14-C , 17-H ) :   0.9481

MP2 TOTAL ENERGY:     -363.706222928 Eh
FINAL SINGLE POINT ENERGY      -363.706222927753

DIPOLE MOMENT
-------------
                                X             Y             Z
Electronic contribution:      3.28833      -0.04568      -1.02196
Nuclear contribution   :     -2.12528       1.08699       2.01572
                        -----------------------------------------
Total Dipole Moment    :      1.16305       1.04131       0.99376
                        -----------------------------------------
Magnitude (a.u.)       :      1.85055
Magnitude (Debye)      :      4.70373

Rotational constants in cm-1:     0.177885     0.016031     0.015211
Rotational constants in MHz :  5332.870923   480.586298   456.015884

                             ****ORCA TERMINATED NORMALLY****
TOTAL RUN TIME: 0 days 1 hours 13 minutes 49 seconds 660 msec
