                         Program Version 5.0.4 -  RELEASE  -
|  1> ! ri-mp2 aug-cc-pvdz aug-cc-pvdz/c tightscf
|  2> %pal nprocs 16 end
|  3> %maxcore 3800
|  4> %base "DZ_S66by10_19_1.05_dimer"
|  5>
|  6> *xyz 0 1
|  7> O   -0.62765177    0.08746727    0.00147128
|  8> H    0.34360203    0.12230333   -0.00060045
|  9> C   -0.97793123   -1.27855601    0.00123841
| 10> H   -2.06339209   -1.34204332    0.00500898
| 11> H   -0.61488369   -1.80637584   -0.88538395
| 12> H   -0.60864033   -1.80823682    0.88417273
| 13> N    2.39104968    0.00991597   -0.00169001
| 14> C    3.08741807   -0.01451936   -1.14640962
| 15> H    2.50293947    0.00870418   -2.05738506
| 16> C    4.47705513   -0.06426222   -1.19509487
| 17> H    4.98440748   -0.08155426   -2.14887759
| 18> C    5.18742836   -0.08997484    0.00051816
| 19> H    6.26776436   -0.12773959    0.00136746
| 20> C    4.47518091   -0.06495373    1.19505801
| 21> H    4.98097964   -0.08277806    2.14954371
| 22> C    3.08562726   -0.01520405    1.14410393
| 23> H    2.49962148    0.00747038    2.05422261
| 24> *
| 25>
| 26> $new_job
| 27> ! ri-mp2 aug-cc-pvtz aug-cc-pvtz/c tightscf
| 28> %pal nprocs 16 end
| 29> %maxcore 3800
| 30> %base "TZ_S66by10_19_1.05_dimer"
| 31>
| 32> *xyz 0 1
| 33> O   -0.62765177    0.08746727    0.00147128
| 34> H    0.34360203    0.12230333   -0.00060045
| 35> C   -0.97793123   -1.27855601    0.00123841
| 36> H   -2.06339209   -1.34204332    0.00500898
| 37> H   -0.61488369   -1.80637584   -0.88538395
| 38> H   -0.60864033   -1.80823682    0.88417273
| 39> N    2.39104968    0.00991597   -0.00169001
| 40> C    3.08741807   -0.01451936   -1.14640962
| 41> H    2.50293947    0.00870418   -2.05738506
| 42> C    4.47705513   -0.06426222   -1.19509487
| 43> H    4.98440748   -0.08155426   -2.14887759
| 44> C    5.18742836   -0.08997484    0.00051816
| 45> H    6.26776436   -0.12773959    0.00136746
| 46> C    4.47518091   -0.06495373    1.19505801
| 47> H    4.98097964   -0.08277806    2.14954371
| 48> C    3.08562726   -0.01520405    1.14410393
| 49> H    2.49962148    0.00747038    2.05422261
| 50> *
| 51>
| 52> $new_job
| 53> ! ri-mp2 aug-cc-pvqz aug-cc-pvqz/c tightscf
| 54> %pal nprocs 16 end
| 55> %maxcore 3800
| 56> %base "QZ_S66by10_19_1.05_dimer"
| 57>
| 58> *xyz 0 1
| 59> O   -0.62765177    0.08746727    0.00147128
| 60> H    0.34360203    0.12230333   -0.00060045
| 61> C   -0.97793123   -1.27855601    0.00123841
| 62> H   -2.06339209   -1.34204332    0.00500898
| 63> H   -0.61488369   -1.80637584   -0.88538395
| 64> H   -0.60864033   -1.80823682    0.88417273
| 65> N    2.39104968    0.00991597   -0.00169001
| 66> C    3.08741807   -0.01451936   -1.14640962
| 67> H    2.50293947    0.00870418   -2.05738506
| 68> C    4.47705513   -0.06426222   -1.19509487
| 69> H    4.98440748   -0.08155426   -2.14887759
| 70> C    5.18742836   -0.08997484    0.00051816
| 71> H    6.26776436   -0.12773959    0.00136746
| 72> C    4.47518091   -0.06495373    1.19505801
| 73> H    4.98097964   -0.08277806    2.14954371
| 74> C    3.08562726   -0.01520405    1.14410393
| 75> H    2.49962148    0.00747038    2.05422261
| 76> *
| 77>
| 78>
| 79>
| 80>
| 81>                          ****END OF INPUT****
 Total Charge           Charge          ....    0
 Multiplicity           Mult            ....    1
 Number of Electrons    NEL             ....   60
MP2 TOTAL ENERGY:     -362.996892561 Eh
FINAL SINGLE POINT ENERGY      -362.996892561424
MP2 TOTAL ENERGY:     -363.318651620 Eh
FINAL SINGLE POINT ENERGY      -363.318651620118

CARTESIAN COORDINATES (ANGSTROEM)
---------------------------------
  O     -0.627652    0.087467    0.001471
  H      0.343602    0.122303   -0.000600
  C     -0.977931   -1.278556    0.001238
  H     -2.063392   -1.342043    0.005009
  H     -0.614884   -1.806376   -0.885384
  H     -0.608640   -1.808237    0.884173
  N      2.391050    0.009916   -0.001690
  C      3.087418   -0.014519   -1.146410
  H      2.502939    0.008704   -2.057385
  C      4.477055   -0.064262   -1.195095
  H      4.984407   -0.081554   -2.148878
  C      5.187428   -0.089975    0.000518
  H      6.267764   -0.127740    0.001367
  C      4.475181   -0.064954    1.195058
  H      4.980980   -0.082778    2.149544
  C      3.085627   -0.015204    1.144104
  H      2.499621    0.007470    2.054223

 Multiplicity           Mult            ....    1
 Number of Electrons    NEL             ....   60
 Basis Dimension        Dim             .... 1054

ORBITAL ENERGIES
----------------

  NO   OCC          E(Eh)            E(eV)
   0   2.0000     -20.520592      -558.3937
   1   2.0000     -15.581543      -423.9953
   2   2.0000     -11.288213      -307.1679
   3   2.0000     -11.288195      -307.1674
   4   2.0000     -11.271461      -306.7120
   5   2.0000     -11.252576      -306.1982
   6   2.0000     -11.252525      -306.1968
   7   2.0000     -11.246818      -306.0415
   8   2.0000      -1.325990       -36.0820
   9   2.0000      -1.272173       -34.6176
  10   2.0000      -1.102206       -29.9925
  11   2.0000      -1.047131       -28.4939
  12   2.0000      -0.899473       -24.4759
  13   2.0000      -0.872033       -23.7292
  14   2.0000      -0.869938       -23.6722
  15   2.0000      -0.736534       -20.0421
  16   2.0000      -0.674517       -18.3546
  17   2.0000      -0.668336       -18.1863
  18   2.0000      -0.663487       -18.0544
  19   2.0000      -0.611794       -16.6478
  20   2.0000      -0.594821       -16.1859
  21   2.0000      -0.590051       -16.0561
  22   2.0000      -0.567457       -15.4413
  23   2.0000      -0.555980       -15.1290
  24   2.0000      -0.533209       -14.5094
  25   2.0000      -0.481618       -13.1055
  26   2.0000      -0.434732       -11.8297
  27   2.0000      -0.420607       -11.4453
  28   2.0000      -0.398371       -10.8402
  29   2.0000      -0.360320        -9.8048
  30   0.0000       0.019001         0.5170
  31   0.0000       0.026113         0.7106
  32   0.0000       0.031074         0.8456
  33   0.0000       0.040432         1.1002
  34   0.0000       0.042491         1.1562

MULLIKEN ATOMIC CHARGES
-----------------------
   0 O :   -0.755045
   1 H :    0.324897
   2 C :   -0.591048
   3 H :    0.444073
   4 H :    0.250376
   5 H :    0.250510
   6 N :   -0.514301
   7 C :   -0.307803
   8 H :    0.383990
   9 C :   -0.164270
  10 H :    0.311110
  11 C :   -0.193436
  12 H :    0.337329
  13 C :   -0.164197
  14 H :    0.311332
  15 C :   -0.307249
  16 H :    0.383731
Sum of atomic charges:    0.0000000

LOEWDIN ATOMIC CHARGES
----------------------
   0 O :    1.234250
   1 H :   -0.989921
   2 C :    0.549402
   3 H :   -0.345337
   4 H :   -0.319861
   5 H :   -0.319890
   6 N :    0.609701
   7 C :    0.109759
   8 H :   -0.341333
   9 C :    0.339504
  10 H :   -0.328555
  11 C :    0.335290
  12 H :   -0.312437
  13 C :    0.339590
  14 H :   -0.328653
  15 C :    0.109697
  16 H :   -0.341208

  Mayer bond orders larger than 0.100000
B(  0-O ,  1-H ) :   0.8954 B(  0-O ,  2-C ) :   0.8674 B(  2-C ,  3-H ) :   0.8030
B(  2-C ,  4-H ) :   0.9198 B(  2-C ,  5-H ) :   0.9195 B(  6-N ,  7-C ) :   1.4044
B(  6-N , 15-C ) :   1.4037 B(  7-C ,  8-H ) :   0.9372 B(  7-C ,  9-C ) :   1.1819
B(  7-C , 13-C ) :   0.1036 B(  9-C , 10-H ) :   0.9947 B(  9-C , 11-C ) :   1.1898
B(  9-C , 13-C ) :  -0.1028 B(  9-C , 15-C ) :   0.1036 B( 11-C , 12-H ) :   0.9733
B( 11-C , 13-C ) :   1.1901 B( 13-C , 14-H ) :   0.9945 B( 13-C , 15-C ) :   1.1817
B( 15-C , 16-H ) :   0.9374

MP2 TOTAL ENERGY:     -363.420977110 Eh
FINAL SINGLE POINT ENERGY      -363.420977110321

DIPOLE MOMENT
-------------
                                X             Y             Z
Electronic contribution:      5.48878       2.62097      -0.00311
Nuclear contribution   :     -3.70940      -3.12071       0.00234
                        -----------------------------------------
Total Dipole Moment    :      1.77938      -0.49975      -0.00077
                        -----------------------------------------
Magnitude (a.u.)       :      1.84823
Magnitude (Debye)      :      4.69783

Rotational constants in cm-1:     0.163628     0.028735     0.025773
Rotational constants in MHz :  4905.433803   861.464008   772.656074

                             ****ORCA TERMINATED NORMALLY****
TOTAL RUN TIME: 0 days 0 hours 23 minutes 4 seconds 138 msec
