                         Program Version 5.0.4 -  RELEASE  -
|  1> ! ri-mp2 aug-cc-pvdz aug-cc-pvdz/c tightscf
|  2> %pal nprocs 16 end
|  3> %maxcore 3800
|  4> %base "DZ_S66by10_21_1.05_dimer"
|  5> %scf STABPerform true end
|  6>
|  7> *xyz 0 1
|  8> C   -1.30974974    1.18017617   -0.02517034
|  9> O   -0.72530044    2.15514767    0.45271335
| 10> N   -0.66562116    0.09505470   -0.49199449
| 11> H    0.35458266    0.05144817   -0.45930922
| 12> H   -1.18362704   -0.67359969   -0.87075610
| 13> C   -2.81671934    1.15599865   -0.11060597
| 14> H   -3.22062895    1.26254146    0.89308239
| 15> H   -3.20942754    0.24863402   -0.56190009
| 16> H   -3.14315813    2.01659563   -0.68889311
| 17> C    2.88673058    1.06610712    0.14102494
| 18> O    2.30230882    0.09208669   -0.33870603
| 19> N    2.24264302    2.15085034    0.60887149
| 20> H    1.22253765    2.19528813    0.57457017
| 21> H    2.76066708    2.91881155    0.98899214
| 22> C    4.39372976    1.09039150    0.22625002
| 23> H    4.78560083    1.99004102    0.69343403
| 24> H    4.79728596    1.00284646   -0.77953029
| 25> H    4.72150852    0.21981660    0.78843036
| 26> *
| 27>
| 28> $new_job
| 29> ! ri-mp2 aug-cc-pvtz aug-cc-pvtz/c tightscf
| 30> %pal nprocs 16 end
| 31> %maxcore 3800
| 32> %base "TZ_S66by10_21_1.05_dimer"
| 33>
| 34> *xyz 0 1
| 35> C   -1.30974974    1.18017617   -0.02517034
| 36> O   -0.72530044    2.15514767    0.45271335
| 37> N   -0.66562116    0.09505470   -0.49199449
| 38> H    0.35458266    0.05144817   -0.45930922
| 39> H   -1.18362704   -0.67359969   -0.87075610
| 40> C   -2.81671934    1.15599865   -0.11060597
| 41> H   -3.22062895    1.26254146    0.89308239
| 42> H   -3.20942754    0.24863402   -0.56190009
| 43> H   -3.14315813    2.01659563   -0.68889311
| 44> C    2.88673058    1.06610712    0.14102494
| 45> O    2.30230882    0.09208669   -0.33870603
| 46> N    2.24264302    2.15085034    0.60887149
| 47> H    1.22253765    2.19528813    0.57457017
| 48> H    2.76066708    2.91881155    0.98899214
| 49> C    4.39372976    1.09039150    0.22625002
| 50> H    4.78560083    1.99004102    0.69343403
| 51> H    4.79728596    1.00284646   -0.77953029
| 52> H    4.72150852    0.21981660    0.78843036
| 53> *
| 54>
| 55> $new_job
| 56> ! ri-mp2 aug-cc-pvqz aug-cc-pvqz/c tightscf
| 57> %pal nprocs 16 end
| 58> %maxcore 3800
| 59> %base "QZ_S66by10_21_1.05_dimer"
| 60>
| 61> *xyz 0 1
| 62> C   -1.30974974    1.18017617   -0.02517034
| 63> O   -0.72530044    2.15514767    0.45271335
| 64> N   -0.66562116    0.09505470   -0.49199449
| 65> H    0.35458266    0.05144817   -0.45930922
| 66> H   -1.18362704   -0.67359969   -0.87075610
| 67> C   -2.81671934    1.15599865   -0.11060597
| 68> H   -3.22062895    1.26254146    0.89308239
| 69> H   -3.20942754    0.24863402   -0.56190009
| 70> H   -3.14315813    2.01659563   -0.68889311
| 71> C    2.88673058    1.06610712    0.14102494
| 72> O    2.30230882    0.09208669   -0.33870603
| 73> N    2.24264302    2.15085034    0.60887149
| 74> H    1.22253765    2.19528813    0.57457017
| 75> H    2.76066708    2.91881155    0.98899214
| 76> C    4.39372976    1.09039150    0.22625002
| 77> H    4.78560083    1.99004102    0.69343403
| 78> H    4.79728596    1.00284646   -0.77953029
| 79> H    4.72150852    0.21981660    0.78843036
| 80> *
| 81>
| 82>
| 83>
| 84>
| 85>                          ****END OF INPUT****
 Total Charge           Charge          ....    0
 Multiplicity           Mult            ....    1
 Number of Electrons    NEL             ....   64
MP2 TOTAL ENERGY:     -417.362582746 Eh
FINAL SINGLE POINT ENERGY      -417.362582746279
MP2 TOTAL ENERGY:     -417.733053922 Eh
FINAL SINGLE POINT ENERGY      -417.733053921771

CARTESIAN COORDINATES (ANGSTROEM)
---------------------------------
  C     -1.309750    1.180176   -0.025170
  O     -0.725300    2.155148    0.452713
  N     -0.665621    0.095055   -0.491994
  H      0.354583    0.051448   -0.459309
  H     -1.183627   -0.673600   -0.870756
  C     -2.816719    1.155999   -0.110606
  H     -3.220629    1.262541    0.893082
  H     -3.209428    0.248634   -0.561900
  H     -3.143158    2.016596   -0.688893
  C      2.886731    1.066107    0.141025
  O      2.302309    0.092087   -0.338706
  N      2.242643    2.150850    0.608871
  H      1.222538    2.195288    0.574570
  H      2.760667    2.918812    0.988992
  C      4.393730    1.090391    0.226250
  H      4.785601    1.990041    0.693434
  H      4.797286    1.002846   -0.779530
  H      4.721509    0.219817    0.788430

 Multiplicity           Mult            ....    1
 Number of Electrons    NEL             ....   64
 Basis Dimension        Dim             .... 1100

ORBITAL ENERGIES
----------------

  NO   OCC          E(Eh)            E(eV)
   0   2.0000     -20.510940      -558.1310
   1   2.0000     -20.510917      -558.1304
   2   2.0000     -15.569753      -423.6745
   3   2.0000     -15.569745      -423.6743
   4   2.0000     -11.349930      -308.8473
   5   2.0000     -11.349924      -308.8471
   6   2.0000     -11.232735      -305.6583
   7   2.0000     -11.232731      -305.6581
   8   2.0000      -1.373879       -37.3851
   9   2.0000      -1.370190       -37.2848
  10   2.0000      -1.207185       -32.8492
  11   2.0000      -1.202253       -32.7150
  12   2.0000      -1.003509       -27.3069
  13   2.0000      -0.999462       -27.1968
  14   2.0000      -0.799287       -21.7497
  15   2.0000      -0.787769       -21.4363
  16   2.0000      -0.722047       -19.6479
  17   2.0000      -0.716890       -19.5076
  18   2.0000      -0.674052       -18.3419
  19   2.0000      -0.650737       -17.7074
  20   2.0000      -0.613612       -16.6972
  21   2.0000      -0.611620       -16.6430
  22   2.0000      -0.586093       -15.9484
  23   2.0000      -0.575618       -15.6634
  24   2.0000      -0.560708       -15.2577
  25   2.0000      -0.555426       -15.1139
  26   2.0000      -0.523115       -14.2347
  27   2.0000      -0.518202       -14.1010
  28   2.0000      -0.435616       -11.8537
  29   2.0000      -0.416732       -11.3399
  30   2.0000      -0.412098       -11.2138
  31   2.0000      -0.403620       -10.9831
  32   0.0000       0.024673         0.6714
  33   0.0000       0.026521         0.7217
  34   0.0000       0.036536         0.9942
  35   0.0000       0.042493         1.1563
  36   0.0000       0.043043         1.1713

MULLIKEN ATOMIC CHARGES
-----------------------
   0 C :    0.829503
   1 O :   -0.866227
   2 N :   -0.687670
   3 H :    0.349299
   4 H :    0.252155
   5 C :   -0.675964
   6 H :    0.275811
   7 H :    0.251431
   8 H :    0.271633
   9 C :    0.829507
  10 O :   -0.866057
  11 N :   -0.687804
  12 H :    0.349432
  13 H :    0.251971
  14 C :   -0.676112
  15 H :    0.251325
  16 H :    0.278048
  17 H :    0.269718
Sum of atomic charges:   -0.0000000

LOEWDIN ATOMIC CHARGES
----------------------
   0 C :   -0.783285
   1 O :    0.762060
   2 N :    1.249947
   3 H :   -0.702399
   4 H :   -0.497443
   5 C :    0.888610
   6 H :   -0.300656
   7 H :   -0.315456
   8 H :   -0.301466
   9 C :   -0.783266
  10 O :    0.762135
  11 N :    1.249955
  12 H :   -0.702329
  13 H :   -0.497459
  14 C :    0.888625
  15 H :   -0.315448
  16 H :   -0.300128
  17 H :   -0.301996

  Mayer bond orders larger than 0.100000
B(  0-C ,  1-O ) :   1.4073 B(  0-C ,  2-N ) :   1.1119 B(  0-C ,  5-C ) :   0.7353
B(  0-C ,  7-H ) :  -0.1127 B(  1-O ,  2-N ) :   0.1547 B(  2-N ,  3-H ) :   0.8711
B(  2-N ,  4-H ) :   1.0072 B(  5-C ,  6-H ) :   0.9493 B(  5-C ,  7-H ) :   1.0071
B(  5-C ,  8-H ) :   0.9583 B(  9-C , 10-O ) :   1.4075 B(  9-C , 11-N ) :   1.1119
B(  9-C , 14-C ) :   0.7353 B(  9-C , 15-H ) :  -0.1127 B( 10-O , 11-N ) :   0.1546
B( 11-N , 12-H ) :   0.8710 B( 11-N , 13-H ) :   1.0074 B( 14-C , 15-H ) :   1.0072
B( 14-C , 16-H ) :   0.9445 B( 14-C , 17-H ) :   0.9629

MP2 TOTAL ENERGY:     -417.852435541 Eh
FINAL SINGLE POINT ENERGY      -417.852435541446

DIPOLE MOMENT
-------------
                                X             Y             Z
Electronic contribution:     -0.00011      -0.00063       0.00054
Nuclear contribution   :      0.00027      -0.00002       0.00041
                        -----------------------------------------
Total Dipole Moment    :      0.00015      -0.00064       0.00095
                        -----------------------------------------
Magnitude (a.u.)       :      0.00116
Magnitude (Debye)      :      0.00294

Rotational constants in cm-1:     0.178960     0.025574     0.022563
Rotational constants in MHz :  5365.099166   766.702453   676.407065

                             ****ORCA TERMINATED NORMALLY****
TOTAL RUN TIME: 0 days 2 hours 37 minutes 3 seconds 841 msec
