                         Program Version 5.0.4 -  RELEASE  -
|  1> ! ri-mp2 aug-cc-pvdz aug-cc-pvdz/c tightscf
|  2> %pal nprocs 16 end
|  3> %maxcore 3800
|  4> %base "DZ_S66by10_17_1.5_dimer"
|  5> %scf STABPerform true end
|  6>
|  7> *xyz 0 1
|  8> N   -0.72999913    0.02276763    0.00091465
|  9> H    0.29842255    0.07400447    0.00162304
| 10> C   -1.29682453   -1.24042682    0.00150234
| 11> O   -0.59409886   -2.25351751    0.00263371
| 12> C   -2.74362229   -1.26233170    0.00047938
| 13> H   -3.24959045   -2.21183517    0.00083311
| 14> C   -3.42201997   -0.09590921   -0.00092259
| 15> H   -4.50089709   -0.04921603   -0.00174546
| 16> N   -2.77483684    1.10540895   -0.00141807
| 17> H   -3.28383807    1.97387739   -0.00248574
| 18> C   -1.39147866    1.23701978   -0.00052538
| 19> O   -0.83984371    2.31703528   -0.00100125
| 20> N    5.03970078   -1.13238850    0.00050387
| 21> H    5.48694457   -0.22581530    0.00089069
| 22> C    5.89574855   -2.24700629   -0.00099601
| 23> O    7.10520058   -2.09530187   -0.00174521
| 24> C    5.18153012   -3.50917983   -0.00150040
| 25> H    5.74811467   -4.42421058   -0.00263904
| 26> C    3.83136115   -3.51299770   -0.00054031
| 27> H    3.25439791   -4.42596246   -0.00085898
| 28> N    3.09336974   -2.36211686    0.00091011
| 29> H    2.06703348   -2.38355966    0.00158718
| 30> C    3.66614067   -1.11745182    0.00146075
| 31> O    3.01581979   -0.07623351    0.00269715
| 32> *
| 33>
| 34> $new_job
| 35> ! ri-mp2 aug-cc-pvtz aug-cc-pvtz/c tightscf
| 36> %pal nprocs 16 end
| 37> %maxcore 3800
| 38> %base "TZ_S66by10_17_1.5_dimer"
| 39>
| 40> *xyz 0 1
| 41> N   -0.72999913    0.02276763    0.00091465
| 42> H    0.29842255    0.07400447    0.00162304
| 43> C   -1.29682453   -1.24042682    0.00150234
| 44> O   -0.59409886   -2.25351751    0.00263371
| 45> C   -2.74362229   -1.26233170    0.00047938
| 46> H   -3.24959045   -2.21183517    0.00083311
| 47> C   -3.42201997   -0.09590921   -0.00092259
| 48> H   -4.50089709   -0.04921603   -0.00174546
| 49> N   -2.77483684    1.10540895   -0.00141807
| 50> H   -3.28383807    1.97387739   -0.00248574
| 51> C   -1.39147866    1.23701978   -0.00052538
| 52> O   -0.83984371    2.31703528   -0.00100125
| 53> N    5.03970078   -1.13238850    0.00050387
| 54> H    5.48694457   -0.22581530    0.00089069
| 55> C    5.89574855   -2.24700629   -0.00099601
| 56> O    7.10520058   -2.09530187   -0.00174521
| 57> C    5.18153012   -3.50917983   -0.00150040
| 58> H    5.74811467   -4.42421058   -0.00263904
| 59> C    3.83136115   -3.51299770   -0.00054031
| 60> H    3.25439791   -4.42596246   -0.00085898
| 61> N    3.09336974   -2.36211686    0.00091011
| 62> H    2.06703348   -2.38355966    0.00158718
| 63> C    3.66614067   -1.11745182    0.00146075
| 64> O    3.01581979   -0.07623351    0.00269715
| 65> *
| 66>
| 67> $new_job
| 68> ! ri-mp2 aug-cc-pvqz aug-cc-pvqz/c tightscf
| 69> %pal nprocs 16 end
| 70> %maxcore 3800
| 71> %base "QZ_S66by10_17_1.5_dimer"
| 72>
| 73> *xyz 0 1
| 74> N   -0.72999913    0.02276763    0.00091465
| 75> H    0.29842255    0.07400447    0.00162304
| 76> C   -1.29682453   -1.24042682    0.00150234
| 77> O   -0.59409886   -2.25351751    0.00263371
| 78> C   -2.74362229   -1.26233170    0.00047938
| 79> H   -3.24959045   -2.21183517    0.00083311
| 80> C   -3.42201997   -0.09590921   -0.00092259
| 81> H   -4.50089709   -0.04921603   -0.00174546
| 82> N   -2.77483684    1.10540895   -0.00141807
| 83> H   -3.28383807    1.97387739   -0.00248574
| 84> C   -1.39147866    1.23701978   -0.00052538
| 85> O   -0.83984371    2.31703528   -0.00100125
| 86> N    5.03970078   -1.13238850    0.00050387
| 87> H    5.48694457   -0.22581530    0.00089069
| 88> C    5.89574855   -2.24700629   -0.00099601
| 89> O    7.10520058   -2.09530187   -0.00174521
| 90> C    5.18153012   -3.50917983   -0.00150040
| 91> H    5.74811467   -4.42421058   -0.00263904
| 92> C    3.83136115   -3.51299770   -0.00054031
| 93> H    3.25439791   -4.42596246   -0.00085898
| 94> N    3.09336974   -2.36211686    0.00091011
| 95> H    2.06703348   -2.38355966    0.00158718
| 96> C    3.66614067   -1.11745182    0.00146075
| 97> O    3.01581979   -0.07623351    0.00269715
| 98> *
| 99>
|100>
|101>
|102>
|103>                          ****END OF INPUT****
 Total Charge           Charge          ....    0
 Multiplicity           Mult            ....    1
 Number of Electrons    NEL             ....  116
MP2 TOTAL ENERGY:     -827.568675412 Eh
FINAL SINGLE POINT ENERGY      -827.568675412365
MP2 TOTAL ENERGY:     -828.263024702 Eh
FINAL SINGLE POINT ENERGY      -828.263024701538

CARTESIAN COORDINATES (ANGSTROEM)
---------------------------------
  N     -0.729999    0.022768    0.000915
  H      0.298423    0.074004    0.001623
  C     -1.296825   -1.240427    0.001502
  O     -0.594099   -2.253518    0.002634
  C     -2.743622   -1.262332    0.000479
  H     -3.249590   -2.211835    0.000833
  C     -3.422020   -0.095909   -0.000923
  H     -4.500897   -0.049216   -0.001745
  N     -2.774837    1.105409   -0.001418
  H     -3.283838    1.973877   -0.002486
  C     -1.391479    1.237020   -0.000525
  O     -0.839844    2.317035   -0.001001
  N      5.039701   -1.132389    0.000504
  H      5.486945   -0.225815    0.000891
  C      5.895749   -2.247006   -0.000996
  O      7.105201   -2.095302   -0.001745
  C      5.181530   -3.509180   -0.001500
  H      5.748115   -4.424211   -0.002639
  C      3.831361   -3.512998   -0.000540
  H      3.254398   -4.425962   -0.000859
  N      3.093370   -2.362117    0.000910
  H      2.067033   -2.383560    0.001587
  C      3.666141   -1.117452    0.001461
  O      3.015820   -0.076234    0.002697

 Multiplicity           Mult            ....    1
 Number of Electrons    NEL             ....  116
 Basis Dimension        Dim             .... 1648

ORBITAL ENERGIES
----------------

  NO   OCC          E(Eh)            E(eV)
   0   2.0000     -20.546403      -559.0960
   1   2.0000     -20.544614      -559.0474
   2   2.0000     -20.537456      -558.8526
   3   2.0000     -20.533743      -558.7516
   4   2.0000     -15.645965      -425.7483
   5   2.0000     -15.635642      -425.4674
   6   2.0000     -15.631338      -425.3503
   7   2.0000     -15.620243      -425.0484
   8   2.0000     -11.420383      -310.7644
   9   2.0000     -11.411686      -310.5278
  10   2.0000     -11.386587      -309.8448
  11   2.0000     -11.374080      -309.5045
  12   2.0000     -11.344290      -308.6938
  13   2.0000     -11.332689      -308.3781
  14   2.0000     -11.257091      -306.3210
  15   2.0000     -11.247922      -306.0715
  16   2.0000      -1.438507       -39.1438
  17   2.0000      -1.427256       -38.8376
  18   2.0000      -1.398314       -38.0501
  19   2.0000      -1.390818       -37.8461
  20   2.0000      -1.316477       -35.8232
  21   2.0000      -1.305541       -35.5256
  22   2.0000      -1.250546       -34.0291
  23   2.0000      -1.239519       -33.7290
  24   2.0000      -1.091536       -29.7022
  25   2.0000      -1.081478       -29.4285
  26   2.0000      -0.936792       -25.4914
  27   2.0000      -0.928683       -25.2707
  28   2.0000      -0.906705       -24.6727
  29   2.0000      -0.893970       -24.3262
  30   2.0000      -0.809995       -22.0411
  31   2.0000      -0.798412       -21.7259
  32   2.0000      -0.770246       -20.9595
  33   2.0000      -0.759807       -20.6754
  34   2.0000      -0.718461       -19.5503
  35   2.0000      -0.707334       -19.2475
  36   2.0000      -0.683267       -18.5926
  37   2.0000      -0.672625       -18.3031
  38   2.0000      -0.670412       -18.2428
  39   2.0000      -0.663754       -18.0617
  40   2.0000      -0.655256       -17.8304
  41   2.0000      -0.645804       -17.5732
  42   2.0000      -0.618314       -16.8252
  43   2.0000      -0.607800       -16.5391
  44   2.0000      -0.605860       -16.4863
  45   2.0000      -0.595317       -16.1994
  46   2.0000      -0.575823       -15.6689
  47   2.0000      -0.565022       -15.3750
  48   2.0000      -0.529608       -14.4114
  49   2.0000      -0.517593       -14.0844
  50   2.0000      -0.486304       -13.2330
  51   2.0000      -0.478102       -13.0098
  52   2.0000      -0.457044       -12.4368
  53   2.0000      -0.443906       -12.0793
  54   2.0000      -0.441296       -12.0083
  55   2.0000      -0.432011       -11.7556
  56   2.0000      -0.372431       -10.1344
  57   2.0000      -0.362780        -9.8717
  58   0.0000       0.009596         0.2611
  59   0.0000       0.021500         0.5851
  60   0.0000       0.028404         0.7729
  61   0.0000       0.035817         0.9746
  62   0.0000       0.039813         1.0834

MULLIKEN ATOMIC CHARGES
-----------------------
   0 N :   -0.711093
   1 H :    0.213320
   2 C :    1.230550
   3 O :   -0.944793
   4 C :   -0.437974
   5 H :    0.289902
   6 C :   -0.120547
   7 H :    0.433532
   8 N :   -0.695102
   9 H :    0.100047
  10 C :    1.402429
  11 O :   -0.761387
  12 N :   -0.679820
  13 H :    0.140091
  14 C :    1.115927
  15 O :   -0.805276
  16 C :   -0.406139
  17 H :    0.307387
  18 C :   -0.277250
  19 H :    0.368515
  20 N :   -0.579767
  21 H :    0.223726
  22 C :    1.458196
  23 O :   -0.864474
Sum of atomic charges:    0.0000000

LOEWDIN ATOMIC CHARGES
----------------------
   0 N :    0.775037
   1 H :   -0.518737
   2 C :   -0.877153
   3 O :    0.679550
   4 C :    0.327427
   5 H :   -0.354984
   6 C :    0.235823
   7 H :   -0.296049
   8 N :    0.811476
   9 H :   -0.492728
  10 C :   -0.977463
  11 O :    0.697810
  12 N :    0.776207
  13 H :   -0.519107
  14 C :   -0.863913
  15 O :    0.680259
  16 C :    0.334642
  17 H :   -0.355124
  18 C :    0.235458
  19 H :   -0.297203
  20 N :    0.803319
  21 H :   -0.499555
  22 C :   -0.996009
  23 O :    0.691017

  Mayer bond orders larger than 0.100000
B(  0-N ,  1-H ) :   1.0065 B(  0-N ,  2-C ) :   0.9492 B(  0-N ,  3-O ) :   0.1782
B(  0-N , 10-C ) :   1.1684 B(  0-N , 11-O ) :   0.2287 B(  1-H , 11-O ) :   0.1026
B(  2-C ,  3-O ) :   1.1385 B(  2-C ,  4-C ) :   0.9606 B(  2-C ,  6-C ) :  -0.2435
B(  3-O ,  4-C ) :   0.2257 B(  4-C ,  5-H ) :   0.9926 B(  4-C ,  6-C ) :   1.5121
B(  4-C ,  7-H ) :  -0.1086 B(  5-H ,  6-C ) :  -0.1026 B(  6-C ,  7-H ) :   0.9202
B(  6-C ,  8-N ) :   0.9143 B(  8-N ,  9-H ) :   1.2037 B(  8-N , 10-C ) :   1.0617
B(  8-N , 11-O ) :   0.1713 B( 10-C , 11-O ) :   1.1042 B( 12-N , 13-H ) :   1.1603
B( 12-N , 14-C ) :   1.0188 B( 12-N , 15-O ) :   0.1575 B( 12-N , 22-C ) :   0.9582
B( 14-C , 15-O ) :   1.0834 B( 14-C , 16-C ) :   1.1807 B( 14-C , 18-C ) :  -0.1323
B( 15-O , 16-C ) :   0.2606 B( 16-C , 17-H ) :   0.9898 B( 16-C , 18-C ) :   1.4279
B( 17-H , 18-C ) :  -0.1315 B( 18-C , 19-H ) :   0.9620 B( 18-C , 20-N ) :   0.9378
B( 20-N , 21-H ) :   1.0556 B( 20-N , 22-C ) :   1.1079 B( 20-N , 23-O ) :   0.1674
B( 22-C , 23-O ) :   1.2478

MP2 TOTAL ENERGY:     -828.492858398 Eh
FINAL SINGLE POINT ENERGY      -828.492858398093

DIPOLE MOMENT
-------------
                                X             Y             Z
Electronic contribution:      2.11930       2.66622       0.00203
Nuclear contribution   :     -5.43260      -3.55860      -0.00389
                        -----------------------------------------
Total Dipole Moment    :     -3.31331      -0.89238      -0.00186
                        -----------------------------------------
Magnitude (a.u.)       :      3.43138
Magnitude (Debye)      :      8.72186

Rotational constants in cm-1:     0.046209     0.005967     0.005284
Rotational constants in MHz :  1385.313569   178.875995   158.420322

                             ****ORCA TERMINATED NORMALLY****
TOTAL RUN TIME: 0 days 9 hours 49 minutes 31 seconds 202 msec
