                         Program Version 5.0.4 -  RELEASE  -
|  1> ! ri-mp2 aug-cc-pvdz aug-cc-pvdz/c tightscf
|  2> %pal nprocs 16 end
|  3> %maxcore 3800
|  4> %base "DZ_S66by10_46_1.25_dimer"
|  5> %scf STABPerform true end
|  6>
|  7> *xyz 0 1
|  8> C    1.37219093    1.01247736    0.97082468
|  9> H    0.95217623    2.01404955    1.03311725
| 10> H    1.94742170    0.92651560    0.05071776
| 11> H    2.05170208    0.85182517    1.80295247
| 12> C    0.32673706   -0.07764727    0.98819876
| 13> O    0.61882128   -1.25248130    1.17128126
| 14> N   -0.95002884    0.34488680    0.77391491
| 15> H   -1.10467156    1.32202550    0.60611216
| 16> C   -2.05985440   -0.57736895    0.68015349
| 17> H   -1.66935602   -1.56679601    0.89718425
| 18> H   -2.83459176   -0.33138032    1.40366139
| 19> H   -2.49097050   -0.57892483   -0.31993926
| 20> C    2.71834805    0.50311979    5.52905380
| 21> H    2.83518734    1.25753569    4.75030898
| 22> H    2.63223768    1.02800612    6.48070986
| 23> H    3.63043950   -0.09112212    5.55586181
| 24> C    1.49007583   -0.36026772    5.27150225
| 25> H    1.39550648   -1.10572172    6.06455309
| 26> H    1.60649596   -0.91373205    4.33765845
| 27> C    0.20753798    0.45834623    5.20620090
| 28> H    0.09596766    1.03608111    6.12928454
| 29> H    0.28677213    1.19116114    4.39654825
| 30> C   -1.03681830   -0.39198900    4.98932100
| 31> H   -1.12762027   -1.10647549    5.81073823
| 32> H   -0.90901130   -0.98092673    4.07910655
| 33> C   -2.30365680    0.44830250    4.89920628
| 34> H   -2.23674356    1.15535348    4.07143704
| 35> H   -3.18899902   -0.16771499    4.74537337
| 36> H   -2.45401284    1.02451359    5.81242587
| 37> *
| 38>
| 39> $new_job
| 40> ! ri-mp2 aug-cc-pvtz aug-cc-pvtz/c tightscf
| 41> %pal nprocs 16 end
| 42> %maxcore 3800
| 43> %base "TZ_S66by10_46_1.25_dimer"
| 44>
| 45> *xyz 0 1
| 46> C    1.37219093    1.01247736    0.97082468
| 47> H    0.95217623    2.01404955    1.03311725
| 48> H    1.94742170    0.92651560    0.05071776
| 49> H    2.05170208    0.85182517    1.80295247
| 50> C    0.32673706   -0.07764727    0.98819876
| 51> O    0.61882128   -1.25248130    1.17128126
| 52> N   -0.95002884    0.34488680    0.77391491
| 53> H   -1.10467156    1.32202550    0.60611216
| 54> C   -2.05985440   -0.57736895    0.68015349
| 55> H   -1.66935602   -1.56679601    0.89718425
| 56> H   -2.83459176   -0.33138032    1.40366139
| 57> H   -2.49097050   -0.57892483   -0.31993926
| 58> C    2.71834805    0.50311979    5.52905380
| 59> H    2.83518734    1.25753569    4.75030898
| 60> H    2.63223768    1.02800612    6.48070986
| 61> H    3.63043950   -0.09112212    5.55586181
| 62> C    1.49007583   -0.36026772    5.27150225
| 63> H    1.39550648   -1.10572172    6.06455309
| 64> H    1.60649596   -0.91373205    4.33765845
| 65> C    0.20753798    0.45834623    5.20620090
| 66> H    0.09596766    1.03608111    6.12928454
| 67> H    0.28677213    1.19116114    4.39654825
| 68> C   -1.03681830   -0.39198900    4.98932100
| 69> H   -1.12762027   -1.10647549    5.81073823
| 70> H   -0.90901130   -0.98092673    4.07910655
| 71> C   -2.30365680    0.44830250    4.89920628
| 72> H   -2.23674356    1.15535348    4.07143704
| 73> H   -3.18899902   -0.16771499    4.74537337
| 74> H   -2.45401284    1.02451359    5.81242587
| 75> *
| 76>
| 77> $new_job
| 78> ! ri-mp2 aug-cc-pvqz aug-cc-pvqz/c tightscf
| 79> %pal nprocs 16 end
| 80> %maxcore 3800
| 81> %base "QZ_S66by10_46_1.25_dimer"
| 82>
| 83> *xyz 0 1
| 84> C    1.37219093    1.01247736    0.97082468
| 85> H    0.95217623    2.01404955    1.03311725
| 86> H    1.94742170    0.92651560    0.05071776
| 87> H    2.05170208    0.85182517    1.80295247
| 88> C    0.32673706   -0.07764727    0.98819876
| 89> O    0.61882128   -1.25248130    1.17128126
| 90> N   -0.95002884    0.34488680    0.77391491
| 91> H   -1.10467156    1.32202550    0.60611216
| 92> C   -2.05985440   -0.57736895    0.68015349
| 93> H   -1.66935602   -1.56679601    0.89718425
| 94> H   -2.83459176   -0.33138032    1.40366139
| 95> H   -2.49097050   -0.57892483   -0.31993926
| 96> C    2.71834805    0.50311979    5.52905380
| 97> H    2.83518734    1.25753569    4.75030898
| 98> H    2.63223768    1.02800612    6.48070986
| 99> H    3.63043950   -0.09112212    5.55586181
|100> C    1.49007583   -0.36026772    5.27150225
|101> H    1.39550648   -1.10572172    6.06455309
|102> H    1.60649596   -0.91373205    4.33765845
|103> C    0.20753798    0.45834623    5.20620090
|104> H    0.09596766    1.03608111    6.12928454
|105> H    0.28677213    1.19116114    4.39654825
|106> C   -1.03681830   -0.39198900    4.98932100
|107> H   -1.12762027   -1.10647549    5.81073823
|108> H   -0.90901130   -0.98092673    4.07910655
|109> C   -2.30365680    0.44830250    4.89920628
|110> H   -2.23674356    1.15535348    4.07143704
|111> H   -3.18899902   -0.16771499    4.74537337
|112> H   -2.45401284    1.02451359    5.81242587
|113> *
|114>
|115>
|116>
|117>
|118>                          ****END OF INPUT****
 Total Charge           Charge          ....    0
 Multiplicity           Mult            ....    1
 Number of Electrons    NEL             ....   82
MP2 TOTAL ENERGY:     -444.966157941 Eh
FINAL SINGLE POINT ENERGY      -444.966157941431
MP2 TOTAL ENERGY:     -445.385961805 Eh
FINAL SINGLE POINT ENERGY      -445.385961805000

CARTESIAN COORDINATES (ANGSTROEM)
---------------------------------
  C      1.372191    1.012477    0.970825
  H      0.952176    2.014050    1.033117
  H      1.947422    0.926516    0.050718
  H      2.051702    0.851825    1.802952
  C      0.326737   -0.077647    0.988199
  O      0.618821   -1.252481    1.171281
  N     -0.950029    0.344887    0.773915
  H     -1.104672    1.322026    0.606112
  C     -2.059854   -0.577369    0.680153
  H     -1.669356   -1.566796    0.897184
  H     -2.834592   -0.331380    1.403661
  H     -2.490970   -0.578925   -0.319939
  C      2.718348    0.503120    5.529054
  H      2.835187    1.257536    4.750309
  H      2.632238    1.028006    6.480710
  H      3.630439   -0.091122    5.555862
  C      1.490076   -0.360268    5.271502
  H      1.395506   -1.105722    6.064553
  H      1.606496   -0.913732    4.337658
  C      0.207538    0.458346    5.206201
  H      0.095968    1.036081    6.129285
  H      0.286772    1.191161    4.396548
  C     -1.036818   -0.391989    4.989321
  H     -1.127620   -1.106475    5.810738
  H     -0.909011   -0.980927    4.079107
  C     -2.303657    0.448302    4.899206
  H     -2.236744    1.155353    4.071437
  H     -3.188999   -0.167715    4.745373
  H     -2.454013    1.024514    5.812426

 Multiplicity           Mult            ....    1
 Number of Electrons    NEL             ....   82
 Basis Dimension        Dim             .... 1674

ORBITAL ENERGIES
----------------

  NO   OCC          E(Eh)            E(eV)
   0   2.0000     -20.509981      -558.1049
   1   2.0000     -15.585646      -424.1070
   2   2.0000     -11.348023      -308.7954
   3   2.0000     -11.255523      -306.2784
   4   2.0000     -11.235201      -305.7254
   5   2.0000     -11.207008      -304.9582
   6   2.0000     -11.206380      -304.9411
   7   2.0000     -11.205886      -304.9277
   8   2.0000     -11.205097      -304.9062
   9   2.0000     -11.203158      -304.8534
  10   2.0000      -1.374787       -37.4099
  11   2.0000      -1.231031       -33.4980
  12   2.0000      -1.077354       -29.3163
  13   2.0000      -1.019822       -27.7508
  14   2.0000      -1.011965       -27.5370
  15   2.0000      -0.932952       -25.3869
  16   2.0000      -0.916374       -24.9358
  17   2.0000      -0.816511       -22.2184
  18   2.0000      -0.790548       -21.5119
  19   2.0000      -0.781078       -21.2542
  20   2.0000      -0.691948       -18.8289
  21   2.0000      -0.653593       -17.7852
  22   2.0000      -0.645910       -17.5761
  23   2.0000      -0.632815       -17.2198
  24   2.0000      -0.595482       -16.2039
  25   2.0000      -0.592465       -16.1218
  26   2.0000      -0.586586       -15.9618
  27   2.0000      -0.581922       -15.8349
  28   2.0000      -0.556247       -15.1362
  29   2.0000      -0.550952       -14.9922
  30   2.0000      -0.545624       -14.8472
  31   2.0000      -0.544955       -14.8290
  32   2.0000      -0.523782       -14.2528
  33   2.0000      -0.506529       -13.7833
  34   2.0000      -0.491683       -13.3794
  35   2.0000      -0.472554       -12.8588
  36   2.0000      -0.458213       -12.4686
  37   2.0000      -0.455231       -12.3875
  38   2.0000      -0.443236       -12.0611
  39   2.0000      -0.422462       -11.4958
  40   2.0000      -0.393147       -10.6981
  41   0.0000       0.019049         0.5183
  42   0.0000       0.027802         0.7565
  43   0.0000       0.029458         0.8016
  44   0.0000       0.032592         0.8869
  45   0.0000       0.038349         1.0435

MULLIKEN ATOMIC CHARGES
-----------------------
   0 C :   -0.947976
   1 H :    0.218130
   2 H :    0.388635
   3 H :    0.383359
   4 C :    1.180958
   5 O :   -0.973156
   6 N :   -0.601441
   7 H :    0.273446
   8 C :   -0.915336
   9 H :    0.271781
  10 H :    0.320840
  11 H :    0.404867
  12 C :   -0.984588
  13 H :    0.264973
  14 H :    0.239319
  15 H :    0.262716
  16 C :   -0.538304
  17 H :    0.313354
  18 H :    0.297340
  19 C :   -0.311583
  20 H :    0.328137
  21 H :    0.273342
  22 C :   -0.536269
  23 H :    0.312803
  24 H :    0.310372
  25 C :   -1.075403
  26 H :    0.261543
  27 H :    0.252430
  28 H :    0.325711
Sum of atomic charges:    0.0000000

LOEWDIN ATOMIC CHARGES
----------------------
   0 C :    0.889509
   1 H :   -0.309883
   2 H :   -0.288868
   3 H :   -0.311673
   4 C :   -0.845218
   5 O :    0.710856
   6 N :    0.825844
   7 H :   -0.505925
   8 C :    0.784031
   9 H :   -0.363488
  10 H :   -0.290018
  11 H :   -0.281336
  12 C :    0.925962
  13 H :   -0.289989
  14 H :   -0.285764
  15 H :   -0.282350
  16 C :    0.504445
  17 H :   -0.270430
  18 H :   -0.276927
  19 C :    0.486552
  20 H :   -0.266932
  21 H :   -0.276265
  22 C :    0.502313
  23 H :   -0.268450
  24 H :   -0.280947
  25 C :    0.922799
  26 H :   -0.291773
  27 H :   -0.281845
  28 H :   -0.284231

  Mayer bond orders larger than 0.100000
B(  0-C ,  1-H ) :   1.0332 B(  0-C ,  2-H ) :   0.8560 B(  0-C ,  3-H ) :   0.8452
B(  0-C ,  4-C ) :   0.8645 B(  0-C ,  5-O ) :   0.1005 B(  4-C ,  5-O ) :   1.0030
B(  4-C ,  6-N ) :   1.0841 B(  5-O ,  6-N ) :   0.1636 B(  6-N ,  7-H ) :   0.9818
B(  6-N ,  8-C ) :   0.8453 B(  8-C ,  9-H ) :   0.9771 B(  8-C , 10-H ) :   0.8989
B(  8-C , 11-H ) :   0.8569 B( 12-C , 13-H ) :   0.9128 B( 12-C , 14-H ) :   0.9783
B( 12-C , 15-H ) :   1.0319 B( 12-C , 16-C ) :   0.9915 B( 16-C , 17-H ) :   0.8500
B( 16-C , 18-H ) :   0.8377 B( 16-C , 19-C ) :   0.8075 B( 19-C , 20-H ) :   0.8633
B( 19-C , 21-H ) :   0.8673 B( 19-C , 22-C ) :   0.8455 B( 22-C , 23-H ) :   0.8567
B( 22-C , 24-H ) :   0.8175 B( 22-C , 25-C ) :   0.9692 B( 22-C , 27-H ) :  -0.1085
B( 25-C , 26-H ) :   0.9217 B( 25-C , 27-H ) :   1.0389 B( 25-C , 28-H ) :   0.9147

MP2 TOTAL ENERGY:     -445.514955311 Eh
FINAL SINGLE POINT ENERGY      -445.514955310549

DIPOLE MOMENT
-------------
                                X             Y             Z
Electronic contribution:      0.46627      -3.09029      -9.77549
Nuclear contribution   :     -1.10603       4.39658       9.41450
                        -----------------------------------------
Total Dipole Moment    :     -0.63976       1.30629      -0.36100
                        -----------------------------------------
Magnitude (a.u.)       :      1.49867
Magnitude (Debye)      :      3.80931

Rotational constants in cm-1:     0.040683     0.021527     0.016027
Rotational constants in MHz :  1219.640172   645.352935   480.471469

                             ****ORCA TERMINATED NORMALLY****
TOTAL RUN TIME: 0 days 6 hours 14 minutes 47 seconds 341 msec
