                         Program Version 5.0.4 -  RELEASE  -
|  1> ! ri-mp2 aug-cc-pvdz aug-cc-pvdz/c tightscf
|  2> %pal nprocs 16 end
|  3> %maxcore 3800
|  4> %base "DZ_S66by10_39_1.25_dimer"
|  5>
|  6> *xyz 0 1
|  7> C    0.76554546    0.86824433    0.82099095
|  8> H    1.43747647    1.68000664    1.06510281
|  9> C    1.23765260   -0.44283807    0.79388795
| 10> H    2.27575877   -0.64853808    1.01771141
| 11> C    0.37223723   -1.48853667    0.47726862
| 12> H    0.73818789   -2.50608012    0.45705609
| 13> C   -0.96493318   -1.22297162    0.18687834
| 14> H   -1.63645949   -2.03456079   -0.05777362
| 15> C   -1.43706509    0.08840558    0.21327714
| 16> H   -2.47468432    0.29430216   -0.01146746
| 17> C   -0.57190649    1.13402416    0.53081281
| 18> H   -0.93769935    2.15171058    0.55107764
| 19> C   -0.72865380   -0.66522725    4.82883839
| 20> H   -0.83490764   -0.49027809    3.75653153
| 21> H   -1.38029138   -1.49449114    5.10198906
| 22> C    0.74088739   -0.92229034    5.17296827
| 23> H    1.23611817   -1.55987538    4.44238399
| 24> H    0.80416656   -1.42250411    6.14043491
| 25> C    1.38102443    0.48310634    5.26392113
| 26> H    2.03129275    0.67577727    4.41206820
| 27> H    1.99389161    0.57227576    6.15964649
| 28> C    0.20197831    1.48228336    5.29079316
| 29> H    0.08482682    1.94125375    4.30850783
| 30> H    0.34757190    2.28378819    6.01319177
| 31> C   -1.03179346    0.62518817    5.58644203
| 32> H   -1.96278197    1.10092561    5.28052888
| 33> H   -1.09721922    0.41586725    6.65697727
| 34> *
| 35>
| 36> $new_job
| 37> ! ri-mp2 aug-cc-pvtz aug-cc-pvtz/c tightscf
| 38> %pal nprocs 16 end
| 39> %maxcore 3800
| 40> %base "TZ_S66by10_39_1.25_dimer"
| 41>
| 42> *xyz 0 1
| 43> C    0.76554546    0.86824433    0.82099095
| 44> H    1.43747647    1.68000664    1.06510281
| 45> C    1.23765260   -0.44283807    0.79388795
| 46> H    2.27575877   -0.64853808    1.01771141
| 47> C    0.37223723   -1.48853667    0.47726862
| 48> H    0.73818789   -2.50608012    0.45705609
| 49> C   -0.96493318   -1.22297162    0.18687834
| 50> H   -1.63645949   -2.03456079   -0.05777362
| 51> C   -1.43706509    0.08840558    0.21327714
| 52> H   -2.47468432    0.29430216   -0.01146746
| 53> C   -0.57190649    1.13402416    0.53081281
| 54> H   -0.93769935    2.15171058    0.55107764
| 55> C   -0.72865380   -0.66522725    4.82883839
| 56> H   -0.83490764   -0.49027809    3.75653153
| 57> H   -1.38029138   -1.49449114    5.10198906
| 58> C    0.74088739   -0.92229034    5.17296827
| 59> H    1.23611817   -1.55987538    4.44238399
| 60> H    0.80416656   -1.42250411    6.14043491
| 61> C    1.38102443    0.48310634    5.26392113
| 62> H    2.03129275    0.67577727    4.41206820
| 63> H    1.99389161    0.57227576    6.15964649
| 64> C    0.20197831    1.48228336    5.29079316
| 65> H    0.08482682    1.94125375    4.30850783
| 66> H    0.34757190    2.28378819    6.01319177
| 67> C   -1.03179346    0.62518817    5.58644203
| 68> H   -1.96278197    1.10092561    5.28052888
| 69> H   -1.09721922    0.41586725    6.65697727
| 70> *
| 71>
| 72> $new_job
| 73> ! ri-mp2 aug-cc-pvqz aug-cc-pvqz/c tightscf
| 74> %pal nprocs 16 end
| 75> %maxcore 3800
| 76> %base "QZ_S66by10_39_1.25_dimer"
| 77>
| 78> *xyz 0 1
| 79> C    0.76554546    0.86824433    0.82099095
| 80> H    1.43747647    1.68000664    1.06510281
| 81> C    1.23765260   -0.44283807    0.79388795
| 82> H    2.27575877   -0.64853808    1.01771141
| 83> C    0.37223723   -1.48853667    0.47726862
| 84> H    0.73818789   -2.50608012    0.45705609
| 85> C   -0.96493318   -1.22297162    0.18687834
| 86> H   -1.63645949   -2.03456079   -0.05777362
| 87> C   -1.43706509    0.08840558    0.21327714
| 88> H   -2.47468432    0.29430216   -0.01146746
| 89> C   -0.57190649    1.13402416    0.53081281
| 90> H   -0.93769935    2.15171058    0.55107764
| 91> C   -0.72865380   -0.66522725    4.82883839
| 92> H   -0.83490764   -0.49027809    3.75653153
| 93> H   -1.38029138   -1.49449114    5.10198906
| 94> C    0.74088739   -0.92229034    5.17296827
| 95> H    1.23611817   -1.55987538    4.44238399
| 96> H    0.80416656   -1.42250411    6.14043491
| 97> C    1.38102443    0.48310634    5.26392113
| 98> H    2.03129275    0.67577727    4.41206820
| 99> H    1.99389161    0.57227576    6.15964649
|100> C    0.20197831    1.48228336    5.29079316
|101> H    0.08482682    1.94125375    4.30850783
|102> H    0.34757190    2.28378819    6.01319177
|103> C   -1.03179346    0.62518817    5.58644203
|104> H   -1.96278197    1.10092561    5.28052888
|105> H   -1.09721922    0.41586725    6.65697727
|106> *
|107>
|108>
|109>
|110>
|111>                          ****END OF INPUT****
 Total Charge           Charge          ....    0
 Multiplicity           Mult            ....    1
 Number of Electrons    NEL             ....   82
MP2 TOTAL ENERGY:     -427.466319700 Eh
FINAL SINGLE POINT ENERGY      -427.466319700268
MP2 TOTAL ENERGY:     -427.860435344 Eh
FINAL SINGLE POINT ENERGY      -427.860435343849

CARTESIAN COORDINATES (ANGSTROEM)
---------------------------------
  C      0.765545    0.868244    0.820991
  H      1.437476    1.680007    1.065103
  C      1.237653   -0.442838    0.793888
  H      2.275759   -0.648538    1.017711
  C      0.372237   -1.488537    0.477269
  H      0.738188   -2.506080    0.457056
  C     -0.964933   -1.222972    0.186878
  H     -1.636459   -2.034561   -0.057774
  C     -1.437065    0.088406    0.213277
  H     -2.474684    0.294302   -0.011467
  C     -0.571906    1.134024    0.530813
  H     -0.937699    2.151711    0.551078
  C     -0.728654   -0.665227    4.828838
  H     -0.834908   -0.490278    3.756532
  H     -1.380291   -1.494491    5.101989
  C      0.740887   -0.922290    5.172968
  H      1.236118   -1.559875    4.442384
  H      0.804167   -1.422504    6.140435
  C      1.381024    0.483106    5.263921
  H      2.031293    0.675777    4.412068
  H      1.993892    0.572276    6.159646
  C      0.201978    1.482283    5.290793
  H      0.084827    1.941254    4.308508
  H      0.347572    2.283788    6.013192
  C     -1.031793    0.625188    5.586442
  H     -1.962782    1.100926    5.280529
  H     -1.097219    0.415867    6.656977

 Multiplicity           Mult            ....    1
 Number of Electrons    NEL             ....   82
 Basis Dimension        Dim             .... 1616

ORBITAL ENERGIES
----------------

  NO   OCC          E(Eh)            E(eV)
   0   2.0000     -11.236755      -305.7676
   1   2.0000     -11.236176      -305.7519
   2   2.0000     -11.236169      -305.7517
   3   2.0000     -11.234937      -305.7182
   4   2.0000     -11.234922      -305.7178
   5   2.0000     -11.234315      -305.7013
   6   2.0000     -11.204867      -304.8999
   7   2.0000     -11.204298      -304.8844
   8   2.0000     -11.203684      -304.8677
   9   2.0000     -11.203508      -304.8629
  10   2.0000     -11.201251      -304.8015
  11   2.0000      -1.151654       -31.3381
  12   2.0000      -1.110851       -30.2278
  13   2.0000      -1.016119       -27.6500
  14   2.0000      -1.016031       -27.6476
  15   2.0000      -0.951273       -25.8855
  16   2.0000      -0.950584       -25.8667
  17   2.0000      -0.825545       -22.4642
  18   2.0000      -0.825525       -22.4637
  19   2.0000      -0.771130       -20.9835
  20   2.0000      -0.762038       -20.7361
  21   2.0000      -0.711249       -19.3541
  22   2.0000      -0.645644       -17.5689
  23   2.0000      -0.644984       -17.5509
  24   2.0000      -0.639363       -17.3979
  25   2.0000      -0.620715       -16.8905
  26   2.0000      -0.589705       -16.0467
  27   2.0000      -0.589601       -16.0439
  28   2.0000      -0.565122       -15.3778
  29   2.0000      -0.563316       -15.3286
  30   2.0000      -0.504612       -13.7312
  31   2.0000      -0.496498       -13.5104
  32   2.0000      -0.496494       -13.5103
  33   2.0000      -0.469978       -12.7887
  34   2.0000      -0.468896       -12.7593
  35   2.0000      -0.458764       -12.4836
  36   2.0000      -0.454491       -12.3673
  37   2.0000      -0.453676       -12.3452
  38   2.0000      -0.444324       -12.0907
  39   2.0000      -0.338655        -9.2153
  40   2.0000      -0.338564        -9.2128
  41   0.0000       0.023038         0.6269
  42   0.0000       0.028411         0.7731
  43   0.0000       0.029095         0.7917
  44   0.0000       0.032743         0.8910
  45   0.0000       0.039447         1.0734

MULLIKEN ATOMIC CHARGES
-----------------------
   0 C :   -0.334114
   1 H :    0.302239
   2 C :   -0.358688
   3 H :    0.287622
   4 C :   -0.244674
   5 H :    0.297380
   6 C :   -0.289536
   7 H :    0.340541
   8 C :   -0.289480
   9 H :    0.330701
  10 C :   -0.338790
  11 H :    0.298608
  12 C :   -0.737426
  13 H :    0.462235
  14 H :    0.363796
  15 C :   -0.680043
  16 H :    0.348454
  17 H :    0.271977
  18 C :   -0.549533
  19 H :    0.242326
  20 H :    0.315262
  21 C :   -0.648256
  22 H :    0.288923
  23 H :    0.329608
  24 C :   -0.587679
  25 H :    0.337704
  26 H :    0.240842
Sum of atomic charges:    0.0000000

LOEWDIN ATOMIC CHARGES
----------------------
   0 C :    0.322079
   1 H :   -0.324002
   2 C :    0.323227
   3 H :   -0.323732
   4 C :    0.327769
   5 H :   -0.324759
   6 C :    0.328839
   7 H :   -0.325393
   8 C :    0.328704
   9 H :   -0.325446
  10 C :    0.327180
  11 H :   -0.324887
  12 C :    0.516851
  13 H :   -0.276855
  14 H :   -0.252996
  15 C :    0.533457
  16 H :   -0.263411
  17 H :   -0.269831
  18 C :    0.546512
  19 H :   -0.273125
  20 H :   -0.268721
  21 C :    0.531774
  22 H :   -0.276817
  23 H :   -0.259942
  24 C :    0.523479
  25 H :   -0.256177
  26 H :   -0.263776

  Mayer bond orders larger than 0.100000
B(  0-C ,  1-H ) :   1.0357 B(  0-C ,  2-C ) :   1.2065 B(  0-C ,  6-C ) :   0.1390
B(  0-C , 10-C ) :   1.2228 B(  2-C ,  3-H ) :   1.0542 B(  2-C ,  4-C ) :   1.2146
B(  2-C ,  8-C ) :   0.1536 B(  4-C ,  5-H ) :   1.0419 B(  4-C ,  6-C ) :   1.2238
B(  4-C , 10-C ) :   0.2009 B(  6-C ,  7-H ) :   0.9993 B(  6-C ,  8-C ) :   1.1909
B(  8-C ,  9-H ) :   1.0122 B(  8-C , 10-C ) :   1.2443 B( 10-C , 11-H ) :   1.0408
B( 12-C , 13-H ) :   0.7048 B( 12-C , 14-H ) :   0.8424 B( 12-C , 15-C ) :   0.9672
B( 12-C , 24-C ) :   0.9862 B( 15-C , 16-H ) :   0.8405 B( 15-C , 17-H ) :   0.9489
B( 15-C , 18-C ) :   0.9813 B( 18-C , 19-H ) :   0.9483 B( 18-C , 20-H ) :   0.8880
B( 18-C , 21-C ) :   0.9565 B( 21-C , 22-H ) :   0.8848 B( 21-C , 23-H ) :   0.8832
B( 21-C , 24-C ) :   0.9996 B( 24-C , 25-H ) :   0.8248 B( 24-C , 26-H ) :   0.9469

MP2 TOTAL ENERGY:     -427.981982702 Eh
FINAL SINGLE POINT ENERGY      -427.981982701941

DIPOLE MOMENT
-------------
                                X             Y             Z
Electronic contribution:     -0.59137      -0.89566     -10.84643
Nuclear contribution   :      0.56538       0.87603      10.76125
                        -----------------------------------------
Total Dipole Moment    :     -0.02600      -0.01963      -0.08518
                        -----------------------------------------
Magnitude (a.u.)       :      0.09120
Magnitude (Debye)      :      0.23181

Rotational constants in cm-1:     0.057130     0.016871     0.016679
Rotational constants in MHz :  1712.700580   505.768397   500.024572

                             ****ORCA TERMINATED NORMALLY****
TOTAL RUN TIME: 0 days 1 hours 49 minutes 20 seconds 39 msec
