                         Program Version 5.0.4 -  RELEASE  -
|  1> ! ri-mp2 aug-cc-pvdz aug-cc-pvdz/c tightscf
|  2> %pal nprocs 16 end
|  3> %maxcore 3800
|  4> %base "DZ_S66by10_53_0.8_dimer"
|  5>
|  6> *xyz 0 1
|  7> C    0.85556074    0.35853244    1.04975426
|  8> H    1.51382550    0.90267956    1.71276582
|  9> C    1.34289713   -0.67537866    0.25115740
| 10> H    2.39288384   -0.93334472    0.28196305
| 11> C    0.47780661   -1.37670110   -0.58781577
| 12> H    0.85608399   -2.17890753   -1.20682428
| 13> C   -0.87482983   -1.04255615   -0.63045178
| 14> H   -1.54540573   -1.58570014   -1.28241614
| 15> C   -1.36239729   -0.00701391    0.16584645
| 16> H   -2.41157102    0.25346723    0.13077885
| 17> C   -0.49844404    0.69315695    1.00699199
| 18> H   -0.86611090    1.49033989    1.63803696
| 19> C    0.16032387    0.74605739    4.36240256
| 20> O    0.40681322    1.78948363    3.77516328
| 21> N   -0.14372338   -0.40894915    3.71123522
| 22> H   -0.11852307   -0.41596448    2.70459861
| 23> H   -0.29949987   -1.26444147    4.20693693
| 24> C    0.18316857    0.65116556    5.87082004
| 25> H    1.21488237    0.73537784    6.20589383
| 26> H   -0.23873534   -0.27547744    6.25184571
| 27> H   -0.36629610    1.49501187    6.27759055
| 28> *
| 29>
| 30> $new_job
| 31> ! ri-mp2 aug-cc-pvtz aug-cc-pvtz/c tightscf
| 32> %pal nprocs 16 end
| 33> %maxcore 3800
| 34> %base "TZ_S66by10_53_0.8_dimer"
| 35>
| 36> *xyz 0 1
| 37> C    0.85556074    0.35853244    1.04975426
| 38> H    1.51382550    0.90267956    1.71276582
| 39> C    1.34289713   -0.67537866    0.25115740
| 40> H    2.39288384   -0.93334472    0.28196305
| 41> C    0.47780661   -1.37670110   -0.58781577
| 42> H    0.85608399   -2.17890753   -1.20682428
| 43> C   -0.87482983   -1.04255615   -0.63045178
| 44> H   -1.54540573   -1.58570014   -1.28241614
| 45> C   -1.36239729   -0.00701391    0.16584645
| 46> H   -2.41157102    0.25346723    0.13077885
| 47> C   -0.49844404    0.69315695    1.00699199
| 48> H   -0.86611090    1.49033989    1.63803696
| 49> C    0.16032387    0.74605739    4.36240256
| 50> O    0.40681322    1.78948363    3.77516328
| 51> N   -0.14372338   -0.40894915    3.71123522
| 52> H   -0.11852307   -0.41596448    2.70459861
| 53> H   -0.29949987   -1.26444147    4.20693693
| 54> C    0.18316857    0.65116556    5.87082004
| 55> H    1.21488237    0.73537784    6.20589383
| 56> H   -0.23873534   -0.27547744    6.25184571
| 57> H   -0.36629610    1.49501187    6.27759055
| 58> *
| 59>
| 60> $new_job
| 61> ! ri-mp2 aug-cc-pvqz aug-cc-pvqz/c tightscf
| 62> %pal nprocs 16 end
| 63> %maxcore 3800
| 64> %base "QZ_S66by10_53_0.8_dimer"
| 65>
| 66> *xyz 0 1
| 67> C    0.85556074    0.35853244    1.04975426
| 68> H    1.51382550    0.90267956    1.71276582
| 69> C    1.34289713   -0.67537866    0.25115740
| 70> H    2.39288384   -0.93334472    0.28196305
| 71> C    0.47780661   -1.37670110   -0.58781577
| 72> H    0.85608399   -2.17890753   -1.20682428
| 73> C   -0.87482983   -1.04255615   -0.63045178
| 74> H   -1.54540573   -1.58570014   -1.28241614
| 75> C   -1.36239729   -0.00701391    0.16584645
| 76> H   -2.41157102    0.25346723    0.13077885
| 77> C   -0.49844404    0.69315695    1.00699199
| 78> H   -0.86611090    1.49033989    1.63803696
| 79> C    0.16032387    0.74605739    4.36240256
| 80> O    0.40681322    1.78948363    3.77516328
| 81> N   -0.14372338   -0.40894915    3.71123522
| 82> H   -0.11852307   -0.41596448    2.70459861
| 83> H   -0.29949987   -1.26444147    4.20693693
| 84> C    0.18316857    0.65116556    5.87082004
| 85> H    1.21488237    0.73537784    6.20589383
| 86> H   -0.23873534   -0.27547744    6.25184571
| 87> H   -0.36629610    1.49501187    6.27759055
| 88> *
| 89>
| 90>
| 91>
| 92>
| 93>                          ****END OF INPUT****
 Total Charge           Charge          ....    0
 Multiplicity           Mult            ....    1
 Number of Electrons    NEL             ....   74
MP2 TOTAL ENERGY:     -440.212774360 Eh
FINAL SINGLE POINT ENERGY      -440.212774359680
MP2 TOTAL ENERGY:     -440.603176144 Eh
FINAL SINGLE POINT ENERGY      -440.603176144108

CARTESIAN COORDINATES (ANGSTROEM)
---------------------------------
  C      0.855561    0.358532    1.049754
  H      1.513825    0.902680    1.712766
  C      1.342897   -0.675379    0.251157
  H      2.392884   -0.933345    0.281963
  C      0.477807   -1.376701   -0.587816
  H      0.856084   -2.178908   -1.206824
  C     -0.874830   -1.042556   -0.630452
  H     -1.545406   -1.585700   -1.282416
  C     -1.362397   -0.007014    0.165846
  H     -2.411571    0.253467    0.130779
  C     -0.498444    0.693157    1.006992
  H     -0.866111    1.490340    1.638037
  C      0.160324    0.746057    4.362403
  O      0.406813    1.789484    3.775163
  N     -0.143723   -0.408949    3.711235
  H     -0.118523   -0.415964    2.704599
  H     -0.299500   -1.264441    4.206937
  C      0.183169    0.651166    5.870820
  H      1.214882    0.735378    6.205894
  H     -0.238735   -0.275477    6.251846
  H     -0.366296    1.495012    6.277591

 Multiplicity           Mult            ....    1
 Number of Electrons    NEL             ....   74
 Basis Dimension        Dim             .... 1306

ORBITAL ENERGIES
----------------

  NO   OCC          E(Eh)            E(eV)
   0   2.0000     -20.509614      -558.0950
   1   2.0000     -15.570899      -423.7057
   2   2.0000     -11.349052      -308.8234
   3   2.0000     -11.236633      -305.7643
   4   2.0000     -11.235652      -305.7376
   5   2.0000     -11.234609      -305.7092
   6   2.0000     -11.234352      -305.7023
   7   2.0000     -11.233164      -305.6699
   8   2.0000     -11.229015      -305.5570
   9   2.0000     -11.227770      -305.5232
  10   2.0000      -1.374818       -37.4107
  11   2.0000      -1.206744       -32.8372
  12   2.0000      -1.151414       -31.3316
  13   2.0000      -1.018074       -27.7032
  14   2.0000      -1.014980       -27.6190
  15   2.0000      -1.000997       -27.2385
  16   2.0000      -0.826594       -22.4928
  17   2.0000      -0.823267       -22.4022
  18   2.0000      -0.793957       -21.6047
  19   2.0000      -0.725467       -19.7410
  20   2.0000      -0.707209       -19.2441
  21   2.0000      -0.664260       -18.0754
  22   2.0000      -0.643951       -17.5228
  23   2.0000      -0.618834       -16.8393
  24   2.0000      -0.612830       -16.6759
  25   2.0000      -0.587966       -15.9994
  26   2.0000      -0.587310       -15.9815
  27   2.0000      -0.582324       -15.8458
  28   2.0000      -0.561289       -15.2734
  29   2.0000      -0.522724       -14.2240
  30   2.0000      -0.501535       -13.6475
  31   2.0000      -0.493772       -13.4362
  32   2.0000      -0.491584       -13.3767
  33   2.0000      -0.422680       -11.5017
  34   2.0000      -0.410071       -11.1586
  35   2.0000      -0.338669        -9.2156
  36   2.0000      -0.336357        -9.1527
  37   0.0000       0.020169         0.5488
  38   0.0000       0.027174         0.7394
  39   0.0000       0.029925         0.8143
  40   0.0000       0.036564         0.9949
  41   0.0000       0.039058         1.0628

MULLIKEN ATOMIC CHARGES
-----------------------
   0 C :   -0.129759
   1 H :    0.389557
   2 C :   -0.512021
   3 H :    0.284282
   4 C :   -0.372041
   5 H :    0.336809
   6 C :   -0.361387
   7 H :    0.342075
   8 C :   -0.502467
   9 H :    0.281801
  10 C :   -0.154729
  11 H :    0.389434
  12 C :    0.989403
  13 O :   -0.857287
  14 N :   -0.844349
  15 H :    0.496154
  16 H :    0.204861
  17 C :   -0.758443
  18 H :    0.280576
  19 H :    0.233736
  20 H :    0.263796
Sum of atomic charges:   -0.0000000

LOEWDIN ATOMIC CHARGES
----------------------
   0 C :    0.305988
   1 H :   -0.338036
   2 C :    0.359636
   3 H :   -0.319336
   4 C :    0.337500
   5 H :   -0.326751
   6 C :    0.337766
   7 H :   -0.326725
   8 C :    0.360257
   9 H :   -0.318925
  10 C :    0.306018
  11 H :   -0.337090
  12 C :   -0.811174
  13 O :    0.719081
  14 N :    1.265268
  15 H :   -0.715659
  16 H :   -0.474751
  17 C :    0.894281
  18 H :   -0.295695
  19 H :   -0.314250
  20 H :   -0.307400

  Mayer bond orders larger than 0.100000
B(  0-C ,  1-H ) :   0.9393 B(  0-C ,  2-C ) :   1.1829 B(  0-C ,  6-C ) :   0.1240
B(  0-C , 10-C ) :   1.1809 B(  2-C ,  3-H ) :   1.0468 B(  2-C ,  4-C ) :   1.2760
B(  2-C ,  8-C ) :   0.1468 B(  4-C ,  5-H ) :   1.0047 B(  4-C ,  6-C ) :   1.1834
B(  4-C , 10-C ) :   0.1305 B(  6-C ,  7-H ) :   0.9980 B(  6-C ,  8-C ) :   1.2656
B(  8-C ,  9-H ) :   1.0514 B(  8-C , 10-C ) :   1.1977 B( 10-C , 11-H ) :   0.9383
B( 12-C , 13-O ) :   1.2998 B( 12-C , 14-N ) :   1.0973 B( 12-C , 17-C ) :   0.7630
B( 13-O , 14-N ) :   0.1598 B( 13-O , 15-H ) :   0.1049 B( 14-N , 15-H ) :   0.6246
B( 14-N , 16-H ) :   1.1024 B( 17-C , 18-H ) :   0.9226 B( 17-C , 19-H ) :   1.0087
B( 17-C , 20-H ) :   1.0036

MP2 TOTAL ENERGY:     -440.727301436 Eh
FINAL SINGLE POINT ENERGY      -440.727301436215

DIPOLE MOMENT
-------------
                                X             Y             Z
Electronic contribution:      0.20594       1.25243      -3.91448
Nuclear contribution   :     -0.47741      -2.64317       4.41551
                        -----------------------------------------
Total Dipole Moment    :     -0.27148      -1.39074       0.50103
                        -----------------------------------------
Magnitude (a.u.)       :      1.50296
Magnitude (Debye)      :      3.82022

Rotational constants in cm-1:     0.105289     0.020596     0.020096
Rotational constants in MHz :  3156.484769   617.466837   602.462585

                             ****ORCA TERMINATED NORMALLY****
TOTAL RUN TIME: 0 days 0 hours 58 minutes 14 seconds 712 msec
