                         Program Version 5.0.4 -  RELEASE  -
|  1> ! ri-mp2 aug-cc-pvdz aug-cc-pvdz/c tightscf
|  2> %pal nprocs 16 end
|  3> %maxcore 3800
|  4> %base "DZ_S66by10_5_1.05_dimer"
|  5> %scf STABPerform true end
|  6>
|  7> *xyz 0 1
|  8> O   -0.63613493   -0.02328241    0.28059932
|  9> H    0.30809737   -0.04707875    0.07646369
| 10> C   -1.15206541   -1.31128778    0.01525955
| 11> H   -2.20994502   -1.29626539    0.26395586
| 12> H   -1.05661024   -1.59267086   -1.03619061
| 13> H   -0.67483575   -2.08627276    0.62051145
| 14> O    2.33800116   -0.12715464   -0.01804253
| 15> H    2.80679047    0.48722989   -0.58770848
| 16> C    2.84683508    0.02986430    1.30367479
| 17> H    2.29326600   -0.65833213    1.93380567
| 18> H    3.90583118   -0.22057460    1.36039793
| 19> H    2.69439544    1.04055835    1.68156734
| 20> *
| 21>
| 22> $new_job
| 23> ! ri-mp2 aug-cc-pvtz aug-cc-pvtz/c tightscf
| 24> %pal nprocs 16 end
| 25> %maxcore 3800
| 26> %base "TZ_S66by10_5_1.05_dimer"
| 27>
| 28> *xyz 0 1
| 29> O   -0.63613493   -0.02328241    0.28059932
| 30> H    0.30809737   -0.04707875    0.07646369
| 31> C   -1.15206541   -1.31128778    0.01525955
| 32> H   -2.20994502   -1.29626539    0.26395586
| 33> H   -1.05661024   -1.59267086   -1.03619061
| 34> H   -0.67483575   -2.08627276    0.62051145
| 35> O    2.33800116   -0.12715464   -0.01804253
| 36> H    2.80679047    0.48722989   -0.58770848
| 37> C    2.84683508    0.02986430    1.30367479
| 38> H    2.29326600   -0.65833213    1.93380567
| 39> H    3.90583118   -0.22057460    1.36039793
| 40> H    2.69439544    1.04055835    1.68156734
| 41> *
| 42>
| 43> $new_job
| 44> ! ri-mp2 aug-cc-pvqz aug-cc-pvqz/c tightscf
| 45> %pal nprocs 16 end
| 46> %maxcore 3800
| 47> %base "QZ_S66by10_5_1.05_dimer"
| 48>
| 49> *xyz 0 1
| 50> O   -0.63613493   -0.02328241    0.28059932
| 51> H    0.30809737   -0.04707875    0.07646369
| 52> C   -1.15206541   -1.31128778    0.01525955
| 53> H   -2.20994502   -1.29626539    0.26395586
| 54> H   -1.05661024   -1.59267086   -1.03619061
| 55> H   -0.67483575   -2.08627276    0.62051145
| 56> O    2.33800116   -0.12715464   -0.01804253
| 57> H    2.80679047    0.48722989   -0.58770848
| 58> C    2.84683508    0.02986430    1.30367479
| 59> H    2.29326600   -0.65833213    1.93380567
| 60> H    3.90583118   -0.22057460    1.36039793
| 61> H    2.69439544    1.04055835    1.68156734
| 62> *
| 63>
| 64>
| 65>
| 66>
| 67>                          ****END OF INPUT****
 Total Charge           Charge          ....    0
 Multiplicity           Mult            ....    1
 Number of Electrons    NEL             ....   36
MP2 TOTAL ENERGY:     -230.852549056 Eh
FINAL SINGLE POINT ENERGY      -230.852549056253
MP2 TOTAL ENERGY:     -231.067242766 Eh
FINAL SINGLE POINT ENERGY      -231.067242765561

CARTESIAN COORDINATES (ANGSTROEM)
---------------------------------
  O     -0.636135   -0.023282    0.280599
  H      0.308097   -0.047079    0.076464
  C     -1.152065   -1.311288    0.015260
  H     -2.209945   -1.296265    0.263956
  H     -1.056610   -1.592671   -1.036191
  H     -0.674836   -2.086273    0.620511
  O      2.338001   -0.127155   -0.018043
  H      2.806790    0.487230   -0.587708
  C      2.846835    0.029864    1.303675
  H      2.293266   -0.658332    1.933806
  H      3.905831   -0.220575    1.360398
  H      2.694395    1.040558    1.681567

 Multiplicity           Mult            ....    1
 Number of Electrons    NEL             ....   36
 Basis Dimension        Dim             ....  688

ORBITAL ENERGIES
----------------

  NO   OCC          E(Eh)            E(eV)
   0   2.0000     -20.577521      -559.9428
   1   2.0000     -20.530544      -558.6645
   2   2.0000     -11.281732      -306.9915
   3   2.0000     -11.252419      -306.1939
   4   2.0000      -1.378074       -37.4993
   5   2.0000      -1.334805       -36.3219
   6   2.0000      -0.940803       -25.6006
   7   2.0000      -0.906817       -24.6758
   8   2.0000      -0.712920       -19.3995
   9   2.0000      -0.673767       -18.3341
  10   2.0000      -0.635007       -17.2794
  11   2.0000      -0.609443       -16.5838
  12   2.0000      -0.601541       -16.3688
  13   2.0000      -0.574716       -15.6388
  14   2.0000      -0.524509       -14.2726
  15   2.0000      -0.486534       -13.2393
  16   2.0000      -0.468181       -12.7399
  17   2.0000      -0.429385       -11.6842
  18   0.0000       0.022155         0.6029
  19   0.0000       0.035557         0.9675
  20   0.0000       0.036515         0.9936
  21   0.0000       0.040259         1.0955
  22   0.0000       0.051287         1.3956

MULLIKEN ATOMIC CHARGES
-----------------------
   0 O :   -0.713119
   1 H :    0.343266
   2 C :   -0.490130
   3 H :    0.348638
   4 H :    0.243042
   5 H :    0.247131
   6 O :   -0.690871
   7 H :    0.347143
   8 C :   -0.550541
   9 H :    0.293821
  10 H :    0.351874
  11 H :    0.269746
Sum of atomic charges:    0.0000000

LOEWDIN ATOMIC CHARGES
----------------------
   0 O :    1.239084
   1 H :   -0.978096
   2 C :    0.560968
   3 H :   -0.345342
   4 H :   -0.319079
   5 H :   -0.320409
   6 O :    1.270377
   7 H :   -0.767752
   8 C :    0.615290
   9 H :   -0.333459
  10 H :   -0.312963
  11 H :   -0.308620

  Mayer bond orders larger than 0.100000
B(  0-O ,  1-H ) :   0.9173 B(  0-O ,  2-C ) :   0.8559 B(  2-C ,  3-H ) :   0.8806
B(  2-C ,  4-H ) :   0.9295 B(  2-C ,  5-H ) :   0.9183 B(  6-O ,  7-H ) :   0.8865
B(  6-O ,  8-C ) :   0.8571 B(  8-C ,  9-H ) :   0.8997 B(  8-C , 10-H ) :   0.8699
B(  8-C , 11-H ) :   0.9159

MP2 TOTAL ENERGY:     -231.135211800 Eh
FINAL SINGLE POINT ENERGY      -231.135211800322

DIPOLE MOMENT
-------------
                                X             Y             Z
Electronic contribution:      0.07781       1.44522      -1.17120
Nuclear contribution   :      1.04240      -1.49422       1.18232
                        -----------------------------------------
Total Dipole Moment    :      1.12021      -0.04901       0.01112
                        -----------------------------------------
Magnitude (a.u.)       :      1.12134
Magnitude (Debye)      :      2.85021

Rotational constants in cm-1:     0.538033     0.073184     0.072074
Rotational constants in MHz : 16129.828221  2194.015227  2160.719603

                             ****ORCA TERMINATED NORMALLY****
TOTAL RUN TIME: 0 days 0 hours 29 minutes 13 seconds 333 msec
