                         Program Version 5.0.4 -  RELEASE  -
|  1> ! ri-mp2 aug-cc-pvdz aug-cc-pvdz/c tightscf
|  2> %pal nprocs 16 end
|  3> %maxcore 3800
|  4> %base "DZ_S66by10_10_0.95_dimer"
|  5> %scf STABPerform true end
|  6>
|  7> *xyz 0 1
|  8> N   -0.63864138    0.47091637    0.04456848
|  9> H    0.18995436   -0.11393716   -0.00577361
| 10> H   -1.30046894    0.08125680   -0.61366848
| 11> C   -1.19865882    0.39139858    1.39194660
| 12> H   -2.09273777    1.00924471    1.45316749
| 13> H   -1.46274551   -0.61584367    1.72945219
| 14> H   -0.48027554    0.79867491    2.10108731
| 15> N    2.31867576   -0.44311651    0.18967917
| 16> H    2.61494443   -0.16857878   -0.73830607
| 17> H    2.94222543   -1.19080683    0.46487403
| 18> C    2.47890573    0.69209408    1.10335447
| 19> H    2.20871543    0.37739830    2.10900758
| 20> H    3.48631605    1.11387064    1.14032621
| 21> H    1.78636535    1.47786956    0.81069723
| 22> *
| 23>
| 24> $new_job
| 25> ! ri-mp2 aug-cc-pvtz aug-cc-pvtz/c tightscf
| 26> %pal nprocs 16 end
| 27> %maxcore 3800
| 28> %base "TZ_S66by10_10_0.95_dimer"
| 29>
| 30> *xyz 0 1
| 31> N   -0.63864138    0.47091637    0.04456848
| 32> H    0.18995436   -0.11393716   -0.00577361
| 33> H   -1.30046894    0.08125680   -0.61366848
| 34> C   -1.19865882    0.39139858    1.39194660
| 35> H   -2.09273777    1.00924471    1.45316749
| 36> H   -1.46274551   -0.61584367    1.72945219
| 37> H   -0.48027554    0.79867491    2.10108731
| 38> N    2.31867576   -0.44311651    0.18967917
| 39> H    2.61494443   -0.16857878   -0.73830607
| 40> H    2.94222543   -1.19080683    0.46487403
| 41> C    2.47890573    0.69209408    1.10335447
| 42> H    2.20871543    0.37739830    2.10900758
| 43> H    3.48631605    1.11387064    1.14032621
| 44> H    1.78636535    1.47786956    0.81069723
| 45> *
| 46>
| 47> $new_job
| 48> ! ri-mp2 aug-cc-pvqz aug-cc-pvqz/c tightscf
| 49> %pal nprocs 16 end
| 50> %maxcore 3800
| 51> %base "QZ_S66by10_10_0.95_dimer"
| 52>
| 53> *xyz 0 1
| 54> N   -0.63864138    0.47091637    0.04456848
| 55> H    0.18995436   -0.11393716   -0.00577361
| 56> H   -1.30046894    0.08125680   -0.61366848
| 57> C   -1.19865882    0.39139858    1.39194660
| 58> H   -2.09273777    1.00924471    1.45316749
| 59> H   -1.46274551   -0.61584367    1.72945219
| 60> H   -0.48027554    0.79867491    2.10108731
| 61> N    2.31867576   -0.44311651    0.18967917
| 62> H    2.61494443   -0.16857878   -0.73830607
| 63> H    2.94222543   -1.19080683    0.46487403
| 64> C    2.47890573    0.69209408    1.10335447
| 65> H    2.20871543    0.37739830    2.10900758
| 66> H    3.48631605    1.11387064    1.14032621
| 67> H    1.78636535    1.47786956    0.81069723
| 68> *
| 69>
| 70>
| 71>
| 72>
| 73>                          ****END OF INPUT****
 Total Charge           Charge          ....    0
 Multiplicity           Mult            ....    1
 Number of Electrons    NEL             ....   36
MP2 TOTAL ENERGY:     -191.154336584 Eh
FINAL SINGLE POINT ENERGY      -191.154336583786
MP2 TOTAL ENERGY:     -191.341507603 Eh
FINAL SINGLE POINT ENERGY      -191.341507602781

CARTESIAN COORDINATES (ANGSTROEM)
---------------------------------
  N     -0.638641    0.470916    0.044568
  H      0.189954   -0.113937   -0.005774
  H     -1.300469    0.081257   -0.613668
  C     -1.198659    0.391399    1.391947
  H     -2.092738    1.009245    1.453167
  H     -1.462746   -0.615844    1.729452
  H     -0.480276    0.798675    2.101087
  N      2.318676   -0.443117    0.189679
  H      2.614944   -0.168579   -0.738306
  H      2.942225   -1.190807    0.464874
  C      2.478906    0.692094    1.103354
  H      2.208715    0.377398    2.109008
  H      3.486316    1.113871    1.140326
  H      1.786365    1.477870    0.810697

 Multiplicity           Mult            ....    1
 Number of Electrons    NEL             ....   36
 Basis Dimension        Dim             ....  780

ORBITAL ENERGIES
----------------

  NO   OCC          E(Eh)            E(eV)
   0   2.0000     -15.546035      -423.0291
   1   2.0000     -15.515133      -422.1882
   2   2.0000     -11.240188      -305.8611
   3   2.0000     -11.226347      -305.4844
   4   2.0000      -1.179210       -32.0879
   5   2.0000      -1.151496       -31.3338
   6   2.0000      -0.900047       -24.4915
   7   2.0000      -0.881077       -23.9753
   8   2.0000      -0.671148       -18.2629
   9   2.0000      -0.649667       -17.6784
  10   2.0000      -0.605804       -16.4848
  11   2.0000      -0.589095       -16.0301
  12   2.0000      -0.559368       -15.2212
  13   2.0000      -0.538023       -14.6404
  14   2.0000      -0.520294       -14.1579
  15   2.0000      -0.503047       -13.6886
  16   2.0000      -0.404387       -11.0039
  17   2.0000      -0.374250       -10.1839
  18   0.0000       0.024254         0.6600
  19   0.0000       0.034590         0.9412
  20   0.0000       0.035999         0.9796
  21   0.0000       0.037627         1.0239
  22   0.0000       0.050176         1.3654

MULLIKEN ATOMIC CHARGES
-----------------------
   0 N :   -0.609274
   1 H :    0.292644
   2 H :    0.185837
   3 C :   -0.793195
   4 H :    0.332772
   5 H :    0.264683
   6 H :    0.297227
   7 N :   -0.526581
   8 H :    0.223400
   9 H :    0.206259
  10 C :   -0.741340
  11 H :    0.244940
  12 H :    0.357080
  13 H :    0.265549
Sum of atomic charges:    0.0000000

LOEWDIN ATOMIC CHARGES
----------------------
   0 N :    1.256224
   1 H :   -0.664076
   2 H :   -0.515292
   3 C :    0.744137
   4 H :   -0.312423
   5 H :   -0.288551
   6 H :   -0.328161
   7 N :    1.265783
   8 H :   -0.497296
   9 H :   -0.503470
  10 C :    0.760829
  11 H :   -0.304984
  12 H :   -0.282719
  13 H :   -0.330002

  Mayer bond orders larger than 0.100000
B(  0-N ,  1-H ) :   0.8628 B(  0-N ,  2-H ) :   0.9977 B(  0-N ,  3-C ) :   0.9761
B(  3-C ,  4-H ) :   0.8987 B(  3-C ,  5-H ) :   0.9260 B(  3-C ,  6-H ) :   0.8985
B(  7-N ,  8-H ) :   0.9417 B(  7-N ,  9-H ) :   0.9788 B(  7-N , 10-C ) :   0.9929
B( 10-C , 11-H ) :   0.9502 B( 10-C , 12-H ) :   0.8471 B( 10-C , 13-H ) :   0.9269

MP2 TOTAL ENERGY:     -191.398692164 Eh
FINAL SINGLE POINT ENERGY      -191.398692163702

DIPOLE MOMENT
-------------
                                X             Y             Z
Electronic contribution:      0.26996      -0.55470      -1.54734
Nuclear contribution   :      0.32704       0.14927       1.61341
                        -----------------------------------------
Total Dipole Moment    :      0.59700      -0.40543       0.06606
                        -----------------------------------------
Magnitude (a.u.)       :      0.72467
Magnitude (Debye)      :      1.84196

Rotational constants in cm-1:     0.400886     0.086810     0.078745
Rotational constants in MHz : 12018.260504  2602.485134  2360.722152

                             ****ORCA TERMINATED NORMALLY****
TOTAL RUN TIME: 0 days 0 hours 46 minutes 47 seconds 289 msec
