                         Program Version 5.0.4 -  RELEASE  -
|  1> ! ri-mp2 aug-cc-pvdz aug-cc-pvdz/c tightscf
|  2> %pal nprocs 16 end
|  3> %maxcore 3800
|  4> %base "DZ_S66by10_64_0.8_dimer"
|  5> %scf STABPerform true end
|  6>
|  7> *xyz 0 1
|  8> C    1.62971482    0.50301252    0.27011189
|  9> H    1.64157338    1.45923792   -0.24808286
| 10> H    2.31531919   -0.18355470   -0.21758635
| 11> H    1.96974564    0.64936024    1.29398105
| 12> C    0.26182776   -0.13286122    0.31456221
| 13> O    0.09925265   -1.30961602    0.61183995
| 14> N   -0.77350225    0.70251214    0.02207590
| 15> H   -0.56901138    1.66655677   -0.16581434
| 16> C   -2.15001214    0.26596865    0.09505328
| 17> H   -2.14473761   -0.81940745    0.10091210
| 18> H   -2.64054318    0.61582035    1.00360442
| 19> H   -2.70774393    0.62075110   -0.76826057
| 20> C   -0.11608468    0.52234251    3.31115432
| 21> H   -0.12096625    1.26451632    4.09703689
| 22> H   -0.76461744    0.69011115    2.46247075
| 23> C    0.65242562   -0.56461942    3.38096393
| 24> H    1.29773059   -0.73644506    4.23109180
| 25> H    0.64731364   -1.29981954    2.58865465
| 26> *
| 27>
| 28> $new_job
| 29> ! ri-mp2 aug-cc-pvtz aug-cc-pvtz/c tightscf
| 30> %pal nprocs 16 end
| 31> %maxcore 3800
| 32> %base "TZ_S66by10_64_0.8_dimer"
| 33>
| 34> *xyz 0 1
| 35> C    1.62971482    0.50301252    0.27011189
| 36> H    1.64157338    1.45923792   -0.24808286
| 37> H    2.31531919   -0.18355470   -0.21758635
| 38> H    1.96974564    0.64936024    1.29398105
| 39> C    0.26182776   -0.13286122    0.31456221
| 40> O    0.09925265   -1.30961602    0.61183995
| 41> N   -0.77350225    0.70251214    0.02207590
| 42> H   -0.56901138    1.66655677   -0.16581434
| 43> C   -2.15001214    0.26596865    0.09505328
| 44> H   -2.14473761   -0.81940745    0.10091210
| 45> H   -2.64054318    0.61582035    1.00360442
| 46> H   -2.70774393    0.62075110   -0.76826057
| 47> C   -0.11608468    0.52234251    3.31115432
| 48> H   -0.12096625    1.26451632    4.09703689
| 49> H   -0.76461744    0.69011115    2.46247075
| 50> C    0.65242562   -0.56461942    3.38096393
| 51> H    1.29773059   -0.73644506    4.23109180
| 52> H    0.64731364   -1.29981954    2.58865465
| 53> *
| 54>
| 55> $new_job
| 56> ! ri-mp2 aug-cc-pvqz aug-cc-pvqz/c tightscf
| 57> %pal nprocs 16 end
| 58> %maxcore 3800
| 59> %base "QZ_S66by10_64_0.8_dimer"
| 60>
| 61> *xyz 0 1
| 62> C    1.62971482    0.50301252    0.27011189
| 63> H    1.64157338    1.45923792   -0.24808286
| 64> H    2.31531919   -0.18355470   -0.21758635
| 65> H    1.96974564    0.64936024    1.29398105
| 66> C    0.26182776   -0.13286122    0.31456221
| 67> O    0.09925265   -1.30961602    0.61183995
| 68> N   -0.77350225    0.70251214    0.02207590
| 69> H   -0.56901138    1.66655677   -0.16581434
| 70> C   -2.15001214    0.26596865    0.09505328
| 71> H   -2.14473761   -0.81940745    0.10091210
| 72> H   -2.64054318    0.61582035    1.00360442
| 73> H   -2.70774393    0.62075110   -0.76826057
| 74> C   -0.11608468    0.52234251    3.31115432
| 75> H   -0.12096625    1.26451632    4.09703689
| 76> H   -0.76461744    0.69011115    2.46247075
| 77> C    0.65242562   -0.56461942    3.38096393
| 78> H    1.29773059   -0.73644506    4.23109180
| 79> H    0.64731364   -1.29981954    2.58865465
| 80> *
| 81>
| 82>
| 83>
| 84>
| 85>                          ****END OF INPUT****
 Total Charge           Charge          ....    0
 Multiplicity           Mult            ....    1
 Number of Electrons    NEL             ....   56
MP2 TOTAL ENERGY:     -326.177607696 Eh
FINAL SINGLE POINT ENERGY      -326.177607696459
MP2 TOTAL ENERGY:     -326.476869172 Eh
FINAL SINGLE POINT ENERGY      -326.476869172202

CARTESIAN COORDINATES (ANGSTROEM)
---------------------------------
  C      1.629715    0.503013    0.270112
  H      1.641573    1.459238   -0.248083
  H      2.315319   -0.183555   -0.217586
  H      1.969746    0.649360    1.293981
  C      0.261828   -0.132861    0.314562
  O      0.099253   -1.309616    0.611840
  N     -0.773502    0.702512    0.022076
  H     -0.569011    1.666557   -0.165814
  C     -2.150012    0.265969    0.095053
  H     -2.144738   -0.819407    0.100912
  H     -2.640543    0.615820    1.003604
  H     -2.707744    0.620751   -0.768261
  C     -0.116085    0.522343    3.311154
  H     -0.120966    1.264516    4.097037
  H     -0.764617    0.690111    2.462471
  C      0.652426   -0.564619    3.380964
  H      1.297731   -0.736445    4.231092
  H      0.647314   -1.299820    2.588655

 Multiplicity           Mult            ....    1
 Number of Electrons    NEL             ....   56
 Basis Dimension        Dim             .... 1066

ORBITAL ENERGIES
----------------

  NO   OCC          E(Eh)            E(eV)
   0   2.0000     -20.511289      -558.1405
   1   2.0000     -15.586075      -424.1187
   2   2.0000     -11.349148      -308.8260
   3   2.0000     -11.257897      -306.3430
   4   2.0000     -11.230252      -305.5907
   5   2.0000     -11.214575      -305.1641
   6   2.0000     -11.210262      -305.0467
   7   2.0000      -1.379236       -37.5309
   8   2.0000      -1.233347       -33.5611
   9   2.0000      -1.023638       -27.8546
  10   2.0000      -1.017698       -27.6930
  11   2.0000      -0.933608       -25.4048
  12   2.0000      -0.794406       -21.6169
  13   2.0000      -0.779029       -21.1984
  14   2.0000      -0.692142       -18.8341
  15   2.0000      -0.660987       -17.9864
  16   2.0000      -0.654715       -17.8157
  17   2.0000      -0.615732       -16.7549
  18   2.0000      -0.587950       -15.9989
  19   2.0000      -0.585528       -15.9330
  20   2.0000      -0.569867       -15.5069
  21   2.0000      -0.555657       -15.1202
  22   2.0000      -0.546792       -14.8790
  23   2.0000      -0.509055       -13.8521
  24   2.0000      -0.492870       -13.4117
  25   2.0000      -0.424640       -11.5550
  26   2.0000      -0.393559       -10.7093
  27   2.0000      -0.364085        -9.9072
  28   0.0000       0.019654         0.5348
  29   0.0000       0.030589         0.8324
  30   0.0000       0.032234         0.8771
  31   0.0000       0.035299         0.9605
  32   0.0000       0.044963         1.2235

MULLIKEN ATOMIC CHARGES
-----------------------
   0 C :   -0.843094
   1 H :    0.243808
   2 H :    0.295518
   3 H :    0.336764
   4 C :    1.235663
   5 O :   -0.970313
   6 N :   -0.488917
   7 H :    0.213274
   8 C :   -0.826845
   9 H :    0.291960
  10 H :    0.252960
  11 H :    0.347622
  12 C :   -0.991563
  13 H :    0.364497
  14 H :    0.513816
  15 C :   -0.864456
  16 H :    0.377827
  17 H :    0.511479
Sum of atomic charges:   -0.0000000

LOEWDIN ATOMIC CHARGES
----------------------
   0 C :    0.901668
   1 H :   -0.300756
   2 H :   -0.294333
   3 H :   -0.321315
   4 C :   -0.849858
   5 O :    0.775739
   6 N :    0.831773
   7 H :   -0.493455
   8 C :    0.791853
   9 H :   -0.345830
  10 H :   -0.284377
  11 H :   -0.283423
  12 C :    0.762397
  13 H :   -0.350581
  14 H :   -0.441466
  15 C :    0.756028
  16 H :   -0.347412
  17 H :   -0.506651

  Mayer bond orders larger than 0.100000
B(  0-C ,  1-H ) :   1.0049 B(  0-C ,  2-H ) :   0.9718 B(  0-C ,  3-H ) :   0.8852
B(  0-C ,  4-C ) :   0.7896 B(  4-C ,  5-O ) :   0.9879 B(  4-C ,  6-N ) :   1.1365
B(  5-O ,  6-N ) :   0.1712 B(  6-N ,  7-H ) :   1.0063 B(  6-N ,  8-C ) :   0.8184
B(  8-C ,  9-H ) :   0.9527 B(  8-C , 10-H ) :   0.9566 B(  8-C , 11-H ) :   0.9195
B( 12-C , 13-H ) :   0.9206 B( 12-C , 14-H ) :   0.7129 B( 12-C , 15-C ) :   1.8884
B( 15-C , 16-H ) :   0.9392 B( 15-C , 17-H ) :   0.6678

MP2 TOTAL ENERGY:     -326.570712244 Eh
FINAL SINGLE POINT ENERGY      -326.570712244391

DIPOLE MOMENT
-------------
                                X             Y             Z
Electronic contribution:      0.22295      -2.22922      -2.41839
Nuclear contribution   :     -0.29728       3.67101       1.93281
                        -----------------------------------------
Total Dipole Moment    :     -0.07433       1.44179      -0.48558
                        -----------------------------------------
Magnitude (a.u.)       :      1.52318
Magnitude (Debye)      :      3.87161

Rotational constants in cm-1:     0.098129     0.060934     0.049543
Rotational constants in MHz :  2941.831589  1826.763386  1485.247758

                             ****ORCA TERMINATED NORMALLY****
TOTAL RUN TIME: 0 days 2 hours 37 minutes 50 seconds 861 msec
