                         Program Version 5.0.4 -  RELEASE  -
|  1> ! ri-mp2 aug-cc-pvdz aug-cc-pvdz/c tightscf
|  2> %pal nprocs 16 end
|  3> %maxcore 3800
|  4> %base "DZ_S66by10_27_1.25_dimer"
|  5>
|  6> *xyz 0 1
|  7> C    0.81874699    0.86417234    0.18828612
|  8> H    1.46611361    1.71666767    0.34472141
|  9> C    1.36899712   -0.39052394   -0.06669818
| 10> H    2.44303637   -0.51186194   -0.11057444
| 11> C    0.53437860   -1.48849320   -0.27188804
| 12> H    0.96084825   -2.46156422   -0.47550749
| 13> C   -0.84911561   -1.33050735   -0.21989643
| 14> H   -1.49706942   -2.18186028   -0.37955321
| 15> C   -1.39948546   -0.07603020    0.04043417
| 16> H   -2.47268667    0.04490778    0.09338206
| 17> C   -0.56529230    1.02140336    0.24227921
| 18> H   -0.99255667    1.99366131    0.44625817
| 19> N   -2.60723765    0.26434826    4.27995108
| 20> C   -1.99235172    1.42201607    4.56001527
| 21> H   -2.63995578    2.27518752    4.72252736
| 22> C   -0.61013682    1.56286381    4.65018608
| 23> H   -0.17828807    2.52651392    4.88140238
| 24> C    0.19081457    0.44588450    4.43597217
| 25> H    1.26838374    0.51626878    4.49080668
| 26> C   -0.42973734   -0.76277054    4.14231259
| 27> H    0.14603717   -1.65839242    3.95823766
| 28> C   -1.82025161   -0.80080842    4.07686318
| 29> H   -2.32910454   -1.72926180    3.84802050
| 30> *
| 31>
| 32> $new_job
| 33> ! ri-mp2 aug-cc-pvtz aug-cc-pvtz/c tightscf
| 34> %pal nprocs 16 end
| 35> %maxcore 3800
| 36> %base "TZ_S66by10_27_1.25_dimer"
| 37>
| 38> *xyz 0 1
| 39> C    0.81874699    0.86417234    0.18828612
| 40> H    1.46611361    1.71666767    0.34472141
| 41> C    1.36899712   -0.39052394   -0.06669818
| 42> H    2.44303637   -0.51186194   -0.11057444
| 43> C    0.53437860   -1.48849320   -0.27188804
| 44> H    0.96084825   -2.46156422   -0.47550749
| 45> C   -0.84911561   -1.33050735   -0.21989643
| 46> H   -1.49706942   -2.18186028   -0.37955321
| 47> C   -1.39948546   -0.07603020    0.04043417
| 48> H   -2.47268667    0.04490778    0.09338206
| 49> C   -0.56529230    1.02140336    0.24227921
| 50> H   -0.99255667    1.99366131    0.44625817
| 51> N   -2.60723765    0.26434826    4.27995108
| 52> C   -1.99235172    1.42201607    4.56001527
| 53> H   -2.63995578    2.27518752    4.72252736
| 54> C   -0.61013682    1.56286381    4.65018608
| 55> H   -0.17828807    2.52651392    4.88140238
| 56> C    0.19081457    0.44588450    4.43597217
| 57> H    1.26838374    0.51626878    4.49080668
| 58> C   -0.42973734   -0.76277054    4.14231259
| 59> H    0.14603717   -1.65839242    3.95823766
| 60> C   -1.82025161   -0.80080842    4.07686318
| 61> H   -2.32910454   -1.72926180    3.84802050
| 62> *
| 63>
| 64> $new_job
| 65> ! ri-mp2 aug-cc-pvqz aug-cc-pvqz/c tightscf
| 66> %pal nprocs 16 end
| 67> %maxcore 3800
| 68> %base "QZ_S66by10_27_1.25_dimer"
| 69>
| 70> *xyz 0 1
| 71> C    0.81874699    0.86417234    0.18828612
| 72> H    1.46611361    1.71666767    0.34472141
| 73> C    1.36899712   -0.39052394   -0.06669818
| 74> H    2.44303637   -0.51186194   -0.11057444
| 75> C    0.53437860   -1.48849320   -0.27188804
| 76> H    0.96084825   -2.46156422   -0.47550749
| 77> C   -0.84911561   -1.33050735   -0.21989643
| 78> H   -1.49706942   -2.18186028   -0.37955321
| 79> C   -1.39948546   -0.07603020    0.04043417
| 80> H   -2.47268667    0.04490778    0.09338206
| 81> C   -0.56529230    1.02140336    0.24227921
| 82> H   -0.99255667    1.99366131    0.44625817
| 83> N   -2.60723765    0.26434826    4.27995108
| 84> C   -1.99235172    1.42201607    4.56001527
| 85> H   -2.63995578    2.27518752    4.72252736
| 86> C   -0.61013682    1.56286381    4.65018608
| 87> H   -0.17828807    2.52651392    4.88140238
| 88> C    0.19081457    0.44588450    4.43597217
| 89> H    1.26838374    0.51626878    4.49080668
| 90> C   -0.42973734   -0.76277054    4.14231259
| 91> H    0.14603717   -1.65839242    3.95823766
| 92> C   -1.82025161   -0.80080842    4.07686318
| 93> H   -2.32910454   -1.72926180    3.84802050
| 94> *
| 95>
| 96>
| 97>
| 98>
| 99>                          ****END OF INPUT****
 Total Charge           Charge          ....    0
 Multiplicity           Mult            ....    1
 Number of Electrons    NEL             ....   84
MP2 TOTAL ENERGY:     -479.107695549 Eh
FINAL SINGLE POINT ENERGY      -479.107695549057
MP2 TOTAL ENERGY:     -479.527285536 Eh
FINAL SINGLE POINT ENERGY      -479.527285535987

CARTESIAN COORDINATES (ANGSTROEM)
---------------------------------
  C      0.818747    0.864172    0.188286
  H      1.466114    1.716668    0.344721
  C      1.368997   -0.390524   -0.066698
  H      2.443036   -0.511862   -0.110574
  C      0.534379   -1.488493   -0.271888
  H      0.960848   -2.461564   -0.475507
  C     -0.849116   -1.330507   -0.219896
  H     -1.497069   -2.181860   -0.379553
  C     -1.399485   -0.076030    0.040434
  H     -2.472687    0.044908    0.093382
  C     -0.565292    1.021403    0.242279
  H     -0.992557    1.993661    0.446258
  N     -2.607238    0.264348    4.279951
  C     -1.992352    1.422016    4.560015
  H     -2.639956    2.275188    4.722527
  C     -0.610137    1.562864    4.650186
  H     -0.178288    2.526514    4.881402
  C      0.190815    0.445885    4.435972
  H      1.268384    0.516269    4.490807
  C     -0.429737   -0.762771    4.142313
  H      0.146037   -1.658392    3.958238
  C     -1.820252   -0.800808    4.076863
  H     -2.329105   -1.729262    3.848021

 Multiplicity           Mult            ....    1
 Number of Electrons    NEL             ....   84
 Basis Dimension        Dim             .... 1466

ORBITAL ENERGIES
----------------

  NO   OCC          E(Eh)            E(eV)
   0   2.0000     -15.561208      -423.4420
   1   2.0000     -11.270437      -306.6842
   2   2.0000     -11.269746      -306.6654
   3   2.0000     -11.254737      -306.2570
   4   2.0000     -11.237260      -305.7814
   5   2.0000     -11.236008      -305.7473
   6   2.0000     -11.234472      -305.7055
   7   2.0000     -11.233715      -305.6849
   8   2.0000     -11.233223      -305.6715
   9   2.0000     -11.232498      -305.6518
  10   2.0000     -11.232099      -305.6410
  11   2.0000     -11.231135      -305.6147
  12   2.0000      -1.252277       -34.0762
  13   2.0000      -1.148894       -31.2630
  14   2.0000      -1.085349       -29.5338
  15   2.0000      -1.029130       -28.0040
  16   2.0000      -1.013423       -27.5766
  17   2.0000      -1.013299       -27.5733
  18   2.0000      -0.855138       -23.2695
  19   2.0000      -0.851627       -23.1739
  20   2.0000      -0.822944       -22.3934
  21   2.0000      -0.822809       -22.3898
  22   2.0000      -0.718003       -19.5379
  23   2.0000      -0.708594       -19.2818
  24   2.0000      -0.656495       -17.8641
  25   2.0000      -0.650169       -17.6920
  26   2.0000      -0.643049       -17.4983
  27   2.0000      -0.618051       -16.8180
  28   2.0000      -0.594155       -16.1678
  29   2.0000      -0.587087       -15.9754
  30   2.0000      -0.586932       -15.9712
  31   2.0000      -0.573221       -15.5981
  32   2.0000      -0.537843       -14.6354
  33   2.0000      -0.515936       -14.0393
  34   2.0000      -0.500974       -13.6322
  35   2.0000      -0.493920       -13.4402
  36   2.0000      -0.493816       -13.4374
  37   2.0000      -0.416431       -11.3317
  38   2.0000      -0.379982       -10.3398
  39   2.0000      -0.344270        -9.3681
  40   2.0000      -0.335625        -9.1328
  41   2.0000      -0.334886        -9.1127
  42   0.0000       0.022201         0.6041
  43   0.0000       0.026264         0.7147
  44   0.0000       0.029674         0.8075
  45   0.0000       0.034907         0.9499
  46   0.0000       0.038065         1.0358

MULLIKEN ATOMIC CHARGES
-----------------------
   0 C :   -0.337319
   1 H :    0.293129
   2 C :   -0.302031
   3 H :    0.348917
   4 C :   -0.348971
   5 H :    0.340681
   6 C :   -0.294849
   7 H :    0.334452
   8 C :   -0.365152
   9 H :    0.309305
  10 C :   -0.304138
  11 H :    0.329016
  12 N :   -0.679141
  13 C :   -0.271262
  14 H :    0.461359
  15 C :   -0.257363
  16 H :    0.354080
  17 C :   -0.319312
  18 H :    0.324023
  19 C :   -0.297935
  20 H :    0.348935
  21 C :   -0.127090
  22 H :    0.460666
Sum of atomic charges:   -0.0000000

LOEWDIN ATOMIC CHARGES
----------------------
   0 C :    0.324629
   1 H :   -0.325697
   2 C :    0.325702
   3 H :   -0.327246
   4 C :    0.325910
   5 H :   -0.327121
   6 C :    0.326525
   7 H :   -0.325761
   8 C :    0.325106
   9 H :   -0.322329
  10 C :    0.323434
  11 H :   -0.323074
  12 N :    0.590429
  13 C :    0.063756
  14 H :   -0.356464
  15 C :    0.322564
  16 H :   -0.330787
  17 C :    0.321532
  18 H :   -0.312393
  19 C :    0.319919
  20 H :   -0.326558
  21 C :    0.061547
  22 H :   -0.353624

  Mayer bond orders larger than 0.100000
B(  0-C ,  1-H ) :   1.0345 B(  0-C ,  2-C ) :   1.2184 B(  0-C ,  6-C ) :   0.1724
B(  0-C , 10-C ) :   1.2518 B(  2-C ,  3-H ) :   0.9950 B(  2-C ,  4-C ) :   1.2242
B(  2-C ,  8-C ) :   0.1394 B(  4-C ,  5-H ) :   0.9977 B(  4-C ,  6-C ) :   1.2282
B(  4-C , 10-C ) :   0.1432 B(  6-C ,  7-H ) :   1.0025 B(  6-C ,  8-C ) :   1.2489
B(  8-C ,  9-H ) :   1.0206 B(  8-C , 10-C ) :   1.2125 B( 10-C , 11-H ) :   0.9977
B( 12-N , 13-C ) :   1.2381 B( 12-N , 14-H ) :  -0.1112 B( 12-N , 21-C ) :   1.1322
B( 12-N , 22-H ) :  -0.1316 B( 13-C , 14-H ) :   0.8835 B( 13-C , 15-C ) :   1.2388
B( 13-C , 19-C ) :   0.1101 B( 15-C , 16-H ) :   0.9639 B( 15-C , 17-C ) :   1.1893
B( 15-C , 21-C ) :   0.1248 B( 17-C , 18-H ) :   0.9776 B( 17-C , 19-C ) :   1.1967
B( 19-C , 20-H ) :   0.9649 B( 19-C , 21-C ) :   1.2181 B( 21-C , 22-H ) :   0.8863

MP2 TOTAL ENERGY:     -479.660510787 Eh
FINAL SINGLE POINT ENERGY      -479.660510786504

DIPOLE MOMENT
-------------
                                X             Y             Z
Electronic contribution:     -1.91438       0.20022       2.07868
Nuclear contribution   :      2.79834      -0.14790      -2.06682
                        -----------------------------------------
Total Dipole Moment    :      0.88396       0.05232       0.01186
                        -----------------------------------------
Magnitude (a.u.)       :      0.88558
Magnitude (Debye)      :      2.25097

Rotational constants in cm-1:     0.053960     0.016949     0.016358
Rotational constants in MHz :  1617.670045   508.130125   490.388479

                             ****ORCA TERMINATED NORMALLY****
TOTAL RUN TIME: 0 days 1 hours 31 minutes 41 seconds 808 msec
