                         Program Version 5.0.4 -  RELEASE  -
|  1> ! ri-mp2 aug-cc-pvdz aug-cc-pvdz/c tightscf
|  2> %pal nprocs 16 end
|  3> %maxcore 3800
|  4> %base "DZ_S66by10_21_1.5_dimer"
|  5> %scf STABPerform true end
|  6>
|  7> *xyz 0 1
|  8> C   -1.30974974    1.18017617   -0.02517034
|  9> O   -0.72530044    2.15514767    0.45271335
| 10> N   -0.66562116    0.09505470   -0.49199449
| 11> H    0.35458266    0.05144817   -0.45930922
| 12> H   -1.18362704   -0.67359969   -0.87075610
| 13> C   -2.81671934    1.15599865   -0.11060597
| 14> H   -3.22062895    1.26254146    0.89308239
| 15> H   -3.20942754    0.24863402   -0.56190009
| 16> H   -3.14315813    2.01659563   -0.68889311
| 17> C    3.72141334    1.08341522    0.19297561
| 18> O    3.13699157    0.10939479   -0.28675535
| 19> N    3.07732577    2.16815845    0.66082217
| 20> H    2.05722040    2.21259623    0.62652085
| 21> H    3.59534984    2.93611965    1.04094281
| 22> C    5.22841252    1.10769960    0.27820070
| 23> H    5.62028358    2.00734912    0.74538471
| 24> H    5.63196871    1.02015457   -0.72757961
| 25> H    5.55619128    0.23712470    0.84038103
| 26> *
| 27>
| 28> $new_job
| 29> ! ri-mp2 aug-cc-pvtz aug-cc-pvtz/c tightscf
| 30> %pal nprocs 16 end
| 31> %maxcore 3800
| 32> %base "TZ_S66by10_21_1.5_dimer"
| 33>
| 34> *xyz 0 1
| 35> C   -1.30974974    1.18017617   -0.02517034
| 36> O   -0.72530044    2.15514767    0.45271335
| 37> N   -0.66562116    0.09505470   -0.49199449
| 38> H    0.35458266    0.05144817   -0.45930922
| 39> H   -1.18362704   -0.67359969   -0.87075610
| 40> C   -2.81671934    1.15599865   -0.11060597
| 41> H   -3.22062895    1.26254146    0.89308239
| 42> H   -3.20942754    0.24863402   -0.56190009
| 43> H   -3.14315813    2.01659563   -0.68889311
| 44> C    3.72141334    1.08341522    0.19297561
| 45> O    3.13699157    0.10939479   -0.28675535
| 46> N    3.07732577    2.16815845    0.66082217
| 47> H    2.05722040    2.21259623    0.62652085
| 48> H    3.59534984    2.93611965    1.04094281
| 49> C    5.22841252    1.10769960    0.27820070
| 50> H    5.62028358    2.00734912    0.74538471
| 51> H    5.63196871    1.02015457   -0.72757961
| 52> H    5.55619128    0.23712470    0.84038103
| 53> *
| 54>
| 55> $new_job
| 56> ! ri-mp2 aug-cc-pvqz aug-cc-pvqz/c tightscf
| 57> %pal nprocs 16 end
| 58> %maxcore 3800
| 59> %base "QZ_S66by10_21_1.5_dimer"
| 60>
| 61> *xyz 0 1
| 62> C   -1.30974974    1.18017617   -0.02517034
| 63> O   -0.72530044    2.15514767    0.45271335
| 64> N   -0.66562116    0.09505470   -0.49199449
| 65> H    0.35458266    0.05144817   -0.45930922
| 66> H   -1.18362704   -0.67359969   -0.87075610
| 67> C   -2.81671934    1.15599865   -0.11060597
| 68> H   -3.22062895    1.26254146    0.89308239
| 69> H   -3.20942754    0.24863402   -0.56190009
| 70> H   -3.14315813    2.01659563   -0.68889311
| 71> C    3.72141334    1.08341522    0.19297561
| 72> O    3.13699157    0.10939479   -0.28675535
| 73> N    3.07732577    2.16815845    0.66082217
| 74> H    2.05722040    2.21259623    0.62652085
| 75> H    3.59534984    2.93611965    1.04094281
| 76> C    5.22841252    1.10769960    0.27820070
| 77> H    5.62028358    2.00734912    0.74538471
| 78> H    5.63196871    1.02015457   -0.72757961
| 79> H    5.55619128    0.23712470    0.84038103
| 80> *
| 81>
| 82>
| 83>
| 84>
| 85>                          ****END OF INPUT****
 Total Charge           Charge          ....    0
 Multiplicity           Mult            ....    1
 Number of Electrons    NEL             ....   64
MP2 TOTAL ENERGY:     -417.349825179 Eh
FINAL SINGLE POINT ENERGY      -417.349825178863
MP2 TOTAL ENERGY:     -417.720002410 Eh
FINAL SINGLE POINT ENERGY      -417.720002410057

CARTESIAN COORDINATES (ANGSTROEM)
---------------------------------
  C     -1.309750    1.180176   -0.025170
  O     -0.725300    2.155148    0.452713
  N     -0.665621    0.095055   -0.491994
  H      0.354583    0.051448   -0.459309
  H     -1.183627   -0.673600   -0.870756
  C     -2.816719    1.155999   -0.110606
  H     -3.220629    1.262541    0.893082
  H     -3.209428    0.248634   -0.561900
  H     -3.143158    2.016596   -0.688893
  C      3.721413    1.083415    0.192976
  O      3.136992    0.109395   -0.286755
  N      3.077326    2.168158    0.660822
  H      2.057220    2.212596    0.626521
  H      3.595350    2.936120    1.040943
  C      5.228413    1.107700    0.278201
  H      5.620284    2.007349    0.745385
  H      5.631969    1.020155   -0.727580
  H      5.556191    0.237125    0.840381

 Multiplicity           Mult            ....    1
 Number of Electrons    NEL             ....   64
 Basis Dimension        Dim             .... 1100

ORBITAL ENERGIES
----------------

  NO   OCC          E(Eh)            E(eV)
   0   2.0000     -20.508364      -558.0609
   1   2.0000     -20.508345      -558.0604
   2   2.0000     -15.581572      -423.9961
   3   2.0000     -15.581559      -423.9958
   4   2.0000     -11.349449      -308.8342
   5   2.0000     -11.349448      -308.8342
   6   2.0000     -11.233848      -305.6885
   7   2.0000     -11.233847      -305.6885
   8   2.0000      -1.367833       -37.2206
   9   2.0000      -1.367396       -37.2087
  10   2.0000      -1.210986       -32.9526
  11   2.0000      -1.210478       -32.9388
  12   2.0000      -1.002809       -27.2878
  13   2.0000      -1.002189       -27.2709
  14   2.0000      -0.798604       -21.7311
  15   2.0000      -0.796769       -21.6812
  16   2.0000      -0.723188       -19.6790
  17   2.0000      -0.720808       -19.6142
  18   2.0000      -0.664355       -18.0780
  19   2.0000      -0.659758       -17.9529
  20   2.0000      -0.613170       -16.6852
  21   2.0000      -0.612816       -16.6756
  22   2.0000      -0.579663       -15.7734
  23   2.0000      -0.577029       -15.7018
  24   2.0000      -0.561420       -15.2770
  25   2.0000      -0.560457       -15.2508
  26   2.0000      -0.521633       -14.1943
  27   2.0000      -0.520658       -14.1678
  28   2.0000      -0.425138       -11.5686
  29   2.0000      -0.418971       -11.4008
  30   2.0000      -0.410931       -11.1820
  31   2.0000      -0.409304       -11.1377
  32   0.0000       0.023906         0.6505
  33   0.0000       0.026407         0.7186
  34   0.0000       0.036644         0.9971
  35   0.0000       0.041749         1.1360
  36   0.0000       0.042998         1.1700

MULLIKEN ATOMIC CHARGES
-----------------------
   0 C :    0.871837
   1 O :   -0.881461
   2 N :   -0.656824
   3 H :    0.325146
   4 H :    0.266160
   5 C :   -0.720957
   6 H :    0.273892
   7 H :    0.252249
   8 H :    0.269968
   9 C :    0.871806
  10 O :   -0.881259
  11 N :   -0.656908
  12 H :    0.325198
  13 H :    0.265993
  14 C :   -0.720998
  15 H :    0.252077
  16 H :    0.276139
  17 H :    0.267943
Sum of atomic charges:   -0.0000000

LOEWDIN ATOMIC CHARGES
----------------------
   0 C :   -0.851137
   1 O :    0.661989
   2 N :    1.234982
   3 H :   -0.494860
   4 H :   -0.509205
   5 C :    0.878500
   6 H :   -0.301597
   7 H :   -0.316286
   8 H :   -0.302401
   9 C :   -0.851142
  10 O :    0.662029
  11 N :    1.234982
  12 H :   -0.494865
  13 H :   -0.509220
  14 C :    0.878511
  15 H :   -0.316279
  16 H :   -0.301072
  17 H :   -0.302929

  Mayer bond orders larger than 0.100000
B(  0-C ,  1-O ) :   1.3534 B(  0-C ,  2-N ) :   1.0920 B(  0-C ,  5-C ) :   0.8248
B(  1-O ,  2-N ) :   0.1376 B(  2-N ,  3-H ) :   0.8727 B(  2-N ,  4-H ) :   0.9836
B(  5-C ,  6-H ) :   0.9392 B(  5-C ,  7-H ) :   1.0017 B(  5-C ,  8-H ) :   0.9472
B(  9-C , 10-O ) :   1.3536 B(  9-C , 11-N ) :   1.0920 B(  9-C , 14-C ) :   0.8247
B( 10-O , 11-N ) :   0.1376 B( 11-N , 12-H ) :   0.8726 B( 11-N , 13-H ) :   0.9837
B( 14-C , 15-H ) :   1.0019 B( 14-C , 16-H ) :   0.9346 B( 14-C , 17-H ) :   0.9515

MP2 TOTAL ENERGY:     -417.839536699 Eh
FINAL SINGLE POINT ENERGY      -417.839536699288

DIPOLE MOMENT
-------------
                                X             Y             Z
Electronic contribution:     -0.00018      -0.00065       0.00058
Nuclear contribution   :      0.00027      -0.00002       0.00041
                        -----------------------------------------
Total Dipole Moment    :      0.00009      -0.00067       0.00099
                        -----------------------------------------
Magnitude (a.u.)       :      0.00120
Magnitude (Debye)      :      0.00304

Rotational constants in cm-1:     0.178889     0.018870     0.017177
Rotational constants in MHz :  5362.952329   565.702987   514.959789

                             ****ORCA TERMINATED NORMALLY****
TOTAL RUN TIME: 0 days 1 hours 57 minutes 34 seconds 140 msec
