                         Program Version 5.0.4 -  RELEASE  -
|  1> ! ri-mp2 aug-cc-pvdz aug-cc-pvdz/c tightscf
|  2> %pal nprocs 16 end
|  3> %maxcore 3800
|  4> %base "DZ_S66by10_61_0.7_dimer"
|  5> %scf STABPerform true end
|  6>
|  7> *xyz 0 1
|  8> C   -2.27534498   -0.13507494    0.83133387
|  9> H   -2.49071776   -0.72792669   -0.05756635
| 10> H   -2.22632382   -0.81844641    1.67882341
| 11> H   -3.11202566    0.54494342    0.98740008
| 12> C   -0.96169812    0.61927789    0.66939920
| 13> H   -0.78869920    1.25043181    1.54470266
| 14> H   -1.02617687    1.29544524   -0.18645838
| 15> C    0.22650217   -0.31471031    0.47998579
| 16> H    0.30944439   -0.97513911    1.34803794
| 17> H    0.03915056   -0.96599875   -0.37878983
| 18> C    1.54300168    0.42117452    0.26899951
| 19> H    1.71163863    1.10777177    1.10244654
| 20> H    1.46609466    1.04374331   -0.62529358
| 21> C    2.72757632   -0.52686091    0.13745931
| 22> H    2.58874155   -1.20321391   -0.70575734
| 23> H    3.66150100    0.01169308   -0.01596863
| 24> H    2.83519407   -1.13740994    1.03407512
| 25> C   -0.35931133   -0.25563150    3.48498013
| 26> O   -0.78192526   -1.37081175    3.28783355
| 27> O   -1.17300368    0.80333401    3.71756961
| 28> H   -2.07376579    0.44895348    3.67703387
| 29> C    1.08095574    0.15403458    3.50218551
| 30> H    1.70677880   -0.71614637    3.34403036
| 31> H    1.25699315    0.88830821    2.71906093
| 32> H    1.31826698    0.62333553    4.45398790
| 33> *
| 34>
| 35> $new_job
| 36> ! ri-mp2 aug-cc-pvtz aug-cc-pvtz/c tightscf
| 37> %pal nprocs 16 end
| 38> %maxcore 3800
| 39> %base "TZ_S66by10_61_0.7_dimer"
| 40>
| 41> *xyz 0 1
| 42> C   -2.27534498   -0.13507494    0.83133387
| 43> H   -2.49071776   -0.72792669   -0.05756635
| 44> H   -2.22632382   -0.81844641    1.67882341
| 45> H   -3.11202566    0.54494342    0.98740008
| 46> C   -0.96169812    0.61927789    0.66939920
| 47> H   -0.78869920    1.25043181    1.54470266
| 48> H   -1.02617687    1.29544524   -0.18645838
| 49> C    0.22650217   -0.31471031    0.47998579
| 50> H    0.30944439   -0.97513911    1.34803794
| 51> H    0.03915056   -0.96599875   -0.37878983
| 52> C    1.54300168    0.42117452    0.26899951
| 53> H    1.71163863    1.10777177    1.10244654
| 54> H    1.46609466    1.04374331   -0.62529358
| 55> C    2.72757632   -0.52686091    0.13745931
| 56> H    2.58874155   -1.20321391   -0.70575734
| 57> H    3.66150100    0.01169308   -0.01596863
| 58> H    2.83519407   -1.13740994    1.03407512
| 59> C   -0.35931133   -0.25563150    3.48498013
| 60> O   -0.78192526   -1.37081175    3.28783355
| 61> O   -1.17300368    0.80333401    3.71756961
| 62> H   -2.07376579    0.44895348    3.67703387
| 63> C    1.08095574    0.15403458    3.50218551
| 64> H    1.70677880   -0.71614637    3.34403036
| 65> H    1.25699315    0.88830821    2.71906093
| 66> H    1.31826698    0.62333553    4.45398790
| 67> *
| 68>
| 69> $new_job
| 70> ! ri-mp2 aug-cc-pvqz aug-cc-pvqz/c tightscf
| 71> %pal nprocs 16 end
| 72> %maxcore 3800
| 73> %base "QZ_S66by10_61_0.7_dimer"
| 74>
| 75> *xyz 0 1
| 76> C   -2.27534498   -0.13507494    0.83133387
| 77> H   -2.49071776   -0.72792669   -0.05756635
| 78> H   -2.22632382   -0.81844641    1.67882341
| 79> H   -3.11202566    0.54494342    0.98740008
| 80> C   -0.96169812    0.61927789    0.66939920
| 81> H   -0.78869920    1.25043181    1.54470266
| 82> H   -1.02617687    1.29544524   -0.18645838
| 83> C    0.22650217   -0.31471031    0.47998579
| 84> H    0.30944439   -0.97513911    1.34803794
| 85> H    0.03915056   -0.96599875   -0.37878983
| 86> C    1.54300168    0.42117452    0.26899951
| 87> H    1.71163863    1.10777177    1.10244654
| 88> H    1.46609466    1.04374331   -0.62529358
| 89> C    2.72757632   -0.52686091    0.13745931
| 90> H    2.58874155   -1.20321391   -0.70575734
| 91> H    3.66150100    0.01169308   -0.01596863
| 92> H    2.83519407   -1.13740994    1.03407512
| 93> C   -0.35931133   -0.25563150    3.48498013
| 94> O   -0.78192526   -1.37081175    3.28783355
| 95> O   -1.17300368    0.80333401    3.71756961
| 96> H   -2.07376579    0.44895348    3.67703387
| 97> C    1.08095574    0.15403458    3.50218551
| 98> H    1.70677880   -0.71614637    3.34403036
| 99> H    1.25699315    0.88830821    2.71906093
|100> H    1.31826698    0.62333553    4.45398790
|101> *
|102>
|103>
|104>
|105>
|106>                          ****END OF INPUT****
 Total Charge           Charge          ....    0
 Multiplicity           Mult            ....    1
 Number of Electrons    NEL             ....   74
MP2 TOTAL ENERGY:     -425.634696733 Eh
FINAL SINGLE POINT ENERGY      -425.634696732788
MP2 TOTAL ENERGY:     -426.028981640 Eh
FINAL SINGLE POINT ENERGY      -426.028981639980

CARTESIAN COORDINATES (ANGSTROEM)
---------------------------------
  C     -2.275345   -0.135075    0.831334
  H     -2.490718   -0.727927   -0.057566
  H     -2.226324   -0.818446    1.678823
  H     -3.112026    0.544943    0.987400
  C     -0.961698    0.619278    0.669399
  H     -0.788699    1.250432    1.544703
  H     -1.026177    1.295445   -0.186458
  C      0.226502   -0.314710    0.479986
  H      0.309444   -0.975139    1.348038
  H      0.039151   -0.965999   -0.378790
  C      1.543002    0.421175    0.269000
  H      1.711639    1.107772    1.102447
  H      1.466095    1.043743   -0.625294
  C      2.727576   -0.526861    0.137459
  H      2.588742   -1.203214   -0.705757
  H      3.661501    0.011693   -0.015969
  H      2.835194   -1.137410    1.034075
  C     -0.359311   -0.255632    3.484980
  O     -0.781925   -1.370812    3.287834
  O     -1.173004    0.803334    3.717570
  H     -2.073766    0.448953    3.677034
  C      1.080956    0.154035    3.502186
  H      1.706779   -0.716146    3.344030
  H      1.256993    0.888308    2.719061
  H      1.318267    0.623336    4.453988

 Multiplicity           Mult            ....    1
 Number of Electrons    NEL             ....   74
 Basis Dimension        Dim             .... 1456

ORBITAL ENERGIES
----------------

  NO   OCC          E(Eh)            E(eV)
   0   2.0000     -20.612566      -560.8964
   1   2.0000     -20.549466      -559.1794
   2   2.0000     -11.391081      -309.9671
   3   2.0000     -11.241828      -305.9057
   4   2.0000     -11.214213      -305.1543
   5   2.0000     -11.209291      -305.0203
   6   2.0000     -11.207912      -304.9828
   7   2.0000     -11.204463      -304.8889
   8   2.0000     -11.199818      -304.7625
   9   2.0000      -1.469018       -39.9740
  10   2.0000      -1.365292       -37.1515
  11   2.0000      -1.083499       -29.4835
  12   2.0000      -1.032065       -28.0839
  13   2.0000      -1.015952       -27.6455
  14   2.0000      -0.918938       -25.0056
  15   2.0000      -0.827929       -22.5291
  16   2.0000      -0.818558       -22.2741
  17   2.0000      -0.786961       -21.4143
  18   2.0000      -0.711291       -19.3552
  19   2.0000      -0.688261       -18.7285
  20   2.0000      -0.684262       -18.6197
  21   2.0000      -0.624833       -17.0026
  22   2.0000      -0.601327       -16.3629
  23   2.0000      -0.599092       -16.3021
  24   2.0000      -0.588071       -16.0022
  25   2.0000      -0.577169       -15.7056
  26   2.0000      -0.558984       -15.2107
  27   2.0000      -0.552452       -15.0330
  28   2.0000      -0.547871       -14.9083
  29   2.0000      -0.524310       -14.2672
  30   2.0000      -0.502812       -13.6822
  31   2.0000      -0.495373       -13.4798
  32   2.0000      -0.475668       -12.9436
  33   2.0000      -0.460572       -12.5328
  34   2.0000      -0.455891       -12.4054
  35   2.0000      -0.446535       -12.1508
  36   2.0000      -0.443345       -12.0640
  37   0.0000       0.023663         0.6439
  38   0.0000       0.028650         0.7796
  39   0.0000       0.030010         0.8166
  40   0.0000       0.034388         0.9357
  41   0.0000       0.041997         1.1428

MULLIKEN ATOMIC CHARGES
-----------------------
   0 C :   -1.002574
   1 H :    0.231155
   2 H :    0.232523
   3 H :    0.212224
   4 C :   -0.423670
   5 H :    0.239039
   6 H :    0.275717
   7 C :   -0.112562
   8 H :    0.264559
   9 H :    0.281601
  10 C :   -0.519662
  11 H :    0.296592
  12 H :    0.266543
  13 C :   -0.962376
  14 H :    0.205065
  15 H :    0.240712
  16 H :    0.250235
  17 C :    1.651484
  18 O :   -0.996304
  19 O :   -0.886823
  20 H :    0.332487
  21 C :   -0.957731
  22 H :    0.295383
  23 H :    0.281024
  24 H :    0.305358
Sum of atomic charges:   -0.0000000

LOEWDIN ATOMIC CHARGES
----------------------
   0 C :    0.926287
   1 H :   -0.272730
   2 H :   -0.391369
   3 H :   -0.271137
   4 C :    0.502556
   5 H :   -0.363345
   6 H :   -0.257822
   7 C :    0.493058
   8 H :   -0.403025
   9 H :   -0.251275
  10 C :    0.520307
  11 H :   -0.331952
  12 H :   -0.256032
  13 C :    0.944165
  14 H :   -0.279774
  15 H :   -0.276708
  16 H :   -0.288837
  17 C :   -1.005744
  18 O :    0.802045
  19 O :    1.302970
  20 H :   -0.806342
  21 C :    0.905377
  22 H :   -0.289839
  23 H :   -0.383418
  24 H :   -0.267417

  Mayer bond orders larger than 0.100000
B(  0-C ,  1-H ) :   1.0110 B(  0-C ,  2-H ) :   0.9468 B(  0-C ,  3-H ) :   1.0732
B(  0-C ,  4-C ) :   0.8664 B(  0-C ,  7-C ) :  -0.1147 B(  3-H ,  4-C ) :  -0.1126
B(  4-C ,  5-H ) :   0.9372 B(  4-C ,  6-H ) :   0.9021 B(  4-C ,  7-C ) :   0.7405
B(  7-C ,  8-H ) :   0.9097 B(  7-C ,  9-H ) :   0.9458 B(  7-C , 10-C ) :   0.7282
B( 10-C , 11-H ) :   0.8952 B( 10-C , 12-H ) :   0.9174 B( 10-C , 13-C ) :   0.9691
B( 13-C , 14-H ) :   1.0191 B( 13-C , 15-H ) :   1.0437 B( 13-C , 16-H ) :   0.9191
B( 17-C , 18-O ) :   1.0957 B( 17-C , 19-O ) :   0.6050 B( 17-C , 21-C ) :   0.9442
B( 19-O , 20-H ) :   0.8657 B( 21-C , 22-H ) :   0.9531 B( 21-C , 23-H ) :   0.8837
B( 21-C , 24-H ) :   0.9607

MP2 TOTAL ENERGY:     -426.151381108 Eh
FINAL SINGLE POINT ENERGY      -426.151381108031

DIPOLE MOMENT
-------------
                                X             Y             Z
Electronic contribution:     -4.79501      -1.00000       9.17380
Nuclear contribution   :      5.08400       1.62818      -9.05316
                        -----------------------------------------
Total Dipole Moment    :      0.28899       0.62818       0.12064
                        -----------------------------------------
Magnitude (a.u.)       :      0.70191
Magnitude (Debye)      :      1.78410

Rotational constants in cm-1:     0.059611     0.035890     0.027072
Rotational constants in MHz :  1787.099516  1075.947458   811.587198

                             ****ORCA TERMINATED NORMALLY****
TOTAL RUN TIME: 0 days 8 hours 42 minutes 41 seconds 147 msec
