                         Program Version 5.0.4 -  RELEASE  -
|  1> ! ri-mp2 aug-cc-pvdz aug-cc-pvdz/c tightscf
|  2> %pal nprocs 16 end
|  3> %maxcore 3800
|  4> %base "DZ_S66by10_7_0.8_dimer"
|  5> %scf STABPerform true end
|  6>
|  7> *xyz 0 1
|  8> O   -0.20877739   -0.21687067   -1.03240597
|  9> H    0.71112593   -0.38689175   -0.77396240
| 10> C   -1.02217337   -0.74117114   -0.00545419
| 11> H   -2.05749119   -0.53870733   -0.26859725
| 12> H   -0.90774336   -1.82182632    0.10853710
| 13> H   -0.82463111   -0.27549472    0.96464547
| 14> C    1.64239206    1.90034194    0.31803356
| 15> H    2.14878569    2.86179102    0.28316321
| 16> H    1.23184794    1.75420607    1.31591020
| 17> H    0.81274426    1.89082867   -0.38347197
| 18> C    2.55802244    0.74540312    0.00211735
| 19> O    2.13382765   -0.37450767   -0.28296419
| 20> N    3.88415936    1.00712740    0.06131672
| 21> H    4.18217181    1.91755553    0.35900391
| 22> C    4.86656539   -0.03298391   -0.16142711
| 23> H    4.51000820   -0.68392123   -0.95360406
| 24> H    5.80693463    0.42053993   -0.45994081
| 25> H    5.02607550   -0.63751081    0.73064843
| 26> *
| 27>
| 28> $new_job
| 29> ! ri-mp2 aug-cc-pvtz aug-cc-pvtz/c tightscf
| 30> %pal nprocs 16 end
| 31> %maxcore 3800
| 32> %base "TZ_S66by10_7_0.8_dimer"
| 33>
| 34> *xyz 0 1
| 35> O   -0.20877739   -0.21687067   -1.03240597
| 36> H    0.71112593   -0.38689175   -0.77396240
| 37> C   -1.02217337   -0.74117114   -0.00545419
| 38> H   -2.05749119   -0.53870733   -0.26859725
| 39> H   -0.90774336   -1.82182632    0.10853710
| 40> H   -0.82463111   -0.27549472    0.96464547
| 41> C    1.64239206    1.90034194    0.31803356
| 42> H    2.14878569    2.86179102    0.28316321
| 43> H    1.23184794    1.75420607    1.31591020
| 44> H    0.81274426    1.89082867   -0.38347197
| 45> C    2.55802244    0.74540312    0.00211735
| 46> O    2.13382765   -0.37450767   -0.28296419
| 47> N    3.88415936    1.00712740    0.06131672
| 48> H    4.18217181    1.91755553    0.35900391
| 49> C    4.86656539   -0.03298391   -0.16142711
| 50> H    4.51000820   -0.68392123   -0.95360406
| 51> H    5.80693463    0.42053993   -0.45994081
| 52> H    5.02607550   -0.63751081    0.73064843
| 53> *
| 54>
| 55> $new_job
| 56> ! ri-mp2 aug-cc-pvqz aug-cc-pvqz/c tightscf
| 57> %pal nprocs 16 end
| 58> %maxcore 3800
| 59> %base "QZ_S66by10_7_0.8_dimer"
| 60>
| 61> *xyz 0 1
| 62> O   -0.20877739   -0.21687067   -1.03240597
| 63> H    0.71112593   -0.38689175   -0.77396240
| 64> C   -1.02217337   -0.74117114   -0.00545419
| 65> H   -2.05749119   -0.53870733   -0.26859725
| 66> H   -0.90774336   -1.82182632    0.10853710
| 67> H   -0.82463111   -0.27549472    0.96464547
| 68> C    1.64239206    1.90034194    0.31803356
| 69> H    2.14878569    2.86179102    0.28316321
| 70> H    1.23184794    1.75420607    1.31591020
| 71> H    0.81274426    1.89082867   -0.38347197
| 72> C    2.55802244    0.74540312    0.00211735
| 73> O    2.13382765   -0.37450767   -0.28296419
| 74> N    3.88415936    1.00712740    0.06131672
| 75> H    4.18217181    1.91755553    0.35900391
| 76> C    4.86656539   -0.03298391   -0.16142711
| 77> H    4.51000820   -0.68392123   -0.95360406
| 78> H    5.80693463    0.42053993   -0.45994081
| 79> H    5.02607550   -0.63751081    0.73064843
| 80> *
| 81>
| 82>
| 83>
| 84>
| 85>                          ****END OF INPUT****
 Total Charge           Charge          ....    0
 Multiplicity           Mult            ....    1
 Number of Electrons    NEL             ....   58
MP2 TOTAL ENERGY:     -363.275840573 Eh
FINAL SINGLE POINT ENERGY      -363.275840573467
MP2 TOTAL ENERGY:     -363.607326651 Eh
FINAL SINGLE POINT ENERGY      -363.607326650982

CARTESIAN COORDINATES (ANGSTROEM)
---------------------------------
  O     -0.208777   -0.216871   -1.032406
  H      0.711126   -0.386892   -0.773962
  C     -1.022173   -0.741171   -0.005454
  H     -2.057491   -0.538707   -0.268597
  H     -0.907743   -1.821826    0.108537
  H     -0.824631   -0.275495    0.964645
  C      1.642392    1.900342    0.318034
  H      2.148786    2.861791    0.283163
  H      1.231848    1.754206    1.315910
  H      0.812744    1.890829   -0.383472
  C      2.558022    0.745403    0.002117
  O      2.133828   -0.374508   -0.282964
  N      3.884159    1.007127    0.061317
  H      4.182172    1.917556    0.359004
  C      4.866565   -0.032984   -0.161427
  H      4.510008   -0.683921   -0.953604
  H      5.806935    0.420540   -0.459941
  H      5.026076   -0.637511    0.730648

 Multiplicity           Mult            ....    1
 Number of Electrons    NEL             ....   58
 Basis Dimension        Dim             .... 1066

ORBITAL ENERGIES
----------------

  NO   OCC          E(Eh)            E(eV)
   0   2.0000     -20.532640      -558.7215
   1   2.0000     -20.491859      -557.6118
   2   2.0000     -15.602506      -424.5658
   3   2.0000     -11.368265      -309.3462
   4   2.0000     -11.268709      -306.6372
   5   2.0000     -11.239248      -305.8355
   6   2.0000     -11.235686      -305.7386
   7   2.0000      -1.404756       -38.2253
   8   2.0000      -1.307458       -35.5777
   9   2.0000      -1.249394       -33.9977
  10   2.0000      -1.031235       -28.0613
  11   2.0000      -0.945525       -25.7290
  12   2.0000      -0.889983       -24.2177
  13   2.0000      -0.813944       -22.1485
  14   2.0000      -0.706075       -19.2133
  15   2.0000      -0.687888       -18.7184
  16   2.0000      -0.661131       -17.9903
  17   2.0000      -0.648367       -17.6430
  18   2.0000      -0.596753       -16.2385
  19   2.0000      -0.589023       -16.0281
  20   2.0000      -0.584282       -15.8991
  21   2.0000      -0.567032       -15.4297
  22   2.0000      -0.558137       -15.1877
  23   2.0000      -0.549933       -14.9644
  24   2.0000      -0.521762       -14.1979
  25   2.0000      -0.476145       -12.9566
  26   2.0000      -0.431222       -11.7341
  27   2.0000      -0.412905       -11.2357
  28   2.0000      -0.401888       -10.9359
  29   0.0000       0.015655         0.4260
  30   0.0000       0.028574         0.7775
  31   0.0000       0.031875         0.8674
  32   0.0000       0.038078         1.0361
  33   0.0000       0.045738         1.2446

MULLIKEN ATOMIC CHARGES
-----------------------
   0 O :   -0.832939
   1 H :    0.387591
   2 C :   -0.611842
   3 H :    0.394117
   4 H :    0.265855
   5 H :    0.267178
   6 C :   -0.794539
   7 H :    0.298490
   8 H :    0.269587
   9 H :    0.300860
  10 C :    1.008196
  11 O :   -0.811029
  12 N :   -0.512230
  13 H :    0.247213
  14 C :   -0.869373
  15 H :    0.296187
  16 H :    0.393665
  17 H :    0.303015
Sum of atomic charges:   -0.0000000

LOEWDIN ATOMIC CHARGES
----------------------
   0 O :    1.247219
   1 H :   -1.365545
   2 C :    0.564616
   3 H :   -0.344363
   4 H :   -0.314955
   5 H :   -0.323669
   6 C :    0.927604
   7 H :   -0.299855
   8 H :   -0.278137
   9 H :   -0.337521
  10 C :   -0.667421
  11 O :    0.944631
  12 N :    0.845953
  13 H :   -0.499376
  14 C :    0.793647
  15 H :   -0.322039
  16 H :   -0.291917
  17 H :   -0.278874

  Mayer bond orders larger than 0.100000
B(  0-O ,  1-H ) :   0.8321 B(  0-O ,  2-C ) :   0.8630 B(  2-C ,  3-H ) :   0.8554
B(  2-C ,  4-H ) :   0.9309 B(  2-C ,  5-H ) :   0.8909 B(  6-C ,  7-H ) :   0.9775
B(  6-C ,  8-H ) :   0.9024 B(  6-C ,  9-H ) :   0.9873 B(  6-C , 10-C ) :   0.7947
B( 10-C , 11-O ) :   1.2832 B( 10-C , 12-N ) :   1.1636 B( 11-O , 12-N ) :   0.1480
B( 12-N , 13-H ) :   0.9647 B( 12-N , 14-C ) :   0.8221 B( 14-C , 15-H ) :   0.9458
B( 14-C , 16-H ) :   0.8687 B( 14-C , 17-H ) :   0.9462

MP2 TOTAL ENERGY:     -363.712270484 Eh
FINAL SINGLE POINT ENERGY      -363.712270484420

DIPOLE MOMENT
-------------
                                X             Y             Z
Electronic contribution:      2.18718       0.07491      -1.55175
Nuclear contribution   :     -0.54406       1.10075       2.56142
                        -----------------------------------------
Total Dipole Moment    :      1.64312       1.17566       1.00967
                        -----------------------------------------
Magnitude (a.u.)       :      2.25864
Magnitude (Debye)      :      5.74101

Rotational constants in cm-1:     0.177256     0.037970     0.033202
Rotational constants in MHz :  5314.013727  1138.313898   995.382546

                             ****ORCA TERMINATED NORMALLY****
TOTAL RUN TIME: 0 days 2 hours 18 minutes 59 seconds 377 msec
