                         Program Version 5.0.4 -  RELEASE  -
|  1> ! ri-mp2 aug-cc-pvdz aug-cc-pvdz/c tightscf
|  2> %pal nprocs 16 end
|  3> %maxcore 3800
|  4> %base "DZ_S66by10_59_0.95_dimer"
|  5> %scf STABPerform true end
|  6>
|  7> *xyz 0 1
|  8> C   -1.00686722   -0.03056821   -0.02477285
|  9> H    0.05900333   -0.06093974   -0.04936562
| 10> C   -2.21874380    0.00317347    0.00259920
| 11> H   -3.27927730    0.03352491    0.02720048
| 12> O    2.17719441   -0.14224187   -0.11287116
| 13> H    2.74755082   -0.73201125    0.38415577
| 14> H    2.74919025    0.20874615   -0.79824331
| 15> *
| 16>
| 17> $new_job
| 18> ! ri-mp2 aug-cc-pvtz aug-cc-pvtz/c tightscf
| 19> %pal nprocs 16 end
| 20> %maxcore 3800
| 21> %base "TZ_S66by10_59_0.95_dimer"
| 22>
| 23> *xyz 0 1
| 24> C   -1.00686722   -0.03056821   -0.02477285
| 25> H    0.05900333   -0.06093974   -0.04936562
| 26> C   -2.21874380    0.00317347    0.00259920
| 27> H   -3.27927730    0.03352491    0.02720048
| 28> O    2.17719441   -0.14224187   -0.11287116
| 29> H    2.74755082   -0.73201125    0.38415577
| 30> H    2.74919025    0.20874615   -0.79824331
| 31> *
| 32>
| 33> $new_job
| 34> ! ri-mp2 aug-cc-pvqz aug-cc-pvqz/c tightscf
| 35> %pal nprocs 16 end
| 36> %maxcore 3800
| 37> %base "QZ_S66by10_59_0.95_dimer"
| 38>
| 39> *xyz 0 1
| 40> C   -1.00686722   -0.03056821   -0.02477285
| 41> H    0.05900333   -0.06093974   -0.04936562
| 42> C   -2.21874380    0.00317347    0.00259920
| 43> H   -3.27927730    0.03352491    0.02720048
| 44> O    2.17719441   -0.14224187   -0.11287116
| 45> H    2.74755082   -0.73201125    0.38415577
| 46> H    2.74919025    0.20874615   -0.79824331
| 47> *
| 48>
| 49>
| 50>
| 51>
| 52>                          ****END OF INPUT****
 Total Charge           Charge          ....    0
 Multiplicity           Mult            ....    1
 Number of Electrons    NEL             ....   24
MP2 TOTAL ENERGY:     -153.358551205 Eh
FINAL SINGLE POINT ENERGY      -153.358551204540
MP2 TOTAL ENERGY:     -153.497989295 Eh
FINAL SINGLE POINT ENERGY      -153.497989294900

CARTESIAN COORDINATES (ANGSTROEM)
---------------------------------
  C     -1.006867   -0.030568   -0.024773
  H      0.059003   -0.060940   -0.049366
  C     -2.218744    0.003173    0.002599
  H     -3.279277    0.033525    0.027200
  O      2.177194   -0.142242   -0.112871
  H      2.747551   -0.732011    0.384156
  H      2.749190    0.208746   -0.798243

 Multiplicity           Mult            ....    1
 Number of Electrons    NEL             ....   24
 Basis Dimension        Dim             ....  424

ORBITAL ENERGIES
----------------

  NO   OCC          E(Eh)            E(eV)
   0   2.0000     -20.583044      -560.0931
   1   2.0000     -11.224651      -305.4383
   2   2.0000     -11.220917      -305.3367
   3   2.0000      -1.371821       -37.3292
   4   2.0000      -1.008593       -27.4452
   5   2.0000      -0.749718       -20.4009
   6   2.0000      -0.734230       -19.9794
   7   2.0000      -0.666464       -18.1354
   8   2.0000      -0.600645       -16.3444
   9   2.0000      -0.530117       -14.4252
  10   2.0000      -0.390211       -10.6182
  11   2.0000      -0.390073       -10.6144
  12   0.0000       0.019730         0.5369
  13   0.0000       0.031930         0.8689
  14   0.0000       0.040465         1.1011
  15   0.0000       0.051821         1.4101
  16   0.0000       0.080068         2.1788

MULLIKEN ATOMIC CHARGES
-----------------------
   0 C :   -0.530987
   1 H :    0.887888
   2 C :   -0.853021
   3 H :    0.490758
   4 O :   -0.564438
   5 H :    0.284986
   6 H :    0.284812
Sum of atomic charges:    0.0000000

LOEWDIN ATOMIC CHARGES
----------------------
   0 C :    0.480706
   1 H :   -0.602014
   2 C :    0.483996
   3 H :   -0.490318
   4 O :    1.638282
   5 H :   -0.755286
   6 H :   -0.755367

  Mayer bond orders larger than 0.100000
B(  0-C ,  1-H ) :   0.3958 B(  0-C ,  2-C ) :   2.2251 B(  1-H ,  4-O ) :  -0.1086
B(  2-C ,  3-H ) :   0.8780 B(  4-O ,  5-H ) :   0.9703 B(  4-O ,  6-H ) :   0.9705

MP2 TOTAL ENERGY:     -153.542305814 Eh
FINAL SINGLE POINT ENERGY      -153.542305814455

DIPOLE MOMENT
-------------
                                X             Y             Z
Electronic contribution:     -1.29807       0.08224       0.06492
Nuclear contribution   :      2.30606      -0.24850      -0.19613
                        -----------------------------------------
Total Dipole Moment    :      1.00799      -0.16627      -0.13121
                        -----------------------------------------
Magnitude (a.u.)       :      1.03000
Magnitude (Debye)      :      2.61806

Rotational constants in cm-1:    14.281231     0.097127     0.096503
Rotational constants in MHz : 428140.543156  2911.784423  2893.099364

                             ****ORCA TERMINATED NORMALLY****
TOTAL RUN TIME: 0 days 0 hours 5 minutes 0 seconds 979 msec
