                         Program Version 5.0.4 -  RELEASE  -
|  1> ! ri-mp2 aug-cc-pvdz aug-cc-pvdz/c tightscf
|  2> %pal nprocs 16 end
|  3> %maxcore 3800
|  4> %base "DZ_S66by10_26_2.0_dimer"
|  5> %scf STABPerform true end
|  6>
|  7> *xyz 0 1
|  8> N    1.37690111    0.83974747    0.73462494
|  9> H    1.05181240    1.38622385    1.52335563
| 10> C    1.30898271    1.45752981   -0.52065500
| 11> O    0.92056136    2.61107777   -0.62597673
| 12> N    2.01142293   -1.21320830   -0.09807182
| 13> H    1.72728551    0.99084268   -2.61199556
| 14> C    2.02573687   -0.69717123   -1.36439740
| 15> H    2.29751698   -1.39106004   -2.14564531
| 16> C    1.71451235    0.59193780   -1.61248722
| 17> H    2.12945422   -2.20152091    0.05682913
| 18> C    1.64594503   -0.48520598    1.01871830
| 19> O    1.56111602   -0.97181638    2.12980905
| 20> N   -4.08589438   -1.30743959    0.73462494
| 21> H   -3.76080567   -1.85391597    1.52335563
| 22> C   -4.01797597   -1.92522193   -0.52065500
| 23> O   -3.62955462   -3.07876988   -0.62597673
| 24> N   -4.72041619    0.74551618   -0.09807182
| 25> H   -4.43627877   -1.45853480   -2.61199556
| 26> C   -4.73473013    0.22947911   -1.36439740
| 27> H   -5.00651024    0.92336792   -2.14564531
| 28> C   -4.42350561   -1.05962992   -1.61248722
| 29> H   -4.83844748    1.73382879    0.05682913
| 30> C   -4.35493829    0.01751386    1.01871830
| 31> O   -4.27010928    0.50412426    2.12980905
| 32> *
| 33>
| 34> $new_job
| 35> ! ri-mp2 aug-cc-pvtz aug-cc-pvtz/c tightscf
| 36> %pal nprocs 16 end
| 37> %maxcore 3800
| 38> %base "TZ_S66by10_26_2.0_dimer"
| 39>
| 40> *xyz 0 1
| 41> N    1.37690111    0.83974747    0.73462494
| 42> H    1.05181240    1.38622385    1.52335563
| 43> C    1.30898271    1.45752981   -0.52065500
| 44> O    0.92056136    2.61107777   -0.62597673
| 45> N    2.01142293   -1.21320830   -0.09807182
| 46> H    1.72728551    0.99084268   -2.61199556
| 47> C    2.02573687   -0.69717123   -1.36439740
| 48> H    2.29751698   -1.39106004   -2.14564531
| 49> C    1.71451235    0.59193780   -1.61248722
| 50> H    2.12945422   -2.20152091    0.05682913
| 51> C    1.64594503   -0.48520598    1.01871830
| 52> O    1.56111602   -0.97181638    2.12980905
| 53> N   -4.08589438   -1.30743959    0.73462494
| 54> H   -3.76080567   -1.85391597    1.52335563
| 55> C   -4.01797597   -1.92522193   -0.52065500
| 56> O   -3.62955462   -3.07876988   -0.62597673
| 57> N   -4.72041619    0.74551618   -0.09807182
| 58> H   -4.43627877   -1.45853480   -2.61199556
| 59> C   -4.73473013    0.22947911   -1.36439740
| 60> H   -5.00651024    0.92336792   -2.14564531
| 61> C   -4.42350561   -1.05962992   -1.61248722
| 62> H   -4.83844748    1.73382879    0.05682913
| 63> C   -4.35493829    0.01751386    1.01871830
| 64> O   -4.27010928    0.50412426    2.12980905
| 65> *
| 66>
| 67> $new_job
| 68> ! ri-mp2 aug-cc-pvqz aug-cc-pvqz/c tightscf
| 69> %pal nprocs 16 end
| 70> %maxcore 3800
| 71> %base "QZ_S66by10_26_2.0_dimer"
| 72>
| 73> *xyz 0 1
| 74> N    1.37690111    0.83974747    0.73462494
| 75> H    1.05181240    1.38622385    1.52335563
| 76> C    1.30898271    1.45752981   -0.52065500
| 77> O    0.92056136    2.61107777   -0.62597673
| 78> N    2.01142293   -1.21320830   -0.09807182
| 79> H    1.72728551    0.99084268   -2.61199556
| 80> C    2.02573687   -0.69717123   -1.36439740
| 81> H    2.29751698   -1.39106004   -2.14564531
| 82> C    1.71451235    0.59193780   -1.61248722
| 83> H    2.12945422   -2.20152091    0.05682913
| 84> C    1.64594503   -0.48520598    1.01871830
| 85> O    1.56111602   -0.97181638    2.12980905
| 86> N   -4.08589438   -1.30743959    0.73462494
| 87> H   -3.76080567   -1.85391597    1.52335563
| 88> C   -4.01797597   -1.92522193   -0.52065500
| 89> O   -3.62955462   -3.07876988   -0.62597673
| 90> N   -4.72041619    0.74551618   -0.09807182
| 91> H   -4.43627877   -1.45853480   -2.61199556
| 92> C   -4.73473013    0.22947911   -1.36439740
| 93> H   -5.00651024    0.92336792   -2.14564531
| 94> C   -4.42350561   -1.05962992   -1.61248722
| 95> H   -4.83844748    1.73382879    0.05682913
| 96> C   -4.35493829    0.01751386    1.01871830
| 97> O   -4.27010928    0.50412426    2.12980905
| 98> *
| 99>
|100>
|101>
|102>
|103>                          ****END OF INPUT****
 Total Charge           Charge          ....    0
 Multiplicity           Mult            ....    1
 Number of Electrons    NEL             ....  116
MP2 TOTAL ENERGY:     -827.556677842 Eh
FINAL SINGLE POINT ENERGY      -827.556677841628
MP2 TOTAL ENERGY:     -828.251643159 Eh
FINAL SINGLE POINT ENERGY      -828.251643158500

CARTESIAN COORDINATES (ANGSTROEM)
---------------------------------
  N      1.376901    0.839747    0.734625
  H      1.051812    1.386224    1.523356
  C      1.308983    1.457530   -0.520655
  O      0.920561    2.611078   -0.625977
  N      2.011423   -1.213208   -0.098072
  H      1.727286    0.990843   -2.611996
  C      2.025737   -0.697171   -1.364397
  H      2.297517   -1.391060   -2.145645
  C      1.714512    0.591938   -1.612487
  H      2.129454   -2.201521    0.056829
  C      1.645945   -0.485206    1.018718
  O      1.561116   -0.971816    2.129809
  N     -4.085894   -1.307440    0.734625
  H     -3.760806   -1.853916    1.523356
  C     -4.017976   -1.925222   -0.520655
  O     -3.629555   -3.078770   -0.625977
  N     -4.720416    0.745516   -0.098072
  H     -4.436279   -1.458535   -2.611996
  C     -4.734730    0.229479   -1.364397
  H     -5.006510    0.923368   -2.145645
  C     -4.423506   -1.059630   -1.612487
  H     -4.838447    1.733829    0.056829
  C     -4.354938    0.017514    1.018718
  O     -4.270109    0.504124    2.129809

 Multiplicity           Mult            ....    1
 Number of Electrons    NEL             ....  116
 Basis Dimension        Dim             .... 1648

ORBITAL ENERGIES
----------------

  NO   OCC          E(Eh)            E(eV)
   0   2.0000     -20.544383      -559.0411
   1   2.0000     -20.544383      -559.0411
   2   2.0000     -20.540260      -558.9289
   3   2.0000     -20.540260      -558.9289
   4   2.0000     -15.642545      -425.6553
   5   2.0000     -15.642545      -425.6553
   6   2.0000     -15.626332      -425.2141
   7   2.0000     -15.626332      -425.2141
   8   2.0000     -11.417641      -310.6898
   9   2.0000     -11.417641      -310.6898
  10   2.0000     -11.381167      -309.6973
  11   2.0000     -11.381167      -309.6973
  12   2.0000     -11.340439      -308.5890
  13   2.0000     -11.340439      -308.5890
  14   2.0000     -11.254974      -306.2634
  15   2.0000     -11.254974      -306.2634
  16   2.0000      -1.435633       -39.0656
  17   2.0000      -1.435630       -39.0655
  18   2.0000      -1.397179       -38.0192
  19   2.0000      -1.397178       -38.0192
  20   2.0000      -1.313753       -35.7490
  21   2.0000      -1.313753       -35.7490
  22   2.0000      -1.246118       -33.9086
  23   2.0000      -1.246116       -33.9086
  24   2.0000      -1.088725       -29.6257
  25   2.0000      -1.088722       -29.6256
  26   2.0000      -0.934547       -25.4303
  27   2.0000      -0.934546       -25.4303
  28   2.0000      -0.901384       -24.5279
  29   2.0000      -0.901383       -24.5279
  30   2.0000      -0.807298       -21.9677
  31   2.0000      -0.807296       -21.9676
  32   2.0000      -0.765876       -20.8405
  33   2.0000      -0.765875       -20.8405
  34   2.0000      -0.714921       -19.4540
  35   2.0000      -0.714918       -19.4539
  36   2.0000      -0.677983       -18.4489
  37   2.0000      -0.677977       -18.4487
  38   2.0000      -0.670252       -18.2385
  39   2.0000      -0.670009       -18.2319
  40   2.0000      -0.652478       -17.7548
  41   2.0000      -0.652464       -17.7545
  42   2.0000      -0.615188       -16.7401
  43   2.0000      -0.615187       -16.7401
  44   2.0000      -0.602698       -16.4002
  45   2.0000      -0.602693       -16.4001
  46   2.0000      -0.571733       -15.5576
  47   2.0000      -0.571598       -15.5540
  48   2.0000      -0.526277       -14.3207
  49   2.0000      -0.526086       -14.3155
  50   2.0000      -0.484033       -13.1712
  51   2.0000      -0.484023       -13.1709
  52   2.0000      -0.450739       -12.2652
  53   2.0000      -0.450723       -12.2648
  54   2.0000      -0.437778       -11.9126
  55   2.0000      -0.437775       -11.9125
  56   2.0000      -0.370074       -10.0702
  57   2.0000      -0.369765       -10.0618
  58   0.0000       0.012589         0.3426
  59   0.0000       0.016449         0.4476
  60   0.0000       0.029548         0.8040
  61   0.0000       0.031457         0.8560
  62   0.0000       0.038691         1.0528

MULLIKEN ATOMIC CHARGES
-----------------------
   0 N :   -0.641865
   1 H :    0.136740
   2 C :    1.124800
   3 O :   -0.810446
   4 N :   -0.574356
   5 H :    0.341301
   6 C :   -0.201454
   7 H :    0.436935
   8 C :   -0.457052
   9 H :    0.126985
  10 C :    1.276941
  11 O :   -0.758528
  12 N :   -0.641865
  13 H :    0.136737
  14 C :    1.124799
  15 O :   -0.810445
  16 N :   -0.574353
  17 H :    0.341304
  18 C :   -0.201462
  19 H :    0.436932
  20 C :   -0.457050
  21 H :    0.126986
  22 C :    1.276946
  23 O :   -0.758528
Sum of atomic charges:   -0.0000000

LOEWDIN ATOMIC CHARGES
----------------------
   0 N :    0.778102
   1 H :   -0.518074
   2 C :   -0.870649
   3 O :    0.678134
   4 N :    0.810371
   5 H :   -0.356386
   6 C :    0.234702
   7 H :   -0.297902
   8 C :    0.329497
   9 H :   -0.491463
  10 C :   -0.988021
  11 O :    0.691688
  12 N :    0.778102
  13 H :   -0.518074
  14 C :   -0.870649
  15 O :    0.678134
  16 N :    0.810371
  17 H :   -0.356386
  18 C :    0.234702
  19 H :   -0.297902
  20 C :    0.329497
  21 H :   -0.491463
  22 C :   -0.988021
  23 O :    0.691688

  Mayer bond orders larger than 0.100000
B(  0-N ,  1-H ) :   1.1294 B(  0-N ,  2-C ) :   0.9662 B(  0-N ,  3-O ) :   0.2004
B(  0-N , 10-C ) :   1.1265 B(  0-N , 11-O ) :   0.1891 B(  2-C ,  3-O ) :   1.1229
B(  2-C ,  6-C ) :  -0.1341 B(  2-C ,  8-C ) :   1.1658 B(  3-O ,  8-C ) :   0.2286
B(  4-N ,  6-C ) :   0.8843 B(  4-N ,  9-H ) :   1.1273 B(  4-N , 10-C ) :   1.1362
B(  4-N , 11-O ) :   0.1833 B(  5-H ,  8-C ) :   0.9386 B(  6-C ,  7-H ) :   0.8866
B(  6-C ,  8-C ) :   1.5260 B( 10-C , 11-O ) :   1.2278 B( 12-N , 13-H ) :   1.1295
B( 12-N , 14-C ) :   0.9662 B( 12-N , 15-O ) :   0.2004 B( 12-N , 22-C ) :   1.1265
B( 12-N , 23-O ) :   0.1891 B( 14-C , 15-O ) :   1.1229 B( 14-C , 18-C ) :  -0.1341
B( 14-C , 20-C ) :   1.1658 B( 15-O , 20-C ) :   0.2286 B( 16-N , 18-C ) :   0.8843
B( 16-N , 21-H ) :   1.1273 B( 16-N , 22-C ) :   1.1362 B( 16-N , 23-O ) :   0.1833
B( 17-H , 20-C ) :   0.9386 B( 18-C , 19-H ) :   0.8866 B( 18-C , 20-C ) :   1.5260
B( 22-C , 23-O ) :   1.2278

MP2 TOTAL ENERGY:     -828.481992506 Eh
FINAL SINGLE POINT ENERGY      -828.481992506114

DIPOLE MOMENT
-------------
                                X             Y             Z
Electronic contribution:      0.00000      -0.00000       3.62481
Nuclear contribution   :     -0.00000      -0.00000      -5.91054
                        -----------------------------------------
Total Dipole Moment    :      0.00000      -0.00000      -2.28572
                        -----------------------------------------
Magnitude (a.u.)       :      2.28572
Magnitude (Debye)      :      5.80985

Rotational constants in cm-1:     0.022493     0.007300     0.007084
Rotational constants in MHz :   674.319319   218.862763   212.366035

                             ****ORCA TERMINATED NORMALLY****
TOTAL RUN TIME: 0 days 7 hours 44 minutes 1 seconds 674 msec
