                         Program Version 5.0.4 -  RELEASE  -
|  1> ! ri-mp2 aug-cc-pvdz aug-cc-pvdz/c tightscf
|  2> %pal nprocs 16 end
|  3> %maxcore 3800
|  4> %base "DZ_S66by10_1_2.0_dimer"
|  5> %scf STABPerform true end
|  6>
|  7> *xyz 0 1
|  8> O   -0.70219605   -0.05606026    0.00994226
|  9> H   -1.02219322    0.84677578   -0.01148871
| 10> H    0.25752106    0.04212150    0.00521900
| 11> O    4.28034050    0.01055792   -0.00420317
| 12> H    4.65696212   -0.42782214    0.76192121
| 13> H    4.65260482   -0.46565505   -0.74960568
| 14> *
| 15>
| 16> $new_job
| 17> ! ri-mp2 aug-cc-pvtz aug-cc-pvtz/c tightscf
| 18> %pal nprocs 16 end
| 19> %maxcore 3800
| 20> %base "TZ_S66by10_1_2.0_dimer"
| 21>
| 22> *xyz 0 1
| 23> O   -0.70219605   -0.05606026    0.00994226
| 24> H   -1.02219322    0.84677578   -0.01148871
| 25> H    0.25752106    0.04212150    0.00521900
| 26> O    4.28034050    0.01055792   -0.00420317
| 27> H    4.65696212   -0.42782214    0.76192121
| 28> H    4.65260482   -0.46565505   -0.74960568
| 29> *
| 30>
| 31> $new_job
| 32> ! ri-mp2 aug-cc-pvqz aug-cc-pvqz/c tightscf
| 33> %pal nprocs 16 end
| 34> %maxcore 3800
| 35> %base "QZ_S66by10_1_2.0_dimer"
| 36>
| 37> *xyz 0 1
| 38> O   -0.70219605   -0.05606026    0.00994226
| 39> H   -1.02219322    0.84677578   -0.01148871
| 40> H    0.25752106    0.04212150    0.00521900
| 41> O    4.28034050    0.01055792   -0.00420317
| 42> H    4.65696212   -0.42782214    0.76192121
| 43> H    4.65260482   -0.46565505   -0.74960568
| 44> *
| 45>
| 46>
| 47>
| 48>
| 49>                          ****END OF INPUT****
 Total Charge           Charge          ....    0
 Multiplicity           Mult            ....    1
 Number of Electrons    NEL             ....   20
MP2 TOTAL ENERGY:     -152.523141088 Eh
FINAL SINGLE POINT ENERGY      -152.523141087845
MP2 TOTAL ENERGY:     -152.659340576 Eh
FINAL SINGLE POINT ENERGY      -152.659340576401

CARTESIAN COORDINATES (ANGSTROEM)
---------------------------------
  O     -0.702196   -0.056060    0.009942
  H     -1.022193    0.846776   -0.011489
  H      0.257521    0.042121    0.005219
  O      4.280340    0.010558   -0.004203
  H      4.656962   -0.427822    0.761921
  H      4.652605   -0.465655   -0.749606

 Multiplicity           Mult            ....    1
 Number of Electrons    NEL             ....   20
 Basis Dimension        Dim             ....  344

ORBITAL ENERGIES
----------------

  NO   OCC          E(Eh)            E(eV)
   0   2.0000     -20.571893      -559.7897
   1   2.0000     -20.558345      -559.4210
   2   2.0000      -1.358533       -36.9676
   3   2.0000      -1.343946       -36.5706
   4   2.0000      -0.721847       -19.6425
   5   2.0000      -0.706446       -19.2234
   6   2.0000      -0.592661       -16.1271
   7   2.0000      -0.578767       -15.7490
   8   2.0000      -0.517171       -14.0729
   9   2.0000      -0.503168       -13.6919
  10   0.0000       0.022300         0.6068
  11   0.0000       0.037445         1.0189
  12   0.0000       0.041334         1.1248
  13   0.0000       0.060943         1.6584
  14   0.0000       0.108138         2.9426

MULLIKEN ATOMIC CHARGES
-----------------------
   0 O :   -0.599550
   1 H :    0.294140
   2 H :    0.304733
   3 O :   -0.597720
   4 H :    0.299195
   5 H :    0.299201
Sum of atomic charges:   -0.0000000

LOEWDIN ATOMIC CHARGES
----------------------
   0 O :    1.594580
   1 H :   -0.805019
   2 H :   -0.790831
   3 O :    1.599755
   4 H :   -0.799252
   5 H :   -0.799234

  Mayer bond orders larger than 0.100000
B(  0-O ,  1-H ) :   0.9666 B(  0-O ,  2-H ) :   0.9579 B(  3-O ,  4-H ) :   0.9650
B(  3-O ,  5-H ) :   0.9650

MP2 TOTAL ENERGY:     -152.705185739 Eh
FINAL SINGLE POINT ENERGY      -152.705185739144

DIPOLE MOMENT
-------------
                                X             Y             Z
Electronic contribution:     -0.20662      -0.01771       0.00093
Nuclear contribution   :      1.15582       0.07194      -0.00452
                        -----------------------------------------
Total Dipole Moment    :      0.94920       0.05423      -0.00360
                        -----------------------------------------
Magnitude (a.u.)       :      0.95075
Magnitude (Debye)      :      2.41662

Rotational constants in cm-1:     7.354623     0.074397     0.074393
Rotational constants in MHz : 220486.054298  2230.356834  2230.235095

                             ****ORCA TERMINATED NORMALLY****
TOTAL RUN TIME: 0 days 0 hours 1 minutes 5 seconds 247 msec
