                         Program Version 5.0.4 -  RELEASE  -
|  1> ! ri-mp2 aug-cc-pvdz aug-cc-pvdz/c tightscf
|  2> %pal nprocs 16 end
|  3> %maxcore 3800
|  4> %base "DZ_S66by10_28_0.9_dimer"
|  5>
|  6> *xyz 0 1
|  7> C    0.82576911    1.23652484   -0.04025044
|  8> H    1.52101317    2.06312520   -0.08247145
|  9> C    1.30015992   -0.06294088    0.12725601
| 10> H    2.36365753   -0.24226113    0.20767420
| 11> C    0.40352312   -1.12855218    0.19824486
| 12> H    0.77375338   -2.13742677    0.32412109
| 13> C   -0.96780949   -0.89519049    0.10313994
| 14> H   -1.66520900   -1.71998342    0.16042745
| 15> C   -1.44350838    0.40448328   -0.06244130
| 16> H   -2.50751124    0.58550112   -0.12415016
| 17> C   -0.54575549    1.46876875   -0.13624741
| 18> H   -0.91422190    2.47742220   -0.26785516
| 19> N   -0.28752270    0.70712235    2.88489905
| 20> H   -0.66083010    1.60888378    2.62200608
| 21> C    1.10462398    0.63413545    3.01691239
| 22> O    1.79553430    1.62855914    2.87207832
| 23> C    1.58352409   -0.69994226    3.33502259
| 24> H    2.64057619   -0.85215820    3.46914372
| 25> C    0.70381487   -1.71432344    3.46123911
| 26> H    1.00974239   -2.72274404    3.69776347
| 27> N   -0.64143102   -1.52929152    3.29114697
| 28> H   -1.29017885   -2.29185046    3.39001614
| 29> C   -1.21587933   -0.30449049    2.99173235
| 30> O   -2.41366774   -0.15366721    2.84962016
| 31> *
| 32>
| 33> $new_job
| 34> ! ri-mp2 aug-cc-pvtz aug-cc-pvtz/c tightscf
| 35> %pal nprocs 16 end
| 36> %maxcore 3800
| 37> %base "TZ_S66by10_28_0.9_dimer"
| 38>
| 39> *xyz 0 1
| 40> C    0.82576911    1.23652484   -0.04025044
| 41> H    1.52101317    2.06312520   -0.08247145
| 42> C    1.30015992   -0.06294088    0.12725601
| 43> H    2.36365753   -0.24226113    0.20767420
| 44> C    0.40352312   -1.12855218    0.19824486
| 45> H    0.77375338   -2.13742677    0.32412109
| 46> C   -0.96780949   -0.89519049    0.10313994
| 47> H   -1.66520900   -1.71998342    0.16042745
| 48> C   -1.44350838    0.40448328   -0.06244130
| 49> H   -2.50751124    0.58550112   -0.12415016
| 50> C   -0.54575549    1.46876875   -0.13624741
| 51> H   -0.91422190    2.47742220   -0.26785516
| 52> N   -0.28752270    0.70712235    2.88489905
| 53> H   -0.66083010    1.60888378    2.62200608
| 54> C    1.10462398    0.63413545    3.01691239
| 55> O    1.79553430    1.62855914    2.87207832
| 56> C    1.58352409   -0.69994226    3.33502259
| 57> H    2.64057619   -0.85215820    3.46914372
| 58> C    0.70381487   -1.71432344    3.46123911
| 59> H    1.00974239   -2.72274404    3.69776347
| 60> N   -0.64143102   -1.52929152    3.29114697
| 61> H   -1.29017885   -2.29185046    3.39001614
| 62> C   -1.21587933   -0.30449049    2.99173235
| 63> O   -2.41366774   -0.15366721    2.84962016
| 64> *
| 65>
| 66> $new_job
| 67> ! ri-mp2 aug-cc-pvqz aug-cc-pvqz/c tightscf
| 68> %pal nprocs 16 end
| 69> %maxcore 3800
| 70> %base "QZ_S66by10_28_0.9_dimer"
| 71>
| 72> *xyz 0 1
| 73> C    0.82576911    1.23652484   -0.04025044
| 74> H    1.52101317    2.06312520   -0.08247145
| 75> C    1.30015992   -0.06294088    0.12725601
| 76> H    2.36365753   -0.24226113    0.20767420
| 77> C    0.40352312   -1.12855218    0.19824486
| 78> H    0.77375338   -2.13742677    0.32412109
| 79> C   -0.96780949   -0.89519049    0.10313994
| 80> H   -1.66520900   -1.71998342    0.16042745
| 81> C   -1.44350838    0.40448328   -0.06244130
| 82> H   -2.50751124    0.58550112   -0.12415016
| 83> C   -0.54575549    1.46876875   -0.13624741
| 84> H   -0.91422190    2.47742220   -0.26785516
| 85> N   -0.28752270    0.70712235    2.88489905
| 86> H   -0.66083010    1.60888378    2.62200608
| 87> C    1.10462398    0.63413545    3.01691239
| 88> O    1.79553430    1.62855914    2.87207832
| 89> C    1.58352409   -0.69994226    3.33502259
| 90> H    2.64057619   -0.85215820    3.46914372
| 91> C    0.70381487   -1.71432344    3.46123911
| 92> H    1.00974239   -2.72274404    3.69776347
| 93> N   -0.64143102   -1.52929152    3.29114697
| 94> H   -1.29017885   -2.29185046    3.39001614
| 95> C   -1.21587933   -0.30449049    2.99173235
| 96> O   -2.41366774   -0.15366721    2.84962016
| 97> *
| 98>
| 99>
|100>
|101>
|102>                          ****END OF INPUT****
 Total Charge           Charge          ....    0
 Multiplicity           Mult            ....    1
 Number of Electrons    NEL             ....  100
MP2 TOTAL ENERGY:     -645.334939239 Eh
FINAL SINGLE POINT ENERGY      -645.334939238720
MP2 TOTAL ENERGY:     -645.883870044 Eh
FINAL SINGLE POINT ENERGY      -645.883870043619

CARTESIAN COORDINATES (ANGSTROEM)
---------------------------------
  C      0.825769    1.236525   -0.040250
  H      1.521013    2.063125   -0.082471
  C      1.300160   -0.062941    0.127256
  H      2.363658   -0.242261    0.207674
  C      0.403523   -1.128552    0.198245
  H      0.773753   -2.137427    0.324121
  C     -0.967809   -0.895190    0.103140
  H     -1.665209   -1.719983    0.160427
  C     -1.443508    0.404483   -0.062441
  H     -2.507511    0.585501   -0.124150
  C     -0.545755    1.468769   -0.136247
  H     -0.914222    2.477422   -0.267855
  N     -0.287523    0.707122    2.884899
  H     -0.660830    1.608884    2.622006
  C      1.104624    0.634135    3.016912
  O      1.795534    1.628559    2.872078
  C      1.583524   -0.699942    3.335023
  H      2.640576   -0.852158    3.469144
  C      0.703815   -1.714323    3.461239
  H      1.009742   -2.722744    3.697763
  N     -0.641431   -1.529292    3.291147
  H     -1.290179   -2.291850    3.390016
  C     -1.215879   -0.304490    2.991732
  O     -2.413668   -0.153667    2.849620

 Multiplicity           Mult            ....    1
 Number of Electrons    NEL             ....  100
 Basis Dimension        Dim             .... 1580

ORBITAL ENERGIES
----------------

  NO   OCC          E(Eh)            E(eV)
   0   2.0000     -20.535344      -558.7951
   1   2.0000     -20.530229      -558.6559
   2   2.0000     -15.634185      -425.4278
   3   2.0000     -15.613378      -424.8616
   4   2.0000     -11.408994      -310.4545
   5   2.0000     -11.371567      -309.4361
   6   2.0000     -11.331104      -308.3350
   7   2.0000     -11.246887      -306.0434
   8   2.0000     -11.237621      -305.7912
   9   2.0000     -11.233497      -305.6790
  10   2.0000     -11.232628      -305.6553
  11   2.0000     -11.232190      -305.6434
  12   2.0000     -11.231479      -305.6241
  13   2.0000     -11.230717      -305.6033
  14   2.0000      -1.427488       -38.8439
  15   2.0000      -1.389790       -37.8181
  16   2.0000      -1.304965       -35.5099
  17   2.0000      -1.236864       -33.6568
  18   2.0000      -1.151365       -31.3302
  19   2.0000      -1.080517       -29.4024
  20   2.0000      -1.016138       -27.6505
  21   2.0000      -1.014980       -27.6190
  22   2.0000      -0.925394       -25.1813
  23   2.0000      -0.893315       -24.3083
  24   2.0000      -0.824945       -22.4479
  25   2.0000      -0.824094       -22.4247
  26   2.0000      -0.799519       -21.7560
  27   2.0000      -0.757204       -20.6046
  28   2.0000      -0.710544       -19.3349
  29   2.0000      -0.706388       -19.2218
  30   2.0000      -0.670822       -18.2540
  31   2.0000      -0.665243       -18.1022
  32   2.0000      -0.645834       -17.5740
  33   2.0000      -0.644091       -17.5266
  34   2.0000      -0.619156       -16.8481
  35   2.0000      -0.608123       -16.5479
  36   2.0000      -0.594716       -16.1830
  37   2.0000      -0.589119       -16.0308
  38   2.0000      -0.587777       -15.9942
  39   2.0000      -0.566486       -15.4149
  40   2.0000      -0.521551       -14.1921
  41   2.0000      -0.497169       -13.5287
  42   2.0000      -0.495090       -13.4721
  43   2.0000      -0.494333       -13.4515
  44   2.0000      -0.475165       -12.9299
  45   2.0000      -0.442100       -12.0302
  46   2.0000      -0.428875       -11.6703
  47   2.0000      -0.364326        -9.9138
  48   2.0000      -0.337989        -9.1971
  49   2.0000      -0.333369        -9.0714
  50   0.0000       0.012570         0.3420
  51   0.0000       0.028065         0.7637
  52   0.0000       0.031185         0.8486
  53   0.0000       0.032432         0.8825
  54   0.0000       0.039989         1.0882

MULLIKEN ATOMIC CHARGES
-----------------------
   0 C :   -0.356857
   1 H :    0.308154
   2 C :   -0.182743
   3 H :    0.252751
   4 C :   -0.272386
   5 H :    0.298396
   6 C :   -0.197500
   7 H :    0.247825
   8 C :   -0.378496
   9 H :    0.278399
  10 C :   -0.276967
  11 H :    0.271069
  12 N :   -0.726168
  13 H :    0.116600
  14 C :    1.521443
  15 O :   -0.994235
  16 C :   -0.463024
  17 H :    0.226057
  18 C :   -0.234407
  19 H :    0.370835
  20 N :   -0.696972
  21 H :    0.064359
  22 C :    1.791143
  23 O :   -0.967278
Sum of atomic charges:   -0.0000000

LOEWDIN ATOMIC CHARGES
----------------------
   0 C :    0.309940
   1 H :   -0.311409
   2 C :    0.300119
   3 H :   -0.308659
   4 C :    0.308195
   5 H :   -0.312516
   6 C :    0.298223
   7 H :   -0.311545
   8 C :    0.310139
   9 H :   -0.311156
  10 C :    0.329337
  11 H :   -0.313087
  12 N :    0.777589
  13 H :   -0.525670
  14 C :   -0.902281
  15 O :    0.715442
  16 C :    0.324450
  17 H :   -0.341387
  18 C :    0.227686
  19 H :   -0.290566
  20 N :    0.817695
  21 H :   -0.483087
  22 C :   -1.030738
  23 O :    0.723285

  Mayer bond orders larger than 0.100000
B(  0-C ,  1-H ) :   1.0548 B(  0-C ,  2-C ) :   1.1932 B(  0-C ,  6-C ) :   0.1621
B(  0-C , 10-C ) :   1.2343 B(  2-C ,  3-H ) :   1.1037 B(  2-C ,  4-C ) :   1.1107
B(  2-C ,  8-C ) :   0.1608 B(  3-H ,  4-C ) :  -0.1020 B(  4-C ,  5-H ) :   1.0082
B(  4-C ,  6-C ) :   1.1354 B(  4-C ,  7-H ) :  -0.1018 B(  4-C , 10-C ) :   0.1745
B(  6-C ,  7-H ) :   1.1215 B(  6-C ,  8-C ) :   1.1710 B(  8-C ,  9-H ) :   1.0977
B(  8-C , 10-C ) :   1.2271 B( 10-C , 11-H ) :   1.0939 B( 12-N , 13-H ) :   1.1567
B( 12-N , 14-C ) :   1.0085 B( 12-N , 15-O ) :   0.2309 B( 12-N , 22-C ) :   1.0326
B( 12-N , 23-O ) :   0.2645 B( 14-C , 15-O ) :   0.7453 B( 14-C , 16-C ) :   1.0000
B( 15-O , 16-C ) :   0.2273 B( 16-C , 17-H ) :   1.0614 B( 16-C , 18-C ) :   1.5943
B( 16-C , 19-H ) :  -0.1031 B( 18-C , 19-H ) :   1.0060 B( 18-C , 20-N ) :   0.9166
B( 20-N , 21-H ) :   1.2051 B( 20-N , 22-C ) :   0.9661 B( 20-N , 23-O ) :   0.2353
B( 22-C , 23-O ) :   0.7015

MP2 TOTAL ENERGY:     -646.062274543 Eh
FINAL SINGLE POINT ENERGY      -646.062274543475

DIPOLE MOMENT
-------------
                                X             Y             Z
Electronic contribution:     -0.99204       1.05731       4.82861
Nuclear contribution   :      1.20867      -2.81990      -4.53413
                        -----------------------------------------
Total Dipole Moment    :      0.21663      -1.76260       0.29448
                        -----------------------------------------
Magnitude (a.u.)       :      1.80011
Magnitude (Debye)      :      4.57551

Rotational constants in cm-1:     0.032132     0.025909     0.020974
Rotational constants in MHz :   963.281624   776.718100   628.776890

                             ****ORCA TERMINATED NORMALLY****
TOTAL RUN TIME: 0 days 2 hours 51 minutes 55 seconds 541 msec
