                         Program Version 5.0.4 -  RELEASE  -
|  1> ! ri-mp2 aug-cc-pvdz aug-cc-pvdz/c tightscf
|  2> %pal nprocs 16 end
|  3> %maxcore 3800
|  4> %base "DZ_S66by10_56_0.9_dimer"
|  5>
|  6> *xyz 0 1
|  7> C    0.69231523    1.08829204    0.32484124
|  8> H    1.28194880    1.99194678    0.25251578
|  9> C    1.31818722   -0.15687008    0.28689607
| 10> H    2.39314337   -0.21947636    0.18840681
| 11> C    0.55801841   -1.32195045    0.38139986
| 12> H    1.04391922   -2.28757380    0.35761542
| 13> C   -0.82755236   -1.24142187    0.51168501
| 14> H   -1.41670095   -2.14525152    0.58533927
| 15> C   -1.45341138    0.00367145    0.54838107
| 16> H   -2.52823255    0.06570272    0.64984254
| 17> C   -0.69346094    1.16840108    0.45622907
| 18> H   -1.17873534    2.13440989    0.48572685
| 19> N    0.30218457   -0.19761993    3.58268406
| 20> H    0.43680293   -0.15357942    2.57961271
| 21> H    0.44367714    0.74752681    3.91515634
| 22> C   -1.07391491   -0.60400334    3.86011986
| 23> H   -1.23179147   -0.63255034    4.93667539
| 24> H   -1.84521709    0.03637745    3.42000086
| 25> H   -1.22860689   -1.61357114    3.48449815
| 26> *
| 27>
| 28> $new_job
| 29> ! ri-mp2 aug-cc-pvtz aug-cc-pvtz/c tightscf
| 30> %pal nprocs 16 end
| 31> %maxcore 3800
| 32> %base "TZ_S66by10_56_0.9_dimer"
| 33>
| 34> *xyz 0 1
| 35> C    0.69231523    1.08829204    0.32484124
| 36> H    1.28194880    1.99194678    0.25251578
| 37> C    1.31818722   -0.15687008    0.28689607
| 38> H    2.39314337   -0.21947636    0.18840681
| 39> C    0.55801841   -1.32195045    0.38139986
| 40> H    1.04391922   -2.28757380    0.35761542
| 41> C   -0.82755236   -1.24142187    0.51168501
| 42> H   -1.41670095   -2.14525152    0.58533927
| 43> C   -1.45341138    0.00367145    0.54838107
| 44> H   -2.52823255    0.06570272    0.64984254
| 45> C   -0.69346094    1.16840108    0.45622907
| 46> H   -1.17873534    2.13440989    0.48572685
| 47> N    0.30218457   -0.19761993    3.58268406
| 48> H    0.43680293   -0.15357942    2.57961271
| 49> H    0.44367714    0.74752681    3.91515634
| 50> C   -1.07391491   -0.60400334    3.86011986
| 51> H   -1.23179147   -0.63255034    4.93667539
| 52> H   -1.84521709    0.03637745    3.42000086
| 53> H   -1.22860689   -1.61357114    3.48449815
| 54> *
| 55>
| 56> $new_job
| 57> ! ri-mp2 aug-cc-pvqz aug-cc-pvqz/c tightscf
| 58> %pal nprocs 16 end
| 59> %maxcore 3800
| 60> %base "QZ_S66by10_56_0.9_dimer"
| 61>
| 62> *xyz 0 1
| 63> C    0.69231523    1.08829204    0.32484124
| 64> H    1.28194880    1.99194678    0.25251578
| 65> C    1.31818722   -0.15687008    0.28689607
| 66> H    2.39314337   -0.21947636    0.18840681
| 67> C    0.55801841   -1.32195045    0.38139986
| 68> H    1.04391922   -2.28757380    0.35761542
| 69> C   -0.82755236   -1.24142187    0.51168501
| 70> H   -1.41670095   -2.14525152    0.58533927
| 71> C   -1.45341138    0.00367145    0.54838107
| 72> H   -2.52823255    0.06570272    0.64984254
| 73> C   -0.69346094    1.16840108    0.45622907
| 74> H   -1.17873534    2.13440989    0.48572685
| 75> N    0.30218457   -0.19761993    3.58268406
| 76> H    0.43680293   -0.15357942    2.57961271
| 77> H    0.44367714    0.74752681    3.91515634
| 78> C   -1.07391491   -0.60400334    3.86011986
| 79> H   -1.23179147   -0.63255034    4.93667539
| 80> H   -1.84521709    0.03637745    3.42000086
| 81> H   -1.22860689   -1.61357114    3.48449815
| 82> *
| 83>
| 84>
| 85>
| 86>
| 87>                          ****END OF INPUT****
 Total Charge           Charge          ....    0
 Multiplicity           Mult            ....    1
 Number of Electrons    NEL             ....   60
MP2 TOTAL ENERGY:     -327.120867697 Eh
FINAL SINGLE POINT ENERGY      -327.120867697430
MP2 TOTAL ENERGY:     -327.418930057 Eh
FINAL SINGLE POINT ENERGY      -327.418930056907

CARTESIAN COORDINATES (ANGSTROEM)
---------------------------------
  C      0.692315    1.088292    0.324841
  H      1.281949    1.991947    0.252516
  C      1.318187   -0.156870    0.286896
  H      2.393143   -0.219476    0.188407
  C      0.558018   -1.321950    0.381400
  H      1.043919   -2.287574    0.357615
  C     -0.827552   -1.241422    0.511685
  H     -1.416701   -2.145252    0.585339
  C     -1.453411    0.003671    0.548381
  H     -2.528233    0.065703    0.649843
  C     -0.693461    1.168401    0.456229
  H     -1.178735    2.134410    0.485727
  N      0.302185   -0.197620    3.582684
  H      0.436803   -0.153579    2.579613
  H      0.443677    0.747527    3.915156
  C     -1.073915   -0.604003    3.860120
  H     -1.231791   -0.632550    4.936675
  H     -1.845217    0.036377    3.420001
  H     -1.228607   -1.613571    3.484498

 Multiplicity           Mult            ....    1
 Number of Electrons    NEL             ....   60
 Basis Dimension        Dim             .... 1146

ORBITAL ENERGIES
----------------

  NO   OCC          E(Eh)            E(eV)
   0   2.0000     -15.518872      -422.2900
   1   2.0000     -11.241838      -305.9060
   2   2.0000     -11.241083      -305.8854
   3   2.0000     -11.240890      -305.8802
   4   2.0000     -11.239975      -305.8553
   5   2.0000     -11.239587      -305.8447
   6   2.0000     -11.238977      -305.8281
   7   2.0000     -11.226445      -305.4871
   8   2.0000      -1.162155       -31.6238
   9   2.0000      -1.151223       -31.3264
  10   2.0000      -1.022008       -27.8103
  11   2.0000      -1.021772       -27.8038
  12   2.0000      -0.882507       -24.0142
  13   2.0000      -0.830757       -22.6061
  14   2.0000      -0.830623       -22.6024
  15   2.0000      -0.716773       -19.5044
  16   2.0000      -0.650621       -17.7043
  17   2.0000      -0.649567       -17.6756
  18   2.0000      -0.625753       -17.0276
  19   2.0000      -0.596104       -16.2208
  20   2.0000      -0.594923       -16.1887
  21   2.0000      -0.592009       -16.1094
  22   2.0000      -0.542102       -14.7514
  23   2.0000      -0.511433       -13.9168
  24   2.0000      -0.501467       -13.6456
  25   2.0000      -0.501320       -13.6416
  26   2.0000      -0.496631       -13.5140
  27   2.0000      -0.378781       -10.3072
  28   2.0000      -0.344693        -9.3796
  29   2.0000      -0.344159        -9.3650
  30   0.0000       0.023723         0.6455
  31   0.0000       0.028824         0.7844
  32   0.0000       0.030002         0.8164
  33   0.0000       0.037851         1.0300
  34   0.0000       0.041428         1.1273

MULLIKEN ATOMIC CHARGES
-----------------------
   0 C :   -0.281434
   1 H :    0.304168
   2 C :   -0.332052
   3 H :    0.285262
   4 C :   -0.288163
   5 H :    0.277347
   6 C :   -0.355790
   7 H :    0.309517
   8 C :   -0.234100
   9 H :    0.294359
  10 C :   -0.364868
  11 H :    0.279751
  12 N :   -0.759256
  13 H :    0.507515
  14 H :    0.239506
  15 C :   -0.852955
  16 H :    0.425523
  17 H :    0.266063
  18 H :    0.279607
Sum of atomic charges:   -0.0000000

LOEWDIN ATOMIC CHARGES
----------------------
   0 C :    0.335449
   1 H :   -0.316509
   2 C :    0.333074
   3 H :   -0.313228
   4 C :    0.334597
   5 H :   -0.310774
   6 C :    0.321724
   7 H :   -0.311994
   8 C :    0.315836
   9 H :   -0.313745
  10 C :    0.336017
  11 H :   -0.316294
  12 N :    1.276154
  13 H :   -0.682876
  14 H :   -0.506299
  15 C :    0.740899
  16 H :   -0.306037
  17 H :   -0.300641
  18 H :   -0.315354

  Mayer bond orders larger than 0.100000
B(  0-C ,  1-H ) :   1.0642 B(  0-C ,  2-C ) :   1.1479 B(  0-C ,  6-C ) :   0.1410
B(  0-C , 10-C ) :   1.2348 B(  2-C ,  3-H ) :   1.0844 B(  2-C ,  4-C ) :   1.2361
B(  2-C ,  8-C ) :   0.1300 B(  4-C ,  5-H ) :   1.0854 B(  4-C ,  6-C ) :   1.2470
B(  4-C , 10-C ) :   0.1885 B(  6-C ,  7-H ) :   1.0443 B(  6-C ,  8-C ) :   1.1673
B(  8-C ,  9-H ) :   1.0550 B(  8-C , 10-C ) :   1.2339 B( 10-C , 11-H ) :   1.0800
B( 12-N , 13-H ) :   0.7282 B( 12-N , 14-H ) :   0.9418 B( 12-N , 15-C ) :   1.0013
B( 15-C , 16-H ) :   0.8138 B( 15-C , 17-H ) :   0.9196 B( 15-C , 18-H ) :   0.9311

MP2 TOTAL ENERGY:     -327.511809671 Eh
FINAL SINGLE POINT ENERGY      -327.511809670708

DIPOLE MOMENT
-------------
                                X             Y             Z
Electronic contribution:      1.61814       0.63122      -6.02209
Nuclear contribution   :     -1.94550      -0.28049       5.61545
                        -----------------------------------------
Total Dipole Moment    :     -0.32736       0.35073      -0.40664
                        -----------------------------------------
Magnitude (a.u.)       :      0.62892
Magnitude (Debye)      :      1.59858

Rotational constants in cm-1:     0.089014     0.048540     0.047390
Rotational constants in MHz :  2668.584684  1455.177813  1420.731042

                             ****ORCA TERMINATED NORMALLY****
TOTAL RUN TIME: 0 days 0 hours 37 minutes 56 seconds 445 msec
