                         Program Version 5.0.4 -  RELEASE  -
|  1> ! ri-mp2 aug-cc-pvdz aug-cc-pvdz/c tightscf
|  2> %pal nprocs 16 end
|  3> %maxcore 3800
|  4> %base "DZ_S66by10_29_1.05_dimer"
|  5>
|  6> *xyz 0 1
|  7> N    1.21075533    0.02867578    0.32971111
|  8> C    0.61193497   -1.15844901    0.15345176
|  9> H    1.25147791   -2.02952340    0.21929295
| 10> C   -0.75131399   -1.30864956   -0.08883407
| 11> H   -1.17041577   -2.29686932   -0.21338320
| 12> C   -1.54786767   -0.16994027   -0.15646691
| 13> H   -2.61101275   -0.24595469   -0.33875574
| 14> C   -0.94362237    1.07063612    0.01982310
| 15> H   -1.51881431    1.98450028   -0.01164403
| 16> C    0.42771857    1.11610863    0.25734879
| 17> H    0.92469451    2.06805173    0.39754798
| 18> N   -0.69945361   -0.27609536    3.45125140
| 19> H   -1.59434263   -0.70795886    3.26664791
| 20> C   -0.69919872    1.12171443    3.54426240
| 21> O   -1.73908180    1.74991423    3.42941227
| 22> C    0.62029603    1.68079577    3.77182547
| 23> H    0.72161240    2.74801794    3.86769365
| 24> C    1.69016962    0.86210347    3.84334552
| 25> H    2.69404866    1.23076817    3.99177206
| 26> N    1.57210848   -0.49518979    3.73079086
| 27> H    2.38554448   -1.08737714    3.72262322
| 28> C    0.37166154   -1.14242222    3.50440916
| 29> O    0.27952430   -2.34784030    3.37082988
| 30> *
| 31>
| 32> $new_job
| 33> ! ri-mp2 aug-cc-pvtz aug-cc-pvtz/c tightscf
| 34> %pal nprocs 16 end
| 35> %maxcore 3800
| 36> %base "TZ_S66by10_29_1.05_dimer"
| 37>
| 38> *xyz 0 1
| 39> N    1.21075533    0.02867578    0.32971111
| 40> C    0.61193497   -1.15844901    0.15345176
| 41> H    1.25147791   -2.02952340    0.21929295
| 42> C   -0.75131399   -1.30864956   -0.08883407
| 43> H   -1.17041577   -2.29686932   -0.21338320
| 44> C   -1.54786767   -0.16994027   -0.15646691
| 45> H   -2.61101275   -0.24595469   -0.33875574
| 46> C   -0.94362237    1.07063612    0.01982310
| 47> H   -1.51881431    1.98450028   -0.01164403
| 48> C    0.42771857    1.11610863    0.25734879
| 49> H    0.92469451    2.06805173    0.39754798
| 50> N   -0.69945361   -0.27609536    3.45125140
| 51> H   -1.59434263   -0.70795886    3.26664791
| 52> C   -0.69919872    1.12171443    3.54426240
| 53> O   -1.73908180    1.74991423    3.42941227
| 54> C    0.62029603    1.68079577    3.77182547
| 55> H    0.72161240    2.74801794    3.86769365
| 56> C    1.69016962    0.86210347    3.84334552
| 57> H    2.69404866    1.23076817    3.99177206
| 58> N    1.57210848   -0.49518979    3.73079086
| 59> H    2.38554448   -1.08737714    3.72262322
| 60> C    0.37166154   -1.14242222    3.50440916
| 61> O    0.27952430   -2.34784030    3.37082988
| 62> *
| 63>
| 64> $new_job
| 65> ! ri-mp2 aug-cc-pvqz aug-cc-pvqz/c tightscf
| 66> %pal nprocs 16 end
| 67> %maxcore 3800
| 68> %base "QZ_S66by10_29_1.05_dimer"
| 69>
| 70> *xyz 0 1
| 71> N    1.21075533    0.02867578    0.32971111
| 72> C    0.61193497   -1.15844901    0.15345176
| 73> H    1.25147791   -2.02952340    0.21929295
| 74> C   -0.75131399   -1.30864956   -0.08883407
| 75> H   -1.17041577   -2.29686932   -0.21338320
| 76> C   -1.54786767   -0.16994027   -0.15646691
| 77> H   -2.61101275   -0.24595469   -0.33875574
| 78> C   -0.94362237    1.07063612    0.01982310
| 79> H   -1.51881431    1.98450028   -0.01164403
| 80> C    0.42771857    1.11610863    0.25734879
| 81> H    0.92469451    2.06805173    0.39754798
| 82> N   -0.69945361   -0.27609536    3.45125140
| 83> H   -1.59434263   -0.70795886    3.26664791
| 84> C   -0.69919872    1.12171443    3.54426240
| 85> O   -1.73908180    1.74991423    3.42941227
| 86> C    0.62029603    1.68079577    3.77182547
| 87> H    0.72161240    2.74801794    3.86769365
| 88> C    1.69016962    0.86210347    3.84334552
| 89> H    2.69404866    1.23076817    3.99177206
| 90> N    1.57210848   -0.49518979    3.73079086
| 91> H    2.38554448   -1.08737714    3.72262322
| 92> C    0.37166154   -1.14242222    3.50440916
| 93> O    0.27952430   -2.34784030    3.37082988
| 94> *
| 95>
| 96>
| 97>
| 98>
| 99>                          ****END OF INPUT****
 Total Charge           Charge          ....    0
 Multiplicity           Mult            ....    1
 Number of Electrons    NEL             ....  100
MP2 TOTAL ENERGY:     -661.358338403 Eh
FINAL SINGLE POINT ENERGY      -661.358338402562
MP2 TOTAL ENERGY:     -661.917613061 Eh
FINAL SINGLE POINT ENERGY      -661.917613060961

CARTESIAN COORDINATES (ANGSTROEM)
---------------------------------
  N      1.210755    0.028676    0.329711
  C      0.611935   -1.158449    0.153452
  H      1.251478   -2.029523    0.219293
  C     -0.751314   -1.308650   -0.088834
  H     -1.170416   -2.296869   -0.213383
  C     -1.547868   -0.169940   -0.156467
  H     -2.611013   -0.245955   -0.338756
  C     -0.943622    1.070636    0.019823
  H     -1.518814    1.984500   -0.011644
  C      0.427719    1.116109    0.257349
  H      0.924695    2.068052    0.397548
  N     -0.699454   -0.276095    3.451251
  H     -1.594343   -0.707959    3.266648
  C     -0.699199    1.121714    3.544262
  O     -1.739082    1.749914    3.429412
  C      0.620296    1.680796    3.771825
  H      0.721612    2.748018    3.867694
  C      1.690170    0.862103    3.843346
  H      2.694049    1.230768    3.991772
  N      1.572108   -0.495190    3.730791
  H      2.385544   -1.087377    3.722623
  C      0.371662   -1.142422    3.504409
  O      0.279524   -2.347840    3.370830

 Multiplicity           Mult            ....    1
 Number of Electrons    NEL             ....  100
 Basis Dimension        Dim             .... 1534

ORBITAL ENERGIES
----------------

  NO   OCC          E(Eh)            E(eV)
   0   2.0000     -20.538548      -558.8823
   1   2.0000     -20.533360      -558.7411
   2   2.0000     -15.634507      -425.4366
   3   2.0000     -15.618727      -425.0072
   4   2.0000     -15.568130      -423.6304
   5   2.0000     -11.411374      -310.5193
   6   2.0000     -11.374075      -309.5043
   7   2.0000     -11.332728      -308.3792
   8   2.0000     -11.274993      -306.8082
   9   2.0000     -11.274528      -306.7955
  10   2.0000     -11.258645      -306.3633
  11   2.0000     -11.246611      -306.0358
  12   2.0000     -11.240757      -305.8765
  13   2.0000     -11.239947      -305.8545
  14   2.0000      -1.429554       -38.9001
  15   2.0000      -1.391603       -37.8674
  16   2.0000      -1.306663       -35.5561
  17   2.0000      -1.258117       -34.2351
  18   2.0000      -1.239202       -33.7204
  19   2.0000      -1.089710       -29.6525
  20   2.0000      -1.081316       -29.4241
  21   2.0000      -1.033879       -28.1333
  22   2.0000      -0.927191       -25.2302
  23   2.0000      -0.895378       -24.3645
  24   2.0000      -0.859481       -23.3877
  25   2.0000      -0.856158       -23.2973
  26   2.0000      -0.800543       -21.7839
  27   2.0000      -0.758989       -20.6531
  28   2.0000      -0.722401       -19.6575
  29   2.0000      -0.707829       -19.2610
  30   2.0000      -0.672045       -18.2873
  31   2.0000      -0.664475       -18.0813
  32   2.0000      -0.660827       -17.9820
  33   2.0000      -0.653467       -17.7817
  34   2.0000      -0.647213       -17.6115
  35   2.0000      -0.608985       -16.5713
  36   2.0000      -0.598395       -16.2831
  37   2.0000      -0.595732       -16.2107
  38   2.0000      -0.577726       -15.7207
  39   2.0000      -0.566341       -15.4109
  40   2.0000      -0.541579       -14.7371
  41   2.0000      -0.521060       -14.1788
  42   2.0000      -0.518255       -14.1024
  43   2.0000      -0.478514       -13.0210
  44   2.0000      -0.444511       -12.0958
  45   2.0000      -0.432233       -11.7617
  46   2.0000      -0.423173       -11.5151
  47   2.0000      -0.385878       -10.5003
  48   2.0000      -0.362749        -9.8709
  49   2.0000      -0.346953        -9.4411
  50   0.0000       0.016995         0.4624
  51   0.0000       0.027997         0.7618
  52   0.0000       0.029573         0.8047
  53   0.0000       0.035852         0.9756
  54   0.0000       0.038818         1.0563

MULLIKEN ATOMIC CHARGES
-----------------------
   0 N :   -0.843811
   1 C :   -0.103380
   2 H :    0.500507
   3 C :   -0.210497
   4 H :    0.274563
   5 C :   -0.391780
   6 H :    0.358962
   7 C :   -0.314595
   8 H :    0.359965
   9 C :   -0.059235
  10 H :    0.455228
  11 N :   -0.758304
  12 H :    0.091092
  13 C :    1.334535
  14 O :   -0.925688
  15 C :   -0.458731
  16 H :    0.233931
  17 C :   -0.051196
  18 H :    0.413848
  19 N :   -0.718245
  20 H :    0.093700
  21 C :    1.611058
  22 O :   -0.891926
Sum of atomic charges:   -0.0000000

LOEWDIN ATOMIC CHARGES
----------------------
   0 N :    0.592453
   1 C :    0.048259
   2 H :   -0.348399
   3 C :    0.325606
   4 H :   -0.322884
   5 C :    0.329982
   6 H :   -0.308548
   7 C :    0.319465
   8 H :   -0.320553
   9 C :    0.047916
  10 H :   -0.349296
  11 N :    0.776792
  12 H :   -0.517530
  13 C :   -0.891064
  14 O :    0.693104
  15 C :    0.321784
  16 H :   -0.349422
  17 C :    0.229880
  18 H :   -0.291676
  19 N :    0.814490
  20 H :   -0.486278
  21 C :   -1.017773
  22 O :    0.703690

  Mayer bond orders larger than 0.100000
B(  0-N ,  1-C ) :   1.1513 B(  0-N ,  2-H ) :  -0.1631 B(  0-N ,  7-C ) :   0.1012
B(  0-N ,  9-C ) :   1.0697 B(  0-N , 10-H ) :  -0.1543 B(  1-C ,  2-H ) :   0.8629
B(  1-C ,  3-C ) :   1.1308 B(  3-C ,  4-H ) :   1.0524 B(  3-C ,  5-C ) :   1.2631
B(  5-C ,  6-H ) :   0.9631 B(  5-C ,  7-C ) :   1.2194 B(  7-C ,  8-H ) :   0.9815
B(  7-C ,  9-C ) :   1.1490 B(  9-C , 10-H ) :   0.8828 B( 11-N , 12-H ) :   1.2006
B( 11-N , 13-C ) :   0.9451 B( 11-N , 14-O ) :   0.2258 B( 11-N , 21-C ) :   1.0417
B( 11-N , 22-O ) :   0.2159 B( 13-C , 14-O ) :   0.8143 B( 13-C , 15-C ) :   1.1127
B( 14-O , 15-C ) :   0.2286 B( 15-C , 16-H ) :   1.0646 B( 15-C , 17-C ) :   1.4983
B( 17-C , 18-H ) :   0.9357 B( 17-C , 19-N ) :   0.8966 B( 19-N , 20-H ) :   1.1845
B( 19-N , 21-C ) :   1.0497 B( 19-N , 22-O ) :   0.2117 B( 21-C , 22-O ) :   0.8949

MP2 TOTAL ENERGY:     -662.100188835 Eh
FINAL SINGLE POINT ENERGY      -662.100188834956

DIPOLE MOMENT
-------------
                                X             Y             Z
Electronic contribution:      0.17955      -1.00871       3.99003
Nuclear contribution   :      0.81581       1.25504      -3.96741
                        -----------------------------------------
Total Dipole Moment    :      0.99536       0.24633       0.02262
                        -----------------------------------------
Magnitude (a.u.)       :      1.02564
Magnitude (Debye)      :      2.60697

Rotational constants in cm-1:     0.032016     0.021467     0.018191
Rotational constants in MHz :   959.822361   643.576942   545.364877

                             ****ORCA TERMINATED NORMALLY****
TOTAL RUN TIME: 0 days 1 hours 51 minutes 41 seconds 342 msec
