                         Program Version 5.0.4 -  RELEASE  -
|  1> ! ri-mp2 aug-cc-pvdz aug-cc-pvdz/c tightscf
|  2> %pal nprocs 16 end
|  3> %maxcore 3800
|  4> %base "DZ_S66by10_66_1.05_dimer"
|  5>
|  6> *xyz 0 1
|  7> N   -0.54105920    0.02957620   -0.20899508
|  8> H    0.05555335   -0.78611810   -0.13029335
|  9> H   -1.46966940   -0.27470845    0.05314338
| 10> C   -0.07879927    1.04239036    0.73845886
| 11> H   -0.72015294    1.91941377    0.67198026
| 12> H   -0.05075819    0.72382293    1.78551453
| 13> H    0.92643072    1.35660379    0.46199919
| 14> N    2.47389315   -1.28398390    0.03941943
| 15> C    2.81232946   -0.47163983   -0.97229305
| 16> H    2.26966225   -0.61617782   -1.89767441
| 17> C    3.78365873    0.52049396   -0.87192605
| 18> H    4.00851117    1.14483425   -1.72477674
| 19> C    4.44449879    0.69003540    0.34033839
| 20> H    5.20235274    1.45227273    0.45672252
| 21> C    4.10436588   -0.14492713    1.39946134
| 22> H    4.58695429   -0.05446489    2.36216200
| 23> C    3.12058432   -1.10971613    1.20027796
| 24> H    2.83449999   -1.77346374    2.00688862
| 25> *
| 26>
| 27> $new_job
| 28> ! ri-mp2 aug-cc-pvtz aug-cc-pvtz/c tightscf
| 29> %pal nprocs 16 end
| 30> %maxcore 3800
| 31> %base "TZ_S66by10_66_1.05_dimer"
| 32>
| 33> *xyz 0 1
| 34> N   -0.54105920    0.02957620   -0.20899508
| 35> H    0.05555335   -0.78611810   -0.13029335
| 36> H   -1.46966940   -0.27470845    0.05314338
| 37> C   -0.07879927    1.04239036    0.73845886
| 38> H   -0.72015294    1.91941377    0.67198026
| 39> H   -0.05075819    0.72382293    1.78551453
| 40> H    0.92643072    1.35660379    0.46199919
| 41> N    2.47389315   -1.28398390    0.03941943
| 42> C    2.81232946   -0.47163983   -0.97229305
| 43> H    2.26966225   -0.61617782   -1.89767441
| 44> C    3.78365873    0.52049396   -0.87192605
| 45> H    4.00851117    1.14483425   -1.72477674
| 46> C    4.44449879    0.69003540    0.34033839
| 47> H    5.20235274    1.45227273    0.45672252
| 48> C    4.10436588   -0.14492713    1.39946134
| 49> H    4.58695429   -0.05446489    2.36216200
| 50> C    3.12058432   -1.10971613    1.20027796
| 51> H    2.83449999   -1.77346374    2.00688862
| 52> *
| 53>
| 54> $new_job
| 55> ! ri-mp2 aug-cc-pvqz aug-cc-pvqz/c tightscf
| 56> %pal nprocs 16 end
| 57> %maxcore 3800
| 58> %base "QZ_S66by10_66_1.05_dimer"
| 59>
| 60> *xyz 0 1
| 61> N   -0.54105920    0.02957620   -0.20899508
| 62> H    0.05555335   -0.78611810   -0.13029335
| 63> H   -1.46966940   -0.27470845    0.05314338
| 64> C   -0.07879927    1.04239036    0.73845886
| 65> H   -0.72015294    1.91941377    0.67198026
| 66> H   -0.05075819    0.72382293    1.78551453
| 67> H    0.92643072    1.35660379    0.46199919
| 68> N    2.47389315   -1.28398390    0.03941943
| 69> C    2.81232946   -0.47163983   -0.97229305
| 70> H    2.26966225   -0.61617782   -1.89767441
| 71> C    3.78365873    0.52049396   -0.87192605
| 72> H    4.00851117    1.14483425   -1.72477674
| 73> C    4.44449879    0.69003540    0.34033839
| 74> H    5.20235274    1.45227273    0.45672252
| 75> C    4.10436588   -0.14492713    1.39946134
| 76> H    4.58695429   -0.05446489    2.36216200
| 77> C    3.12058432   -1.10971613    1.20027796
| 78> H    2.83449999   -1.77346374    2.00688862
| 79> *
| 80>
| 81>
| 82>
| 83>
| 84>                          ****END OF INPUT****
 Total Charge           Charge          ....    0
 Multiplicity           Mult            ....    1
 Number of Electrons    NEL             ....   60
MP2 TOTAL ENERGY:     -343.144805054 Eh
FINAL SINGLE POINT ENERGY      -343.144805053829
MP2 TOTAL ENERGY:     -343.452256772 Eh
FINAL SINGLE POINT ENERGY      -343.452256771544

CARTESIAN COORDINATES (ANGSTROEM)
---------------------------------
  N     -0.541059    0.029576   -0.208995
  H      0.055553   -0.786118   -0.130293
  H     -1.469669   -0.274708    0.053143
  C     -0.078799    1.042390    0.738459
  H     -0.720153    1.919414    0.671980
  H     -0.050758    0.723823    1.785515
  H      0.926431    1.356604    0.461999
  N      2.473893   -1.283984    0.039419
  C      2.812329   -0.471640   -0.972293
  H      2.269662   -0.616178   -1.897674
  C      3.783659    0.520494   -0.871926
  H      4.008511    1.144834   -1.724777
  C      4.444499    0.690035    0.340338
  H      5.202353    1.452273    0.456723
  C      4.104366   -0.144927    1.399461
  H      4.586954   -0.054465    2.362162
  C      3.120584   -1.109716    1.200278
  H      2.834500   -1.773464    2.006889

 Multiplicity           Mult            ....    1
 Number of Electrons    NEL             ....   60
 Basis Dimension        Dim             .... 1100

ORBITAL ENERGIES
----------------

  NO   OCC          E(Eh)            E(eV)
   0   2.0000     -15.568493      -423.6402
   1   2.0000     -15.522539      -422.3898
   2   2.0000     -11.278408      -306.9011
   3   2.0000     -11.276534      -306.8501
   4   2.0000     -11.262713      -306.4740
   5   2.0000     -11.244243      -305.9714
   6   2.0000     -11.243313      -305.9461
   7   2.0000     -11.227544      -305.5170
   8   2.0000      -1.260353       -34.2959
   9   2.0000      -1.156799       -31.4781
  10   2.0000      -1.092894       -29.7392
  11   2.0000      -1.036802       -28.2128
  12   2.0000      -0.883170       -24.0323
  13   2.0000      -0.862486       -23.4694
  14   2.0000      -0.859211       -23.3803
  15   2.0000      -0.725598       -19.7445
  16   2.0000      -0.664126       -18.0718
  17   2.0000      -0.657085       -17.8802
  18   2.0000      -0.650397       -17.6982
  19   2.0000      -0.601507       -16.3678
  20   2.0000      -0.592010       -16.1094
  21   2.0000      -0.580591       -15.7987
  22   2.0000      -0.547960       -14.9107
  23   2.0000      -0.539031       -14.6678
  24   2.0000      -0.523094       -14.2341
  25   2.0000      -0.503679       -13.7058
  26   2.0000      -0.424888       -11.5618
  27   2.0000      -0.388356       -10.5677
  28   2.0000      -0.380117       -10.3435
  29   2.0000      -0.350976        -9.5506
  30   0.0000       0.021862         0.5949
  31   0.0000       0.028453         0.7742
  32   0.0000       0.031593         0.8597
  33   0.0000       0.037975         1.0333
  34   0.0000       0.043221         1.1761

MULLIKEN ATOMIC CHARGES
-----------------------
   0 N :   -0.685983
   1 H :    0.284584
   2 H :    0.216854
   3 C :   -0.787682
   4 H :    0.367316
   5 H :    0.248295
   6 H :    0.315848
   7 N :   -0.565538
   8 C :   -0.083365
   9 H :    0.446582
  10 C :   -0.341249
  11 H :    0.344013
  12 C :   -0.358310
  13 H :    0.368674
  14 C :   -0.325078
  15 H :    0.324143
  16 C :   -0.248407
  17 H :    0.479303
Sum of atomic charges:    0.0000000

LOEWDIN ATOMIC CHARGES
----------------------
   0 N :    1.258515
   1 H :   -0.596130
   2 H :   -0.521608
   3 C :    0.735828
   4 H :   -0.309223
   5 H :   -0.286434
   6 H :   -0.334471
   7 N :    0.588152
   8 C :    0.059407
   9 H :   -0.342745
  10 C :    0.332912
  11 H :   -0.326030
  12 C :    0.329945
  13 H :   -0.312751
  14 C :    0.329601
  15 H :   -0.329302
  16 C :    0.073093
  17 H :   -0.348760

  Mayer bond orders larger than 0.100000
B(  0-N ,  1-H ) :   0.8801 B(  0-N ,  2-H ) :   0.9675 B(  0-N ,  3-C ) :   0.9563
B(  3-C ,  4-H ) :   0.8685 B(  3-C ,  5-H ) :   0.9354 B(  3-C ,  6-H ) :   0.8642
B(  7-N ,  8-C ) :   1.1708 B(  7-N ,  9-H ) :  -0.1185 B(  7-N , 16-C ) :   1.2272
B(  7-N , 17-H ) :  -0.1179 B(  8-C ,  9-H ) :   0.8882 B(  8-C , 10-C ) :   1.2035
B(  8-C , 14-C ) :   0.1263 B( 10-C , 11-H ) :   0.9691 B( 10-C , 12-C ) :   1.2323
B( 12-C , 13-H ) :   0.9568 B( 12-C , 14-C ) :   1.2492 B( 14-C , 15-H ) :   1.0055
B( 14-C , 16-C ) :   1.1919 B( 16-C , 17-H ) :   0.8631

MP2 TOTAL ENERGY:     -343.549096877 Eh
FINAL SINGLE POINT ENERGY      -343.549096877030

DIPOLE MOMENT
-------------
                                X             Y             Z
Electronic contribution:      6.62541      -3.19584      -1.19913
Nuclear contribution   :     -5.88677       3.58701       1.77087
                        -----------------------------------------
Total Dipole Moment    :      0.73864       0.39116       0.57174
                        -----------------------------------------
Magnitude (a.u.)       :      1.01266
Magnitude (Debye)      :      2.57398

Rotational constants in cm-1:     0.106335     0.038273     0.037068
Rotational constants in MHz :  3187.841059  1147.409080  1111.267204

                             ****ORCA TERMINATED NORMALLY****
TOTAL RUN TIME: 0 days 0 hours 27 minutes 11 seconds 467 msec
