                         Program Version 5.0.4 -  RELEASE  -
|  1> ! ri-mp2 aug-cc-pvdz aug-cc-pvdz/c tightscf
|  2> %pal nprocs 16 end
|  3> %maxcore 3800
|  4> %base "DZ_S66by10_24_1.0_dimer"
|  5>
|  6> *xyz 0 1
|  7> C    0.71264532    1.12099570    0.06054078
|  8> H    1.35784165    1.98639917    0.12773717
|  9> C    1.25823573   -0.15925190    0.12423352
| 10> H    2.32495428   -0.28709988    0.24674303
| 11> C    0.42688496   -1.27452666    0.04265043
| 12> H    0.85044465   -2.26843268    0.09474995
| 13> C   -0.94957784   -1.11007406   -0.10031360
| 14> H   -1.59445570   -1.97627370   -0.16371348
| 15> C   -1.49552564    0.17105056   -0.16154602
| 16> H   -2.56378279    0.29922115   -0.27370311
| 17> C   -0.66382760    1.28664289   -0.08340143
| 18> H   -1.08690070    2.28100020   -0.13288613
| 19> C    1.94948821    1.11011629    3.60083355
| 20> H    2.59433334    1.97630004    3.66458427
| 21> C    2.49544134   -0.17103481    3.66235329
| 22> H    3.56364822   -0.29918185    3.77509751
| 23> C    1.66379186   -1.28663491    3.58370286
| 24> H    2.08687357   -2.28098734    3.63335652
| 25> C    0.28739030   -1.12099988    3.43898611
| 26> H   -0.35771230   -1.98641012    3.37135348
| 27> C   -0.25816957    0.15923287    3.37502028
| 28> H   -1.32479761    0.28706208    3.25184152
| 29> C    0.57310738    1.27451363    3.45709123
| 30> H    0.14958250    2.26841867    3.40472230
| 31> *
| 32>
| 33> $new_job
| 34> ! ri-mp2 aug-cc-pvtz aug-cc-pvtz/c tightscf
| 35> %pal nprocs 16 end
| 36> %maxcore 3800
| 37> %base "TZ_S66by10_24_1.0_dimer"
| 38>
| 39> *xyz 0 1
| 40> C    0.71264532    1.12099570    0.06054078
| 41> H    1.35784165    1.98639917    0.12773717
| 42> C    1.25823573   -0.15925190    0.12423352
| 43> H    2.32495428   -0.28709988    0.24674303
| 44> C    0.42688496   -1.27452666    0.04265043
| 45> H    0.85044465   -2.26843268    0.09474995
| 46> C   -0.94957784   -1.11007406   -0.10031360
| 47> H   -1.59445570   -1.97627370   -0.16371348
| 48> C   -1.49552564    0.17105056   -0.16154602
| 49> H   -2.56378279    0.29922115   -0.27370311
| 50> C   -0.66382760    1.28664289   -0.08340143
| 51> H   -1.08690070    2.28100020   -0.13288613
| 52> C    1.94948821    1.11011629    3.60083355
| 53> H    2.59433334    1.97630004    3.66458427
| 54> C    2.49544134   -0.17103481    3.66235329
| 55> H    3.56364822   -0.29918185    3.77509751
| 56> C    1.66379186   -1.28663491    3.58370286
| 57> H    2.08687357   -2.28098734    3.63335652
| 58> C    0.28739030   -1.12099988    3.43898611
| 59> H   -0.35771230   -1.98641012    3.37135348
| 60> C   -0.25816957    0.15923287    3.37502028
| 61> H   -1.32479761    0.28706208    3.25184152
| 62> C    0.57310738    1.27451363    3.45709123
| 63> H    0.14958250    2.26841867    3.40472230
| 64> *
| 65>
| 66> $new_job
| 67> ! ri-mp2 aug-cc-pvqz aug-cc-pvqz/c tightscf
| 68> %pal nprocs 16 end
| 69> %maxcore 3800
| 70> %base "QZ_S66by10_24_1.0_dimer"
| 71>
| 72> *xyz 0 1
| 73> C    0.71264532    1.12099570    0.06054078
| 74> H    1.35784165    1.98639917    0.12773717
| 75> C    1.25823573   -0.15925190    0.12423352
| 76> H    2.32495428   -0.28709988    0.24674303
| 77> C    0.42688496   -1.27452666    0.04265043
| 78> H    0.85044465   -2.26843268    0.09474995
| 79> C   -0.94957784   -1.11007406   -0.10031360
| 80> H   -1.59445570   -1.97627370   -0.16371348
| 81> C   -1.49552564    0.17105056   -0.16154602
| 82> H   -2.56378279    0.29922115   -0.27370311
| 83> C   -0.66382760    1.28664289   -0.08340143
| 84> H   -1.08690070    2.28100020   -0.13288613
| 85> C    1.94948821    1.11011629    3.60083355
| 86> H    2.59433334    1.97630004    3.66458427
| 87> C    2.49544134   -0.17103481    3.66235329
| 88> H    3.56364822   -0.29918185    3.77509751
| 89> C    1.66379186   -1.28663491    3.58370286
| 90> H    2.08687357   -2.28098734    3.63335652
| 91> C    0.28739030   -1.12099988    3.43898611
| 92> H   -0.35771230   -1.98641012    3.37135348
| 93> C   -0.25816957    0.15923287    3.37502028
| 94> H   -1.32479761    0.28706208    3.25184152
| 95> C    0.57310738    1.27451363    3.45709123
| 96> H    0.14958250    2.26841867    3.40472230
| 97> *
| 98>
| 99>
|100>
|101>
|102>                          ****END OF INPUT****
 Total Charge           Charge          ....    0
 Multiplicity           Mult            ....    1
 Number of Electrons    NEL             ....   84
MP2 TOTAL ENERGY:     -463.089517630 Eh
FINAL SINGLE POINT ENERGY      -463.089517629666
MP2 TOTAL ENERGY:     -463.499096987 Eh
FINAL SINGLE POINT ENERGY      -463.499096986683

CARTESIAN COORDINATES (ANGSTROEM)
---------------------------------
  C      0.712645    1.120996    0.060541
  H      1.357842    1.986399    0.127737
  C      1.258236   -0.159252    0.124234
  H      2.324954   -0.287100    0.246743
  C      0.426885   -1.274527    0.042650
  H      0.850445   -2.268433    0.094750
  C     -0.949578   -1.110074   -0.100314
  H     -1.594456   -1.976274   -0.163713
  C     -1.495526    0.171051   -0.161546
  H     -2.563783    0.299221   -0.273703
  C     -0.663828    1.286643   -0.083401
  H     -1.086901    2.281000   -0.132886
  C      1.949488    1.110116    3.600834
  H      2.594333    1.976300    3.664584
  C      2.495441   -0.171035    3.662353
  H      3.563648   -0.299182    3.775098
  C      1.663792   -1.286635    3.583703
  H      2.086874   -2.280987    3.633357
  C      0.287390   -1.121000    3.438986
  H     -0.357712   -1.986410    3.371353
  C     -0.258170    0.159233    3.375020
  H     -1.324798    0.287062    3.251842
  C      0.573107    1.274514    3.457091
  H      0.149583    2.268419    3.404722

 Multiplicity           Mult            ....    1
 Number of Electrons    NEL             ....   84
 Basis Dimension        Dim             .... 1512

ORBITAL ENERGIES
----------------

  NO   OCC          E(Eh)            E(eV)
   0   2.0000     -11.229796      -305.5783
   1   2.0000     -11.229793      -305.5782
   2   2.0000     -11.228819      -305.5517
   3   2.0000     -11.228812      -305.5515
   4   2.0000     -11.228590      -305.5455
   5   2.0000     -11.228581      -305.5452
   6   2.0000     -11.227592      -305.5183
   7   2.0000     -11.227585      -305.5181
   8   2.0000     -11.227465      -305.5149
   9   2.0000     -11.227457      -305.5146
  10   2.0000     -11.226085      -305.4773
  11   2.0000     -11.226072      -305.4769
  12   2.0000      -1.146635       -31.2015
  13   2.0000      -1.142439       -31.0874
  14   2.0000      -1.010898       -27.5079
  15   2.0000      -1.009267       -27.4635
  16   2.0000      -1.008687       -27.4478
  17   2.0000      -1.007374       -27.4120
  18   2.0000      -0.819198       -22.2915
  19   2.0000      -0.818803       -22.2808
  20   2.0000      -0.818717       -22.2784
  21   2.0000      -0.818030       -22.2597
  22   2.0000      -0.705327       -19.1929
  23   2.0000      -0.703737       -19.1497
  24   2.0000      -0.639161       -17.3925
  25   2.0000      -0.639112       -17.3911
  26   2.0000      -0.613797       -16.7023
  27   2.0000      -0.613465       -16.6932
  28   2.0000      -0.583949       -15.8901
  29   2.0000      -0.583059       -15.8659
  30   2.0000      -0.582690       -15.8558
  31   2.0000      -0.581905       -15.8344
  32   2.0000      -0.514688       -14.0054
  33   2.0000      -0.489835       -13.3291
  34   2.0000      -0.489775       -13.3275
  35   2.0000      -0.489722       -13.3260
  36   2.0000      -0.489602       -13.3228
  37   2.0000      -0.480161       -13.0658
  38   2.0000      -0.346681        -9.4337
  39   2.0000      -0.332551        -9.0492
  40   2.0000      -0.328360        -8.9351
  41   2.0000      -0.316866        -8.6223
  42   0.0000       0.024499         0.6666
  43   0.0000       0.027665         0.7528
  44   0.0000       0.027862         0.7582
  45   0.0000       0.037571         1.0224
  46   0.0000       0.038061         1.0357

MULLIKEN ATOMIC CHARGES
-----------------------
   0 C :   -0.262823
   1 H :    0.316175
   2 C :   -0.420829
   3 H :    0.247781
   4 C :   -0.275143
   5 H :    0.304714
   6 C :   -0.234855
   7 H :    0.302411
   8 C :   -0.333439
   9 H :    0.304787
  10 C :   -0.246770
  11 H :    0.297997
  12 C :   -0.235204
  13 H :    0.302421
  14 C :   -0.333238
  15 H :    0.304787
  16 C :   -0.247044
  17 H :    0.297947
  18 C :   -0.262291
  19 H :    0.316079
  20 C :   -0.420819
  21 H :    0.247672
  22 C :   -0.274914
  23 H :    0.304599
Sum of atomic charges:   -0.0000000

LOEWDIN ATOMIC CHARGES
----------------------
   0 C :    0.313671
   1 H :   -0.315898
   2 C :    0.311684
   3 H :   -0.315074
   4 C :    0.315300
   5 H :   -0.316277
   6 C :    0.325228
   7 H :   -0.322487
   8 C :    0.325154
   9 H :   -0.323885
  10 C :    0.324048
  11 H :   -0.321440
  12 C :    0.325278
  13 H :   -0.322514
  14 C :    0.325203
  15 H :   -0.323893
  16 C :    0.324079
  17 H :   -0.321446
  18 C :    0.313666
  19 H :   -0.315926
  20 C :    0.311623
  21 H :   -0.315110
  22 C :    0.315301
  23 H :   -0.316283

  Mayer bond orders larger than 0.100000
B(  0-C ,  1-H ) :   1.0275 B(  0-C ,  2-C ) :   1.2015 B(  0-C ,  6-C ) :   0.2008
B(  0-C , 10-C ) :   1.2088 B(  2-C ,  3-H ) :   1.0345 B(  2-C ,  4-C ) :   1.1866
B(  2-C ,  8-C ) :   0.1602 B(  2-C , 14-C ) :  -0.1003 B(  4-C ,  5-H ) :   1.0377
B(  4-C ,  6-C ) :   1.1979 B(  4-C , 10-C ) :   0.1892 B(  6-C ,  7-H ) :   1.0506
B(  6-C ,  8-C ) :   1.2290 B(  8-C ,  9-H ) :   1.0433 B(  8-C , 10-C ) :   1.2319
B(  8-C , 20-C ) :  -0.1004 B( 10-C , 11-H ) :   1.0513 B( 12-C , 13-H ) :   1.0506
B( 12-C , 14-C ) :   1.2289 B( 12-C , 18-C ) :   0.2008 B( 12-C , 22-C ) :   1.1978
B( 14-C , 15-H ) :   1.0433 B( 14-C , 16-C ) :   1.2317 B( 14-C , 20-C ) :   0.1602
B( 16-C , 17-H ) :   1.0514 B( 16-C , 18-C ) :   1.2087 B( 16-C , 22-C ) :   0.1891
B( 18-C , 19-H ) :   1.0276 B( 18-C , 20-C ) :   1.2013 B( 20-C , 21-H ) :   1.0346
B( 20-C , 22-C ) :   1.1864 B( 22-C , 23-H ) :   1.0378

MP2 TOTAL ENERGY:     -463.628285302 Eh
FINAL SINGLE POINT ENERGY      -463.628285302284

DIPOLE MOMENT
-------------
                                X             Y             Z
Electronic contribution:     -0.00010       0.00001       0.00003
Nuclear contribution   :      0.00013      -0.00001      -0.00023
                        -----------------------------------------
Total Dipole Moment    :      0.00002       0.00000      -0.00020
                        -----------------------------------------
Magnitude (a.u.)       :      0.00021
Magnitude (Debye)      :      0.00052

Rotational constants in cm-1:     0.054126     0.023219     0.021938
Rotational constants in MHz :  1622.650845   696.100689   657.690015

                             ****ORCA TERMINATED NORMALLY****
TOTAL RUN TIME: 0 days 1 hours 49 minutes 36 seconds 692 msec
