                         Program Version 5.0.4 -  RELEASE  -
|  1> ! ri-mp2 aug-cc-pvdz aug-cc-pvdz/c tightscf
|  2> %pal nprocs 16 end
|  3> %maxcore 3800
|  4> %base "DZ_S66by10_28_1.1_dimer"
|  5>
|  6> *xyz 0 1
|  7> C    0.82576911    1.23652484   -0.04025044
|  8> H    1.52101317    2.06312520   -0.08247145
|  9> C    1.30015992   -0.06294088    0.12725601
| 10> H    2.36365753   -0.24226113    0.20767420
| 11> C    0.40352312   -1.12855218    0.19824486
| 12> H    0.77375338   -2.13742677    0.32412109
| 13> C   -0.96780949   -0.89519049    0.10313994
| 14> H   -1.66520900   -1.71998342    0.16042745
| 15> C   -1.44350838    0.40448328   -0.06244130
| 16> H   -2.50751124    0.58550112   -0.12415016
| 17> C   -0.54575549    1.46876875   -0.13624741
| 18> H   -0.91422190    2.47742220   -0.26785516
| 19> N   -0.26410810    0.64130743    3.50303756
| 20> H   -0.63741549    1.54306886    3.24014459
| 21> C    1.12803859    0.56832052    3.63505090
| 22> O    1.81894890    1.56274421    3.49021683
| 23> C    1.60693870   -0.76575719    3.95316110
| 24> H    2.66399079   -0.91797313    4.08728223
| 25> C    0.72722947   -1.78013836    4.07937762
| 26> H    1.03315699   -2.78855897    4.31590198
| 27> N   -0.61801642   -1.59510644    3.90928548
| 28> H   -1.26676425   -2.35766539    4.00815465
| 29> C   -1.19246472   -0.37030542    3.60987086
| 30> O   -2.39025314   -0.21948214    3.46775867
| 31> *
| 32>
| 33> $new_job
| 34> ! ri-mp2 aug-cc-pvtz aug-cc-pvtz/c tightscf
| 35> %pal nprocs 16 end
| 36> %maxcore 3800
| 37> %base "TZ_S66by10_28_1.1_dimer"
| 38>
| 39> *xyz 0 1
| 40> C    0.82576911    1.23652484   -0.04025044
| 41> H    1.52101317    2.06312520   -0.08247145
| 42> C    1.30015992   -0.06294088    0.12725601
| 43> H    2.36365753   -0.24226113    0.20767420
| 44> C    0.40352312   -1.12855218    0.19824486
| 45> H    0.77375338   -2.13742677    0.32412109
| 46> C   -0.96780949   -0.89519049    0.10313994
| 47> H   -1.66520900   -1.71998342    0.16042745
| 48> C   -1.44350838    0.40448328   -0.06244130
| 49> H   -2.50751124    0.58550112   -0.12415016
| 50> C   -0.54575549    1.46876875   -0.13624741
| 51> H   -0.91422190    2.47742220   -0.26785516
| 52> N   -0.26410810    0.64130743    3.50303756
| 53> H   -0.63741549    1.54306886    3.24014459
| 54> C    1.12803859    0.56832052    3.63505090
| 55> O    1.81894890    1.56274421    3.49021683
| 56> C    1.60693870   -0.76575719    3.95316110
| 57> H    2.66399079   -0.91797313    4.08728223
| 58> C    0.72722947   -1.78013836    4.07937762
| 59> H    1.03315699   -2.78855897    4.31590198
| 60> N   -0.61801642   -1.59510644    3.90928548
| 61> H   -1.26676425   -2.35766539    4.00815465
| 62> C   -1.19246472   -0.37030542    3.60987086
| 63> O   -2.39025314   -0.21948214    3.46775867
| 64> *
| 65>
| 66> $new_job
| 67> ! ri-mp2 aug-cc-pvqz aug-cc-pvqz/c tightscf
| 68> %pal nprocs 16 end
| 69> %maxcore 3800
| 70> %base "QZ_S66by10_28_1.1_dimer"
| 71>
| 72> *xyz 0 1
| 73> C    0.82576911    1.23652484   -0.04025044
| 74> H    1.52101317    2.06312520   -0.08247145
| 75> C    1.30015992   -0.06294088    0.12725601
| 76> H    2.36365753   -0.24226113    0.20767420
| 77> C    0.40352312   -1.12855218    0.19824486
| 78> H    0.77375338   -2.13742677    0.32412109
| 79> C   -0.96780949   -0.89519049    0.10313994
| 80> H   -1.66520900   -1.71998342    0.16042745
| 81> C   -1.44350838    0.40448328   -0.06244130
| 82> H   -2.50751124    0.58550112   -0.12415016
| 83> C   -0.54575549    1.46876875   -0.13624741
| 84> H   -0.91422190    2.47742220   -0.26785516
| 85> N   -0.26410810    0.64130743    3.50303756
| 86> H   -0.63741549    1.54306886    3.24014459
| 87> C    1.12803859    0.56832052    3.63505090
| 88> O    1.81894890    1.56274421    3.49021683
| 89> C    1.60693870   -0.76575719    3.95316110
| 90> H    2.66399079   -0.91797313    4.08728223
| 91> C    0.72722947   -1.78013836    4.07937762
| 92> H    1.03315699   -2.78855897    4.31590198
| 93> N   -0.61801642   -1.59510644    3.90928548
| 94> H   -1.26676425   -2.35766539    4.00815465
| 95> C   -1.19246472   -0.37030542    3.60987086
| 96> O   -2.39025314   -0.21948214    3.46775867
| 97> *
| 98>
| 99>
|100>
|101>
|102>                          ****END OF INPUT****
 Total Charge           Charge          ....    0
 Multiplicity           Mult            ....    1
 Number of Electrons    NEL             ....  100
MP2 TOTAL ENERGY:     -645.330977166 Eh
FINAL SINGLE POINT ENERGY      -645.330977166348
MP2 TOTAL ENERGY:     -645.882038654 Eh
FINAL SINGLE POINT ENERGY      -645.882038654159

CARTESIAN COORDINATES (ANGSTROEM)
---------------------------------
  C      0.825769    1.236525   -0.040250
  H      1.521013    2.063125   -0.082471
  C      1.300160   -0.062941    0.127256
  H      2.363658   -0.242261    0.207674
  C      0.403523   -1.128552    0.198245
  H      0.773753   -2.137427    0.324121
  C     -0.967809   -0.895190    0.103140
  H     -1.665209   -1.719983    0.160427
  C     -1.443508    0.404483   -0.062441
  H     -2.507511    0.585501   -0.124150
  C     -0.545755    1.468769   -0.136247
  H     -0.914222    2.477422   -0.267855
  N     -0.264108    0.641307    3.503038
  H     -0.637415    1.543069    3.240145
  C      1.128039    0.568321    3.635051
  O      1.818949    1.562744    3.490217
  C      1.606939   -0.765757    3.953161
  H      2.663991   -0.917973    4.087282
  C      0.727229   -1.780138    4.079378
  H      1.033157   -2.788559    4.315902
  N     -0.618016   -1.595106    3.909285
  H     -1.266764   -2.357665    4.008155
  C     -1.192465   -0.370305    3.609871
  O     -2.390253   -0.219482    3.467759

 Multiplicity           Mult            ....    1
 Number of Electrons    NEL             ....  100
 Basis Dimension        Dim             .... 1580

ORBITAL ENERGIES
----------------

  NO   OCC          E(Eh)            E(eV)
   0   2.0000     -20.537719      -558.8598
   1   2.0000     -20.532348      -558.7136
   2   2.0000     -15.636129      -425.4807
   3   2.0000     -15.617211      -424.9659
   4   2.0000     -11.410981      -310.5086
   5   2.0000     -11.373208      -309.4807
   6   2.0000     -11.333782      -308.4079
   7   2.0000     -11.248573      -306.0892
   8   2.0000     -11.236411      -305.7583
   9   2.0000     -11.234466      -305.7054
  10   2.0000     -11.233958      -305.6915
  11   2.0000     -11.233326      -305.6743
  12   2.0000     -11.232777      -305.6594
  13   2.0000     -11.232032      -305.6391
  14   2.0000      -1.428880       -38.8818
  15   2.0000      -1.390751       -37.8442
  16   2.0000      -1.306626       -35.5551
  17   2.0000      -1.238782       -33.7090
  18   2.0000      -1.150328       -31.3020
  19   2.0000      -1.081928       -29.4408
  20   2.0000      -1.014900       -27.6168
  21   2.0000      -1.014356       -27.6020
  22   2.0000      -0.927056       -25.2265
  23   2.0000      -0.895200       -24.3596
  24   2.0000      -0.824199       -22.4276
  25   2.0000      -0.823610       -22.4116
  26   2.0000      -0.801066       -21.7981
  27   2.0000      -0.758946       -20.6520
  28   2.0000      -0.709635       -19.3101
  29   2.0000      -0.708371       -19.2758
  30   2.0000      -0.671747       -18.2792
  31   2.0000      -0.662693       -18.0328
  32   2.0000      -0.647057       -17.6073
  33   2.0000      -0.643877       -17.5208
  34   2.0000      -0.618995       -16.8437
  35   2.0000      -0.609273       -16.5792
  36   2.0000      -0.595947       -16.2165
  37   2.0000      -0.588311       -16.0087
  38   2.0000      -0.587633       -15.9903
  39   2.0000      -0.564818       -15.3695
  40   2.0000      -0.520703       -14.1690
  41   2.0000      -0.502229       -13.6663
  42   2.0000      -0.494745       -13.4627
  43   2.0000      -0.494623       -13.4594
  44   2.0000      -0.477365       -12.9898
  45   2.0000      -0.443500       -12.0683
  46   2.0000      -0.430235       -11.7073
  47   2.0000      -0.363634        -9.8950
  48   2.0000      -0.338282        -9.2051
  49   2.0000      -0.336151        -9.1471
  50   0.0000       0.012488         0.3398
  51   0.0000       0.028153         0.7661
  52   0.0000       0.030844         0.8393
  53   0.0000       0.032259         0.8778
  54   0.0000       0.039731         1.0811

MULLIKEN ATOMIC CHARGES
-----------------------
   0 C :   -0.214611
   1 H :    0.312921
   2 C :   -0.376722
   3 H :    0.276981
   4 C :   -0.244959
   5 H :    0.333610
   6 C :   -0.390935
   7 H :    0.290210
   8 C :   -0.203118
   9 H :    0.301948
  10 C :   -0.383891
  11 H :    0.350565
  12 N :   -0.793983
  13 H :    0.115379
  14 C :    1.322815
  15 O :   -0.906626
  16 C :   -0.388750
  17 H :    0.259607
  18 C :   -0.173983
  19 H :    0.412648
  20 N :   -0.694906
  21 H :    0.062033
  22 C :    1.618457
  23 O :   -0.884688
Sum of atomic charges:    0.0000000

LOEWDIN ATOMIC CHARGES
----------------------
   0 C :    0.324735
   1 H :   -0.318374
   2 C :    0.316736
   3 H :   -0.318766
   4 C :    0.316190
   5 H :   -0.322349
   6 C :    0.315808
   7 H :   -0.320889
   8 C :    0.323724
   9 H :   -0.319393
  10 C :    0.329758
  11 H :   -0.322359
  12 N :    0.778036
  13 H :   -0.517882
  14 C :   -0.885437
  15 O :    0.695318
  16 C :    0.326755
  17 H :   -0.350784
  18 C :    0.230520
  19 H :   -0.296104
  20 N :    0.812842
  21 H :   -0.490878
  22 C :   -1.009549
  23 O :    0.702340

  Mayer bond orders larger than 0.100000
B(  0-C ,  1-H ) :   1.0334 B(  0-C ,  2-C ) :   1.2111 B(  0-C ,  6-C ) :   0.1789
B(  0-C , 10-C ) :   1.2210 B(  2-C ,  3-H ) :   1.0705 B(  2-C ,  4-C ) :   1.1741
B(  2-C ,  8-C ) :   0.1721 B(  4-C ,  5-H ) :   0.9888 B(  4-C ,  6-C ) :   1.2216
B(  4-C , 10-C ) :   0.1750 B(  6-C ,  7-H ) :   1.0600 B(  6-C ,  8-C ) :   1.1796
B(  8-C ,  9-H ) :   1.0550 B(  8-C , 10-C ) :   1.2465 B( 10-C , 11-H ) :   0.9941
B( 12-N , 13-H ) :   1.1633 B( 12-N , 14-C ) :   0.9633 B( 12-N , 15-O ) :   0.2347
B( 12-N , 22-C ) :   1.0837 B( 12-N , 23-O ) :   0.2414 B( 14-C , 15-O ) :   0.8612
B( 14-C , 16-C ) :   1.0984 B( 15-O , 16-C ) :   0.2259 B( 16-C , 17-H ) :   1.0367
B( 16-C , 18-C ) :   1.5196 B( 18-C , 19-H ) :   0.9369 B( 18-C , 20-N ) :   0.8634
B( 20-N , 21-H ) :   1.2248 B( 20-N , 22-C ) :   1.0229 B( 20-N , 23-O ) :   0.2196
B( 22-C , 23-O ) :   0.8781

MP2 TOTAL ENERGY:     -646.061186028 Eh
FINAL SINGLE POINT ENERGY      -646.061186028316

DIPOLE MOMENT
-------------
                                X             Y             Z
Electronic contribution:     -0.95341       0.92068       5.92009
Nuclear contribution   :      1.16747      -2.70411      -5.62168
                        -----------------------------------------
Total Dipole Moment    :      0.21406      -1.78343       0.29842
                        -----------------------------------------
Magnitude (a.u.)       :      1.82085
Magnitude (Debye)      :      4.62823

Rotational constants in cm-1:     0.031793     0.019971     0.017000
Rotational constants in MHz :   953.144031   598.721448   509.652319

                             ****ORCA TERMINATED NORMALLY****
TOTAL RUN TIME: 0 days 2 hours 0 minutes 44 seconds 725 msec
