                         Program Version 5.0.4 -  RELEASE  -
|  1> ! ri-mp2 aug-cc-pvdz aug-cc-pvdz/c tightscf
|  2> %pal nprocs 16 end
|  3> %maxcore 3800
|  4> %base "DZ_S66by10_28_0.7_dimer"
|  5>
|  6> *xyz 0 1
|  7> C    0.82576911    1.23652484   -0.04025044
|  8> H    1.52101317    2.06312520   -0.08247145
|  9> C    1.30015992   -0.06294088    0.12725601
| 10> H    2.36365753   -0.24226113    0.20767420
| 11> C    0.40352312   -1.12855218    0.19824486
| 12> H    0.77375338   -2.13742677    0.32412109
| 13> C   -0.96780949   -0.89519049    0.10313994
| 14> H   -1.66520900   -1.71998342    0.16042745
| 15> C   -1.44350838    0.40448328   -0.06244130
| 16> H   -2.50751124    0.58550112   -0.12415016
| 17> C   -0.54575549    1.46876875   -0.13624741
| 18> H   -0.91422190    2.47742220   -0.26785516
| 19> N   -0.31095980    0.77300051    2.26616665
| 20> H   -0.68426720    1.67476194    2.00327367
| 21> C    1.08118688    0.70001361    2.39817998
| 22> O    1.77209720    1.69443730    2.25334592
| 23> C    1.56008699   -0.63406410    2.71629019
| 24> H    2.61713909   -0.78628004    2.85041132
| 25> C    0.68037776   -1.64844528    2.84250671
| 26> H    0.98630529   -2.65686588    3.07903107
| 27> N   -0.66486812   -1.46341336    2.67241457
| 28> H   -1.31361595   -2.22597230    2.77128374
| 29> C   -1.23931643   -0.23861233    2.37299995
| 30> O   -2.43710484   -0.08778905    2.23088776
| 31> *
| 32>
| 33> $new_job
| 34> ! ri-mp2 aug-cc-pvtz aug-cc-pvtz/c tightscf
| 35> %pal nprocs 16 end
| 36> %maxcore 3800
| 37> %base "TZ_S66by10_28_0.7_dimer"
| 38>
| 39> *xyz 0 1
| 40> C    0.82576911    1.23652484   -0.04025044
| 41> H    1.52101317    2.06312520   -0.08247145
| 42> C    1.30015992   -0.06294088    0.12725601
| 43> H    2.36365753   -0.24226113    0.20767420
| 44> C    0.40352312   -1.12855218    0.19824486
| 45> H    0.77375338   -2.13742677    0.32412109
| 46> C   -0.96780949   -0.89519049    0.10313994
| 47> H   -1.66520900   -1.71998342    0.16042745
| 48> C   -1.44350838    0.40448328   -0.06244130
| 49> H   -2.50751124    0.58550112   -0.12415016
| 50> C   -0.54575549    1.46876875   -0.13624741
| 51> H   -0.91422190    2.47742220   -0.26785516
| 52> N   -0.31095980    0.77300051    2.26616665
| 53> H   -0.68426720    1.67476194    2.00327367
| 54> C    1.08118688    0.70001361    2.39817998
| 55> O    1.77209720    1.69443730    2.25334592
| 56> C    1.56008699   -0.63406410    2.71629019
| 57> H    2.61713909   -0.78628004    2.85041132
| 58> C    0.68037776   -1.64844528    2.84250671
| 59> H    0.98630529   -2.65686588    3.07903107
| 60> N   -0.66486812   -1.46341336    2.67241457
| 61> H   -1.31361595   -2.22597230    2.77128374
| 62> C   -1.23931643   -0.23861233    2.37299995
| 63> O   -2.43710484   -0.08778905    2.23088776
| 64> *
| 65>
| 66> $new_job
| 67> ! ri-mp2 aug-cc-pvqz aug-cc-pvqz/c tightscf
| 68> %pal nprocs 16 end
| 69> %maxcore 3800
| 70> %base "QZ_S66by10_28_0.7_dimer"
| 71>
| 72> *xyz 0 1
| 73> C    0.82576911    1.23652484   -0.04025044
| 74> H    1.52101317    2.06312520   -0.08247145
| 75> C    1.30015992   -0.06294088    0.12725601
| 76> H    2.36365753   -0.24226113    0.20767420
| 77> C    0.40352312   -1.12855218    0.19824486
| 78> H    0.77375338   -2.13742677    0.32412109
| 79> C   -0.96780949   -0.89519049    0.10313994
| 80> H   -1.66520900   -1.71998342    0.16042745
| 81> C   -1.44350838    0.40448328   -0.06244130
| 82> H   -2.50751124    0.58550112   -0.12415016
| 83> C   -0.54575549    1.46876875   -0.13624741
| 84> H   -0.91422190    2.47742220   -0.26785516
| 85> N   -0.31095980    0.77300051    2.26616665
| 86> H   -0.68426720    1.67476194    2.00327367
| 87> C    1.08118688    0.70001361    2.39817998
| 88> O    1.77209720    1.69443730    2.25334592
| 89> C    1.56008699   -0.63406410    2.71629019
| 90> H    2.61713909   -0.78628004    2.85041132
| 91> C    0.68037776   -1.64844528    2.84250671
| 92> H    0.98630529   -2.65686588    3.07903107
| 93> N   -0.66486812   -1.46341336    2.67241457
| 94> H   -1.31361595   -2.22597230    2.77128374
| 95> C   -1.23931643   -0.23861233    2.37299995
| 96> O   -2.43710484   -0.08778905    2.23088776
| 97> *
| 98>
| 99>
|100>
|101>
|102>                          ****END OF INPUT****
 Total Charge           Charge          ....    0
 Multiplicity           Mult            ....    1
 Number of Electrons    NEL             ....  100
MP2 TOTAL ENERGY:     -645.271147599 Eh
FINAL SINGLE POINT ENERGY      -645.271147598538
MP2 TOTAL ENERGY:     -645.820832344 Eh
FINAL SINGLE POINT ENERGY      -645.820832343520

CARTESIAN COORDINATES (ANGSTROEM)
---------------------------------
  C      0.825769    1.236525   -0.040250
  H      1.521013    2.063125   -0.082471
  C      1.300160   -0.062941    0.127256
  H      2.363658   -0.242261    0.207674
  C      0.403523   -1.128552    0.198245
  H      0.773753   -2.137427    0.324121
  C     -0.967809   -0.895190    0.103140
  H     -1.665209   -1.719983    0.160427
  C     -1.443508    0.404483   -0.062441
  H     -2.507511    0.585501   -0.124150
  C     -0.545755    1.468769   -0.136247
  H     -0.914222    2.477422   -0.267855
  N     -0.310960    0.773001    2.266167
  H     -0.684267    1.674762    2.003274
  C      1.081187    0.700014    2.398180
  O      1.772097    1.694437    2.253346
  C      1.560087   -0.634064    2.716290
  H      2.617139   -0.786280    2.850411
  C      0.680378   -1.648445    2.842507
  H      0.986305   -2.656866    3.079031
  N     -0.664868   -1.463413    2.672415
  H     -1.313616   -2.225972    2.771284
  C     -1.239316   -0.238612    2.373000
  O     -2.437105   -0.087789    2.230888

 Multiplicity           Mult            ....    1
 Number of Electrons    NEL             ....  100
 Basis Dimension        Dim             .... 1580

ORBITAL ENERGIES
----------------

  NO   OCC          E(Eh)            E(eV)
   0   2.0000     -20.531437      -558.6888
   1   2.0000     -20.526327      -558.5498
   2   2.0000     -15.630502      -425.3276
   3   2.0000     -15.606153      -424.6650
   4   2.0000     -11.409282      -310.4623
   5   2.0000     -11.373057      -309.4766
   6   2.0000     -11.324862      -308.1652
   7   2.0000     -11.246539      -306.0339
   8   2.0000     -11.242215      -305.9162
   9   2.0000     -11.231245      -305.6177
  10   2.0000     -11.229453      -305.5689
  11   2.0000     -11.229215      -305.5625
  12   2.0000     -11.228195      -305.5347
  13   2.0000     -11.224345      -305.4300
  14   2.0000      -1.431200       -38.9449
  15   2.0000      -1.393495       -37.9189
  16   2.0000      -1.306051       -35.5395
  17   2.0000      -1.240437       -33.7540
  18   2.0000      -1.155005       -31.4293
  19   2.0000      -1.084038       -29.4982
  20   2.0000      -1.022146       -27.8140
  21   2.0000      -1.019877       -27.7523
  22   2.0000      -0.925979       -25.1972
  23   2.0000      -0.894200       -24.3324
  24   2.0000      -0.830646       -22.6030
  25   2.0000      -0.828878       -22.5549
  26   2.0000      -0.800509       -21.7830
  27   2.0000      -0.756298       -20.5799
  28   2.0000      -0.716917       -19.5083
  29   2.0000      -0.704964       -19.1830
  30   2.0000      -0.683623       -18.6023
  31   2.0000      -0.672212       -18.2918
  32   2.0000      -0.647045       -17.6070
  33   2.0000      -0.645336       -17.5605
  34   2.0000      -0.622796       -16.9471
  35   2.0000      -0.609681       -16.5903
  36   2.0000      -0.596047       -16.2193
  37   2.0000      -0.593115       -16.1395
  38   2.0000      -0.591110       -16.0849
  39   2.0000      -0.573973       -15.6186
  40   2.0000      -0.526914       -14.3380
  41   2.0000      -0.497693       -13.5429
  42   2.0000      -0.496271       -13.5042
  43   2.0000      -0.482241       -13.1224
  44   2.0000      -0.464607       -12.6426
  45   2.0000      -0.441112       -12.0033
  46   2.0000      -0.426445       -11.6041
  47   2.0000      -0.369993       -10.0680
  48   2.0000      -0.328848        -8.9484
  49   2.0000      -0.314993        -8.5714
  50   0.0000       0.012313         0.3350
  51   0.0000       0.027527         0.7491
  52   0.0000       0.031337         0.8527
  53   0.0000       0.032525         0.8850
  54   0.0000       0.039907         1.0859

MULLIKEN ATOMIC CHARGES
-----------------------
   0 C :   -0.455174
   1 H :    0.332517
   2 C :   -0.168398
   3 H :    0.272751
   4 C :   -0.129758
   5 H :    0.265176
   6 C :   -0.215853
   7 H :    0.201961
   8 C :   -0.564618
   9 H :    0.330211
  10 C :   -0.322581
  11 H :    0.194582
  12 N :   -0.493366
  13 H :   -0.010115
  14 C :    1.711518
  15 O :   -1.115942
  16 C :   -0.553939
  17 H :    0.237494
  18 C :   -0.120868
  19 H :    0.319682
  20 N :   -0.736338
  21 H :   -0.018831
  22 C :    2.124009
  23 O :   -1.084118
Sum of atomic charges:   -0.0000000

LOEWDIN ATOMIC CHARGES
----------------------
   0 C :    0.259676
   1 H :   -0.318219
   2 C :    0.266928
   3 H :   -0.293774
   4 C :    0.292822
   5 H :   -0.298829
   6 C :    0.257670
   7 H :   -0.296014
   8 C :    0.263864
   9 H :   -0.308800
  10 C :    0.322282
  11 H :   -0.283386
  12 N :    0.784228
  13 H :   -0.562247
  14 C :   -0.914583
  15 O :    0.776021
  16 C :    0.323004
  17 H :   -0.315533
  18 C :    0.221458
  19 H :   -0.275103
  20 N :    0.830216
  21 H :   -0.462004
  22 C :   -1.054660
  23 O :    0.784984

  Mayer bond orders larger than 0.100000
B(  0-C ,  1-H ) :   1.0547 B(  0-C ,  2-C ) :   1.2504 B(  0-C ,  3-H ) :  -0.1262
B(  0-C ,  6-C ) :   0.1263 B(  0-C , 10-C ) :   1.2348 B(  0-C , 11-H ) :  -0.1041
B(  2-C ,  3-H ) :   1.0754 B(  2-C ,  4-C ) :   1.0279 B(  2-C ,  5-H ) :  -0.1650
B(  2-C ,  8-C ) :   0.1096 B(  3-H ,  4-C ) :  -0.1563 B(  4-C ,  5-H ) :   1.0847
B(  4-C ,  6-C ) :   0.9926 B(  4-C ,  7-H ) :  -0.1684 B(  4-C , 10-C ) :   0.1135
B(  5-H ,  6-C ) :  -0.1958 B(  6-C ,  7-H ) :   1.1778 B(  6-C ,  8-C ) :   1.2774
B(  6-C , 22-C ) :  -0.1015 B(  6-C , 23-O ) :   0.1118 B(  7-H ,  8-C ) :  -0.1186
B(  8-C ,  9-H ) :   1.0638 B(  8-C , 10-C ) :   1.2195 B(  8-C , 11-H ) :  -0.1047
B( 10-C , 11-H ) :   1.1558 B( 12-N , 13-H ) :   1.2082 B( 12-N , 14-C ) :   1.1108
B( 12-N , 15-O ) :   0.2944 B( 12-N , 22-C ) :   1.1404 B( 12-N , 23-O ) :   0.3470
B( 14-C , 15-O ) :   0.4509 B( 14-C , 16-C ) :   1.0085 B( 14-C , 18-C ) :  -0.1229
B( 15-O , 16-C ) :   0.2266 B( 16-C , 17-H ) :   1.0378 B( 16-C , 18-C ) :   1.6341
B( 18-C , 19-H ) :   1.0358 B( 18-C , 20-N ) :   0.9705 B( 18-C , 21-H ) :  -0.1189
B( 20-N , 21-H ) :   1.2753 B( 20-N , 22-C ) :   0.9003 B( 20-N , 23-O ) :   0.2622
B( 22-C , 23-O ) :   0.3045

MP2 TOTAL ENERGY:     -645.998553883 Eh
FINAL SINGLE POINT ENERGY      -645.998553882926

DIPOLE MOMENT
-------------
                                X             Y             Z
Electronic contribution:     -1.01175       1.17141       3.75500
Nuclear contribution   :      1.24990      -2.93581      -3.44553
                        -----------------------------------------
Total Dipole Moment    :      0.23815      -1.76440       0.30947
                        -----------------------------------------
Magnitude (a.u.)       :      1.80710
Magnitude (Debye)      :      4.59327

Rotational constants in cm-1:     0.034218     0.033109     0.025490
Rotational constants in MHz :  1025.831072   992.596995   764.159362

                             ****ORCA TERMINATED NORMALLY****
TOTAL RUN TIME: 0 days 2 hours 51 minutes 17 seconds 346 msec
