                         Program Version 5.0.4 -  RELEASE  -
|  1> ! ri-mp2 aug-cc-pvdz aug-cc-pvdz/c tightscf
|  2> %pal nprocs 16 end
|  3> %maxcore 3800
|  4> %base "DZ_S66by10_11_0.7_dimer"
|  5> %scf STABPerform true end
|  6>
|  7> *xyz 0 1
|  8> N   -0.56970824    0.81437245    0.10109775
|  9> H    0.13087774    0.56141065   -0.58761455
| 10> H   -1.46125215    0.52691480   -0.28042996
| 11> C   -0.30551437    0.06571030    1.32879173
| 12> H   -1.05714948    0.31427017    2.07595940
| 13> H   -0.28802353   -1.02229248    1.21484626
| 14> H    0.66045772    0.36850913    1.73024224
| 15> C    1.62967134    2.73469158   -0.06333943
| 16> H    1.75428981    3.14586831   -1.06238377
| 17> H    2.13624272    3.37568413    0.65444508
| 18> H    0.56325958    2.70816205    0.15508199
| 19> C    2.14166303    1.31689390   -0.06104540
| 20> O    1.68168315    0.45115748   -0.80022002
| 21> N    3.12814600    1.04386155    0.83128530
| 22> H    3.52790702    1.79879433    1.35663806
| 23> C    3.71659134   -0.27572899    0.90878487
| 24> H    2.92841473   -1.01705914    0.81576428
| 25> H    4.43785112   -0.44772437    0.11024048
| 26> H    4.21124485   -0.39159718    1.86872440
| 27> *
| 28>
| 29> $new_job
| 30> ! ri-mp2 aug-cc-pvtz aug-cc-pvtz/c tightscf
| 31> %pal nprocs 16 end
| 32> %maxcore 3800
| 33> %base "TZ_S66by10_11_0.7_dimer"
| 34>
| 35> *xyz 0 1
| 36> N   -0.56970824    0.81437245    0.10109775
| 37> H    0.13087774    0.56141065   -0.58761455
| 38> H   -1.46125215    0.52691480   -0.28042996
| 39> C   -0.30551437    0.06571030    1.32879173
| 40> H   -1.05714948    0.31427017    2.07595940
| 41> H   -0.28802353   -1.02229248    1.21484626
| 42> H    0.66045772    0.36850913    1.73024224
| 43> C    1.62967134    2.73469158   -0.06333943
| 44> H    1.75428981    3.14586831   -1.06238377
| 45> H    2.13624272    3.37568413    0.65444508
| 46> H    0.56325958    2.70816205    0.15508199
| 47> C    2.14166303    1.31689390   -0.06104540
| 48> O    1.68168315    0.45115748   -0.80022002
| 49> N    3.12814600    1.04386155    0.83128530
| 50> H    3.52790702    1.79879433    1.35663806
| 51> C    3.71659134   -0.27572899    0.90878487
| 52> H    2.92841473   -1.01705914    0.81576428
| 53> H    4.43785112   -0.44772437    0.11024048
| 54> H    4.21124485   -0.39159718    1.86872440
| 55> *
| 56>
| 57> $new_job
| 58> ! ri-mp2 aug-cc-pvqz aug-cc-pvqz/c tightscf
| 59> %pal nprocs 16 end
| 60> %maxcore 3800
| 61> %base "QZ_S66by10_11_0.7_dimer"
| 62>
| 63> *xyz 0 1
| 64> N   -0.56970824    0.81437245    0.10109775
| 65> H    0.13087774    0.56141065   -0.58761455
| 66> H   -1.46125215    0.52691480   -0.28042996
| 67> C   -0.30551437    0.06571030    1.32879173
| 68> H   -1.05714948    0.31427017    2.07595940
| 69> H   -0.28802353   -1.02229248    1.21484626
| 70> H    0.66045772    0.36850913    1.73024224
| 71> C    1.62967134    2.73469158   -0.06333943
| 72> H    1.75428981    3.14586831   -1.06238377
| 73> H    2.13624272    3.37568413    0.65444508
| 74> H    0.56325958    2.70816205    0.15508199
| 75> C    2.14166303    1.31689390   -0.06104540
| 76> O    1.68168315    0.45115748   -0.80022002
| 77> N    3.12814600    1.04386155    0.83128530
| 78> H    3.52790702    1.79879433    1.35663806
| 79> C    3.71659134   -0.27572899    0.90878487
| 80> H    2.92841473   -1.01705914    0.81576428
| 81> H    4.43785112   -0.44772437    0.11024048
| 82> H    4.21124485   -0.39159718    1.86872440
| 83> *
| 84>
| 85>
| 86>
| 87>
| 88>                          ****END OF INPUT****
 Total Charge           Charge          ....    0
 Multiplicity           Mult            ....    1
 Number of Electrons    NEL             ....   58
MP2 TOTAL ENERGY:     -343.413252411 Eh
FINAL SINGLE POINT ENERGY      -343.413252410624
MP2 TOTAL ENERGY:     -343.730622087 Eh
FINAL SINGLE POINT ENERGY      -343.730622087116

CARTESIAN COORDINATES (ANGSTROEM)
---------------------------------
  N     -0.569708    0.814372    0.101098
  H      0.130878    0.561411   -0.587615
  H     -1.461252    0.526915   -0.280430
  C     -0.305514    0.065710    1.328792
  H     -1.057149    0.314270    2.075959
  H     -0.288024   -1.022292    1.214846
  H      0.660458    0.368509    1.730242
  C      1.629671    2.734692   -0.063339
  H      1.754290    3.145868   -1.062384
  H      2.136243    3.375684    0.654445
  H      0.563260    2.708162    0.155082
  C      2.141663    1.316894   -0.061045
  O      1.681683    0.451157   -0.800220
  N      3.128146    1.043862    0.831285
  H      3.527907    1.798794    1.356638
  C      3.716591   -0.275729    0.908785
  H      2.928415   -1.017059    0.815764
  H      4.437851   -0.447724    0.110240
  H      4.211245   -0.391597    1.868724

 Multiplicity           Mult            ....    1
 Number of Electrons    NEL             ....   58
 Basis Dimension        Dim             .... 1112

ORBITAL ENERGIES
----------------

  NO   OCC          E(Eh)            E(eV)
   0   2.0000     -20.514133      -558.2179
   1   2.0000     -15.589980      -424.2249
   2   2.0000     -15.491756      -421.5521
   3   2.0000     -11.352036      -308.9046
   4   2.0000     -11.260876      -306.4240
   5   2.0000     -11.220550      -305.3267
   6   2.0000     -11.220338      -305.3209
   7   2.0000      -1.389645       -37.8142
   8   2.0000      -1.237761       -33.6812
   9   2.0000      -1.141666       -31.0663
  10   2.0000      -1.016499       -27.6603
  11   2.0000      -0.933836       -25.4110
  12   2.0000      -0.876250       -23.8440
  13   2.0000      -0.798595       -21.7309
  14   2.0000      -0.692113       -18.8333
  15   2.0000      -0.678642       -18.4668
  16   2.0000      -0.660249       -17.9663
  17   2.0000      -0.621886       -16.9224
  18   2.0000      -0.594672       -16.1818
  19   2.0000      -0.575304       -15.6548
  20   2.0000      -0.571332       -15.5467
  21   2.0000      -0.558971       -15.2104
  22   2.0000      -0.546667       -14.8756
  23   2.0000      -0.527592       -14.3565
  24   2.0000      -0.507925       -13.8213
  25   2.0000      -0.494119       -13.4457
  26   2.0000      -0.427073       -11.6213
  27   2.0000      -0.394772       -10.7423
  28   2.0000      -0.361245        -9.8300
  29   0.0000       0.019733         0.5370
  30   0.0000       0.030727         0.8361
  31   0.0000       0.034933         0.9506
  32   0.0000       0.035499         0.9660
  33   0.0000       0.047856         1.3022

MULLIKEN ATOMIC CHARGES
-----------------------
   0 N :   -0.594790
   1 H :    0.404480
   2 H :    0.112694
   3 C :   -0.803104
   4 H :    0.341558
   5 H :    0.248403
   6 H :    0.238557
   7 C :   -0.874471
   8 H :    0.289362
   9 H :    0.244270
  10 H :    0.274427
  11 C :    1.321467
  12 O :   -1.010425
  13 N :   -0.551574
  14 H :    0.270224
  15 C :   -0.894297
  16 H :    0.306240
  17 H :    0.313576
  18 H :    0.363404
Sum of atomic charges:   -0.0000000

LOEWDIN ATOMIC CHARGES
----------------------
   0 N :    1.229557
   1 H :   -0.986582
   2 H :   -0.479436
   3 C :    0.760461
   4 H :   -0.299768
   5 H :   -0.274602
   6 H :   -0.353949
   7 C :    0.926769
   8 H :   -0.277984
   9 H :   -0.298442
  10 H :   -0.372061
  11 C :   -0.748273
  12 O :    0.919104
  13 N :    0.850080
  14 H :   -0.495409
  15 C :    0.788887
  16 H :   -0.320769
  17 H :   -0.277288
  18 H :   -0.290293

  Mayer bond orders larger than 0.100000
B(  0-N ,  1-H ) :   0.8047 B(  0-N ,  2-H ) :   1.0541 B(  0-N ,  3-C ) :   0.9736
B(  3-C ,  4-H ) :   0.9122 B(  3-C ,  5-H ) :   0.9456 B(  3-C ,  6-H ) :   0.9019
B(  7-C ,  8-H ) :   0.9281 B(  7-C ,  9-H ) :   1.0139 B(  7-C , 10-H ) :   0.9412
B(  7-C , 11-C ) :   0.7823 B( 11-C , 12-O ) :   1.0462 B( 11-C , 13-N ) :   1.0045
B( 12-O , 13-N ) :   0.1265 B( 13-N , 14-H ) :   0.9591 B( 13-N , 15-C ) :   0.8479
B( 15-C , 16-H ) :   0.9657 B( 15-C , 17-H ) :   0.9440 B( 15-C , 18-H ) :   0.8964

MP2 TOTAL ENERGY:     -343.830173049 Eh
FINAL SINGLE POINT ENERGY      -343.830173048800

DIPOLE MOMENT
-------------
                                X             Y             Z
Electronic contribution:      2.57264       0.75184      -3.08838
Nuclear contribution   :     -1.56113      -0.35975       3.89007
                        -----------------------------------------
Total Dipole Moment    :      1.01151       0.39209       0.80169
                        -----------------------------------------
Magnitude (a.u.)       :      1.34892
Magnitude (Debye)      :      3.42868

Rotational constants in cm-1:     0.108762     0.058300     0.047309
Rotational constants in MHz :  3260.608597  1747.775183  1418.301908

                             ****ORCA TERMINATED NORMALLY****
TOTAL RUN TIME: 0 days 3 hours 16 minutes 3 seconds 984 msec
