                         Program Version 5.0.4 -  RELEASE  -
|  1> ! ri-mp2 aug-cc-pvdz aug-cc-pvdz/c tightscf
|  2> %pal nprocs 16 end
|  3> %maxcore 3800
|  4> %base "DZ_S66by10_47_0.9_dimer"
|  5>
|  6> *xyz 0 1
|  7> C    0.72918867    1.11310122    0.32672825
|  8> H    1.30321590    2.01422234    0.15916027
|  9> C    1.37508737   -0.11936635    0.41277695
| 10> H    2.45051474   -0.17462400    0.31330720
| 11> C    0.63503981   -1.28055339    0.62938541
| 12> H    1.13633448   -2.23601747    0.70021716
| 13> C   -0.75098563   -1.20965430    0.75789034
| 14> H   -1.32452590   -2.11141283    0.92419891
| 15> C   -1.39703443    0.02267081    0.67308963
| 16> H   -2.47242537    0.07848826    0.77399799
| 17> C   -0.65689731    1.18429622    0.45833859
| 18> H   -1.15782845    2.14058713    0.39509608
| 19> C    0.11554713    0.09053057    3.72157194
| 20> H    0.23767354    0.31601403    2.67114550
| 21> C   -0.97553443   -0.66436804    4.14890820
| 22> H   -1.69603896   -1.02088230    3.42521378
| 23> C   -1.13623441   -0.95849336    5.50185827
| 24> H   -1.98334200   -1.54446193    5.83210581
| 25> C   -0.20435185   -0.49743998    6.43035235
| 26> H   -0.32824535   -0.72540614    7.48035985
| 27> C    0.88723325    0.25766207    6.00511207
| 28> H    1.61035233    0.61549525    6.72549472
| 29> C    1.04603714    0.55114709    4.65162075
| 30> H    1.89329506    1.13722189    4.32157342
| 31> *
| 32>
| 33> $new_job
| 34> ! ri-mp2 aug-cc-pvtz aug-cc-pvtz/c tightscf
| 35> %pal nprocs 16 end
| 36> %maxcore 3800
| 37> %base "TZ_S66by10_47_0.9_dimer"
| 38>
| 39> *xyz 0 1
| 40> C    0.72918867    1.11310122    0.32672825
| 41> H    1.30321590    2.01422234    0.15916027
| 42> C    1.37508737   -0.11936635    0.41277695
| 43> H    2.45051474   -0.17462400    0.31330720
| 44> C    0.63503981   -1.28055339    0.62938541
| 45> H    1.13633448   -2.23601747    0.70021716
| 46> C   -0.75098563   -1.20965430    0.75789034
| 47> H   -1.32452590   -2.11141283    0.92419891
| 48> C   -1.39703443    0.02267081    0.67308963
| 49> H   -2.47242537    0.07848826    0.77399799
| 50> C   -0.65689731    1.18429622    0.45833859
| 51> H   -1.15782845    2.14058713    0.39509608
| 52> C    0.11554713    0.09053057    3.72157194
| 53> H    0.23767354    0.31601403    2.67114550
| 54> C   -0.97553443   -0.66436804    4.14890820
| 55> H   -1.69603896   -1.02088230    3.42521378
| 56> C   -1.13623441   -0.95849336    5.50185827
| 57> H   -1.98334200   -1.54446193    5.83210581
| 58> C   -0.20435185   -0.49743998    6.43035235
| 59> H   -0.32824535   -0.72540614    7.48035985
| 60> C    0.88723325    0.25766207    6.00511207
| 61> H    1.61035233    0.61549525    6.72549472
| 62> C    1.04603714    0.55114709    4.65162075
| 63> H    1.89329506    1.13722189    4.32157342
| 64> *
| 65>
| 66> $new_job
| 67> ! ri-mp2 aug-cc-pvqz aug-cc-pvqz/c tightscf
| 68> %pal nprocs 16 end
| 69> %maxcore 3800
| 70> %base "QZ_S66by10_47_0.9_dimer"
| 71>
| 72> *xyz 0 1
| 73> C    0.72918867    1.11310122    0.32672825
| 74> H    1.30321590    2.01422234    0.15916027
| 75> C    1.37508737   -0.11936635    0.41277695
| 76> H    2.45051474   -0.17462400    0.31330720
| 77> C    0.63503981   -1.28055339    0.62938541
| 78> H    1.13633448   -2.23601747    0.70021716
| 79> C   -0.75098563   -1.20965430    0.75789034
| 80> H   -1.32452590   -2.11141283    0.92419891
| 81> C   -1.39703443    0.02267081    0.67308963
| 82> H   -2.47242537    0.07848826    0.77399799
| 83> C   -0.65689731    1.18429622    0.45833859
| 84> H   -1.15782845    2.14058713    0.39509608
| 85> C    0.11554713    0.09053057    3.72157194
| 86> H    0.23767354    0.31601403    2.67114550
| 87> C   -0.97553443   -0.66436804    4.14890820
| 88> H   -1.69603896   -1.02088230    3.42521378
| 89> C   -1.13623441   -0.95849336    5.50185827
| 90> H   -1.98334200   -1.54446193    5.83210581
| 91> C   -0.20435185   -0.49743998    6.43035235
| 92> H   -0.32824535   -0.72540614    7.48035985
| 93> C    0.88723325    0.25766207    6.00511207
| 94> H    1.61035233    0.61549525    6.72549472
| 95> C    1.04603714    0.55114709    4.65162075
| 96> H    1.89329506    1.13722189    4.32157342
| 97> *
| 98>
| 99>
|100>
|101>
|102>                          ****END OF INPUT****
 Total Charge           Charge          ....    0
 Multiplicity           Mult            ....    1
 Number of Electrons    NEL             ....   84
MP2 TOTAL ENERGY:     -463.087365127 Eh
FINAL SINGLE POINT ENERGY      -463.087365126579
MP2 TOTAL ENERGY:     -463.496616363 Eh
FINAL SINGLE POINT ENERGY      -463.496616362620

CARTESIAN COORDINATES (ANGSTROEM)
---------------------------------
  C      0.729189    1.113101    0.326728
  H      1.303216    2.014222    0.159160
  C      1.375087   -0.119366    0.412777
  H      2.450515   -0.174624    0.313307
  C      0.635040   -1.280553    0.629385
  H      1.136334   -2.236017    0.700217
  C     -0.750986   -1.209654    0.757890
  H     -1.324526   -2.111413    0.924199
  C     -1.397034    0.022671    0.673090
  H     -2.472425    0.078488    0.773998
  C     -0.656897    1.184296    0.458339
  H     -1.157828    2.140587    0.395096
  C      0.115547    0.090531    3.721572
  H      0.237674    0.316014    2.671145
  C     -0.975534   -0.664368    4.148908
  H     -1.696039   -1.020882    3.425214
  C     -1.136234   -0.958493    5.501858
  H     -1.983342   -1.544462    5.832106
  C     -0.204352   -0.497440    6.430352
  H     -0.328245   -0.725406    7.480360
  C      0.887233    0.257662    6.005112
  H      1.610352    0.615495    6.725495
  C      1.046037    0.551147    4.651621
  H      1.893295    1.137222    4.321573

 Multiplicity           Mult            ....    1
 Number of Electrons    NEL             ....   84
 Basis Dimension        Dim             .... 1512

ORBITAL ENERGIES
----------------

  NO   OCC          E(Eh)            E(eV)
   0   2.0000     -11.240083      -305.8582
   1   2.0000     -11.239469      -305.8415
   2   2.0000     -11.239354      -305.8384
   3   2.0000     -11.238220      -305.8075
   4   2.0000     -11.238181      -305.8064
   5   2.0000     -11.237479      -305.7873
   6   2.0000     -11.226364      -305.4849
   7   2.0000     -11.225904      -305.4724
   8   2.0000     -11.224393      -305.4313
   9   2.0000     -11.223187      -305.3984
  10   2.0000     -11.222323      -305.3749
  11   2.0000     -11.218190      -305.2625
  12   2.0000      -1.157074       -31.4856
  13   2.0000      -1.139905       -31.0184
  14   2.0000      -1.020726       -27.7754
  15   2.0000      -1.020055       -27.7571
  16   2.0000      -1.004922       -27.3453
  17   2.0000      -1.004200       -27.3257
  18   2.0000      -0.829394       -22.5690
  19   2.0000      -0.829231       -22.5645
  20   2.0000      -0.814600       -22.1664
  21   2.0000      -0.814179       -22.1549
  22   2.0000      -0.715543       -19.4709
  23   2.0000      -0.701260       -19.0823
  24   2.0000      -0.649039       -17.6613
  25   2.0000      -0.635613       -17.2959
  26   2.0000      -0.624249       -16.9867
  27   2.0000      -0.609294       -16.5797
  28   2.0000      -0.593910       -16.1611
  29   2.0000      -0.593221       -16.1424
  30   2.0000      -0.583742       -15.8844
  31   2.0000      -0.578910       -15.7529
  32   2.0000      -0.509434       -13.8624
  33   2.0000      -0.500112       -13.6087
  34   2.0000      -0.499823       -13.6009
  35   2.0000      -0.493141       -13.4190
  36   2.0000      -0.485273       -13.2050
  37   2.0000      -0.474511       -12.9121
  38   2.0000      -0.348416        -9.4809
  39   2.0000      -0.344008        -9.3609
  40   2.0000      -0.328203        -8.9309
  41   2.0000      -0.321388        -8.7454
  42   0.0000       0.022205         0.6042
  43   0.0000       0.026657         0.7254
  44   0.0000       0.029864         0.8126
  45   0.0000       0.031170         0.8482
  46   0.0000       0.038142         1.0379

MULLIKEN ATOMIC CHARGES
-----------------------
   0 C :   -0.196150
   1 H :    0.303859
   2 C :   -0.326020
   3 H :    0.279268
   4 C :   -0.380108
   5 H :    0.285117
   6 C :   -0.296884
   7 H :    0.305349
   8 C :   -0.297852
   9 H :    0.333005
  10 C :   -0.433025
  11 H :    0.254461
  12 C :   -0.273639
  13 H :    1.086680
  14 C :   -0.458946
  15 H :    0.244066
  16 C :   -0.311513
  17 H :    0.279875
  18 C :   -0.343755
  19 H :    0.340974
  20 C :   -0.332484
  21 H :    0.322200
  22 C :   -0.596736
  23 H :    0.212259
Sum of atomic charges:    0.0000000

LOEWDIN ATOMIC CHARGES
----------------------
   0 C :    0.334644
   1 H :   -0.315309
   2 C :    0.334679
   3 H :   -0.314874
   4 C :    0.335554
   5 H :   -0.311695
   6 C :    0.312285
   7 H :   -0.310972
   8 C :    0.321547
   9 H :   -0.310144
  10 C :    0.336259
  11 H :   -0.313167
  12 C :    0.323641
  13 H :   -0.468677
  14 C :    0.342747
  15 H :   -0.343299
  16 C :    0.340359
  17 H :   -0.327320
  18 C :    0.327818
  19 H :   -0.329992
  20 C :    0.331522
  21 H :   -0.328798
  22 C :    0.354599
  23 H :   -0.321405

  Mayer bond orders larger than 0.100000
B(  0-C ,  1-H ) :   1.0729 B(  0-C ,  2-C ) :   1.1062 B(  0-C ,  6-C ) :   0.1209
B(  0-C , 10-C ) :   1.2505 B(  2-C ,  3-H ) :   1.0999 B(  2-C ,  4-C ) :   1.2720
B(  2-C ,  8-C ) :   0.1415 B(  4-C ,  5-H ) :   1.0583 B(  4-C ,  6-C ) :   1.2367
B(  4-C , 10-C ) :   0.2294 B(  6-C ,  7-H ) :   1.0399 B(  6-C ,  8-C ) :   1.1897
B(  8-C ,  9-H ) :   1.0123 B(  8-C , 10-C ) :   1.2581 B( 10-C , 11-H ) :   1.1064
B( 12-C , 13-H ) :   0.2140 B( 12-C , 14-C ) :   1.0854 B( 12-C , 16-C ) :  -0.2345
B( 12-C , 20-C ) :  -0.2316 B( 12-C , 22-C ) :   1.0423 B( 13-H , 14-C ) :  -0.2521
B( 13-H , 22-C ) :  -0.1684 B( 14-C , 15-H ) :   1.0317 B( 14-C , 16-C ) :   1.2026
B( 14-C , 17-H ) :  -0.1126 B( 14-C , 20-C ) :   0.1172 B( 16-C , 17-H ) :   1.0839
B( 16-C , 18-C ) :   1.2111 B( 16-C , 22-C ) :   0.1876 B( 18-C , 19-H ) :   0.9983
B( 18-C , 20-C ) :   1.0957 B( 18-C , 21-H ) :  -0.1090 B( 20-C , 21-H ) :   1.0464
B( 20-C , 22-C ) :   1.3817 B( 21-H , 22-C ) :  -0.1278 B( 22-C , 23-H ) :   1.0937

MP2 TOTAL ENERGY:     -463.625530942 Eh
FINAL SINGLE POINT ENERGY      -463.625530942184

DIPOLE MOMENT
-------------
                                X             Y             Z
Electronic contribution:      0.01464      -0.00251      -0.24896
Nuclear contribution   :      0.00163      -0.00027       0.00367
                        -----------------------------------------
Total Dipole Moment    :      0.01627      -0.00278      -0.24530
                        -----------------------------------------
Magnitude (a.u.)       :      0.24585
Magnitude (Debye)      :      0.62490

Rotational constants in cm-1:     0.064185     0.017135     0.015766
Rotational constants in MHz :  1924.230517   513.705197   472.638166

                             ****ORCA TERMINATED NORMALLY****
TOTAL RUN TIME: 0 days 1 hours 24 minutes 14 seconds 385 msec
