                         Program Version 5.0.4 -  RELEASE  -
|  1> ! ri-mp2 aug-cc-pvdz aug-cc-pvdz/c tightscf
|  2> %pal nprocs 16 end
|  3> %maxcore 3800
|  4> %base "DZ_S66by10_20_2.0_dimer"
|  5> %scf STABPerform true end
|  6>
|  7> *xyz 0 1
|  8> C   -1.06170920    1.29714057    0.29206000
|  9> O   -0.35816112    2.27045861    0.53181267
| 10> O   -0.58930352    0.09491776    0.00378881
| 11> H    0.40443566    0.12772262    0.01841184
| 12> C   -2.55842780    1.34254982    0.29625732
| 13> H   -2.89599798    2.34746400    0.51831634
| 14> H   -2.93288928    1.02239045   -0.67299555
| 15> H   -2.93721196    0.64491043    1.03955708
| 16> C    4.49117555    1.11595006    0.28420758
| 17> O    3.78755718    0.14263557    0.04441998
| 18> O    4.01874921    2.31838545    0.57198605
| 19> H    3.02496067    2.28548721    0.55758555
| 20> C    5.98788800    1.07004731    0.28224318
| 21> H    6.32546756    0.06872812    0.04471769
| 22> H    6.36938654    1.78040025   -0.44722571
| 23> H    6.35940431    1.37274183    1.25829854
| 24> *
| 25>
| 26> $new_job
| 27> ! ri-mp2 aug-cc-pvtz aug-cc-pvtz/c tightscf
| 28> %pal nprocs 16 end
| 29> %maxcore 3800
| 30> %base "TZ_S66by10_20_2.0_dimer"
| 31>
| 32> *xyz 0 1
| 33> C   -1.06170920    1.29714057    0.29206000
| 34> O   -0.35816112    2.27045861    0.53181267
| 35> O   -0.58930352    0.09491776    0.00378881
| 36> H    0.40443566    0.12772262    0.01841184
| 37> C   -2.55842780    1.34254982    0.29625732
| 38> H   -2.89599798    2.34746400    0.51831634
| 39> H   -2.93288928    1.02239045   -0.67299555
| 40> H   -2.93721196    0.64491043    1.03955708
| 41> C    4.49117555    1.11595006    0.28420758
| 42> O    3.78755718    0.14263557    0.04441998
| 43> O    4.01874921    2.31838545    0.57198605
| 44> H    3.02496067    2.28548721    0.55758555
| 45> C    5.98788800    1.07004731    0.28224318
| 46> H    6.32546756    0.06872812    0.04471769
| 47> H    6.36938654    1.78040025   -0.44722571
| 48> H    6.35940431    1.37274183    1.25829854
| 49> *
| 50>
| 51> $new_job
| 52> ! ri-mp2 aug-cc-pvqz aug-cc-pvqz/c tightscf
| 53> %pal nprocs 16 end
| 54> %maxcore 3800
| 55> %base "QZ_S66by10_20_2.0_dimer"
| 56>
| 57> *xyz 0 1
| 58> C   -1.06170920    1.29714057    0.29206000
| 59> O   -0.35816112    2.27045861    0.53181267
| 60> O   -0.58930352    0.09491776    0.00378881
| 61> H    0.40443566    0.12772262    0.01841184
| 62> C   -2.55842780    1.34254982    0.29625732
| 63> H   -2.89599798    2.34746400    0.51831634
| 64> H   -2.93288928    1.02239045   -0.67299555
| 65> H   -2.93721196    0.64491043    1.03955708
| 66> C    4.49117555    1.11595006    0.28420758
| 67> O    3.78755718    0.14263557    0.04441998
| 68> O    4.01874921    2.31838545    0.57198605
| 69> H    3.02496067    2.28548721    0.55758555
| 70> C    5.98788800    1.07004731    0.28224318
| 71> H    6.32546756    0.06872812    0.04471769
| 72> H    6.36938654    1.78040025   -0.44722571
| 73> H    6.35940431    1.37274183    1.25829854
| 74> *
| 75>
| 76>
| 77>
| 78>
| 79>                          ****END OF INPUT****
 Total Charge           Charge          ....    0
 Multiplicity           Mult            ....    1
 Number of Electrons    NEL             ....   64
MP2 TOTAL ENERGY:     -457.049772768 Eh
FINAL SINGLE POINT ENERGY      -457.049772767748
MP2 TOTAL ENERGY:     -457.447170220 Eh
FINAL SINGLE POINT ENERGY      -457.447170219941

CARTESIAN COORDINATES (ANGSTROEM)
---------------------------------
  C     -1.061709    1.297141    0.292060
  O     -0.358161    2.270459    0.531813
  O     -0.589304    0.094918    0.003789
  H      0.404436    0.127723    0.018412
  C     -2.558428    1.342550    0.296257
  H     -2.895998    2.347464    0.518316
  H     -2.932889    1.022390   -0.672996
  H     -2.937212    0.644910    1.039557
  C      4.491176    1.115950    0.284208
  O      3.787557    0.142636    0.044420
  O      4.018749    2.318385    0.571986
  H      3.024961    2.285487    0.557586
  C      5.987888    1.070047    0.282243
  H      6.325468    0.068728    0.044718
  H      6.369387    1.780400   -0.447226
  H      6.359404    1.372742    1.258299

 Multiplicity           Mult            ....    1
 Number of Electrons    NEL             ....   64
 Basis Dimension        Dim             .... 1008

ORBITAL ENERGIES
----------------

  NO   OCC          E(Eh)            E(eV)
   0   2.0000     -20.619057      -561.0731
   1   2.0000     -20.619053      -561.0729
   2   2.0000     -20.544534      -559.0452
   3   2.0000     -20.544517      -559.0447
   4   2.0000     -11.389297      -309.9185
   5   2.0000     -11.389277      -309.9180
   6   2.0000     -11.242486      -305.9236
   7   2.0000     -11.242481      -305.9235
   8   2.0000      -1.469398       -39.9844
   9   2.0000      -1.469280       -39.9812
  10   2.0000      -1.354899       -36.8687
  11   2.0000      -1.354791       -36.8657
  12   2.0000      -1.028478       -27.9863
  13   2.0000      -1.028319       -27.9820
  14   2.0000      -0.831495       -22.6261
  15   2.0000      -0.830908       -22.6102
  16   2.0000      -0.706599       -19.2275
  17   2.0000      -0.705269       -19.1914
  18   2.0000      -0.682716       -18.5777
  19   2.0000      -0.682230       -18.5644
  20   2.0000      -0.655453       -17.8358
  21   2.0000      -0.655295       -17.8315
  22   2.0000      -0.580671       -15.8009
  23   2.0000      -0.580504       -15.7963
  24   2.0000      -0.572844       -15.5879
  25   2.0000      -0.571509       -15.5515
  26   2.0000      -0.564077       -15.3493
  27   2.0000      -0.563999       -15.3472
  28   2.0000      -0.479688       -13.0530
  29   2.0000      -0.479470       -13.0470
  30   2.0000      -0.455911       -12.4060
  31   2.0000      -0.453367       -12.3367
  32   0.0000       0.024958         0.6791
  33   0.0000       0.028493         0.7753
  34   0.0000       0.039440         1.0732
  35   0.0000       0.040760         1.1091
  36   0.0000       0.043841         1.1930

MULLIKEN ATOMIC CHARGES
-----------------------
   0 C :    0.899045
   1 O :   -0.736634
   2 O :   -0.676169
   3 H :    0.396556
   4 C :   -0.764147
   5 H :    0.300891
   6 H :    0.288577
   7 H :    0.291884
   8 C :    0.898985
   9 O :   -0.736633
  10 O :   -0.676206
  11 H :    0.396591
  12 C :   -0.764256
  13 H :    0.300970
  14 H :    0.290575
  15 H :    0.289971
Sum of atomic charges:   -0.0000000

LOEWDIN ATOMIC CHARGES
----------------------
   0 C :   -1.062387
   1 O :    0.665983
   2 O :    1.227439
   3 H :   -0.753801
   4 C :    0.858666
   5 H :   -0.325810
   6 H :   -0.305474
   7 H :   -0.304617
   8 C :   -1.062261
   9 O :    0.665941
  10 O :    1.227360
  11 H :   -0.753761
  12 C :    0.858743
  13 H :   -0.325855
  14 H :   -0.305061
  15 H :   -0.305105

  Mayer bond orders larger than 0.100000
B(  0-C ,  1-O ) :   1.5377 B(  0-C ,  2-O ) :   0.9568 B(  0-C ,  4-C ) :   0.8980
B(  2-O ,  3-H ) :   0.8265 B(  4-C ,  5-H ) :   0.9657 B(  4-C ,  6-H ) :   0.9248
B(  4-C ,  7-H ) :   0.9177 B(  8-C ,  9-O ) :   1.5377 B(  8-C , 10-O ) :   0.9568
B(  8-C , 12-C ) :   0.8980 B( 10-O , 11-H ) :   0.8264 B( 12-C , 13-H ) :   0.9656
B( 12-C , 14-H ) :   0.9207 B( 12-C , 15-H ) :   0.9218

MP2 TOTAL ENERGY:     -457.577237222 Eh
FINAL SINGLE POINT ENERGY      -457.577237221824

DIPOLE MOMENT
-------------
                                X             Y             Z
Electronic contribution:      0.00033       0.00156      -0.00739
Nuclear contribution   :     -0.00018      -0.00204       0.00898
                        -----------------------------------------
Total Dipole Moment    :      0.00015      -0.00049       0.00159
                        -----------------------------------------
Magnitude (a.u.)       :      0.00167
Magnitude (Debye)      :      0.00424

Rotational constants in cm-1:     0.187898     0.015786     0.014641
Rotational constants in MHz :  5633.036911   473.262671   438.933781

                             ****ORCA TERMINATED NORMALLY****
TOTAL RUN TIME: 0 days 1 hours 3 minutes 14 seconds 417 msec
