                         Program Version 5.0.4 -  RELEASE  -
|  1> ! ri-mp2 aug-cc-pvdz aug-cc-pvdz/c tightscf
|  2> %pal nprocs 16 end
|  3> %maxcore 3800
|  4> %base "DZ_S66by10_59_0.9_dimer"
|  5> %scf STABPerform true end
|  6>
|  7> *xyz 0 1
|  8> C   -1.00686722   -0.03056821   -0.02477285
|  9> H    0.05900333   -0.06093974   -0.04936562
| 10> C   -2.21874380    0.00317347    0.00259920
| 11> H   -3.27927730    0.03352491    0.02720048
| 12> O    2.06571592   -0.13796302   -0.10952892
| 13> H    2.63607234   -0.72773240    0.38749801
| 14> H    2.63771177    0.21302501   -0.79490107
| 15> *
| 16>
| 17> $new_job
| 18> ! ri-mp2 aug-cc-pvtz aug-cc-pvtz/c tightscf
| 19> %pal nprocs 16 end
| 20> %maxcore 3800
| 21> %base "TZ_S66by10_59_0.9_dimer"
| 22>
| 23> *xyz 0 1
| 24> C   -1.00686722   -0.03056821   -0.02477285
| 25> H    0.05900333   -0.06093974   -0.04936562
| 26> C   -2.21874380    0.00317347    0.00259920
| 27> H   -3.27927730    0.03352491    0.02720048
| 28> O    2.06571592   -0.13796302   -0.10952892
| 29> H    2.63607234   -0.72773240    0.38749801
| 30> H    2.63771177    0.21302501   -0.79490107
| 31> *
| 32>
| 33> $new_job
| 34> ! ri-mp2 aug-cc-pvqz aug-cc-pvqz/c tightscf
| 35> %pal nprocs 16 end
| 36> %maxcore 3800
| 37> %base "QZ_S66by10_59_0.9_dimer"
| 38>
| 39> *xyz 0 1
| 40> C   -1.00686722   -0.03056821   -0.02477285
| 41> H    0.05900333   -0.06093974   -0.04936562
| 42> C   -2.21874380    0.00317347    0.00259920
| 43> H   -3.27927730    0.03352491    0.02720048
| 44> O    2.06571592   -0.13796302   -0.10952892
| 45> H    2.63607234   -0.72773240    0.38749801
| 46> H    2.63771177    0.21302501   -0.79490107
| 47> *
| 48>
| 49>
| 50>
| 51>
| 52>                          ****END OF INPUT****
 Total Charge           Charge          ....    0
 Multiplicity           Mult            ....    1
 Number of Electrons    NEL             ....   24
MP2 TOTAL ENERGY:     -153.358111176 Eh
FINAL SINGLE POINT ENERGY      -153.358111175565
MP2 TOTAL ENERGY:     -153.497601453 Eh
FINAL SINGLE POINT ENERGY      -153.497601453203

CARTESIAN COORDINATES (ANGSTROEM)
---------------------------------
  C     -1.006867   -0.030568   -0.024773
  H      0.059003   -0.060940   -0.049366
  C     -2.218744    0.003173    0.002599
  H     -3.279277    0.033525    0.027200
  O      2.065716   -0.137963   -0.109529
  H      2.636072   -0.727732    0.387498
  H      2.637712    0.213025   -0.794901

 Multiplicity           Mult            ....    1
 Number of Electrons    NEL             ....   24
 Basis Dimension        Dim             ....  424

ORBITAL ENERGIES
----------------

  NO   OCC          E(Eh)            E(eV)
   0   2.0000     -20.584849      -560.1422
   1   2.0000     -11.222322      -305.3749
   2   2.0000     -11.218314      -305.2658
   3   2.0000      -1.374389       -37.3990
   4   2.0000      -1.006759       -27.3953
   5   2.0000      -0.749113       -20.3844
   6   2.0000      -0.736481       -20.0407
   7   2.0000      -0.668293       -18.1852
   8   2.0000      -0.598833       -16.2951
   9   2.0000      -0.532475       -14.4894
  10   2.0000      -0.388372       -10.5681
  11   2.0000      -0.388205       -10.5636
  12   0.0000       0.019282         0.5247
  13   0.0000       0.032168         0.8753
  14   0.0000       0.040282         1.0961
  15   0.0000       0.051995         1.4149
  16   0.0000       0.080379         2.1872

MULLIKEN ATOMIC CHARGES
-----------------------
   0 C :   -0.490853
   1 H :    0.944659
   2 C :   -0.928316
   3 H :    0.459104
   4 O :   -0.558442
   5 H :    0.287008
   6 H :    0.286839
Sum of atomic charges:    0.0000000

LOEWDIN ATOMIC CHARGES
----------------------
   0 C :    0.481360
   1 H :   -0.636626
   2 C :    0.485984
   3 H :   -0.491237
   4 O :    1.647658
   5 H :   -0.743528
   6 H :   -0.743612

  Mayer bond orders larger than 0.100000
B(  0-C ,  1-H ) :   0.3060 B(  0-C ,  2-C ) :   2.1922 B(  0-C ,  3-H ) :  -0.1034
B(  2-C ,  3-H ) :   0.9434 B(  4-O ,  5-H ) :   0.9684 B(  4-O ,  6-H ) :   0.9686

MP2 TOTAL ENERGY:     -153.541918335 Eh
FINAL SINGLE POINT ENERGY      -153.541918335144

DIPOLE MOMENT
-------------
                                X             Y             Z
Electronic contribution:     -1.22433       0.07925       0.06256
Nuclear contribution   :      2.26699      -0.24700      -0.19496
                        -----------------------------------------
Total Dipole Moment    :      1.04266      -0.16775      -0.13240
                        -----------------------------------------
Magnitude (a.u.)       :      1.06433
Magnitude (Debye)      :      2.70532

Rotational constants in cm-1:    14.281267     0.102462     0.101768
Rotational constants in MHz : 428141.610838  3071.723530  3050.936700

                             ****ORCA TERMINATED NORMALLY****
TOTAL RUN TIME: 0 days 0 hours 4 minutes 46 seconds 656 msec
