                         Program Version 5.0.4 -  RELEASE  -
|  1> ! ri-mp2 aug-cc-pvdz aug-cc-pvdz/c tightscf
|  2> %pal nprocs 16 end
|  3> %maxcore 3800
|  4> %base "DZ_S66by10_40_0.9_dimer"
|  5>
|  6> *xyz 0 1
|  7> C    0.31195353    0.56102334    0.49669886
|  8> H    0.74213608    1.55336911    0.48156571
|  9> C    1.14218235   -0.55807461    0.53606185
| 10> H    2.21651131   -0.43425014    0.55235015
| 11> C    0.58780415   -1.83668704    0.55414435
| 12> H    1.23191239   -2.70484153    0.58522179
| 13> C   -0.79665772   -1.99637562    0.53296300
| 14> H   -1.22677442   -2.98844427    0.54863708
| 15> C   -1.62689297   -0.87747365    0.49416828
| 16> H   -2.70112211   -1.00134997    0.47981498
| 17> C   -1.07266525    0.40120590    0.47597397
| 18> H   -1.71697357    1.26940117    0.44591995
| 19> C    0.18473986    0.51753412    4.48117812
| 20> C    1.63098854    0.69632148    4.02621663
| 21> H    2.04684526    1.62959935    4.40963961
| 22> H    2.25438786   -0.12429415    4.38507050
| 23> H    1.69159768    0.71571277    2.93728241
| 24> C    0.13034850    0.48616298    6.00604343
| 25> H   -0.89544153    0.35874256    6.35513121
| 26> H    0.72575440   -0.33952389    6.39859717
| 27> H    0.51864298    1.41404761    6.42894901
| 28> C   -0.36464017   -0.79195786    3.92088210
| 29> H   -1.39951377   -0.94223289    4.23355369
| 30> H    0.22181641   -1.64093162    4.27669336
| 31> H   -0.33586034   -0.79241063    2.83056785
| 32> C   -0.65663292    1.68210580    3.96497264
| 33> H   -0.63509196    1.71813620    2.87497408
| 34> H   -1.69642207    1.57833624    4.27945512
| 35> H   -0.28098032    2.63280028    4.34707955
| 36> *
| 37>
| 38> $new_job
| 39> ! ri-mp2 aug-cc-pvtz aug-cc-pvtz/c tightscf
| 40> %pal nprocs 16 end
| 41> %maxcore 3800
| 42> %base "TZ_S66by10_40_0.9_dimer"
| 43>
| 44> *xyz 0 1
| 45> C    0.31195353    0.56102334    0.49669886
| 46> H    0.74213608    1.55336911    0.48156571
| 47> C    1.14218235   -0.55807461    0.53606185
| 48> H    2.21651131   -0.43425014    0.55235015
| 49> C    0.58780415   -1.83668704    0.55414435
| 50> H    1.23191239   -2.70484153    0.58522179
| 51> C   -0.79665772   -1.99637562    0.53296300
| 52> H   -1.22677442   -2.98844427    0.54863708
| 53> C   -1.62689297   -0.87747365    0.49416828
| 54> H   -2.70112211   -1.00134997    0.47981498
| 55> C   -1.07266525    0.40120590    0.47597397
| 56> H   -1.71697357    1.26940117    0.44591995
| 57> C    0.18473986    0.51753412    4.48117812
| 58> C    1.63098854    0.69632148    4.02621663
| 59> H    2.04684526    1.62959935    4.40963961
| 60> H    2.25438786   -0.12429415    4.38507050
| 61> H    1.69159768    0.71571277    2.93728241
| 62> C    0.13034850    0.48616298    6.00604343
| 63> H   -0.89544153    0.35874256    6.35513121
| 64> H    0.72575440   -0.33952389    6.39859717
| 65> H    0.51864298    1.41404761    6.42894901
| 66> C   -0.36464017   -0.79195786    3.92088210
| 67> H   -1.39951377   -0.94223289    4.23355369
| 68> H    0.22181641   -1.64093162    4.27669336
| 69> H   -0.33586034   -0.79241063    2.83056785
| 70> C   -0.65663292    1.68210580    3.96497264
| 71> H   -0.63509196    1.71813620    2.87497408
| 72> H   -1.69642207    1.57833624    4.27945512
| 73> H   -0.28098032    2.63280028    4.34707955
| 74> *
| 75>
| 76> $new_job
| 77> ! ri-mp2 aug-cc-pvqz aug-cc-pvqz/c tightscf
| 78> %pal nprocs 16 end
| 79> %maxcore 3800
| 80> %base "QZ_S66by10_40_0.9_dimer"
| 81>
| 82> *xyz 0 1
| 83> C    0.31195353    0.56102334    0.49669886
| 84> H    0.74213608    1.55336911    0.48156571
| 85> C    1.14218235   -0.55807461    0.53606185
| 86> H    2.21651131   -0.43425014    0.55235015
| 87> C    0.58780415   -1.83668704    0.55414435
| 88> H    1.23191239   -2.70484153    0.58522179
| 89> C   -0.79665772   -1.99637562    0.53296300
| 90> H   -1.22677442   -2.98844427    0.54863708
| 91> C   -1.62689297   -0.87747365    0.49416828
| 92> H   -2.70112211   -1.00134997    0.47981498
| 93> C   -1.07266525    0.40120590    0.47597397
| 94> H   -1.71697357    1.26940117    0.44591995
| 95> C    0.18473986    0.51753412    4.48117812
| 96> C    1.63098854    0.69632148    4.02621663
| 97> H    2.04684526    1.62959935    4.40963961
| 98> H    2.25438786   -0.12429415    4.38507050
| 99> H    1.69159768    0.71571277    2.93728241
|100> C    0.13034850    0.48616298    6.00604343
|101> H   -0.89544153    0.35874256    6.35513121
|102> H    0.72575440   -0.33952389    6.39859717
|103> H    0.51864298    1.41404761    6.42894901
|104> C   -0.36464017   -0.79195786    3.92088210
|105> H   -1.39951377   -0.94223289    4.23355369
|106> H    0.22181641   -1.64093162    4.27669336
|107> H   -0.33586034   -0.79241063    2.83056785
|108> C   -0.65663292    1.68210580    3.96497264
|109> H   -0.63509196    1.71813620    2.87497408
|110> H   -1.69642207    1.57833624    4.27945512
|111> H   -0.28098032    2.63280028    4.34707955
|112> *
|113>
|114>
|115>
|116>
|117>                          ****END OF INPUT****
 Total Charge           Charge          ....    0
 Multiplicity           Mult            ....    1
 Number of Electrons    NEL             ....   84
MP2 TOTAL ENERGY:     -428.671279729 Eh
FINAL SINGLE POINT ENERGY      -428.671279729207
MP2 TOTAL ENERGY:     -429.070054473 Eh
FINAL SINGLE POINT ENERGY      -429.070054472542

CARTESIAN COORDINATES (ANGSTROEM)
---------------------------------
  C      0.311954    0.561023    0.496699
  H      0.742136    1.553369    0.481566
  C      1.142182   -0.558075    0.536062
  H      2.216511   -0.434250    0.552350
  C      0.587804   -1.836687    0.554144
  H      1.231912   -2.704842    0.585222
  C     -0.796658   -1.996376    0.532963
  H     -1.226774   -2.988444    0.548637
  C     -1.626893   -0.877474    0.494168
  H     -2.701122   -1.001350    0.479815
  C     -1.072665    0.401206    0.475974
  H     -1.716974    1.269401    0.445920
  C      0.184740    0.517534    4.481178
  C      1.630989    0.696321    4.026217
  H      2.046845    1.629599    4.409640
  H      2.254388   -0.124294    4.385071
  H      1.691598    0.715713    2.937282
  C      0.130349    0.486163    6.006043
  H     -0.895442    0.358743    6.355131
  H      0.725754   -0.339524    6.398597
  H      0.518643    1.414048    6.428949
  C     -0.364640   -0.791958    3.920882
  H     -1.399514   -0.942233    4.233554
  H      0.221816   -1.640932    4.276693
  H     -0.335860   -0.792411    2.830568
  C     -0.656633    1.682106    3.964973
  H     -0.635092    1.718136    2.874974
  H     -1.696422    1.578336    4.279455
  H     -0.280980    2.632800    4.347080

 Multiplicity           Mult            ....    1
 Number of Electrons    NEL             ....   84
 Basis Dimension        Dim             .... 1708

ORBITAL ENERGIES
----------------

  NO   OCC          E(Eh)            E(eV)
   0   2.0000     -11.237653      -305.7921
   1   2.0000     -11.237047      -305.7756
   2   2.0000     -11.236927      -305.7723
   3   2.0000     -11.235805      -305.7418
   4   2.0000     -11.235735      -305.7399
   5   2.0000     -11.235072      -305.7218
   6   2.0000     -11.216745      -305.2232
   7   2.0000     -11.197659      -304.7038
   8   2.0000     -11.196543      -304.6734
   9   2.0000     -11.196522      -304.6728
  10   2.0000     -11.189653      -304.4859
  11   2.0000      -1.153956       -31.4007
  12   2.0000      -1.097515       -29.8649
  13   2.0000      -1.018017       -27.7016
  14   2.0000      -1.017778       -27.6952
  15   2.0000      -0.921689       -25.0804
  16   2.0000      -0.921281       -25.0693
  17   2.0000      -0.917473       -24.9657
  18   2.0000      -0.827108       -22.5068
  19   2.0000      -0.827052       -22.5052
  20   2.0000      -0.721789       -19.6409
  21   2.0000      -0.713001       -19.4017
  22   2.0000      -0.647089       -17.6082
  23   2.0000      -0.622208       -16.9311
  24   2.0000      -0.606659       -16.5080
  25   2.0000      -0.604309       -16.4441
  26   2.0000      -0.603392       -16.4191
  27   2.0000      -0.591085       -16.0842
  28   2.0000      -0.590877       -16.0786
  29   2.0000      -0.546775       -14.8785
  30   2.0000      -0.545383       -14.8406
  31   2.0000      -0.514333       -13.9957
  32   2.0000      -0.502989       -13.6870
  33   2.0000      -0.500527       -13.6200
  34   2.0000      -0.497860       -13.5475
  35   2.0000      -0.497558       -13.5393
  36   2.0000      -0.493109       -13.4182
  37   2.0000      -0.444310       -12.0903
  38   2.0000      -0.443405       -12.0657
  39   2.0000      -0.437179       -11.8962
  40   2.0000      -0.340350        -9.2614
  41   2.0000      -0.339821        -9.2470
  42   0.0000       0.021914         0.5963
  43   0.0000       0.028058         0.7635
  44   0.0000       0.028491         0.7753
  45   0.0000       0.032092         0.8733
  46   0.0000       0.040076         1.0905

MULLIKEN ATOMIC CHARGES
-----------------------
   0 C :   -0.166556
   1 H :    0.338561
   2 C :   -0.295552
   3 H :    0.280806
   4 C :   -0.375609
   5 H :    0.250933
   6 C :   -0.276399
   7 H :    0.276765
   8 C :   -0.376150
   9 H :    0.250322
  10 C :   -0.294341
  11 H :    0.280586
  12 C :    1.993929
  13 C :   -1.346184
  14 H :    0.213909
  15 H :    0.166949
  16 H :    0.422327
  17 C :   -1.122688
  18 H :    0.218396
  19 H :    0.218390
  20 H :    0.232417
  21 C :   -1.245022
  22 H :    0.232644
  23 H :    0.232560
  24 H :    0.432262
  25 C :   -1.345856
  26 H :    0.421801
  27 H :    0.167117
  28 H :    0.213685
Sum of atomic charges:   -0.0000000

LOEWDIN ATOMIC CHARGES
----------------------
   0 C :    0.320818
   1 H :   -0.307455
   2 C :    0.328819
   3 H :   -0.311601
   4 C :    0.337299
   5 H :   -0.314963
   6 C :    0.332581
   7 H :   -0.315767
   8 C :    0.337399
   9 H :   -0.314977
  10 C :    0.328779
  11 H :   -0.311621
  12 C :   -0.314516
  13 C :    0.903996
  14 H :   -0.265492
  15 H :   -0.264424
  16 H :   -0.313931
  17 C :    0.904400
  18 H :   -0.271825
  19 H :   -0.271800
  20 H :   -0.272049
  21 C :    0.894491
  22 H :   -0.255538
  23 H :   -0.255529
  24 H :   -0.387237
  25 C :    0.903984
  26 H :   -0.313943
  27 H :   -0.264396
  28 H :   -0.265503

  Mayer bond orders larger than 0.100000
B(  0-C ,  1-H ) :   0.9880 B(  0-C ,  2-C ) :   1.1559 B(  0-C ,  6-C ) :   0.1827
B(  0-C , 10-C ) :   1.1546 B(  2-C ,  3-H ) :   1.0738 B(  2-C ,  4-C ) :   1.1747
B(  2-C ,  8-C ) :   0.1547 B(  4-C ,  5-H ) :   1.1338 B(  4-C ,  6-C ) :   1.2553
B(  4-C , 10-C ) :   0.1546 B(  6-C ,  7-H ) :   1.0796 B(  6-C ,  8-C ) :   1.2555
B(  6-C , 24-H ) :  -0.1740 B(  8-C ,  9-H ) :   1.1343 B(  8-C , 10-C ) :   1.1746
B( 10-C , 11-H ) :   1.0740 B( 12-C , 13-C ) :   0.3103 B( 12-C , 15-H ) :  -0.1106
B( 12-C , 18-H ) :  -0.1728 B( 12-C , 19-H ) :  -0.1729 B( 12-C , 20-H ) :  -0.1599
B( 12-C , 21-C ) :   0.4289 B( 12-C , 24-H ) :  -0.2234 B( 12-C , 25-C ) :   0.3100
B( 12-C , 27-H ) :  -0.1106 B( 13-C , 14-H ) :   1.0999 B( 13-C , 15-H ) :   1.1140
B( 13-C , 16-H ) :   0.8394 B( 13-C , 17-C ) :   0.1661 B( 13-C , 21-C ) :   0.1568
B( 13-C , 25-C ) :   0.1834 B( 17-C , 18-H ) :   1.0911 B( 17-C , 19-H ) :   1.0913
B( 17-C , 20-H ) :   1.0801 B( 17-C , 21-C ) :   0.1527 B( 17-C , 25-C ) :   0.1658
B( 21-C , 22-H ) :   0.9796 B( 21-C , 23-H ) :   0.9796 B( 21-C , 24-H ) :   1.0704
B( 21-C , 25-C ) :   0.1570 B( 25-C , 26-H ) :   0.8399 B( 25-C , 27-H ) :   1.1136
B( 25-C , 28-H ) :   1.1002

MP2 TOTAL ENERGY:     -429.191958233 Eh
FINAL SINGLE POINT ENERGY      -429.191958233037

DIPOLE MOMENT
-------------
                                X             Y             Z
Electronic contribution:     -1.36774      -3.95354     -12.65606
Nuclear contribution   :      1.34279       3.88543      12.48951
                        -----------------------------------------
Total Dipole Moment    :     -0.02495      -0.06811      -0.16655
                        -----------------------------------------
Magnitude (a.u.)       :      0.18166
Magnitude (Debye)      :      0.46174

Rotational constants in cm-1:     0.060108     0.019720     0.019512
Rotational constants in MHz :  1801.984095   591.192931   584.959692

                             ****ORCA TERMINATED NORMALLY****
TOTAL RUN TIME: 0 days 2 hours 7 minutes 9 seconds 25 msec
