                         Program Version 5.0.4 -  RELEASE  -
|  1> ! ri-mp2 aug-cc-pvdz aug-cc-pvdz/c tightscf
|  2> %pal nprocs 16 end
|  3> %maxcore 3800
|  4> %base "DZ_S66by10_60_0.95_dimer"
|  5> %scf STABPerform true end
|  6>
|  7> *xyz 0 1
|  8> C   -0.61056257    0.22750310   -0.17060207
|  9> H    0.10738506    0.86143603   -0.63420924
| 10> C   -1.38627573   -0.52532550    0.37997353
| 11> H   -2.08070324   -1.17406739    0.85437937
| 12> C    2.75689767   -0.60696302    0.44060225
| 13> O    2.50271861    0.34913922   -0.25823550
| 14> O    1.80899305   -1.38130325    1.00828885
| 15> H    0.94799366   -1.01400426    0.74051771
| 16> C    4.13253282   -1.08841285    0.79075315
| 17> H    4.87091863   -0.45086276    0.31990283
| 18> H    4.25874334   -1.07655813    1.87078848
| 19> H    4.25480996   -2.11625740    0.45751883
| 20> *
| 21>
| 22> $new_job
| 23> ! ri-mp2 aug-cc-pvtz aug-cc-pvtz/c tightscf
| 24> %pal nprocs 16 end
| 25> %maxcore 3800
| 26> %base "TZ_S66by10_60_0.95_dimer"
| 27>
| 28> *xyz 0 1
| 29> C   -0.61056257    0.22750310   -0.17060207
| 30> H    0.10738506    0.86143603   -0.63420924
| 31> C   -1.38627573   -0.52532550    0.37997353
| 32> H   -2.08070324   -1.17406739    0.85437937
| 33> C    2.75689767   -0.60696302    0.44060225
| 34> O    2.50271861    0.34913922   -0.25823550
| 35> O    1.80899305   -1.38130325    1.00828885
| 36> H    0.94799366   -1.01400426    0.74051771
| 37> C    4.13253282   -1.08841285    0.79075315
| 38> H    4.87091863   -0.45086276    0.31990283
| 39> H    4.25874334   -1.07655813    1.87078848
| 40> H    4.25480996   -2.11625740    0.45751883
| 41> *
| 42>
| 43> $new_job
| 44> ! ri-mp2 aug-cc-pvqz aug-cc-pvqz/c tightscf
| 45> %pal nprocs 16 end
| 46> %maxcore 3800
| 47> %base "QZ_S66by10_60_0.95_dimer"
| 48>
| 49> *xyz 0 1
| 50> C   -0.61056257    0.22750310   -0.17060207
| 51> H    0.10738506    0.86143603   -0.63420924
| 52> C   -1.38627573   -0.52532550    0.37997353
| 53> H   -2.08070324   -1.17406739    0.85437937
| 54> C    2.75689767   -0.60696302    0.44060225
| 55> O    2.50271861    0.34913922   -0.25823550
| 56> O    1.80899305   -1.38130325    1.00828885
| 57> H    0.94799366   -1.01400426    0.74051771
| 58> C    4.13253282   -1.08841285    0.79075315
| 59> H    4.87091863   -0.45086276    0.31990283
| 60> H    4.25874334   -1.07655813    1.87078848
| 61> H    4.25480996   -2.11625740    0.45751883
| 62> *
| 63>
| 64>
| 65>
| 66>
| 67>                          ****END OF INPUT****
 Total Charge           Charge          ....    0
 Multiplicity           Mult            ....    1
 Number of Electrons    NEL             ....   46
MP2 TOTAL ENERGY:     -305.624226041 Eh
FINAL SINGLE POINT ENERGY      -305.624226041022
MP2 TOTAL ENERGY:     -305.895036431 Eh
FINAL SINGLE POINT ENERGY      -305.895036431035

CARTESIAN COORDINATES (ANGSTROEM)
---------------------------------
  C     -0.610563    0.227503   -0.170602
  H      0.107385    0.861436   -0.634209
  C     -1.386276   -0.525326    0.379974
  H     -2.080703   -1.174067    0.854379
  C      2.756898   -0.606963    0.440602
  O      2.502719    0.349139   -0.258236
  O      1.808993   -1.381303    1.008289
  H      0.947994   -1.014004    0.740518
  C      4.132533   -1.088413    0.790753
  H      4.870919   -0.450863    0.319903
  H      4.258743   -1.076558    1.870788
  H      4.254810   -2.116257    0.457519

 Multiplicity           Mult            ....    1
 Number of Electrons    NEL             ....   46
 Basis Dimension        Dim             ....  756

ORBITAL ENERGIES
----------------

  NO   OCC          E(Eh)            E(eV)
   0   2.0000     -20.599962      -560.5535
   1   2.0000     -20.545075      -559.0599
   2   2.0000     -11.385864      -309.8251
   3   2.0000     -11.255100      -306.2668
   4   2.0000     -11.251242      -306.1618
   5   2.0000     -11.240302      -305.8642
   6   2.0000      -1.458322       -39.6830
   7   2.0000      -1.356263       -36.9058
   8   2.0000      -1.042122       -28.3576
   9   2.0000      -1.024961       -27.8906
  10   2.0000      -0.818468       -22.2717
  11   2.0000      -0.776560       -21.1313
  12   2.0000      -0.705838       -19.2068
  13   2.0000      -0.689905       -18.7733
  14   2.0000      -0.673381       -18.3236
  15   2.0000      -0.646730       -17.5984
  16   2.0000      -0.580615       -15.7993
  17   2.0000      -0.571242       -15.5443
  18   2.0000      -0.557449       -15.1689
  19   2.0000      -0.480383       -13.0719
  20   2.0000      -0.457318       -12.4443
  21   2.0000      -0.420190       -11.4339
  22   2.0000      -0.420086       -11.4311
  23   0.0000       0.024263         0.6602
  24   0.0000       0.029149         0.7932
  25   0.0000       0.039113         1.0643
  26   0.0000       0.041750         1.1361
  27   0.0000       0.046701         1.2708

MULLIKEN ATOMIC CHARGES
-----------------------
   0 C :   -0.587961
   1 H :    0.654307
   2 C :   -0.632696
   3 H :    0.551520
   4 C :    0.876288
   5 O :   -0.737069
   6 O :   -0.606302
   7 H :    0.323401
   8 C :   -0.719394
   9 H :    0.300028
  10 H :    0.288996
  11 H :    0.288883
Sum of atomic charges:   -0.0000000

LOEWDIN ATOMIC CHARGES
----------------------
   0 C :    0.510041
   1 H :   -0.472881
   2 C :    0.549972
   3 H :   -0.449193
   4 C :   -1.024390
   5 O :    0.701764
   6 O :    1.263723
   7 H :   -1.015180
   8 C :    0.870174
   9 H :   -0.325299
  10 H :   -0.304287
  11 H :   -0.304443

  Mayer bond orders larger than 0.100000
B(  0-C ,  1-H ) :   0.5722 B(  0-C ,  2-C ) :   2.6892 B(  2-C ,  3-H ) :   0.7265
B(  4-C ,  5-O ) :   1.4977 B(  4-C ,  6-O ) :   0.9964 B(  4-C ,  8-C ) :   0.8527
B(  6-O ,  7-H ) :   0.8772 B(  8-C ,  9-H ) :   0.9681 B(  8-C , 10-H ) :   0.9240
B(  8-C , 11-H ) :   0.9247

MP2 TOTAL ENERGY:     -305.981514602 Eh
FINAL SINGLE POINT ENERGY      -305.981514602324

DIPOLE MOMENT
-------------
                                X             Y             Z
Electronic contribution:     -2.40216       1.13105      -0.82346
Nuclear contribution   :      2.44318      -1.68998       1.23159
                        -----------------------------------------
Total Dipole Moment    :      0.04102      -0.55893       0.40813
                        -----------------------------------------
Magnitude (a.u.)       :      0.69330
Magnitude (Debye)      :      1.76222

Rotational constants in cm-1:     0.302405     0.052347     0.044992
Rotational constants in MHz :  9065.867712  1569.308976  1348.823474

                             ****ORCA TERMINATED NORMALLY****
TOTAL RUN TIME: 0 days 0 hours 30 minutes 30 seconds 668 msec
