                         Program Version 5.0.4 -  RELEASE  -
|  1> ! ri-mp2 aug-cc-pvdz aug-cc-pvdz/c tightscf
|  2> %pal nprocs 16 end
|  3> %maxcore 3800
|  4> %base "DZ_S66by10_5_0.7_dimer"
|  5> %scf STABPerform true end
|  6>
|  7> *xyz 0 1
|  8> O   -0.63613493   -0.02328241    0.28059932
|  9> H    0.30809737   -0.04707875    0.07646369
| 10> C   -1.15206541   -1.31128778    0.01525955
| 11> H   -2.20994502   -1.29626539    0.26395586
| 12> H   -1.05661024   -1.59267086   -1.03619061
| 13> H   -0.67483575   -2.08627276    0.62051145
| 14> O    1.66159946   -0.10047186    0.01344870
| 15> H    2.13038877    0.51391266   -0.55621725
| 16> C    2.17043339    0.05654708    1.33516602
| 17> H    1.61686431   -0.63164935    1.96529690
| 18> H    3.22942949   -0.19389182    1.39188917
| 19> H    2.01799375    1.06724113    1.71305857
| 20> *
| 21>
| 22> $new_job
| 23> ! ri-mp2 aug-cc-pvtz aug-cc-pvtz/c tightscf
| 24> %pal nprocs 16 end
| 25> %maxcore 3800
| 26> %base "TZ_S66by10_5_0.7_dimer"
| 27>
| 28> *xyz 0 1
| 29> O   -0.63613493   -0.02328241    0.28059932
| 30> H    0.30809737   -0.04707875    0.07646369
| 31> C   -1.15206541   -1.31128778    0.01525955
| 32> H   -2.20994502   -1.29626539    0.26395586
| 33> H   -1.05661024   -1.59267086   -1.03619061
| 34> H   -0.67483575   -2.08627276    0.62051145
| 35> O    1.66159946   -0.10047186    0.01344870
| 36> H    2.13038877    0.51391266   -0.55621725
| 37> C    2.17043339    0.05654708    1.33516602
| 38> H    1.61686431   -0.63164935    1.96529690
| 39> H    3.22942949   -0.19389182    1.39188917
| 40> H    2.01799375    1.06724113    1.71305857
| 41> *
| 42>
| 43> $new_job
| 44> ! ri-mp2 aug-cc-pvqz aug-cc-pvqz/c tightscf
| 45> %pal nprocs 16 end
| 46> %maxcore 3800
| 47> %base "QZ_S66by10_5_0.7_dimer"
| 48>
| 49> *xyz 0 1
| 50> O   -0.63613493   -0.02328241    0.28059932
| 51> H    0.30809737   -0.04707875    0.07646369
| 52> C   -1.15206541   -1.31128778    0.01525955
| 53> H   -2.20994502   -1.29626539    0.26395586
| 54> H   -1.05661024   -1.59267086   -1.03619061
| 55> H   -0.67483575   -2.08627276    0.62051145
| 56> O    1.66159946   -0.10047186    0.01344870
| 57> H    2.13038877    0.51391266   -0.55621725
| 58> C    2.17043339    0.05654708    1.33516602
| 59> H    1.61686431   -0.63164935    1.96529690
| 60> H    3.22942949   -0.19389182    1.39188917
| 61> H    2.01799375    1.06724113    1.71305857
| 62> *
| 63>
| 64>
| 65>
| 66>
| 67>                          ****END OF INPUT****
 Total Charge           Charge          ....    0
 Multiplicity           Mult            ....    1
 Number of Electrons    NEL             ....   36
MP2 TOTAL ENERGY:     -230.835152340 Eh
FINAL SINGLE POINT ENERGY      -230.835152339586
MP2 TOTAL ENERGY:     -231.050859358 Eh
FINAL SINGLE POINT ENERGY      -231.050859357599

CARTESIAN COORDINATES (ANGSTROEM)
---------------------------------
  O     -0.636135   -0.023282    0.280599
  H      0.308097   -0.047079    0.076464
  C     -1.152065   -1.311288    0.015260
  H     -2.209945   -1.296265    0.263956
  H     -1.056610   -1.592671   -1.036191
  H     -0.674836   -2.086273    0.620511
  O      1.661599   -0.100472    0.013449
  H      2.130389    0.513913   -0.556217
  C      2.170433    0.056547    1.335166
  H      1.616864   -0.631649    1.965297
  H      3.229429   -0.193892    1.391889
  H      2.017994    1.067241    1.713059

 Multiplicity           Mult            ....    1
 Number of Electrons    NEL             ....   36
 Basis Dimension        Dim             ....  688

ORBITAL ENERGIES
----------------

  NO   OCC          E(Eh)            E(eV)
   0   2.0000     -20.596387      -560.4562
   1   2.0000     -20.487775      -557.5007
   2   2.0000     -11.292037      -307.2719
   3   2.0000     -11.237213      -305.7801
   4   2.0000      -1.415271       -38.5115
   5   2.0000      -1.305645       -35.5284
   6   2.0000      -0.955925       -26.0120
   7   2.0000      -0.894297       -24.3351
   8   2.0000      -0.755719       -20.5642
   9   2.0000      -0.689401       -18.7596
  10   2.0000      -0.644393       -17.5348
  11   2.0000      -0.604474       -16.4486
  12   2.0000      -0.582914       -15.8619
  13   2.0000      -0.554447       -15.0873
  14   2.0000      -0.539902       -14.6915
  15   2.0000      -0.497839       -13.5469
  16   2.0000      -0.439851       -11.9690
  17   2.0000      -0.403738       -10.9863
  18   0.0000       0.019481         0.5301
  19   0.0000       0.034168         0.9298
  20   0.0000       0.038388         1.0446
  21   0.0000       0.039387         1.0718
  22   0.0000       0.053172         1.4469

MULLIKEN ATOMIC CHARGES
-----------------------
   0 O :   -0.809523
   1 H :    0.369216
   2 C :   -0.524506
   3 H :    0.351393
   4 H :    0.236672
   5 H :    0.247092
   6 O :   -0.574699
   7 H :    0.332984
   8 C :   -0.608516
   9 H :    0.317276
  10 H :    0.376931
  11 H :    0.285679
Sum of atomic charges:   -0.0000000

LOEWDIN ATOMIC CHARGES
----------------------
   0 O :    1.250983
   1 H :   -1.436760
   2 C :    0.567809
   3 H :   -0.348742
   4 H :   -0.318653
   5 H :   -0.321890
   6 O :    1.411895
   7 H :   -0.633588
   8 C :    0.710507
   9 H :   -0.308045
  10 H :   -0.292868
  11 H :   -0.280648

  Mayer bond orders larger than 0.100000
B(  0-O ,  1-H ) :   0.8615 B(  0-O ,  2-C ) :   0.8867 B(  2-C ,  3-H ) :   0.8869
B(  2-C ,  4-H ) :   0.9333 B(  2-C ,  5-H ) :   0.9171 B(  6-O ,  7-H ) :   0.8878
B(  6-O ,  8-C ) :   0.8700 B(  8-C ,  9-H ) :   0.8905 B(  8-C , 10-H ) :   0.8509
B(  8-C , 11-H ) :   0.9133

MP2 TOTAL ENERGY:     -231.118812241 Eh
FINAL SINGLE POINT ENERGY      -231.118812241169

DIPOLE MOMENT
-------------
                                X             Y             Z
Electronic contribution:      0.41753       1.54479      -1.13966
Nuclear contribution   :      1.04240      -1.49422       1.18232
                        -----------------------------------------
Total Dipole Moment    :      1.45992       0.05056       0.04266
                        -----------------------------------------
Magnitude (a.u.)       :      1.46142
Magnitude (Debye)      :      3.71464

Rotational constants in cm-1:     0.570158     0.102296     0.100521
Rotational constants in MHz : 17092.896097  3066.760702  3013.544048

                             ****ORCA TERMINATED NORMALLY****
TOTAL RUN TIME: 0 days 0 hours 21 minutes 48 seconds 323 msec
