                         Program Version 5.0.4 -  RELEASE  -
|  1> ! ri-mp2 aug-cc-pvdz aug-cc-pvdz/c tightscf
|  2> %pal nprocs 16 end
|  3> %maxcore 3800
|  4> %base "DZ_S66by10_46_1.0_dimer"
|  5> %scf STABPerform true end
|  6>
|  7> *xyz 0 1
|  8> C    1.37219093    1.01247736    0.97082468
|  9> H    0.95217623    2.01404955    1.03311725
| 10> H    1.94742170    0.92651560    0.05071776
| 11> H    2.05170208    0.85182517    1.80295247
| 12> C    0.32673706   -0.07764727    0.98819876
| 13> O    0.61882128   -1.25248130    1.17128126
| 14> N   -0.95002884    0.34488680    0.77391491
| 15> H   -1.10467156    1.32202550    0.60611216
| 16> C   -2.05985440   -0.57736895    0.68015349
| 17> H   -1.66935602   -1.56679601    0.89718425
| 18> H   -2.83459176   -0.33138032    1.40366139
| 19> H   -2.49097050   -0.57892483   -0.31993926
| 20> C    2.66491117    0.46571710    4.90308107
| 21> H    2.78175045    1.22013300    4.12433625
| 22> H    2.57880080    0.99060342    5.85473713
| 23> H    3.57700261   -0.12852481    4.92988908
| 24> C    1.43663894   -0.39767041    4.64552952
| 25> H    1.34206959   -1.14312441    5.43858036
| 26> H    1.55305907   -0.95113474    3.71168572
| 27> C    0.15410110    0.42094354    4.58022817
| 28> H    0.04253078    0.99867842    5.50331182
| 29> H    0.23333525    1.15375845    3.77057552
| 30> C   -1.09025519   -0.42939170    4.36334827
| 31> H   -1.18105715   -1.14387818    5.18476550
| 32> H   -0.96244818   -1.01832942    3.45313382
| 33> C   -2.35709369    0.41089981    4.27323355
| 34> H   -2.29018045    1.11795079    3.44546432
| 35> H   -3.24243590   -0.20511768    4.11940064
| 36> H   -2.50744973    0.98711090    5.18645314
| 37> *
| 38>
| 39> $new_job
| 40> ! ri-mp2 aug-cc-pvtz aug-cc-pvtz/c tightscf
| 41> %pal nprocs 16 end
| 42> %maxcore 3800
| 43> %base "TZ_S66by10_46_1.0_dimer"
| 44>
| 45> *xyz 0 1
| 46> C    1.37219093    1.01247736    0.97082468
| 47> H    0.95217623    2.01404955    1.03311725
| 48> H    1.94742170    0.92651560    0.05071776
| 49> H    2.05170208    0.85182517    1.80295247
| 50> C    0.32673706   -0.07764727    0.98819876
| 51> O    0.61882128   -1.25248130    1.17128126
| 52> N   -0.95002884    0.34488680    0.77391491
| 53> H   -1.10467156    1.32202550    0.60611216
| 54> C   -2.05985440   -0.57736895    0.68015349
| 55> H   -1.66935602   -1.56679601    0.89718425
| 56> H   -2.83459176   -0.33138032    1.40366139
| 57> H   -2.49097050   -0.57892483   -0.31993926
| 58> C    2.66491117    0.46571710    4.90308107
| 59> H    2.78175045    1.22013300    4.12433625
| 60> H    2.57880080    0.99060342    5.85473713
| 61> H    3.57700261   -0.12852481    4.92988908
| 62> C    1.43663894   -0.39767041    4.64552952
| 63> H    1.34206959   -1.14312441    5.43858036
| 64> H    1.55305907   -0.95113474    3.71168572
| 65> C    0.15410110    0.42094354    4.58022817
| 66> H    0.04253078    0.99867842    5.50331182
| 67> H    0.23333525    1.15375845    3.77057552
| 68> C   -1.09025519   -0.42939170    4.36334827
| 69> H   -1.18105715   -1.14387818    5.18476550
| 70> H   -0.96244818   -1.01832942    3.45313382
| 71> C   -2.35709369    0.41089981    4.27323355
| 72> H   -2.29018045    1.11795079    3.44546432
| 73> H   -3.24243590   -0.20511768    4.11940064
| 74> H   -2.50744973    0.98711090    5.18645314
| 75> *
| 76>
| 77> $new_job
| 78> ! ri-mp2 aug-cc-pvqz aug-cc-pvqz/c tightscf
| 79> %pal nprocs 16 end
| 80> %maxcore 3800
| 81> %base "QZ_S66by10_46_1.0_dimer"
| 82>
| 83> *xyz 0 1
| 84> C    1.37219093    1.01247736    0.97082468
| 85> H    0.95217623    2.01404955    1.03311725
| 86> H    1.94742170    0.92651560    0.05071776
| 87> H    2.05170208    0.85182517    1.80295247
| 88> C    0.32673706   -0.07764727    0.98819876
| 89> O    0.61882128   -1.25248130    1.17128126
| 90> N   -0.95002884    0.34488680    0.77391491
| 91> H   -1.10467156    1.32202550    0.60611216
| 92> C   -2.05985440   -0.57736895    0.68015349
| 93> H   -1.66935602   -1.56679601    0.89718425
| 94> H   -2.83459176   -0.33138032    1.40366139
| 95> H   -2.49097050   -0.57892483   -0.31993926
| 96> C    2.66491117    0.46571710    4.90308107
| 97> H    2.78175045    1.22013300    4.12433625
| 98> H    2.57880080    0.99060342    5.85473713
| 99> H    3.57700261   -0.12852481    4.92988908
|100> C    1.43663894   -0.39767041    4.64552952
|101> H    1.34206959   -1.14312441    5.43858036
|102> H    1.55305907   -0.95113474    3.71168572
|103> C    0.15410110    0.42094354    4.58022817
|104> H    0.04253078    0.99867842    5.50331182
|105> H    0.23333525    1.15375845    3.77057552
|106> C   -1.09025519   -0.42939170    4.36334827
|107> H   -1.18105715   -1.14387818    5.18476550
|108> H   -0.96244818   -1.01832942    3.45313382
|109> C   -2.35709369    0.41089981    4.27323355
|110> H   -2.29018045    1.11795079    3.44546432
|111> H   -3.24243590   -0.20511768    4.11940064
|112> H   -2.50744973    0.98711090    5.18645314
|113> *
|114>
|115>
|116>
|117>
|118>                          ****END OF INPUT****
 Total Charge           Charge          ....    0
 Multiplicity           Mult            ....    1
 Number of Electrons    NEL             ....   82
MP2 TOTAL ENERGY:     -444.970759046 Eh
FINAL SINGLE POINT ENERGY      -444.970759045805
MP2 TOTAL ENERGY:     -445.389563213 Eh
FINAL SINGLE POINT ENERGY      -445.389563213229

CARTESIAN COORDINATES (ANGSTROEM)
---------------------------------
  C      1.372191    1.012477    0.970825
  H      0.952176    2.014050    1.033117
  H      1.947422    0.926516    0.050718
  H      2.051702    0.851825    1.802952
  C      0.326737   -0.077647    0.988199
  O      0.618821   -1.252481    1.171281
  N     -0.950029    0.344887    0.773915
  H     -1.104672    1.322026    0.606112
  C     -2.059854   -0.577369    0.680153
  H     -1.669356   -1.566796    0.897184
  H     -2.834592   -0.331380    1.403661
  H     -2.490970   -0.578925   -0.319939
  C      2.664911    0.465717    4.903081
  H      2.781750    1.220133    4.124336
  H      2.578801    0.990603    5.854737
  H      3.577003   -0.128525    4.929889
  C      1.436639   -0.397670    4.645530
  H      1.342070   -1.143124    5.438580
  H      1.553059   -0.951135    3.711686
  C      0.154101    0.420944    4.580228
  H      0.042531    0.998678    5.503312
  H      0.233335    1.153758    3.770576
  C     -1.090255   -0.429392    4.363348
  H     -1.181057   -1.143878    5.184765
  H     -0.962448   -1.018329    3.453134
  C     -2.357094    0.410900    4.273234
  H     -2.290180    1.117951    3.445464
  H     -3.242436   -0.205118    4.119401
  H     -2.507450    0.987111    5.186453

 Multiplicity           Mult            ....    1
 Number of Electrons    NEL             ....   82
 Basis Dimension        Dim             .... 1674

ORBITAL ENERGIES
----------------

  NO   OCC          E(Eh)            E(eV)
   0   2.0000     -20.510659      -558.1234
   1   2.0000     -15.585964      -424.1156
   2   2.0000     -11.348691      -308.8136
   3   2.0000     -11.255264      -306.2713
   4   2.0000     -11.235068      -305.7218
   5   2.0000     -11.206066      -304.9326
   6   2.0000     -11.205678      -304.9220
   7   2.0000     -11.204610      -304.8929
   8   2.0000     -11.202600      -304.8382
   9   2.0000     -11.201702      -304.8138
  10   2.0000      -1.376061       -37.4445
  11   2.0000      -1.231692       -33.5160
  12   2.0000      -1.076255       -29.2864
  13   2.0000      -1.020528       -27.7700
  14   2.0000      -1.010894       -27.5078
  15   2.0000      -0.933331       -25.3972
  16   2.0000      -0.915961       -24.9246
  17   2.0000      -0.815609       -22.1939
  18   2.0000      -0.791208       -21.5299
  19   2.0000      -0.779854       -21.2209
  20   2.0000      -0.692494       -18.8437
  21   2.0000      -0.654655       -17.8141
  22   2.0000      -0.653195       -17.7743
  23   2.0000      -0.625851       -17.0303
  24   2.0000      -0.598036       -16.2734
  25   2.0000      -0.594856       -16.1869
  26   2.0000      -0.584373       -15.9016
  27   2.0000      -0.578720       -15.7478
  28   2.0000      -0.556547       -15.1444
  29   2.0000      -0.550135       -14.9699
  30   2.0000      -0.545831       -14.8528
  31   2.0000      -0.545033       -14.8311
  32   2.0000      -0.524327       -14.2677
  33   2.0000      -0.507171       -13.8008
  34   2.0000      -0.490544       -13.3484
  35   2.0000      -0.471538       -12.8312
  36   2.0000      -0.456736       -12.4284
  37   2.0000      -0.453213       -12.3326
  38   2.0000      -0.442228       -12.0336
  39   2.0000      -0.423268       -11.5177
  40   2.0000      -0.393361       -10.7039
  41   0.0000       0.018997         0.5169
  42   0.0000       0.027688         0.7534
  43   0.0000       0.029327         0.7980
  44   0.0000       0.032484         0.8839
  45   0.0000       0.038914         1.0589

MULLIKEN ATOMIC CHARGES
-----------------------
   0 C :   -0.989097
   1 H :    0.185498
   2 H :    0.354729
   3 H :    0.398979
   4 C :    1.404875
   5 O :   -1.025154
   6 N :   -0.586558
   7 H :    0.244951
   8 C :   -0.909337
   9 H :    0.261222
  10 H :    0.308017
  11 H :    0.370150
  12 C :   -1.004245
  13 H :    0.267917
  14 H :    0.229546
  15 H :    0.248545
  16 C :   -0.508205
  17 H :    0.286943
  18 H :    0.293068
  19 C :   -0.253826
  20 H :    0.278142
  21 H :    0.309904
  22 C :   -0.484901
  23 H :    0.281982
  24 H :    0.334256
  25 C :   -1.037423
  26 H :    0.241981
  27 H :    0.230980
  28 H :    0.267059
Sum of atomic charges:    0.0000000

LOEWDIN ATOMIC CHARGES
----------------------
   0 C :    0.897413
   1 H :   -0.301347
   2 H :   -0.281988
   3 H :   -0.327367
   4 C :   -0.844155
   5 O :    0.734238
   6 N :    0.834722
   7 H :   -0.498795
   8 C :    0.785878
   9 H :   -0.357146
  10 H :   -0.303618
  11 H :   -0.275625
  12 C :    0.929335
  13 H :   -0.296944
  14 H :   -0.283585
  15 H :   -0.278781
  16 C :    0.505859
  17 H :   -0.266925
  18 H :   -0.301435
  19 C :    0.488836
  20 H :   -0.263321
  21 H :   -0.290067
  22 C :    0.504519
  23 H :   -0.263131
  24 H :   -0.310550
  25 C :    0.921987
  26 H :   -0.299642
  27 H :   -0.278465
  28 H :   -0.279897

  Mayer bond orders larger than 0.100000
B(  0-C ,  1-H ) :   1.0653 B(  0-C ,  2-H ) :   0.8968 B(  0-C ,  3-H ) :   0.8345
B(  0-C ,  4-C ) :   0.8104 B(  0-C ,  5-O ) :   0.1050 B(  1-H ,  4-C ) :  -0.1157
B(  4-C ,  5-O ) :   0.9655 B(  4-C ,  6-N ) :   1.0374 B(  4-C ,  8-C ) :  -0.1145
B(  5-O ,  6-N ) :   0.1462 B(  6-N ,  7-H ) :   0.9990 B(  6-N ,  8-C ) :   0.8720
B(  8-C ,  9-H ) :   0.9933 B(  8-C , 10-H ) :   0.8836 B(  8-C , 11-H ) :   0.9046
B( 12-C , 13-H ) :   0.9157 B( 12-C , 14-H ) :   0.9964 B( 12-C , 15-H ) :   1.0518
B( 12-C , 16-C ) :   0.9725 B( 12-C , 19-C ) :  -0.1081 B( 15-H , 16-C ) :  -0.1070
B( 16-C , 17-H ) :   0.8825 B( 16-C , 18-H ) :   0.8421 B( 16-C , 19-C ) :   0.7441
B( 19-C , 20-H ) :   0.9192 B( 19-C , 21-H ) :   0.8361 B( 19-C , 22-C ) :   0.8637
B( 19-C , 25-C ) :  -0.1046 B( 22-C , 23-H ) :   0.8902 B( 22-C , 24-H ) :   0.8097
B( 22-C , 25-C ) :   0.9478 B( 22-C , 27-H ) :  -0.1170 B( 25-C , 26-H ) :   0.9426
B( 25-C , 27-H ) :   1.0383 B( 25-C , 28-H ) :   0.9756

MP2 TOTAL ENERGY:     -445.518100524 Eh
FINAL SINGLE POINT ENERGY      -445.518100524270

DIPOLE MOMENT
-------------
                                X             Y             Z
Electronic contribution:      0.60226      -3.03961      -8.29568
Nuclear contribution   :     -1.23392       4.30707       7.91636
                        -----------------------------------------
Total Dipole Moment    :     -0.63166       1.26746      -0.37931
                        -----------------------------------------
Magnitude (a.u.)       :      1.46606
Magnitude (Debye)      :      3.72643

Rotational constants in cm-1:     0.042075     0.027404     0.019373
Rotational constants in MHz :  1261.372491   821.560495   580.778373

                             ****ORCA TERMINATED NORMALLY****
TOTAL RUN TIME: 0 days 11 hours 12 minutes 35 seconds 228 msec
