                         Program Version 5.0.4 -  RELEASE  -
|  1> ! ri-mp2 aug-cc-pvdz aug-cc-pvdz/c tightscf
|  2> %pal nprocs 16 end
|  3> %maxcore 3800
|  4> %base "DZ_S66by10_55_1.0_dimer"
|  5>
|  6> *xyz 0 1
|  7> C    0.75974918    1.03127506    0.37377239
|  8> H    1.43501626    1.87566427    0.37470462
|  9> C    1.26661779   -0.26736234    0.42127308
| 10> H    2.33491597   -0.42918019    0.45943234
| 11> C    0.39532054   -1.35599116    0.42490511
| 12> H    0.78866193   -2.36249259    0.46303549
| 13> C   -0.98220564   -1.14665441    0.38127024
| 14> H   -1.65765632   -1.99114019    0.38512100
| 15> C   -1.48934612    0.15114979    0.33757234
| 16> H   -2.55794704    0.31375049    0.30771900
| 17> C   -0.61877516    1.24033121    0.33388373
| 18> H   -1.01176161    2.24710690    0.30436922
| 19> O    0.04631135    0.30579067    3.69368949
| 20> H    0.13241157    0.35566376    2.73649594
| 21> C   -0.84983925   -0.75182341    3.97674453
| 22> H   -0.94555994   -0.80855799    5.05768066
| 23> H   -1.84198884   -0.58012567    3.55295432
| 24> H   -0.48337893   -1.71486447    3.61383301
| 25> *
| 26>
| 27> $new_job
| 28> ! ri-mp2 aug-cc-pvtz aug-cc-pvtz/c tightscf
| 29> %pal nprocs 16 end
| 30> %maxcore 3800
| 31> %base "TZ_S66by10_55_1.0_dimer"
| 32>
| 33> *xyz 0 1
| 34> C    0.75974918    1.03127506    0.37377239
| 35> H    1.43501626    1.87566427    0.37470462
| 36> C    1.26661779   -0.26736234    0.42127308
| 37> H    2.33491597   -0.42918019    0.45943234
| 38> C    0.39532054   -1.35599116    0.42490511
| 39> H    0.78866193   -2.36249259    0.46303549
| 40> C   -0.98220564   -1.14665441    0.38127024
| 41> H   -1.65765632   -1.99114019    0.38512100
| 42> C   -1.48934612    0.15114979    0.33757234
| 43> H   -2.55794704    0.31375049    0.30771900
| 44> C   -0.61877516    1.24033121    0.33388373
| 45> H   -1.01176161    2.24710690    0.30436922
| 46> O    0.04631135    0.30579067    3.69368949
| 47> H    0.13241157    0.35566376    2.73649594
| 48> C   -0.84983925   -0.75182341    3.97674453
| 49> H   -0.94555994   -0.80855799    5.05768066
| 50> H   -1.84198884   -0.58012567    3.55295432
| 51> H   -0.48337893   -1.71486447    3.61383301
| 52> *
| 53>
| 54> $new_job
| 55> ! ri-mp2 aug-cc-pvqz aug-cc-pvqz/c tightscf
| 56> %pal nprocs 16 end
| 57> %maxcore 3800
| 58> %base "QZ_S66by10_55_1.0_dimer"
| 59>
| 60> *xyz 0 1
| 61> C    0.75974918    1.03127506    0.37377239
| 62> H    1.43501626    1.87566427    0.37470462
| 63> C    1.26661779   -0.26736234    0.42127308
| 64> H    2.33491597   -0.42918019    0.45943234
| 65> C    0.39532054   -1.35599116    0.42490511
| 66> H    0.78866193   -2.36249259    0.46303549
| 67> C   -0.98220564   -1.14665441    0.38127024
| 68> H   -1.65765632   -1.99114019    0.38512100
| 69> C   -1.48934612    0.15114979    0.33757234
| 70> H   -2.55794704    0.31375049    0.30771900
| 71> C   -0.61877516    1.24033121    0.33388373
| 72> H   -1.01176161    2.24710690    0.30436922
| 73> O    0.04631135    0.30579067    3.69368949
| 74> H    0.13241157    0.35566376    2.73649594
| 75> C   -0.84983925   -0.75182341    3.97674453
| 76> H   -0.94555994   -0.80855799    5.05768066
| 77> H   -1.84198884   -0.58012567    3.55295432
| 78> H   -0.48337893   -1.71486447    3.61383301
| 79> *
| 80>
| 81>
| 82>
| 83>
| 84>                          ****END OF INPUT****
 Total Charge           Charge          ....    0
 Multiplicity           Mult            ....    1
 Number of Electrons    NEL             ....   60
MP2 TOTAL ENERGY:     -346.970389157 Eh
FINAL SINGLE POINT ENERGY      -346.970389156998
MP2 TOTAL ENERGY:     -347.282535599 Eh
FINAL SINGLE POINT ENERGY      -347.282535598604

CARTESIAN COORDINATES (ANGSTROEM)
---------------------------------
  C      0.759749    1.031275    0.373772
  H      1.435016    1.875664    0.374705
  C      1.266618   -0.267362    0.421273
  H      2.334916   -0.429180    0.459432
  C      0.395321   -1.355991    0.424905
  H      0.788662   -2.362493    0.463035
  C     -0.982206   -1.146654    0.381270
  H     -1.657656   -1.991140    0.385121
  C     -1.489346    0.151150    0.337572
  H     -2.557947    0.313750    0.307719
  C     -0.618775    1.240331    0.333884
  H     -1.011762    2.247107    0.304369
  O      0.046311    0.305791    3.693689
  H      0.132412    0.355664    2.736496
  C     -0.849839   -0.751823    3.976745
  H     -0.945560   -0.808558    5.057681
  H     -1.841989   -0.580126    3.552954
  H     -0.483379   -1.714864    3.613833

 Multiplicity           Mult            ....    1
 Number of Electrons    NEL             ....   60
 Basis Dimension        Dim             .... 1100

ORBITAL ENERGIES
----------------

  NO   OCC          E(Eh)            E(eV)
   0   2.0000     -20.537411      -558.8514
   1   2.0000     -11.255330      -306.2731
   2   2.0000     -11.245893      -306.0163
   3   2.0000     -11.245346      -306.0014
   4   2.0000     -11.245302      -306.0002
   5   2.0000     -11.244068      -305.9666
   6   2.0000     -11.243982      -305.9643
   7   2.0000     -11.243415      -305.9489
   8   2.0000      -1.340990       -36.4902
   9   2.0000      -1.161967       -31.6187
  10   2.0000      -1.025856       -27.9150
  11   2.0000      -1.025585       -27.9076
  12   2.0000      -0.910684       -24.7810
  13   2.0000      -0.834504       -22.7080
  14   2.0000      -0.834491       -22.7077
  15   2.0000      -0.720337       -19.6014
  16   2.0000      -0.678124       -18.4527
  17   2.0000      -0.654025       -17.7969
  18   2.0000      -0.629678       -17.1344
  19   2.0000      -0.605750       -16.4833
  20   2.0000      -0.598642       -16.2899
  21   2.0000      -0.598570       -16.2879
  22   2.0000      -0.578774       -15.7492
  23   2.0000      -0.514806       -14.0086
  24   2.0000      -0.505185       -13.7468
  25   2.0000      -0.505110       -13.7447
  26   2.0000      -0.489035       -13.3073
  27   2.0000      -0.434734       -11.8297
  28   2.0000      -0.349008        -9.4970
  29   2.0000      -0.348850        -9.4927
  30   0.0000       0.023700         0.6449
  31   0.0000       0.028970         0.7883
  32   0.0000       0.029246         0.7958
  33   0.0000       0.038451         1.0463
  34   0.0000       0.041027         1.1164

MULLIKEN ATOMIC CHARGES
-----------------------
   0 C :   -0.215020
   1 H :    0.286619
   2 C :   -0.342735
   3 H :    0.319082
   4 C :   -0.351172
   5 H :    0.310235
   6 C :   -0.258426
   7 H :    0.268353
   8 C :   -0.353056
   9 H :    0.311760
  10 C :   -0.349071
  11 H :    0.318393
  12 O :   -0.770798
  13 H :    0.448343
  14 C :   -0.636026
  15 H :    0.487629
  16 H :    0.263561
  17 H :    0.262328
Sum of atomic charges:   -0.0000000

LOEWDIN ATOMIC CHARGES
----------------------
   0 C :    0.329731
   1 H :   -0.315249
   2 C :    0.332822
   3 H :   -0.316037
   4 C :    0.328757
   5 H :   -0.318211
   6 C :    0.319504
   7 H :   -0.317829
   8 C :    0.328488
   9 H :   -0.318342
  10 C :    0.333227
  11 H :   -0.316215
  12 O :    1.263558
  13 H :   -0.927505
  14 C :    0.565564
  15 H :   -0.336462
  16 H :   -0.317855
  17 H :   -0.317947

  Mayer bond orders larger than 0.100000
B(  0-C ,  1-H ) :   1.0873 B(  0-C ,  2-C ) :   1.1829 B(  0-C ,  6-C ) :   0.1258
B(  0-C , 10-C ) :   1.1850 B(  2-C ,  3-H ) :   1.0519 B(  2-C ,  4-C ) :   1.2393
B(  2-C ,  8-C ) :   0.1525 B(  4-C ,  5-H ) :   1.0448 B(  4-C ,  6-C ) :   1.2001
B(  4-C , 10-C ) :   0.1531 B(  6-C ,  7-H ) :   1.0777 B(  6-C ,  8-C ) :   1.1982
B(  8-C ,  9-H ) :   1.0426 B(  8-C , 10-C ) :   1.2407 B( 10-C , 11-H ) :   1.0521
B( 12-O , 13-H ) :   0.8287 B( 12-O , 14-C ) :   0.8354 B( 14-C , 15-H ) :   0.7419
B( 14-C , 16-H ) :   0.9187 B( 14-C , 17-H ) :   0.9191

MP2 TOTAL ENERGY:     -347.380947226 Eh
FINAL SINGLE POINT ENERGY      -347.380947226431

DIPOLE MOMENT
-------------
                                X             Y             Z
Electronic contribution:      1.45775       1.53583      -3.98548
Nuclear contribution   :     -1.75128      -1.92356       3.31559
                        -----------------------------------------
Total Dipole Moment    :     -0.29352      -0.38773      -0.66989
                        -----------------------------------------
Magnitude (a.u.)       :      0.82780
Magnitude (Debye)      :      2.10409

Rotational constants in cm-1:     0.086957     0.046153     0.044507
Rotational constants in MHz :  2606.917052  1383.632078  1334.293278

                             ****ORCA TERMINATED NORMALLY****
TOTAL RUN TIME: 0 days 0 hours 27 minutes 41 seconds 107 msec
