                         Program Version 5.0.4 -  RELEASE  -
|  1> ! ri-mp2 aug-cc-pvdz aug-cc-pvdz/c tightscf
|  2> %pal nprocs 16 end
|  3> %maxcore 3800
|  4> %base "DZ_S66by10_36_0.7_dimer"
|  5> %scf STABPerform true end
|  6>
|  7> *xyz 0 1
|  8> C    0.38252221   -0.07060697    0.76689582
|  9> C   -1.04063947    0.39681125    1.06093593
| 10> H   -1.77157460   -0.28150025    0.61833023
| 11> H   -1.22471777    0.43573509    2.13551890
| 12> H   -1.21406603    1.39372444    0.65309065
| 13> C    0.59084747   -1.46681814    1.34797791
| 14> H    1.60291380   -1.82295000    1.15010285
| 15> H    0.43896858   -1.46674598    2.42828668
| 16> H   -0.10991906   -2.17868425    0.90931390
| 17> C    1.37826905    0.89843536    1.39914944
| 18> H    2.40439397    0.58544074    1.20073365
| 19> H    1.24378092    0.94597430    2.48070991
| 20> H    1.24837318    1.90502262    0.99895071
| 21> C    0.60196094   -0.11103419   -0.74309659
| 22> H    0.45921182    0.87703910   -1.18289819
| 23> H    1.61369399   -0.44345945   -0.97967210
| 24> H   -0.09953078   -0.79754982   -1.21922069
| 25> C   -0.24286035    0.04489996    5.05931405
| 26> C    1.17995210   -0.42406604    4.76591451
| 27> H    1.36439130   -0.46339519    3.69139404
| 28> H    1.91138625    0.25360679    5.20865008
| 29> H    1.35221577   -1.42107208    5.17403508
| 30> C   -0.44925716    1.44146149    4.47848357
| 31> H   -1.46122026    1.79844694    4.67533110
| 32> H    0.25166143    2.15253296    4.91820534
| 33> H   -0.29614795    1.44165810    3.39834122
| 34> C   -0.46315484    0.08507618    6.56916768
| 35> H   -1.47437100    0.41935316    6.80524087
| 36> H    0.23935761    0.77002521    7.04600590
| 37> H   -0.32259175   -0.90344416    7.00861942
| 38> C   -1.23932307   -0.92287770    4.42616765
| 39> H   -1.11039706   -1.92985308    4.82574663
| 40> H   -2.26521217   -0.60910484    4.62455551
| 41> H   -1.10461871   -0.96985209    3.34459099
| 42> *
| 43>
| 44> $new_job
| 45> ! ri-mp2 aug-cc-pvtz aug-cc-pvtz/c tightscf
| 46> %pal nprocs 16 end
| 47> %maxcore 3800
| 48> %base "TZ_S66by10_36_0.7_dimer"
| 49>
| 50> *xyz 0 1
| 51> C    0.38252221   -0.07060697    0.76689582
| 52> C   -1.04063947    0.39681125    1.06093593
| 53> H   -1.77157460   -0.28150025    0.61833023
| 54> H   -1.22471777    0.43573509    2.13551890
| 55> H   -1.21406603    1.39372444    0.65309065
| 56> C    0.59084747   -1.46681814    1.34797791
| 57> H    1.60291380   -1.82295000    1.15010285
| 58> H    0.43896858   -1.46674598    2.42828668
| 59> H   -0.10991906   -2.17868425    0.90931390
| 60> C    1.37826905    0.89843536    1.39914944
| 61> H    2.40439397    0.58544074    1.20073365
| 62> H    1.24378092    0.94597430    2.48070991
| 63> H    1.24837318    1.90502262    0.99895071
| 64> C    0.60196094   -0.11103419   -0.74309659
| 65> H    0.45921182    0.87703910   -1.18289819
| 66> H    1.61369399   -0.44345945   -0.97967210
| 67> H   -0.09953078   -0.79754982   -1.21922069
| 68> C   -0.24286035    0.04489996    5.05931405
| 69> C    1.17995210   -0.42406604    4.76591451
| 70> H    1.36439130   -0.46339519    3.69139404
| 71> H    1.91138625    0.25360679    5.20865008
| 72> H    1.35221577   -1.42107208    5.17403508
| 73> C   -0.44925716    1.44146149    4.47848357
| 74> H   -1.46122026    1.79844694    4.67533110
| 75> H    0.25166143    2.15253296    4.91820534
| 76> H   -0.29614795    1.44165810    3.39834122
| 77> C   -0.46315484    0.08507618    6.56916768
| 78> H   -1.47437100    0.41935316    6.80524087
| 79> H    0.23935761    0.77002521    7.04600590
| 80> H   -0.32259175   -0.90344416    7.00861942
| 81> C   -1.23932307   -0.92287770    4.42616765
| 82> H   -1.11039706   -1.92985308    4.82574663
| 83> H   -2.26521217   -0.60910484    4.62455551
| 84> H   -1.10461871   -0.96985209    3.34459099
| 85> *
| 86>
| 87> $new_job
| 88> ! ri-mp2 aug-cc-pvqz aug-cc-pvqz/c tightscf
| 89> %pal nprocs 16 end
| 90> %maxcore 3800
| 91> %base "QZ_S66by10_36_0.7_dimer"
| 92>
| 93> *xyz 0 1
| 94> C    0.38252221   -0.07060697    0.76689582
| 95> C   -1.04063947    0.39681125    1.06093593
| 96> H   -1.77157460   -0.28150025    0.61833023
| 97> H   -1.22471777    0.43573509    2.13551890
| 98> H   -1.21406603    1.39372444    0.65309065
| 99> C    0.59084747   -1.46681814    1.34797791
|100> H    1.60291380   -1.82295000    1.15010285
|101> H    0.43896858   -1.46674598    2.42828668
|102> H   -0.10991906   -2.17868425    0.90931390
|103> C    1.37826905    0.89843536    1.39914944
|104> H    2.40439397    0.58544074    1.20073365
|105> H    1.24378092    0.94597430    2.48070991
|106> H    1.24837318    1.90502262    0.99895071
|107> C    0.60196094   -0.11103419   -0.74309659
|108> H    0.45921182    0.87703910   -1.18289819
|109> H    1.61369399   -0.44345945   -0.97967210
|110> H   -0.09953078   -0.79754982   -1.21922069
|111> C   -0.24286035    0.04489996    5.05931405
|112> C    1.17995210   -0.42406604    4.76591451
|113> H    1.36439130   -0.46339519    3.69139404
|114> H    1.91138625    0.25360679    5.20865008
|115> H    1.35221577   -1.42107208    5.17403508
|116> C   -0.44925716    1.44146149    4.47848357
|117> H   -1.46122026    1.79844694    4.67533110
|118> H    0.25166143    2.15253296    4.91820534
|119> H   -0.29614795    1.44165810    3.39834122
|120> C   -0.46315484    0.08507618    6.56916768
|121> H   -1.47437100    0.41935316    6.80524087
|122> H    0.23935761    0.77002521    7.04600590
|123> H   -0.32259175   -0.90344416    7.00861942
|124> C   -1.23932307   -0.92287770    4.42616765
|125> H   -1.11039706   -1.92985308    4.82574663
|126> H   -2.26521217   -0.60910484    4.62455551
|127> H   -1.10461871   -0.96985209    3.34459099
|128> *
|129>
|130>
|131>
|132>
|133>                          ****END OF INPUT****
 Total Charge           Charge          ....    0
 Multiplicity           Mult            ....    1
 Number of Electrons    NEL             ....   84
MP2 TOTAL ENERGY:     -394.239403023 Eh
FINAL SINGLE POINT ENERGY      -394.239403022762
MP2 TOTAL ENERGY:     -394.628569721 Eh
FINAL SINGLE POINT ENERGY      -394.628569721167

CARTESIAN COORDINATES (ANGSTROEM)
---------------------------------
  C      0.382522   -0.070607    0.766896
  C     -1.040639    0.396811    1.060936
  H     -1.771575   -0.281500    0.618330
  H     -1.224718    0.435735    2.135519
  H     -1.214066    1.393724    0.653091
  C      0.590847   -1.466818    1.347978
  H      1.602914   -1.822950    1.150103
  H      0.438969   -1.466746    2.428287
  H     -0.109919   -2.178684    0.909314
  C      1.378269    0.898435    1.399149
  H      2.404394    0.585441    1.200734
  H      1.243781    0.945974    2.480710
  H      1.248373    1.905023    0.998951
  C      0.601961   -0.111034   -0.743097
  H      0.459212    0.877039   -1.182898
  H      1.613694   -0.443459   -0.979672
  H     -0.099531   -0.797550   -1.219221
  C     -0.242860    0.044900    5.059314
  C      1.179952   -0.424066    4.765915
  H      1.364391   -0.463395    3.691394
  H      1.911386    0.253607    5.208650
  H      1.352216   -1.421072    5.174035
  C     -0.449257    1.441461    4.478484
  H     -1.461220    1.798447    4.675331
  H      0.251661    2.152533    4.918205
  H     -0.296148    1.441658    3.398341
  C     -0.463155    0.085076    6.569168
  H     -1.474371    0.419353    6.805241
  H      0.239358    0.770025    7.046006
  H     -0.322592   -0.903444    7.008619
  C     -1.239323   -0.922878    4.426168
  H     -1.110397   -1.929853    4.825747
  H     -2.265212   -0.609105    4.624556
  H     -1.104619   -0.969852    3.344591

 Multiplicity           Mult            ....    1
 Number of Electrons    NEL             ....   84
 Basis Dimension        Dim             .... 1904

ORBITAL ENERGIES
----------------

  NO   OCC          E(Eh)            E(eV)
   0   2.0000     -11.225741      -305.4680
   1   2.0000     -11.225741      -305.4679
   2   2.0000     -11.203749      -304.8695
   3   2.0000     -11.203743      -304.8693
   4   2.0000     -11.202353      -304.8315
   5   2.0000     -11.202352      -304.8315
   6   2.0000     -11.202347      -304.8314
   7   2.0000     -11.202345      -304.8313
   8   2.0000     -11.202323      -304.8307
   9   2.0000     -11.202317      -304.8305
  10   2.0000      -1.110569       -30.2201
  11   2.0000      -1.103927       -30.0394
  12   2.0000      -0.935393       -25.4533
  13   2.0000      -0.935377       -25.4529
  14   2.0000      -0.934523       -25.4297
  15   2.0000      -0.924754       -25.1638
  16   2.0000      -0.924747       -25.1636
  17   2.0000      -0.924419       -25.1547
  18   2.0000      -0.739581       -20.1250
  19   2.0000      -0.724070       -19.7030
  20   2.0000      -0.637897       -17.3581
  21   2.0000      -0.614918       -16.7328
  22   2.0000      -0.614905       -16.7324
  23   2.0000      -0.611911       -16.6509
  24   2.0000      -0.611892       -16.6504
  25   2.0000      -0.589983       -16.0542
  26   2.0000      -0.572956       -15.5909
  27   2.0000      -0.572928       -15.5902
  28   2.0000      -0.542608       -14.7651
  29   2.0000      -0.542602       -14.7649
  30   2.0000      -0.516589       -14.0571
  31   2.0000      -0.516565       -14.0564
  32   2.0000      -0.511132       -13.9086
  33   2.0000      -0.508025       -13.8241
  34   2.0000      -0.498060       -13.5529
  35   2.0000      -0.498007       -13.5515
  36   2.0000      -0.470829       -12.8119
  37   2.0000      -0.453974       -12.3533
  38   2.0000      -0.453970       -12.3532
  39   2.0000      -0.450566       -12.2605
  40   2.0000      -0.450563       -12.2604
  41   2.0000      -0.425179       -11.5697
  42   0.0000       0.023469         0.6386
  43   0.0000       0.028172         0.7666
  44   0.0000       0.030309         0.8247
  45   0.0000       0.030309         0.8248
  46   0.0000       0.037635         1.0241

MULLIKEN ATOMIC CHARGES
-----------------------
   0 C :    1.792494
   1 C :   -1.029571
   2 H :    0.142887
   3 H :    0.344518
   4 H :    0.141658
   5 C :   -1.029892
   6 H :    0.142686
   7 H :    0.344584
   8 H :    0.141834
   9 C :   -1.030076
  10 H :    0.141715
  11 H :    0.344642
  12 H :    0.142953
  13 C :   -1.195963
  14 H :    0.201835
  15 H :    0.201906
  16 H :    0.201785
  17 C :    1.792396
  18 C :   -1.029942
  19 H :    0.344280
  20 H :    0.142732
  21 H :    0.142020
  22 C :   -1.029902
  23 H :    0.142858
  24 H :    0.141598
  25 H :    0.344680
  26 C :   -1.195919
  27 H :    0.201832
  28 H :    0.201905
  29 H :    0.201838
  30 C :   -1.029595
  31 H :    0.142659
  32 H :    0.141767
  33 H :    0.344798
Sum of atomic charges:   -0.0000000

LOEWDIN ATOMIC CHARGES
----------------------
   0 C :   -0.275035
   1 C :    0.929081
   2 H :   -0.247121
   3 H :   -0.376455
   4 H :   -0.247196
   5 C :    0.929091
   6 H :   -0.247178
   7 H :   -0.376213
   8 H :   -0.247217
   9 C :    0.929083
  10 H :   -0.247204
  11 H :   -0.376255
  12 H :   -0.247166
  13 C :    0.910997
  14 H :   -0.270394
  15 H :   -0.270417
  16 H :   -0.270405
  17 C :   -0.275033
  18 C :    0.929093
  19 H :   -0.376231
  20 H :   -0.247197
  21 H :   -0.247199
  22 C :    0.929071
  23 H :   -0.247187
  24 H :   -0.247205
  25 H :   -0.376193
  26 C :    0.911015
  27 H :   -0.270433
  28 H :   -0.270416
  29 H :   -0.270406
  30 C :    0.929086
  31 H :   -0.247145
  32 H :   -0.247154
  33 H :   -0.376466

  Mayer bond orders larger than 0.100000
B(  0-C ,  1-C ) :   0.3698 B(  0-C ,  5-C ) :   0.3701 B(  0-C ,  9-C ) :   0.3696
B(  0-C , 13-C ) :  -0.1227 B(  0-C , 14-H ) :  -0.2277 B(  0-C , 15-H ) :  -0.2277
B(  0-C , 16-H ) :  -0.2278 B(  1-C ,  2-H ) :   1.1912 B(  1-C ,  3-H ) :   0.9329
B(  1-C ,  4-H ) :   1.1926 B(  1-C , 13-C ) :   0.1603 B(  3-H , 25-H ) :  -0.1352
B(  3-H , 33-H ) :  -0.1360 B(  5-C ,  6-H ) :   1.1913 B(  5-C ,  7-H ) :   0.9330
B(  5-C ,  8-H ) :   1.1921 B(  5-C , 13-C ) :   0.1604 B(  7-H , 19-H ) :  -0.1357
B(  7-H , 33-H ) :  -0.1351 B(  9-C , 10-H ) :   1.1926 B(  9-C , 11-H ) :   0.9328
B(  9-C , 12-H ) :   1.1911 B(  9-C , 13-C ) :   0.1604 B( 11-H , 19-H ) :  -0.1352
B( 11-H , 25-H ) :  -0.1355 B( 13-C , 14-H ) :   1.1432 B( 13-C , 15-H ) :   1.1430
B( 13-C , 16-H ) :   1.1433 B( 17-C , 18-C ) :   0.3696 B( 17-C , 22-C ) :   0.3700
B( 17-C , 26-C ) :  -0.1227 B( 17-C , 27-H ) :  -0.2278 B( 17-C , 28-H ) :  -0.2277
B( 17-C , 29-H ) :  -0.2278 B( 17-C , 30-C ) :   0.3699 B( 18-C , 19-H ) :   0.9332
B( 18-C , 20-H ) :   1.1915 B( 18-C , 21-H ) :   1.1921 B( 18-C , 26-C ) :   0.1604
B( 22-C , 23-H ) :   1.1912 B( 22-C , 24-H ) :   1.1924 B( 22-C , 25-H ) :   0.9329
B( 22-C , 26-C ) :   0.1604 B( 26-C , 27-H ) :   1.1432 B( 26-C , 28-H ) :   1.1431
B( 26-C , 29-H ) :   1.1432 B( 26-C , 30-C ) :   0.1603 B( 30-C , 31-H ) :   1.1916
B( 30-C , 32-H ) :   1.1924 B( 30-C , 33-H ) :   0.9325

MP2 TOTAL ENERGY:     -394.743976032 Eh
FINAL SINGLE POINT ENERGY      -394.743976031893

DIPOLE MOMENT
-------------
                                X             Y             Z
Electronic contribution:     -0.00000       0.00012       0.00020
Nuclear contribution   :      0.00002      -0.00010      -0.00017
                        -----------------------------------------
Total Dipole Moment    :      0.00002       0.00002       0.00003
                        -----------------------------------------
Magnitude (a.u.)       :      0.00004
Magnitude (Debye)      :      0.00010

Rotational constants in cm-1:     0.074817     0.018632     0.018632
Rotational constants in MHz :  2242.970438   558.574786   558.573213

                             ****ORCA TERMINATED NORMALLY****
TOTAL RUN TIME: 1 days 1 hours 20 minutes 28 seconds 397 msec
