                         Program Version 5.0.4 -  RELEASE  -
|  1> ! ri-mp2 aug-cc-pvdz aug-cc-pvdz/c tightscf
|  2> %pal nprocs 16 end
|  3> %maxcore 3800
|  4> %base "DZ_S66by10_15_0.7_dimer"
|  5> %scf STABPerform true end
|  6>
|  7> *xyz 0 1
|  8> C   -0.70150294   -0.29062770    2.40688440
|  9> H   -1.18329596    0.39564777    3.09887422
| 10> H    0.34956157   -0.03032157    2.30783303
| 11> H   -0.79405685   -1.29160545    2.82403929
| 12> C   -1.44854625   -0.24487664    1.09181530
| 13> O   -2.66045000   -0.42847909    1.03434577
| 14> N   -0.67005656    0.00591656    0.00977691
| 15> H    0.32667532    0.12256396    0.14159284
| 16> C   -1.22705457    0.08979374   -1.31996754
| 17> H   -2.29202426   -0.10650119   -1.24087756
| 18> H   -1.07780169    1.07994030   -1.74854354
| 19> H   -0.77662849   -0.64799919   -1.98337273
| 20> C    1.47631165   -2.31713974    0.64215524
| 21> H    2.03453645   -3.22714298    0.43624723
| 22> H    0.54761979   -2.32366919    0.07782982
| 23> H    1.21709272   -2.29369304    1.69909624
| 24> C    2.24394759   -1.06272770    0.30591850
| 25> O    1.69876095    0.03870910    0.24894611
| 26> N    3.57070580   -1.23154147    0.09217053
| 27> H    3.94702710   -2.15878717    0.16892785
| 28> C    4.45794399   -0.12507550   -0.19677801
| 29> H    3.84375161    0.76573428   -0.27660172
| 30> H    5.18535854    0.01439023    0.60062530
| 31> H    4.98293428   -0.28505723   -1.13592034
| 32> *
| 33>
| 34> $new_job
| 35> ! ri-mp2 aug-cc-pvtz aug-cc-pvtz/c tightscf
| 36> %pal nprocs 16 end
| 37> %maxcore 3800
| 38> %base "TZ_S66by10_15_0.7_dimer"
| 39>
| 40> *xyz 0 1
| 41> C   -0.70150294   -0.29062770    2.40688440
| 42> H   -1.18329596    0.39564777    3.09887422
| 43> H    0.34956157   -0.03032157    2.30783303
| 44> H   -0.79405685   -1.29160545    2.82403929
| 45> C   -1.44854625   -0.24487664    1.09181530
| 46> O   -2.66045000   -0.42847909    1.03434577
| 47> N   -0.67005656    0.00591656    0.00977691
| 48> H    0.32667532    0.12256396    0.14159284
| 49> C   -1.22705457    0.08979374   -1.31996754
| 50> H   -2.29202426   -0.10650119   -1.24087756
| 51> H   -1.07780169    1.07994030   -1.74854354
| 52> H   -0.77662849   -0.64799919   -1.98337273
| 53> C    1.47631165   -2.31713974    0.64215524
| 54> H    2.03453645   -3.22714298    0.43624723
| 55> H    0.54761979   -2.32366919    0.07782982
| 56> H    1.21709272   -2.29369304    1.69909624
| 57> C    2.24394759   -1.06272770    0.30591850
| 58> O    1.69876095    0.03870910    0.24894611
| 59> N    3.57070580   -1.23154147    0.09217053
| 60> H    3.94702710   -2.15878717    0.16892785
| 61> C    4.45794399   -0.12507550   -0.19677801
| 62> H    3.84375161    0.76573428   -0.27660172
| 63> H    5.18535854    0.01439023    0.60062530
| 64> H    4.98293428   -0.28505723   -1.13592034
| 65> *
| 66>
| 67> $new_job
| 68> ! ri-mp2 aug-cc-pvqz aug-cc-pvqz/c tightscf
| 69> %pal nprocs 16 end
| 70> %maxcore 3800
| 71> %base "QZ_S66by10_15_0.7_dimer"
| 72>
| 73> *xyz 0 1
| 74> C   -0.70150294   -0.29062770    2.40688440
| 75> H   -1.18329596    0.39564777    3.09887422
| 76> H    0.34956157   -0.03032157    2.30783303
| 77> H   -0.79405685   -1.29160545    2.82403929
| 78> C   -1.44854625   -0.24487664    1.09181530
| 79> O   -2.66045000   -0.42847909    1.03434577
| 80> N   -0.67005656    0.00591656    0.00977691
| 81> H    0.32667532    0.12256396    0.14159284
| 82> C   -1.22705457    0.08979374   -1.31996754
| 83> H   -2.29202426   -0.10650119   -1.24087756
| 84> H   -1.07780169    1.07994030   -1.74854354
| 85> H   -0.77662849   -0.64799919   -1.98337273
| 86> C    1.47631165   -2.31713974    0.64215524
| 87> H    2.03453645   -3.22714298    0.43624723
| 88> H    0.54761979   -2.32366919    0.07782982
| 89> H    1.21709272   -2.29369304    1.69909624
| 90> C    2.24394759   -1.06272770    0.30591850
| 91> O    1.69876095    0.03870910    0.24894611
| 92> N    3.57070580   -1.23154147    0.09217053
| 93> H    3.94702710   -2.15878717    0.16892785
| 94> C    4.45794399   -0.12507550   -0.19677801
| 95> H    3.84375161    0.76573428   -0.27660172
| 96> H    5.18535854    0.01439023    0.60062530
| 97> H    4.98293428   -0.28505723   -1.13592034
| 98> *
| 99>
|100>
|101>
|102>
|103>                          ****END OF INPUT****
 Total Charge           Charge          ....    0
 Multiplicity           Mult            ....    1
 Number of Electrons    NEL             ....   80
MP2 TOTAL ENERGY:     -495.689883817 Eh
FINAL SINGLE POINT ENERGY      -495.689883817010
MP2 TOTAL ENERGY:     -496.137101876 Eh
FINAL SINGLE POINT ENERGY      -496.137101875779

CARTESIAN COORDINATES (ANGSTROEM)
---------------------------------
  C     -0.701503   -0.290628    2.406884
  H     -1.183296    0.395648    3.098874
  H      0.349562   -0.030322    2.307833
  H     -0.794057   -1.291605    2.824039
  C     -1.448546   -0.244877    1.091815
  O     -2.660450   -0.428479    1.034346
  N     -0.670057    0.005917    0.009777
  H      0.326675    0.122564    0.141593
  C     -1.227055    0.089794   -1.319968
  H     -2.292024   -0.106501   -1.240878
  H     -1.077802    1.079940   -1.748544
  H     -0.776628   -0.647999   -1.983373
  C      1.476312   -2.317140    0.642155
  H      2.034536   -3.227143    0.436247
  H      0.547620   -2.323669    0.077830
  H      1.217093   -2.293693    1.699096
  C      2.243948   -1.062728    0.305918
  O      1.698761    0.038709    0.248946
  N      3.570706   -1.231541    0.092171
  H      3.947027   -2.158787    0.168928
  C      4.457944   -0.125076   -0.196778
  H      3.843752    0.765734   -0.276602
  H      5.185359    0.014390    0.600625
  H      4.982934   -0.285057   -1.135920

 Multiplicity           Mult            ....    1
 Number of Electrons    NEL             ....   80
 Basis Dimension        Dim             .... 1444

ORBITAL ENERGIES
----------------

  NO   OCC          E(Eh)            E(eV)
   0   2.0000     -20.545903      -559.0824
   1   2.0000     -20.473685      -557.1173
   2   2.0000     -15.617222      -424.9662
   3   2.0000     -15.517853      -422.2622
   4   2.0000     -11.386324      -309.8376
   5   2.0000     -11.309803      -307.7554
   6   2.0000     -11.278431      -306.9017
   7   2.0000     -11.255022      -306.2647
   8   2.0000     -11.223581      -305.4092
   9   2.0000     -11.208735      -305.0052
  10   2.0000      -1.424474       -38.7619
  11   2.0000      -1.337204       -36.3872
  12   2.0000      -1.266944       -34.4753
  13   2.0000      -1.186344       -32.2821
  14   2.0000      -1.046581       -28.4789
  15   2.0000      -0.990104       -26.9421
  16   2.0000      -0.958199       -26.0739
  17   2.0000      -0.901295       -24.5255
  18   2.0000      -0.839891       -22.8546
  19   2.0000      -0.760268       -20.6880
  20   2.0000      -0.722256       -19.6536
  21   2.0000      -0.689937       -18.7742
  22   2.0000      -0.668942       -18.2028
  23   2.0000      -0.660139       -17.9633
  24   2.0000      -0.629269       -17.1233
  25   2.0000      -0.611044       -16.6274
  26   2.0000      -0.604990       -16.4626
  27   2.0000      -0.602959       -16.4073
  28   2.0000      -0.577570       -15.7165
  29   2.0000      -0.570174       -15.5152
  30   2.0000      -0.560908       -15.2631
  31   2.0000      -0.547599       -14.9009
  32   2.0000      -0.543488       -14.7891
  33   2.0000      -0.522251       -14.2112
  34   2.0000      -0.515422       -14.0254
  35   2.0000      -0.474644       -12.9157
  36   2.0000      -0.443931       -12.0800
  37   2.0000      -0.428301       -11.6547
  38   2.0000      -0.386304       -10.5119
  39   2.0000      -0.347186        -9.4474
  40   0.0000       0.009486         0.2581
  41   0.0000       0.023366         0.6358
  42   0.0000       0.025952         0.7062
  43   0.0000       0.031732         0.8635
  44   0.0000       0.042457         1.1553

MULLIKEN ATOMIC CHARGES
-----------------------
   0 C :   -0.860161
   1 H :    0.307595
   2 H :    0.303266
   3 H :    0.238488
   4 C :    0.980869
   5 O :   -0.957384
   6 N :   -0.408303
   7 H :    0.534406
   8 C :   -0.979165
   9 H :    0.311289
  10 H :    0.291239
  11 H :    0.332903
  12 C :   -0.802772
  13 H :    0.342378
  14 H :    0.239713
  15 H :    0.298089
  16 C :    1.155246
  17 O :   -1.037456
  18 N :   -0.605510
  19 H :    0.228513
  20 C :   -0.862383
  21 H :    0.294352
  22 H :    0.314640
  23 H :    0.340147
Sum of atomic charges:   -0.0000000

LOEWDIN ATOMIC CHARGES
----------------------
   0 C :    0.878974
   1 H :   -0.294594
   2 H :   -0.354756
   3 H :   -0.299812
   4 C :   -0.827220
   5 O :    0.686477
   6 N :    0.781807
   7 H :   -1.183118
   8 C :    0.789249
   9 H :   -0.367964
  10 H :   -0.282987
  11 H :   -0.287646
  12 C :    0.942442
  13 H :   -0.290877
  14 H :   -0.303634
  15 H :   -0.296460
  16 C :   -0.597184
  17 O :    1.041386
  18 N :    0.867181
  19 H :   -0.498300
  20 C :    0.811201
  21 H :   -0.352407
  22 H :   -0.279894
  23 H :   -0.281863

  Mayer bond orders larger than 0.100000
B(  0-C ,  1-H ) :   0.9352 B(  0-C ,  2-H ) :   0.9598 B(  0-C ,  3-H ) :   0.9616
B(  0-C ,  4-C ) :   0.9034 B(  0-C ,  5-O ) :   0.1333 B(  4-C ,  5-O ) :   0.9507
B(  4-C ,  6-N ) :   1.3023 B(  5-O ,  6-N ) :   0.3106 B(  6-N ,  7-H ) :   0.8333
B(  6-N ,  8-C ) :   0.8774 B(  6-N , 17-O ) :  -0.1442 B(  7-H , 17-O ) :  -0.1563
B(  8-C ,  9-H ) :   0.9271 B(  8-C , 10-H ) :   0.9935 B(  8-C , 11-H ) :   0.9141
B( 12-C , 13-H ) :   0.9464 B( 12-C , 14-H ) :   0.9871 B( 12-C , 15-H ) :   0.8896
B( 12-C , 16-C ) :   0.7731 B( 16-C , 17-O ) :   1.2533 B( 16-C , 18-N ) :   1.0592
B( 16-C , 20-C ) :  -0.1291 B( 18-N , 19-H ) :   1.0180 B( 18-N , 20-C ) :   0.9020
B( 20-C , 21-H ) :   0.9296 B( 20-C , 22-H ) :   0.9372 B( 20-C , 23-H ) :   0.9091

MP2 TOTAL ENERGY:     -496.278746341 Eh
FINAL SINGLE POINT ENERGY      -496.278746341058

DIPOLE MOMENT
-------------
                                X             Y             Z
Electronic contribution:     -2.86945       0.97694       0.67155
Nuclear contribution   :      6.35035      -2.08878      -0.92012
                        -----------------------------------------
Total Dipole Moment    :      3.48091      -1.11185      -0.24857
                        -----------------------------------------
Magnitude (a.u.)       :      3.66261
Magnitude (Debye)      :      9.30961

Rotational constants in cm-1:     0.080274     0.020121     0.018534
Rotational constants in MHz :  2406.568916   603.201921   555.640432

                             ****ORCA TERMINATED NORMALLY****
TOTAL RUN TIME: 0 days 6 hours 35 minutes 9 seconds 958 msec
