                         Program Version 5.0.4 -  RELEASE  -
|  1> ! ri-mp2 aug-cc-pvdz aug-cc-pvdz/c tightscf
|  2> %pal nprocs 16 end
|  3> %maxcore 3800
|  4> %base "DZ_S66by10_22_1.05_dimer"
|  5> %scf
|  6> STABPerform true
|  7> STABRestartUHFifUnstable true
|  8> end
|  9>
| 10> *xyz 0 1
| 11> C   -1.11362611    1.32702009    0.27516705
| 12> O   -0.46708264    2.34938778    0.46153746
| 13> O   -0.57808939    0.13692049    0.04961747
| 14> H    0.41332036    0.20325661    0.05548711
| 15> C   -2.61142469    1.28618957    0.27736131
| 16> H   -3.00664872    2.27688545    0.46578983
| 17> H   -2.96425623    0.91525868   -0.68200123
| 18> H   -2.95311421    0.59179821    1.04124041
| 19> N    4.28232580    1.09031567    0.18252846
| 20> H    4.67553091    0.17492544    0.01080904
| 21> C    5.20385371    2.13843129    0.36398157
| 22> O    6.40100009    1.92013548    0.31110161
| 23> C    4.56478764    3.41789367    0.60458873
| 24> H    5.18432240    4.28481855    0.75606600
| 25> C    3.21770343    3.49788383    0.63396996
| 26> H    2.69486324    4.42633083    0.80926817
| 27> N    2.41397268    2.40720184    0.44356393
| 28> H    1.38992085    2.47714953    0.46735419
| 29> C    2.91390517    1.15697906    0.20939171
| 30> O    2.20187272    0.16747417    0.03592153
| 31> *
| 32>
| 33> $new_job
| 34> ! ri-mp2 aug-cc-pvtz aug-cc-pvtz/c tightscf
| 35> %pal nprocs 16 end
| 36> %maxcore 3800
| 37> %base "TZ_S66by10_22_1.05_dimer"
| 38>
| 39> *xyz 0 1
| 40> C   -1.11362611    1.32702009    0.27516705
| 41> O   -0.46708264    2.34938778    0.46153746
| 42> O   -0.57808939    0.13692049    0.04961747
| 43> H    0.41332036    0.20325661    0.05548711
| 44> C   -2.61142469    1.28618957    0.27736131
| 45> H   -3.00664872    2.27688545    0.46578983
| 46> H   -2.96425623    0.91525868   -0.68200123
| 47> H   -2.95311421    0.59179821    1.04124041
| 48> N    4.28232580    1.09031567    0.18252846
| 49> H    4.67553091    0.17492544    0.01080904
| 50> C    5.20385371    2.13843129    0.36398157
| 51> O    6.40100009    1.92013548    0.31110161
| 52> C    4.56478764    3.41789367    0.60458873
| 53> H    5.18432240    4.28481855    0.75606600
| 54> C    3.21770343    3.49788383    0.63396996
| 55> H    2.69486324    4.42633083    0.80926817
| 56> N    2.41397268    2.40720184    0.44356393
| 57> H    1.38992085    2.47714953    0.46735419
| 58> C    2.91390517    1.15697906    0.20939171
| 59> O    2.20187272    0.16747417    0.03592153
| 60> *
| 61>
| 62> $new_job
| 63> ! ri-mp2 aug-cc-pvqz aug-cc-pvqz/c tightscf
| 64> %pal nprocs 16 end
| 65> %maxcore 3800
| 66> %base "QZ_S66by10_22_1.05_dimer"
| 67>
| 68> *xyz 0 1
| 69> C   -1.11362611    1.32702009    0.27516705
| 70> O   -0.46708264    2.34938778    0.46153746
| 71> O   -0.57808939    0.13692049    0.04961747
| 72> H    0.41332036    0.20325661    0.05548711
| 73> C   -2.61142469    1.28618957    0.27736131
| 74> H   -3.00664872    2.27688545    0.46578983
| 75> H   -2.96425623    0.91525868   -0.68200123
| 76> H   -2.95311421    0.59179821    1.04124041
| 77> N    4.28232580    1.09031567    0.18252846
| 78> H    4.67553091    0.17492544    0.01080904
| 79> C    5.20385371    2.13843129    0.36398157
| 80> O    6.40100009    1.92013548    0.31110161
| 81> C    4.56478764    3.41789367    0.60458873
| 82> H    5.18432240    4.28481855    0.75606600
| 83> C    3.21770343    3.49788383    0.63396996
| 84> H    2.69486324    4.42633083    0.80926817
| 85> N    2.41397268    2.40720184    0.44356393
| 86> H    1.38992085    2.47714953    0.46735419
| 87> C    2.91390517    1.15697906    0.20939171
| 88> O    2.20187272    0.16747417    0.03592153
| 89> *
| 90>
| 91>
| 92>
| 93>
| 94>                          ****END OF INPUT****
 Total Charge           Charge          ....    0
 Multiplicity           Mult            ....    1
 Number of Electrons    NEL             ....   90
MP2 TOTAL ENERGY:     -642.330290521 Eh
FINAL SINGLE POINT ENERGY      -642.330290521221
MP2 TOTAL ENERGY:     -642.876550356 Eh
FINAL SINGLE POINT ENERGY      -642.876550355593

CARTESIAN COORDINATES (ANGSTROEM)
---------------------------------
  C     -1.113626    1.327020    0.275167
  O     -0.467083    2.349388    0.461537
  O     -0.578089    0.136920    0.049617
  H      0.413320    0.203257    0.055487
  C     -2.611425    1.286190    0.277361
  H     -3.006649    2.276885    0.465790
  H     -2.964256    0.915259   -0.682001
  H     -2.953114    0.591798    1.041240
  N      4.282326    1.090316    0.182528
  H      4.675531    0.174925    0.010809
  C      5.203854    2.138431    0.363982
  O      6.401000    1.920135    0.311102
  C      4.564788    3.417894    0.604589
  H      5.184322    4.284819    0.756066
  C      3.217703    3.497884    0.633970
  H      2.694863    4.426331    0.809268
  N      2.413973    2.407202    0.443564
  H      1.389921    2.477150    0.467354
  C      2.913905    1.156979    0.209392
  O      2.201873    0.167474    0.035922

 Multiplicity           Mult            ....    1
 Number of Electrons    NEL             ....   90
 Basis Dimension        Dim             .... 1328

ORBITAL ENERGIES
----------------

  NO   OCC          E(Eh)            E(eV)
   0   2.0000     -20.604076      -560.6654
   1   2.0000     -20.557748      -559.4047
   2   2.0000     -20.554143      -559.3067
   3   2.0000     -20.539164      -558.8991
   4   2.0000     -15.631578      -425.3569
   5   2.0000     -15.629102      -425.2895
   6   2.0000     -11.423959      -310.8617
   7   2.0000     -11.399198      -310.1879
   8   2.0000     -11.379754      -309.6588
   9   2.0000     -11.334884      -308.4379
  10   2.0000     -11.251314      -306.1638
  11   2.0000     -11.246634      -306.0365
  12   2.0000      -1.468473       -39.9592
  13   2.0000      -1.440104       -39.1872
  14   2.0000      -1.398572       -38.0571
  15   2.0000      -1.365354       -37.1532
  16   2.0000      -1.312272       -35.7087
  17   2.0000      -1.246333       -33.9144
  18   2.0000      -1.085849       -29.5474
  19   2.0000      -1.033108       -28.1123
  20   2.0000      -0.933021       -25.3888
  21   2.0000      -0.902782       -24.5660
  22   2.0000      -0.830516       -22.5995
  23   2.0000      -0.806400       -21.9433
  24   2.0000      -0.766452       -20.8562
  25   2.0000      -0.728140       -19.8137
  26   2.0000      -0.706290       -19.2191
  27   2.0000      -0.691651       -18.8208
  28   2.0000      -0.676922       -18.4200
  29   2.0000      -0.672113       -18.2891
  30   2.0000      -0.656285       -17.8584
  31   2.0000      -0.655450       -17.8357
  32   2.0000      -0.612491       -16.6667
  33   2.0000      -0.602701       -16.4003
  34   2.0000      -0.585560       -15.9339
  35   2.0000      -0.572257       -15.5719
  36   2.0000      -0.572133       -15.5685
  37   2.0000      -0.563427       -15.3316
  38   2.0000      -0.524695       -14.2777
  39   2.0000      -0.495436       -13.4815
  40   2.0000      -0.490770       -13.3545
  41   2.0000      -0.467047       -12.7090
  42   2.0000      -0.450942       -12.2708
  43   2.0000      -0.444029       -12.0826
  44   2.0000      -0.366777        -9.9805
  45   0.0000       0.019210         0.5227
  46   0.0000       0.025902         0.7048
  47   0.0000       0.033467         0.9107
  48   0.0000       0.038227         1.0402
  49   0.0000       0.039387         1.0718

MULLIKEN ATOMIC CHARGES
-----------------------
   0 C :    0.930564
   1 O :   -0.746570
   2 O :   -0.697697
   3 H :    0.303876
   4 C :   -0.730684
   5 H :    0.339909
   6 H :    0.295454
   7 H :    0.294522
   8 N :   -0.668858
   9 H :    0.135929
  10 C :    1.110313
  11 O :   -0.817676
  12 C :   -0.381117
  13 H :    0.296559
  14 C :   -0.290348
  15 H :    0.340490
  16 N :   -0.503944
  17 H :    0.127236
  18 C :    1.416677
  19 O :   -0.754636
Sum of atomic charges:    0.0000000

LOEWDIN ATOMIC CHARGES
----------------------
   0 C :   -0.970169
   1 O :    0.803780
   2 O :    1.263654
   3 H :   -1.074378
   4 C :    0.875528
   5 H :   -0.324561
   6 H :   -0.302375
   7 H :   -0.302399
   8 N :    0.788505
   9 H :   -0.515327
  10 C :   -0.859299
  11 O :    0.682304
  12 C :    0.337754
  13 H :   -0.354468
  14 C :    0.248223
  15 H :   -0.292794
  16 N :    0.815671
  17 H :   -0.746369
  18 C :   -0.904187
  19 O :    0.830906

  Mayer bond orders larger than 0.100000
B(  0-C ,  1-O ) :   1.5480 B(  0-C ,  2-O ) :   0.9547 B(  0-C ,  4-C ) :   0.6897
B(  2-O ,  3-H ) :   0.8709 B(  4-C ,  5-H ) :   0.9600 B(  4-C ,  6-H ) :   0.9378
B(  4-C ,  7-H ) :   0.9387 B(  8-N ,  9-H ) :   1.1786 B(  8-N , 10-C ) :   1.0353
B(  8-N , 11-O ) :   0.1595 B(  8-N , 18-C ) :   1.0027 B(  8-N , 19-O ) :   0.1010
B(  9-H , 18-C ) :  -0.1020 B( 10-C , 11-O ) :   1.0489 B( 10-C , 12-C ) :   1.1577
B( 10-C , 14-C ) :  -0.1022 B( 11-O , 12-C ) :   0.2678 B( 12-C , 13-H ) :   0.9990
B( 12-C , 14-C ) :   1.4569 B( 13-H , 14-C ) :  -0.1196 B( 14-C , 15-H ) :   0.9843
B( 14-C , 16-N ) :   0.9549 B( 16-N , 17-H ) :   1.0703 B( 16-N , 18-C ) :   1.1390
B( 16-N , 19-O ) :   0.1941 B( 18-C , 19-O ) :   1.2280

MP2 TOTAL ENERGY:     -643.056173168 Eh
FINAL SINGLE POINT ENERGY      -643.056173167898

DIPOLE MOMENT
-------------
                                X             Y             Z
Electronic contribution:      9.27447      -0.83891      -0.22786
Nuclear contribution   :    -10.87906       1.65220       0.38968
                        -----------------------------------------
Total Dipole Moment    :     -1.60459       0.81330       0.16182
                        -----------------------------------------
Magnitude (a.u.)       :      1.80619
Magnitude (Debye)      :      4.59098

Rotational constants in cm-1:     0.092939     0.012826     0.011294
Rotational constants in MHz :  2786.235857   384.528307   338.597575

                             ****ORCA TERMINATED NORMALLY****
TOTAL RUN TIME: 1 days 17 hours 35 minutes 42 seconds 680 msec
