                         Program Version 5.0.4 -  RELEASE  -
|  1> ! ri-mp2 aug-cc-pvdz aug-cc-pvdz/c tightscf
|  2> %pal nprocs 16 end
|  3> %maxcore 3800
|  4> %base "DZ_S66by10_52_0.95_dimer"
|  5>
|  6> *xyz 0 1
|  7> C    0.96408039    0.87509331    0.37801364
|  8> H    1.65982961    1.69993082    0.44604227
|  9> C    1.43105709   -0.41313344    0.11899152
| 10> H    2.48952453   -0.58720917   -0.01701261
| 11> C    0.53412766   -1.47763890    0.04241755
| 12> H    0.89696129   -2.47738838   -0.15201199
| 13> C   -0.83032682   -1.25360409    0.22085611
| 14> H   -1.52576001   -2.07962435    0.16411655
| 15> C   -1.29758715    0.03441261    0.48024263
| 16> H   -2.35439607    0.20801612    0.62856096
| 17> C   -0.40044509    1.09977921    0.56160137
| 18> H   -0.76045514    2.09376880    0.78475698
| 19> C   -0.12817290    0.55114966    4.24748001
| 20> O   -0.59636250    1.60059628    3.86821963
| 21> O    0.27503967   -0.42641360    3.40819475
| 22> H    0.10633485   -0.10050002    2.50678950
| 23> C    0.08178140    0.15416258    5.67888580
| 24> H   -0.22818475    0.96349916    6.32887469
| 25> H   -0.49429933   -0.74246140    5.89583692
| 26> H    1.13027882   -0.08196951    5.84390439
| 27> *
| 28>
| 29> $new_job
| 30> ! ri-mp2 aug-cc-pvtz aug-cc-pvtz/c tightscf
| 31> %pal nprocs 16 end
| 32> %maxcore 3800
| 33> %base "TZ_S66by10_52_0.95_dimer"
| 34>
| 35> *xyz 0 1
| 36> C    0.96408039    0.87509331    0.37801364
| 37> H    1.65982961    1.69993082    0.44604227
| 38> C    1.43105709   -0.41313344    0.11899152
| 39> H    2.48952453   -0.58720917   -0.01701261
| 40> C    0.53412766   -1.47763890    0.04241755
| 41> H    0.89696129   -2.47738838   -0.15201199
| 42> C   -0.83032682   -1.25360409    0.22085611
| 43> H   -1.52576001   -2.07962435    0.16411655
| 44> C   -1.29758715    0.03441261    0.48024263
| 45> H   -2.35439607    0.20801612    0.62856096
| 46> C   -0.40044509    1.09977921    0.56160137
| 47> H   -0.76045514    2.09376880    0.78475698
| 48> C   -0.12817290    0.55114966    4.24748001
| 49> O   -0.59636250    1.60059628    3.86821963
| 50> O    0.27503967   -0.42641360    3.40819475
| 51> H    0.10633485   -0.10050002    2.50678950
| 52> C    0.08178140    0.15416258    5.67888580
| 53> H   -0.22818475    0.96349916    6.32887469
| 54> H   -0.49429933   -0.74246140    5.89583692
| 55> H    1.13027882   -0.08196951    5.84390439
| 56> *
| 57>
| 58> $new_job
| 59> ! ri-mp2 aug-cc-pvqz aug-cc-pvqz/c tightscf
| 60> %pal nprocs 16 end
| 61> %maxcore 3800
| 62> %base "QZ_S66by10_52_0.95_dimer"
| 63>
| 64> *xyz 0 1
| 65> C    0.96408039    0.87509331    0.37801364
| 66> H    1.65982961    1.69993082    0.44604227
| 67> C    1.43105709   -0.41313344    0.11899152
| 68> H    2.48952453   -0.58720917   -0.01701261
| 69> C    0.53412766   -1.47763890    0.04241755
| 70> H    0.89696129   -2.47738838   -0.15201199
| 71> C   -0.83032682   -1.25360409    0.22085611
| 72> H   -1.52576001   -2.07962435    0.16411655
| 73> C   -1.29758715    0.03441261    0.48024263
| 74> H   -2.35439607    0.20801612    0.62856096
| 75> C   -0.40044509    1.09977921    0.56160137
| 76> H   -0.76045514    2.09376880    0.78475698
| 77> C   -0.12817290    0.55114966    4.24748001
| 78> O   -0.59636250    1.60059628    3.86821963
| 79> O    0.27503967   -0.42641360    3.40819475
| 80> H    0.10633485   -0.10050002    2.50678950
| 81> C    0.08178140    0.15416258    5.67888580
| 82> H   -0.22818475    0.96349916    6.32887469
| 83> H   -0.49429933   -0.74246140    5.89583692
| 84> H    1.13027882   -0.08196951    5.84390439
| 85> *
| 86>
| 87>
| 88>
| 89>
| 90>                          ****END OF INPUT****
 Total Charge           Charge          ....    0
 Multiplicity           Mult            ....    1
 Number of Electrons    NEL             ....   74
MP2 TOTAL ENERGY:     -460.073673278 Eh
FINAL SINGLE POINT ENERGY      -460.073673278078
MP2 TOTAL ENERGY:     -460.477255167 Eh
FINAL SINGLE POINT ENERGY      -460.477255167118

CARTESIAN COORDINATES (ANGSTROEM)
---------------------------------
  C      0.964080    0.875093    0.378014
  H      1.659830    1.699931    0.446042
  C      1.431057   -0.413133    0.118992
  H      2.489525   -0.587209   -0.017013
  C      0.534128   -1.477639    0.042418
  H      0.896961   -2.477388   -0.152012
  C     -0.830327   -1.253604    0.220856
  H     -1.525760   -2.079624    0.164117
  C     -1.297587    0.034413    0.480243
  H     -2.354396    0.208016    0.628561
  C     -0.400445    1.099779    0.561601
  H     -0.760455    2.093769    0.784757
  C     -0.128173    0.551150    4.247480
  O     -0.596363    1.600596    3.868220
  O      0.275040   -0.426414    3.408195
  H      0.106335   -0.100500    2.506790
  C      0.081781    0.154163    5.678886
  H     -0.228185    0.963499    6.328875
  H     -0.494299   -0.742461    5.895837
  H      1.130279   -0.081970    5.843904

 Multiplicity           Mult            ....    1
 Number of Electrons    NEL             ....   74
 Basis Dimension        Dim             .... 1260

ORBITAL ENERGIES
----------------

  NO   OCC          E(Eh)            E(eV)
   0   2.0000     -20.592012      -560.3371
   1   2.0000     -20.535934      -558.8112
   2   2.0000     -11.376407      -309.5678
   3   2.0000     -11.243172      -305.9423
   4   2.0000     -11.242699      -305.9294
   5   2.0000     -11.241724      -305.9029
   6   2.0000     -11.241057      -305.8847
   7   2.0000     -11.240892      -305.8802
   8   2.0000     -11.239746      -305.8490
   9   2.0000     -11.234941      -305.7183
  10   2.0000      -1.449440       -39.4413
  11   2.0000      -1.347159       -36.6581
  12   2.0000      -1.159791       -31.5595
  13   2.0000      -1.023160       -27.8416
  14   2.0000      -1.023005       -27.8374
  15   2.0000      -1.018452       -27.7135
  16   2.0000      -0.831405       -22.6237
  17   2.0000      -0.831099       -22.6154
  18   2.0000      -0.810008       -22.0414
  19   2.0000      -0.717492       -19.5239
  20   2.0000      -0.694598       -18.9010
  21   2.0000      -0.668734       -18.1972
  22   2.0000      -0.650300       -17.6956
  23   2.0000      -0.639263       -17.3952
  24   2.0000      -0.626460       -17.0469
  25   2.0000      -0.595798       -16.2125
  26   2.0000      -0.595039       -16.1918
  27   2.0000      -0.573932       -15.6175
  28   2.0000      -0.566419       -15.4131
  29   2.0000      -0.551311       -15.0019
  30   2.0000      -0.510114       -13.8809
  31   2.0000      -0.501919       -13.6579
  32   2.0000      -0.501529       -13.6473
  33   2.0000      -0.471083       -12.8188
  34   2.0000      -0.443768       -12.0755
  35   2.0000      -0.347078        -9.4445
  36   2.0000      -0.345990        -9.4149
  37   0.0000       0.022467         0.6114
  38   0.0000       0.029281         0.7968
  39   0.0000       0.030726         0.8361
  40   0.0000       0.033556         0.9131
  41   0.0000       0.043265         1.1773

MULLIKEN ATOMIC CHARGES
-----------------------
   0 C :   -0.376206
   1 H :    0.278585
   2 C :   -0.346124
   3 H :    0.295445
   4 C :   -0.256555
   5 H :    0.318772
   6 C :   -0.349156
   7 H :    0.295398
   8 C :   -0.362768
   9 H :    0.280256
  10 C :   -0.223253
  11 H :    0.324451
  12 C :    0.942574
  13 O :   -0.779065
  14 O :   -0.674015
  15 H :    0.432026
  16 C :   -0.715168
  17 H :    0.316453
  18 H :    0.301822
  19 H :    0.296527
Sum of atomic charges:    0.0000000

LOEWDIN ATOMIC CHARGES
----------------------
   0 C :    0.333719
   1 H :   -0.313353
   2 C :    0.337187
   3 H :   -0.319005
   4 C :    0.337000
   5 H :   -0.320817
   6 C :    0.337230
   7 H :   -0.318663
   8 C :    0.331979
   9 H :   -0.312320
  10 C :    0.315490
  11 H :   -0.312766
  12 C :   -1.020762
  13 O :    0.702487
  14 O :    1.282448
  15 H :   -0.994725
  16 C :    0.870636
  17 H :   -0.326140
  18 H :   -0.304311
  19 H :   -0.305314

  Mayer bond orders larger than 0.100000
B(  0-C ,  1-H ) :   1.0828 B(  0-C ,  2-C ) :   1.2543 B(  0-C ,  6-C ) :   0.1612
B(  0-C , 10-C ) :   1.1860 B(  2-C ,  3-H ) :   1.0615 B(  2-C ,  4-C ) :   1.1868
B(  2-C ,  8-C ) :   0.1538 B(  4-C ,  5-H ) :   1.0447 B(  4-C ,  6-C ) :   1.1924
B(  6-C ,  7-H ) :   1.0601 B(  6-C ,  8-C ) :   1.2584 B(  8-C ,  9-H ) :   1.0804
B(  8-C , 10-C ) :   1.1768 B( 10-C , 11-H ) :   1.0144 B( 12-C , 13-O ) :   1.3988
B( 12-C , 14-O ) :   1.0072 B( 12-C , 16-C ) :   0.8100 B( 13-O , 15-H ) :   0.1686
B( 14-O , 15-H ) :   0.7271 B( 16-C , 17-H ) :   0.9699 B( 16-C , 18-H ) :   0.9165
B( 16-C , 19-H ) :   0.9262

MP2 TOTAL ENERGY:     -460.606477440 Eh
FINAL SINGLE POINT ENERGY      -460.606477439726

DIPOLE MOMENT
-------------
                                X             Y             Z
Electronic contribution:     -0.57337       1.21548      -2.06544
Nuclear contribution   :      0.85519      -1.87052       2.08536
                        -----------------------------------------
Total Dipole Moment    :      0.28182      -0.65504       0.01992
                        -----------------------------------------
Magnitude (a.u.)       :      0.71337
Magnitude (Debye)      :      1.81324

Rotational constants in cm-1:     0.079798     0.024023     0.023006
Rotational constants in MHz :  2392.270377   720.181125   689.694395

                             ****ORCA TERMINATED NORMALLY****
TOTAL RUN TIME: 0 days 0 hours 47 minutes 4 seconds 932 msec
