                         Program Version 5.0.4 -  RELEASE  -
|  1> ! ri-mp2 aug-cc-pvdz aug-cc-pvdz/c tightscf
|  2> %pal nprocs 16 end
|  3> %maxcore 3800
|  4> %base "DZ_S66by10_12_1.05_dimer"
|  5> %scf STABPerform true end
|  6>
|  7> *xyz 0 1
|  8> N   -0.53346397   -0.27959351    0.10699576
|  9> H   -0.62915138   -1.24842455    0.38284867
| 10> H   -1.12260363   -0.16615944   -0.70776410
| 11> C   -1.01690943    0.58848610    1.18737346
| 12> H   -0.91275967    1.62555174    0.87952116
| 13> H   -2.05473726    0.41508213    1.47850360
| 14> H   -0.38502338    0.44880090    2.06061419
| 15> O    2.22127377    0.96688242    0.20728249
| 16> H    1.40375637    0.47060993    0.03412958
| 17> H    2.80317522    0.70838455   -0.50846361
| 18> *
| 19>
| 20> $new_job
| 21> ! ri-mp2 aug-cc-pvtz aug-cc-pvtz/c tightscf
| 22> %pal nprocs 16 end
| 23> %maxcore 3800
| 24> %base "TZ_S66by10_12_1.05_dimer"
| 25>
| 26> *xyz 0 1
| 27> N   -0.53346397   -0.27959351    0.10699576
| 28> H   -0.62915138   -1.24842455    0.38284867
| 29> H   -1.12260363   -0.16615944   -0.70776410
| 30> C   -1.01690943    0.58848610    1.18737346
| 31> H   -0.91275967    1.62555174    0.87952116
| 32> H   -2.05473726    0.41508213    1.47850360
| 33> H   -0.38502338    0.44880090    2.06061419
| 34> O    2.22127377    0.96688242    0.20728249
| 35> H    1.40375637    0.47060993    0.03412958
| 36> H    2.80317522    0.70838455   -0.50846361
| 37> *
| 38>
| 39> $new_job
| 40> ! ri-mp2 aug-cc-pvqz aug-cc-pvqz/c tightscf
| 41> %pal nprocs 16 end
| 42> %maxcore 3800
| 43> %base "QZ_S66by10_12_1.05_dimer"
| 44>
| 45> *xyz 0 1
| 46> N   -0.53346397   -0.27959351    0.10699576
| 47> H   -0.62915138   -1.24842455    0.38284867
| 48> H   -1.12260363   -0.16615944   -0.70776410
| 49> C   -1.01690943    0.58848610    1.18737346
| 50> H   -0.91275967    1.62555174    0.87952116
| 51> H   -2.05473726    0.41508213    1.47850360
| 52> H   -0.38502338    0.44880090    2.06061419
| 53> O    2.22127377    0.96688242    0.20728249
| 54> H    1.40375637    0.47060993    0.03412958
| 55> H    2.80317522    0.70838455   -0.50846361
| 56> *
| 57>
| 58>
| 59>
| 60>
| 61>                          ****END OF INPUT****
 Total Charge           Charge          ....    0
 Multiplicity           Mult            ....    1
 Number of Electrons    NEL             ....   28
MP2 TOTAL ENERGY:     -171.846301311 Eh
FINAL SINGLE POINT ENERGY      -171.846301311100
MP2 TOTAL ENERGY:     -172.007850224 Eh
FINAL SINGLE POINT ENERGY      -172.007850224415

CARTESIAN COORDINATES (ANGSTROEM)
---------------------------------
  N     -0.533464   -0.279594    0.106996
  H     -0.629151   -1.248425    0.382849
  H     -1.122604   -0.166159   -0.707764
  C     -1.016909    0.588486    1.187373
  H     -0.912760    1.625552    0.879521
  H     -2.054737    0.415082    1.478504
  H     -0.385023    0.448801    2.060614
  O      2.221274    0.966882    0.207282
  H      1.403756    0.470610    0.034130
  H      2.803175    0.708385   -0.508464

 Multiplicity           Mult            ....    1
 Number of Electrons    NEL             ....   28
 Basis Dimension        Dim             ....  562

ORBITAL ENERGIES
----------------

  NO   OCC          E(Eh)            E(eV)
   0   2.0000     -20.528896      -558.6197
   1   2.0000     -15.557261      -423.3346
   2   2.0000     -11.247846      -306.0695
   3   2.0000      -1.315977       -35.8096
   4   2.0000      -1.187898       -32.3243
   5   2.0000      -0.907961       -24.7069
   6   2.0000      -0.684985       -18.6394
   7   2.0000      -0.678229       -18.4555
   8   2.0000      -0.615961       -16.7611
   9   2.0000      -0.568314       -15.4646
  10   2.0000      -0.553954       -15.0739
  11   2.0000      -0.527804       -14.3623
  12   2.0000      -0.476435       -12.9645
  13   2.0000      -0.415143       -11.2966
  14   0.0000       0.021908         0.5961
  15   0.0000       0.034778         0.9464
  16   0.0000       0.038088         1.0364
  17   0.0000       0.040601         1.1048
  18   0.0000       0.054009         1.4697

MULLIKEN ATOMIC CHARGES
-----------------------
   0 N :   -0.468639
   1 H :    0.197191
   2 H :    0.199043
   3 C :   -0.736879
   4 H :    0.262871
   5 H :    0.348838
   6 H :    0.264604
   7 O :   -0.640720
   8 H :    0.285643
   9 H :    0.288049
Sum of atomic charges:    0.0000000

LOEWDIN ATOMIC CHARGES
----------------------
   0 N :    1.259663
   1 H :   -0.496721
   2 H :   -0.497264
   3 C :    0.774143
   4 H :   -0.306014
   5 H :   -0.288336
   6 H :   -0.305990
   7 O :    1.605663
   8 H :   -0.948871
   9 H :   -0.796273

  Mayer bond orders larger than 0.100000
B(  0-N ,  1-H ) :   0.9973 B(  0-N ,  2-H ) :   0.9972 B(  0-N ,  3-C ) :   0.9814
B(  3-C ,  4-H ) :   0.9336 B(  3-C ,  5-H ) :   0.8506 B(  3-C ,  6-H ) :   0.9327
B(  7-O ,  8-H ) :   0.9293 B(  7-O ,  9-H ) :   0.9748

MP2 TOTAL ENERGY:     -172.059299397 Eh
FINAL SINGLE POINT ENERGY      -172.059299397165

DIPOLE MOMENT
-------------
                                X             Y             Z
Electronic contribution:      1.88401      -0.00791      -0.77072
Nuclear contribution   :     -2.81847      -0.67741       0.34870
                        -----------------------------------------
Total Dipole Moment    :     -0.93446      -0.68532      -0.42201
                        -----------------------------------------
Magnitude (a.u.)       :      1.23328
Magnitude (Debye)      :      3.13475

Rotational constants in cm-1:     0.744355     0.140528     0.123171
Rotational constants in MHz : 22315.212848  4212.909273  3692.583268

                             ****ORCA TERMINATED NORMALLY****
TOTAL RUN TIME: 0 days 0 hours 14 minutes 15 seconds 133 msec
