                         Program Version 5.0.4 -  RELEASE  -
|  1> ! ri-mp2 aug-cc-pvdz aug-cc-pvdz/c tightscf
|  2> %pal nprocs 16 end
|  3> %maxcore 3800
|  4> %base "DZ_S66by10_16_0.7_dimer"
|  5> %scf STABPerform true end
|  6>
|  7> *xyz 0 1
|  8> C   -0.72430464   -0.70493582    2.28386786
|  9> H    0.33531828   -0.62994325    2.05318235
| 10> H   -0.95169666   -1.71198961    2.62565146
| 11> H   -0.96962784   -0.02207955    3.09376537
| 12> C   -1.61493501   -0.38742925    1.10406897
| 13> O   -2.83732387   -0.41502209    1.19413277
| 14> N   -0.95342037   -0.07640442   -0.04081980
| 15> H    0.05380860   -0.07556651   -0.03664022
| 16> C   -1.65812397    0.25009358   -1.25855306
| 17> H   -2.72037197    0.17694444   -1.04665270
| 18> H   -1.43030493    1.26296263   -1.58809384
| 19> H   -1.40562611   -0.44433518   -2.05858358
| 20> O    1.50802149   -0.06338788   -0.12069805
| 21> H    2.07299878   -0.77634651   -0.42589745
| 22> H    2.08777311    0.70080568   -0.09679955
| 23> *
| 24>
| 25> $new_job
| 26> ! ri-mp2 aug-cc-pvtz aug-cc-pvtz/c tightscf
| 27> %pal nprocs 16 end
| 28> %maxcore 3800
| 29> %base "TZ_S66by10_16_0.7_dimer"
| 30>
| 31> *xyz 0 1
| 32> C   -0.72430464   -0.70493582    2.28386786
| 33> H    0.33531828   -0.62994325    2.05318235
| 34> H   -0.95169666   -1.71198961    2.62565146
| 35> H   -0.96962784   -0.02207955    3.09376537
| 36> C   -1.61493501   -0.38742925    1.10406897
| 37> O   -2.83732387   -0.41502209    1.19413277
| 38> N   -0.95342037   -0.07640442   -0.04081980
| 39> H    0.05380860   -0.07556651   -0.03664022
| 40> C   -1.65812397    0.25009358   -1.25855306
| 41> H   -2.72037197    0.17694444   -1.04665270
| 42> H   -1.43030493    1.26296263   -1.58809384
| 43> H   -1.40562611   -0.44433518   -2.05858358
| 44> O    1.50802149   -0.06338788   -0.12069805
| 45> H    2.07299878   -0.77634651   -0.42589745
| 46> H    2.08777311    0.70080568   -0.09679955
| 47> *
| 48>
| 49> $new_job
| 50> ! ri-mp2 aug-cc-pvqz aug-cc-pvqz/c tightscf
| 51> %pal nprocs 16 end
| 52> %maxcore 3800
| 53> %base "QZ_S66by10_16_0.7_dimer"
| 54>
| 55> *xyz 0 1
| 56> C   -0.72430464   -0.70493582    2.28386786
| 57> H    0.33531828   -0.62994325    2.05318235
| 58> H   -0.95169666   -1.71198961    2.62565146
| 59> H   -0.96962784   -0.02207955    3.09376537
| 60> C   -1.61493501   -0.38742925    1.10406897
| 61> O   -2.83732387   -0.41502209    1.19413277
| 62> N   -0.95342037   -0.07640442   -0.04081980
| 63> H    0.05380860   -0.07556651   -0.03664022
| 64> C   -1.65812397    0.25009358   -1.25855306
| 65> H   -2.72037197    0.17694444   -1.04665270
| 66> H   -1.43030493    1.26296263   -1.58809384
| 67> H   -1.40562611   -0.44433518   -2.05858358
| 68> O    1.50802149   -0.06338788   -0.12069805
| 69> H    2.07299878   -0.77634651   -0.42589745
| 70> H    2.08777311    0.70080568   -0.09679955
| 71> *
| 72>
| 73>
| 74>
| 75>
| 76>                          ****END OF INPUT****
 Total Charge           Charge          ....    0
 Multiplicity           Mult            ....    1
 Number of Electrons    NEL             ....   50
MP2 TOTAL ENERGY:     -324.101167023 Eh
FINAL SINGLE POINT ENERGY      -324.101167023289
MP2 TOTAL ENERGY:     -324.393281755 Eh
FINAL SINGLE POINT ENERGY      -324.393281755217

CARTESIAN COORDINATES (ANGSTROEM)
---------------------------------
  C     -0.724305   -0.704936    2.283868
  H      0.335318   -0.629943    2.053182
  H     -0.951697   -1.711990    2.625651
  H     -0.969628   -0.022080    3.093765
  C     -1.614935   -0.387429    1.104069
  O     -2.837324   -0.415022    1.194133
  N     -0.953420   -0.076404   -0.040820
  H      0.053809   -0.075567   -0.036640
  C     -1.658124    0.250094   -1.258553
  H     -2.720372    0.176944   -1.046653
  H     -1.430305    1.262963   -1.588094
  H     -1.405626   -0.444335   -2.058584
  O      1.508021   -0.063388   -0.120698
  H      2.072999   -0.776347   -0.425897
  H      2.087773    0.700806   -0.096800

 Multiplicity           Mult            ....    1
 Number of Electrons    NEL             ....   50
 Basis Dimension        Dim             ....  894

ORBITAL ENERGIES
----------------

  NO   OCC          E(Eh)            E(eV)
   0   2.0000     -20.616637      -561.0072
   1   2.0000     -20.481422      -557.3278
   2   2.0000     -15.535625      -422.7459
   3   2.0000     -11.318180      -307.9833
   4   2.0000     -11.231927      -305.6363
   5   2.0000     -11.212775      -305.1151
   6   2.0000      -1.417802       -38.5803
   7   2.0000      -1.345466       -36.6120
   8   2.0000      -1.197876       -32.5959
   9   2.0000      -0.995441       -27.0873
  10   2.0000      -0.908504       -24.7216
  11   2.0000      -0.790826       -21.5195
  12   2.0000      -0.774110       -21.0646
  13   2.0000      -0.683097       -18.5880
  14   2.0000      -0.643471       -17.5097
  15   2.0000      -0.615789       -16.7565
  16   2.0000      -0.607989       -16.5442
  17   2.0000      -0.574633       -15.6366
  18   2.0000      -0.566624       -15.4186
  19   2.0000      -0.551454       -15.0058
  20   2.0000      -0.526452       -14.3255
  21   2.0000      -0.504372       -13.7247
  22   2.0000      -0.480959       -13.0876
  23   2.0000      -0.394626       -10.7383
  24   2.0000      -0.359253        -9.7758
  25   0.0000       0.006826         0.1858
  26   0.0000       0.029442         0.8012
  27   0.0000       0.032047         0.8720
  28   0.0000       0.038280         1.0416
  29   0.0000       0.051946         1.4135

MULLIKEN ATOMIC CHARGES
-----------------------
   0 C :   -0.824752
   1 H :    0.291272
   2 H :    0.268237
   3 H :    0.267398
   4 C :    0.886395
   5 O :   -0.864537
   6 N :   -0.474853
   7 H :    0.357343
   8 C :   -0.810081
   9 H :    0.304139
  10 H :    0.280883
  11 H :    0.279073
  12 O :   -0.672655
  13 H :    0.358739
  14 H :    0.353398
Sum of atomic charges:    0.0000000

LOEWDIN ATOMIC CHARGES
----------------------
   0 C :    0.884491
   1 H :   -0.345752
   2 H :   -0.300846
   3 H :   -0.301408
   4 C :   -0.827692
   5 O :    0.687196
   6 N :    0.805531
   7 H :   -1.015297
   8 C :    0.784822
   9 H :   -0.371217
  10 H :   -0.287319
  11 H :   -0.287755
  12 O :    1.806887
  13 H :   -0.615810
  14 H :   -0.615830

  Mayer bond orders larger than 0.100000
B(  0-C ,  1-H ) :   0.9724 B(  0-C ,  2-H ) :   0.9488 B(  0-C ,  3-H ) :   0.9540
B(  0-C ,  4-C ) :   0.9158 B(  0-C ,  5-O ) :   0.1275 B(  4-C ,  5-O ) :   1.1804
B(  4-C ,  6-N ) :   1.2051 B(  5-O ,  6-N ) :   0.2356 B(  6-N ,  7-H ) :   0.9451
B(  6-N ,  8-C ) :   0.8071 B(  8-C ,  9-H ) :   0.9321 B(  8-C , 10-H ) :   0.9627
B(  8-C , 11-H ) :   0.9611 B( 12-O , 13-H ) :   0.9088 B( 12-O , 14-H ) :   0.9135

MP2 TOTAL ENERGY:     -324.487188068 Eh
FINAL SINGLE POINT ENERGY      -324.487188068301

DIPOLE MOMENT
-------------
                                X             Y             Z
Electronic contribution:     -2.26442      -0.28512       1.07270
Nuclear contribution   :      5.19293       0.46276      -1.78168
                        -----------------------------------------
Total Dipole Moment    :      2.92851       0.17764      -0.70897
                        -----------------------------------------
Magnitude (a.u.)       :      3.01834
Magnitude (Debye)      :      7.67201

Rotational constants in cm-1:     0.133084     0.081216     0.051764
Rotational constants in MHz :  3989.766051  2434.803243  1551.833725

                             ****ORCA TERMINATED NORMALLY****
TOTAL RUN TIME: 0 days 1 hours 26 minutes 56 seconds 843 msec
