                         Program Version 5.0.4 -  RELEASE  -
|  1> ! ri-mp2 aug-cc-pvdz aug-cc-pvdz/c tightscf
|  2> %pal nprocs 16 end
|  3> %maxcore 3800
|  4> %base "DZ_S66by10_2_0.95_dimer"
|  5> %scf STABPerform true end
|  6>
|  7> *xyz 0 1
|  8> O   -0.52532979   -0.05097108   -0.31451686
|  9> H   -0.94200663    0.74790163    0.01125282
| 10> H    0.40369652    0.05978598   -0.07356837
| 11> O    2.26261029    0.04590427    0.06775141
| 12> H    2.63059311   -0.52617313    0.74527974
| 13> C    2.72761536   -0.42572564   -1.19440770
| 14> H    2.29679826    0.22536805   -1.94752173
| 15> H    3.81357904   -0.37493278   -1.26871963
| 16> H    2.39927274   -1.44559514   -1.39348833
| 17> *
| 18>
| 19> $new_job
| 20> ! ri-mp2 aug-cc-pvtz aug-cc-pvtz/c tightscf
| 21> %pal nprocs 16 end
| 22> %maxcore 3800
| 23> %base "TZ_S66by10_2_0.95_dimer"
| 24>
| 25> *xyz 0 1
| 26> O   -0.52532979   -0.05097108   -0.31451686
| 27> H   -0.94200663    0.74790163    0.01125282
| 28> H    0.40369652    0.05978598   -0.07356837
| 29> O    2.26261029    0.04590427    0.06775141
| 30> H    2.63059311   -0.52617313    0.74527974
| 31> C    2.72761536   -0.42572564   -1.19440770
| 32> H    2.29679826    0.22536805   -1.94752173
| 33> H    3.81357904   -0.37493278   -1.26871963
| 34> H    2.39927274   -1.44559514   -1.39348833
| 35> *
| 36>
| 37> $new_job
| 38> ! ri-mp2 aug-cc-pvqz aug-cc-pvqz/c tightscf
| 39> %pal nprocs 16 end
| 40> %maxcore 3800
| 41> %base "QZ_S66by10_2_0.95_dimer"
| 42>
| 43> *xyz 0 1
| 44> O   -0.52532979   -0.05097108   -0.31451686
| 45> H   -0.94200663    0.74790163    0.01125282
| 46> H    0.40369652    0.05978598   -0.07356837
| 47> O    2.26261029    0.04590427    0.06775141
| 48> H    2.63059311   -0.52617313    0.74527974
| 49> C    2.72761536   -0.42572564   -1.19440770
| 50> H    2.29679826    0.22536805   -1.94752173
| 51> H    3.81357904   -0.37493278   -1.26871963
| 52> H    2.39927274   -1.44559514   -1.39348833
| 53> *
| 54>
| 55>
| 56>
| 57>
| 58>                          ****END OF INPUT****
 Total Charge           Charge          ....    0
 Multiplicity           Mult            ....    1
 Number of Electrons    NEL             ....   28
MP2 TOTAL ENERGY:     -191.691929393 Eh
FINAL SINGLE POINT ENERGY      -191.691929393442
MP2 TOTAL ENERGY:     -191.867378474 Eh
FINAL SINGLE POINT ENERGY      -191.867378473569

CARTESIAN COORDINATES (ANGSTROEM)
---------------------------------
  O     -0.525330   -0.050971   -0.314517
  H     -0.942007    0.747902    0.011253
  H      0.403697    0.059786   -0.073568
  O      2.262610    0.045904    0.067751
  H      2.630593   -0.526173    0.745280
  C      2.727615   -0.425726   -1.194408
  H      2.296798    0.225368   -1.947522
  H      3.813579   -0.374933   -1.268720
  H      2.399273   -1.445595   -1.393488

 Multiplicity           Mult            ....    1
 Number of Electrons    NEL             ....   28
 Basis Dimension        Dim             ....  516

ORBITAL ENERGIES
----------------

  NO   OCC          E(Eh)            E(eV)
   0   2.0000     -20.579549      -559.9980
   1   2.0000     -20.530357      -558.6594
   2   2.0000     -11.281333      -306.9807
   3   2.0000      -1.381548       -37.5938
   4   2.0000      -1.319324       -35.9006
   5   2.0000      -0.941099       -25.6086
   6   2.0000      -0.718766       -19.5586
   7   2.0000      -0.687636       -18.7115
   8   2.0000      -0.632956       -17.2236
   9   2.0000      -0.611536       -16.6407
  10   2.0000      -0.558101       -15.1867
  11   2.0000      -0.521464       -14.1898
  12   2.0000      -0.479400       -13.0451
  13   2.0000      -0.472300       -12.8519
  14   0.0000       0.022561         0.6139
  15   0.0000       0.036360         0.9894
  16   0.0000       0.038736         1.0541
  17   0.0000       0.043767         1.1909
  18   0.0000       0.056382         1.5342

MULLIKEN ATOMIC CHARGES
-----------------------
   0 O :   -0.637257
   1 H :    0.304317
   2 H :    0.269770
   3 O :   -0.645903
   4 H :    0.340743
   5 C :   -0.515570
   6 H :    0.284014
   7 H :    0.343369
   8 H :    0.256517
Sum of atomic charges:   -0.0000000

LOEWDIN ATOMIC CHARGES
----------------------
   0 O :    1.612192
   1 H :   -0.790807
   2 H :   -1.035307
   3 O :    1.283635
   4 H :   -0.751094
   5 C :    0.626107
   6 H :   -0.328992
   7 H :   -0.310670
   8 H :   -0.305064

  Mayer bond orders larger than 0.100000
B(  0-O ,  1-H ) :   0.9518 B(  0-O ,  2-H ) :   0.9680 B(  3-O ,  4-H ) :   0.8799
B(  3-O ,  5-C ) :   0.8395 B(  5-C ,  6-H ) :   0.9104 B(  5-C ,  7-H ) :   0.8743
B(  5-C ,  8-H ) :   0.9209

MP2 TOTAL ENERGY:     -191.924242929 Eh
FINAL SINGLE POINT ENERGY      -191.924242929262

DIPOLE MOMENT
-------------
                                X             Y             Z
Electronic contribution:     -0.90075       0.49827       1.38880
Nuclear contribution   :      1.91860      -0.49562      -1.17217
                        -----------------------------------------
Total Dipole Moment    :      1.01786       0.00265       0.21663
                        -----------------------------------------
Magnitude (a.u.)       :      1.04066
Magnitude (Debye)      :      2.64514

Rotational constants in cm-1:     0.903386     0.148745     0.132695
Rotational constants in MHz : 27082.830954  4459.271541  3978.109882

                             ****ORCA TERMINATED NORMALLY****
TOTAL RUN TIME: 0 days 0 hours 7 minutes 16 seconds 692 msec
