                         Program Version 5.0.4 -  RELEASE  -
|  1> ! ri-mp2 aug-cc-pvdz aug-cc-pvdz/c tightscf
|  2> %pal nprocs 16 end
|  3> %maxcore 3800
|  4> %base "DZ_S66by10_62_0.9_dimer"
|  5> %scf STABPerform true end
|  6>
|  7> *xyz 0 1
|  8> C   -2.58777605   -0.32310566    0.46945828
|  9> H   -2.61038910   -0.87636604   -0.46961946
| 10> H   -2.65974410   -1.05188654    1.27771411
| 11> H   -3.47603507    0.30562460    0.50896129
| 12> C   -1.30955982    0.49739424    0.58506260
| 13> H   -1.31725060    1.08326190    1.50634108
| 14> H   -1.26237673    1.21557375   -0.23677617
| 15> C   -0.05682966   -0.36826029    0.55844017
| 16> H   -0.08617526   -1.07335882    1.39587537
| 17> H   -0.05380919   -0.97684333   -0.35147393
| 18> C    1.23159606    0.44006559    0.63203246
| 19> H    1.21328340    1.05356193    1.53459305
| 20> H    1.26629733    1.13137662   -0.21310563
| 21> C    2.47257523   -0.44314441    0.61922148
| 22> H    2.52071888   -1.03526342   -0.29489695
| 23> H    3.38773437    0.14408974    0.68390871
| 24> H    2.45929703   -1.13936423    1.45861821
| 25> C    0.03798771    0.19231394    3.92017174
| 26> O    0.06489998    1.37738742    3.62833055
| 27> N    1.17056799   -0.55956371    4.02299169
| 28> H    2.04150824   -0.13698319    3.75432943
| 29> H    1.13163002   -1.55145037    4.15441461
| 30> C   -1.25223327   -0.54662355    4.18462557
| 31> H   -1.10498326   -1.50734491    4.67174994
| 32> H   -1.75846079   -0.70493248    3.23381222
| 33> H   -1.89017721    0.08061288    4.79989742
| 34> *
| 35>
| 36> $new_job
| 37> ! ri-mp2 aug-cc-pvtz aug-cc-pvtz/c tightscf
| 38> %pal nprocs 16 end
| 39> %maxcore 3800
| 40> %base "TZ_S66by10_62_0.9_dimer"
| 41>
| 42> *xyz 0 1
| 43> C   -2.58777605   -0.32310566    0.46945828
| 44> H   -2.61038910   -0.87636604   -0.46961946
| 45> H   -2.65974410   -1.05188654    1.27771411
| 46> H   -3.47603507    0.30562460    0.50896129
| 47> C   -1.30955982    0.49739424    0.58506260
| 48> H   -1.31725060    1.08326190    1.50634108
| 49> H   -1.26237673    1.21557375   -0.23677617
| 50> C   -0.05682966   -0.36826029    0.55844017
| 51> H   -0.08617526   -1.07335882    1.39587537
| 52> H   -0.05380919   -0.97684333   -0.35147393
| 53> C    1.23159606    0.44006559    0.63203246
| 54> H    1.21328340    1.05356193    1.53459305
| 55> H    1.26629733    1.13137662   -0.21310563
| 56> C    2.47257523   -0.44314441    0.61922148
| 57> H    2.52071888   -1.03526342   -0.29489695
| 58> H    3.38773437    0.14408974    0.68390871
| 59> H    2.45929703   -1.13936423    1.45861821
| 60> C    0.03798771    0.19231394    3.92017174
| 61> O    0.06489998    1.37738742    3.62833055
| 62> N    1.17056799   -0.55956371    4.02299169
| 63> H    2.04150824   -0.13698319    3.75432943
| 64> H    1.13163002   -1.55145037    4.15441461
| 65> C   -1.25223327   -0.54662355    4.18462557
| 66> H   -1.10498326   -1.50734491    4.67174994
| 67> H   -1.75846079   -0.70493248    3.23381222
| 68> H   -1.89017721    0.08061288    4.79989742
| 69> *
| 70>
| 71> $new_job
| 72> ! ri-mp2 aug-cc-pvqz aug-cc-pvqz/c tightscf
| 73> %pal nprocs 16 end
| 74> %maxcore 3800
| 75> %base "QZ_S66by10_62_0.9_dimer"
| 76>
| 77> *xyz 0 1
| 78> C   -2.58777605   -0.32310566    0.46945828
| 79> H   -2.61038910   -0.87636604   -0.46961946
| 80> H   -2.65974410   -1.05188654    1.27771411
| 81> H   -3.47603507    0.30562460    0.50896129
| 82> C   -1.30955982    0.49739424    0.58506260
| 83> H   -1.31725060    1.08326190    1.50634108
| 84> H   -1.26237673    1.21557375   -0.23677617
| 85> C   -0.05682966   -0.36826029    0.55844017
| 86> H   -0.08617526   -1.07335882    1.39587537
| 87> H   -0.05380919   -0.97684333   -0.35147393
| 88> C    1.23159606    0.44006559    0.63203246
| 89> H    1.21328340    1.05356193    1.53459305
| 90> H    1.26629733    1.13137662   -0.21310563
| 91> C    2.47257523   -0.44314441    0.61922148
| 92> H    2.52071888   -1.03526342   -0.29489695
| 93> H    3.38773437    0.14408974    0.68390871
| 94> H    2.45929703   -1.13936423    1.45861821
| 95> C    0.03798771    0.19231394    3.92017174
| 96> O    0.06489998    1.37738742    3.62833055
| 97> N    1.17056799   -0.55956371    4.02299169
| 98> H    2.04150824   -0.13698319    3.75432943
| 99> H    1.13163002   -1.55145037    4.15441461
|100> C   -1.25223327   -0.54662355    4.18462557
|101> H   -1.10498326   -1.50734491    4.67174994
|102> H   -1.75846079   -0.70493248    3.23381222
|103> H   -1.89017721    0.08061288    4.79989742
|104> *
|105>
|106>
|107>
|108>
|109>                          ****END OF INPUT****
 Total Charge           Charge          ....    0
 Multiplicity           Mult            ....    1
 Number of Electrons    NEL             ....   74
MP2 TOTAL ENERGY:     -405.790535169 Eh
FINAL SINGLE POINT ENERGY      -405.790535169359
MP2 TOTAL ENERGY:     -406.171614721 Eh
FINAL SINGLE POINT ENERGY      -406.171614720875

CARTESIAN COORDINATES (ANGSTROEM)
---------------------------------
  C     -2.587776   -0.323106    0.469458
  H     -2.610389   -0.876366   -0.469619
  H     -2.659744   -1.051887    1.277714
  H     -3.476035    0.305625    0.508961
  C     -1.309560    0.497394    0.585063
  H     -1.317251    1.083262    1.506341
  H     -1.262377    1.215574   -0.236776
  C     -0.056830   -0.368260    0.558440
  H     -0.086175   -1.073359    1.395875
  H     -0.053809   -0.976843   -0.351474
  C      1.231596    0.440066    0.632032
  H      1.213283    1.053562    1.534593
  H      1.266297    1.131377   -0.213106
  C      2.472575   -0.443144    0.619221
  H      2.520719   -1.035263   -0.294897
  H      3.387734    0.144090    0.683909
  H      2.459297   -1.139364    1.458618
  C      0.037988    0.192314    3.920172
  O      0.064900    1.377387    3.628331
  N      1.170568   -0.559564    4.022992
  H      2.041508   -0.136983    3.754329
  H      1.131630   -1.551450    4.154415
  C     -1.252233   -0.546624    4.184626
  H     -1.104983   -1.507345    4.671750
  H     -1.758461   -0.704932    3.233812
  H     -1.890177    0.080613    4.799897

 Multiplicity           Mult            ....    1
 Number of Electrons    NEL             ....   74
 Basis Dimension        Dim             .... 1502

ORBITAL ENERGIES
----------------

  NO   OCC          E(Eh)            E(eV)
   0   2.0000     -20.516613      -558.2854
   1   2.0000     -15.586735      -424.1366
   2   2.0000     -11.355325      -308.9941
   3   2.0000     -11.237149      -305.7784
   4   2.0000     -11.206030      -304.9316
   5   2.0000     -11.205691      -304.9224
   6   2.0000     -11.204971      -304.9028
   7   2.0000     -11.202435      -304.8338
   8   2.0000     -11.201500      -304.8083
   9   2.0000      -1.381576       -37.5946
  10   2.0000      -1.216348       -33.0985
  11   2.0000      -1.076412       -29.2906
  12   2.0000      -1.013132       -27.5687
  13   2.0000      -1.007130       -27.4054
  14   2.0000      -0.917088       -24.9552
  15   2.0000      -0.815989       -22.2042
  16   2.0000      -0.803000       -21.8507
  17   2.0000      -0.780049       -21.2262
  18   2.0000      -0.730859       -19.8877
  19   2.0000      -0.668627       -18.1943
  20   2.0000      -0.654276       -17.8037
  21   2.0000      -0.609380       -16.5821
  22   2.0000      -0.595299       -16.1989
  23   2.0000      -0.592065       -16.1109
  24   2.0000      -0.589769       -16.0484
  25   2.0000      -0.563848       -15.3431
  26   2.0000      -0.550619       -14.9831
  27   2.0000      -0.546696       -14.8763
  28   2.0000      -0.531184       -14.4543
  29   2.0000      -0.520772       -14.1709
  30   2.0000      -0.490985       -13.3604
  31   2.0000      -0.472383       -12.8542
  32   2.0000      -0.458069       -12.4647
  33   2.0000      -0.455243       -12.3878
  34   2.0000      -0.442549       -12.0424
  35   2.0000      -0.427742       -11.6394
  36   2.0000      -0.415095       -11.2953
  37   0.0000       0.018922         0.5149
  38   0.0000       0.027933         0.7601
  39   0.0000       0.030822         0.8387
  40   0.0000       0.033638         0.9153
  41   0.0000       0.040755         1.1090

MULLIKEN ATOMIC CHARGES
-----------------------
   0 C :   -0.996031
   1 H :    0.229020
   2 H :    0.236089
   3 H :    0.233966
   4 C :   -0.510341
   5 H :    0.298248
   6 H :    0.277786
   7 C :   -0.168217
   8 H :    0.233975
   9 H :    0.296910
  10 C :   -0.568872
  11 H :    0.285270
  12 H :    0.292918
  13 C :   -0.992801
  14 H :    0.263477
  15 H :    0.250700
  16 H :    0.255663
  17 C :    1.367360
  18 O :   -0.991538
  19 N :   -0.838495
  20 H :    0.262250
  21 H :    0.281231
  22 C :   -0.862714
  23 H :    0.264760
  24 H :    0.320844
  25 H :    0.278544
Sum of atomic charges:    0.0000000

LOEWDIN ATOMIC CHARGES
----------------------
   0 C :    0.933366
   1 H :   -0.280888
   2 H :   -0.304198
   3 H :   -0.275296
   4 C :    0.505490
   5 H :   -0.319654
   6 H :   -0.264415
   7 C :    0.484926
   8 H :   -0.299990
   9 H :   -0.261800
  10 C :    0.500217
  11 H :   -0.347416
  12 H :   -0.264134
  13 C :    0.925774
  14 H :   -0.282545
  15 H :   -0.278434
  16 H :   -0.306797
  17 C :   -0.837225
  18 O :    0.736238
  19 N :    1.258244
  20 H :   -0.502765
  21 H :   -0.490048
  22 C :    0.903777
  23 H :   -0.296566
  24 H :   -0.343676
  25 H :   -0.292187

  Mayer bond orders larger than 0.100000
B(  0-C ,  1-H ) :   1.0093 B(  0-C ,  2-H ) :   0.9256 B(  0-C ,  3-H ) :   1.0544
B(  0-C ,  4-C ) :   0.9508 B(  0-C ,  7-C ) :  -0.1316 B(  3-H ,  4-C ) :  -0.1029
B(  4-C ,  5-H ) :   0.8694 B(  4-C ,  6-H ) :   0.9016 B(  4-C ,  7-C ) :   0.7542
B(  7-C ,  8-H ) :   0.8544 B(  7-C ,  9-H ) :   0.9051 B(  7-C , 10-C ) :   0.7894
B(  7-C , 13-C ) :  -0.1101 B( 10-C , 11-H ) :   0.8659 B( 10-C , 12-H ) :   0.8636
B( 10-C , 13-C ) :   0.9807 B( 13-C , 14-H ) :   0.9595 B( 13-C , 15-H ) :   1.0409
B( 13-C , 16-H ) :   0.9350 B( 17-C , 18-O ) :   1.0081 B( 17-C , 19-N ) :   0.9565
B( 17-C , 22-C ) :   0.8763 B( 18-O , 19-N ) :   0.1459 B( 19-N , 20-H ) :   0.9430
B( 19-N , 21-H ) :   0.9323 B( 22-C , 23-H ) :   1.0096 B( 22-C , 24-H ) :   0.7782
B( 22-C , 25-H ) :   0.9937

MP2 TOTAL ENERGY:     -406.288980641 Eh
FINAL SINGLE POINT ENERGY      -406.288980641376

DIPOLE MOMENT
-------------
                                X             Y             Z
Electronic contribution:      1.92728       3.60487       7.82064
Nuclear contribution   :     -1.76727      -5.01467      -7.52387
                        -----------------------------------------
Total Dipole Moment    :      0.16001      -1.40979       0.29678
                        -----------------------------------------
Magnitude (a.u.)       :      1.44955
Magnitude (Debye)      :      3.68447

Rotational constants in cm-1:     0.046119     0.037685     0.024749
Rotational constants in MHz :  1382.625457  1129.761559   741.947550

                             ****ORCA TERMINATED NORMALLY****
TOTAL RUN TIME: 0 days 9 hours 4 minutes 6 seconds 534 msec
