                         Program Version 5.0.4 -  RELEASE  -
|  1> ! ri-mp2 aug-cc-pvdz aug-cc-pvdz/c tightscf
|  2> %pal nprocs 16 end
|  3> %maxcore 3800
|  4> %base "DZ_S66by10_15_0.9_dimer"
|  5> %scf STABPerform true end
|  6>
|  7> *xyz 0 1
|  8> C   -0.70150294   -0.29062770    2.40688440
|  9> H   -1.18329596    0.39564777    3.09887422
| 10> H    0.34956157   -0.03032157    2.30783303
| 11> H   -0.79405685   -1.29160545    2.82403929
| 12> C   -1.44854625   -0.24487664    1.09181530
| 13> O   -2.66045000   -0.42847909    1.03434577
| 14> N   -0.67005656    0.00591656    0.00977691
| 15> H    0.32667532    0.12256396    0.14159284
| 16> C   -1.22705457    0.08979374   -1.31996754
| 17> H   -2.29202426   -0.10650119   -1.24087756
| 18> H   -1.07780169    1.07994030   -1.74854354
| 19> H   -0.77662849   -0.64799919   -1.98337273
| 20> C    1.86805180   -2.34108090    0.67280536
| 21> H    2.42627660   -3.25108414    0.46689735
| 22> H    0.93935994   -2.34761035    0.10847994
| 23> H    1.60883287   -2.31763420    1.72974636
| 24> C    2.63568774   -1.08666886    0.33656862
| 25> O    2.09050110    0.01476794    0.27959622
| 26> N    3.96244595   -1.25548263    0.12282065
| 27> H    4.33876725   -2.18272832    0.19957797
| 28> C    4.84968414   -0.14901665   -0.16612789
| 29> H    4.23549176    0.74179312   -0.24595160
| 30> H    5.57709869   -0.00955092    0.63127542
| 31> H    5.37467443   -0.30899838   -1.10527022
| 32> *
| 33>
| 34> $new_job
| 35> ! ri-mp2 aug-cc-pvtz aug-cc-pvtz/c tightscf
| 36> %pal nprocs 16 end
| 37> %maxcore 3800
| 38> %base "TZ_S66by10_15_0.9_dimer"
| 39>
| 40> *xyz 0 1
| 41> C   -0.70150294   -0.29062770    2.40688440
| 42> H   -1.18329596    0.39564777    3.09887422
| 43> H    0.34956157   -0.03032157    2.30783303
| 44> H   -0.79405685   -1.29160545    2.82403929
| 45> C   -1.44854625   -0.24487664    1.09181530
| 46> O   -2.66045000   -0.42847909    1.03434577
| 47> N   -0.67005656    0.00591656    0.00977691
| 48> H    0.32667532    0.12256396    0.14159284
| 49> C   -1.22705457    0.08979374   -1.31996754
| 50> H   -2.29202426   -0.10650119   -1.24087756
| 51> H   -1.07780169    1.07994030   -1.74854354
| 52> H   -0.77662849   -0.64799919   -1.98337273
| 53> C    1.86805180   -2.34108090    0.67280536
| 54> H    2.42627660   -3.25108414    0.46689735
| 55> H    0.93935994   -2.34761035    0.10847994
| 56> H    1.60883287   -2.31763420    1.72974636
| 57> C    2.63568774   -1.08666886    0.33656862
| 58> O    2.09050110    0.01476794    0.27959622
| 59> N    3.96244595   -1.25548263    0.12282065
| 60> H    4.33876725   -2.18272832    0.19957797
| 61> C    4.84968414   -0.14901665   -0.16612789
| 62> H    4.23549176    0.74179312   -0.24595160
| 63> H    5.57709869   -0.00955092    0.63127542
| 64> H    5.37467443   -0.30899838   -1.10527022
| 65> *
| 66>
| 67> $new_job
| 68> ! ri-mp2 aug-cc-pvqz aug-cc-pvqz/c tightscf
| 69> %pal nprocs 16 end
| 70> %maxcore 3800
| 71> %base "QZ_S66by10_15_0.9_dimer"
| 72>
| 73> *xyz 0 1
| 74> C   -0.70150294   -0.29062770    2.40688440
| 75> H   -1.18329596    0.39564777    3.09887422
| 76> H    0.34956157   -0.03032157    2.30783303
| 77> H   -0.79405685   -1.29160545    2.82403929
| 78> C   -1.44854625   -0.24487664    1.09181530
| 79> O   -2.66045000   -0.42847909    1.03434577
| 80> N   -0.67005656    0.00591656    0.00977691
| 81> H    0.32667532    0.12256396    0.14159284
| 82> C   -1.22705457    0.08979374   -1.31996754
| 83> H   -2.29202426   -0.10650119   -1.24087756
| 84> H   -1.07780169    1.07994030   -1.74854354
| 85> H   -0.77662849   -0.64799919   -1.98337273
| 86> C    1.86805180   -2.34108090    0.67280536
| 87> H    2.42627660   -3.25108414    0.46689735
| 88> H    0.93935994   -2.34761035    0.10847994
| 89> H    1.60883287   -2.31763420    1.72974636
| 90> C    2.63568774   -1.08666886    0.33656862
| 91> O    2.09050110    0.01476794    0.27959622
| 92> N    3.96244595   -1.25548263    0.12282065
| 93> H    4.33876725   -2.18272832    0.19957797
| 94> C    4.84968414   -0.14901665   -0.16612789
| 95> H    4.23549176    0.74179312   -0.24595160
| 96> H    5.57709869   -0.00955092    0.63127542
| 97> H    5.37467443   -0.30899838   -1.10527022
| 98> *
| 99>
|100>
|101>
|102>
|103>                          ****END OF INPUT****
 Total Charge           Charge          ....    0
 Multiplicity           Mult            ....    1
 Number of Electrons    NEL             ....   80
MP2 TOTAL ENERGY:     -495.708460753 Eh
FINAL SINGLE POINT ENERGY      -495.708460752979
MP2 TOTAL ENERGY:     -496.155107538 Eh
FINAL SINGLE POINT ENERGY      -496.155107537702

CARTESIAN COORDINATES (ANGSTROEM)
---------------------------------
  C     -0.701503   -0.290628    2.406884
  H     -1.183296    0.395648    3.098874
  H      0.349562   -0.030322    2.307833
  H     -0.794057   -1.291605    2.824039
  C     -1.448546   -0.244877    1.091815
  O     -2.660450   -0.428479    1.034346
  N     -0.670057    0.005917    0.009777
  H      0.326675    0.122564    0.141593
  C     -1.227055    0.089794   -1.319968
  H     -2.292024   -0.106501   -1.240878
  H     -1.077802    1.079940   -1.748544
  H     -0.776628   -0.647999   -1.983373
  C      1.868052   -2.341081    0.672805
  H      2.426277   -3.251084    0.466897
  H      0.939360   -2.347610    0.108480
  H      1.608833   -2.317634    1.729746
  C      2.635688   -1.086669    0.336569
  O      2.090501    0.014768    0.279596
  N      3.962446   -1.255483    0.122821
  H      4.338767   -2.182728    0.199578
  C      4.849684   -0.149017   -0.166128
  H      4.235492    0.741793   -0.245952
  H      5.577099   -0.009551    0.631275
  H      5.374674   -0.308998   -1.105270

 Multiplicity           Mult            ....    1
 Number of Electrons    NEL             ....   80
 Basis Dimension        Dim             .... 1444

ORBITAL ENERGIES
----------------

  NO   OCC          E(Eh)            E(eV)
   0   2.0000     -20.536652      -558.8307
   1   2.0000     -20.483928      -557.3960
   2   2.0000     -15.608206      -424.7209
   3   2.0000     -15.546120      -423.0314
   4   2.0000     -11.374561      -309.5175
   5   2.0000     -11.321022      -308.0607
   6   2.0000     -11.272514      -306.7407
   7   2.0000     -11.251606      -306.1718
   8   2.0000     -11.232721      -305.6579
   9   2.0000     -11.213048      -305.1225
  10   2.0000      -1.403808       -38.1996
  11   2.0000      -1.347443       -36.6658
  12   2.0000      -1.255241       -34.1568
  13   2.0000      -1.200439       -32.6656
  14   2.0000      -1.039932       -28.2980
  15   2.0000      -0.996193       -27.1078
  16   2.0000      -0.952164       -25.9097
  17   2.0000      -0.908491       -24.7213
  18   2.0000      -0.818510       -22.2728
  19   2.0000      -0.760450       -20.6929
  20   2.0000      -0.713434       -19.4135
  21   2.0000      -0.680383       -18.5142
  22   2.0000      -0.667797       -18.1717
  23   2.0000      -0.654826       -17.8187
  24   2.0000      -0.631230       -17.1766
  25   2.0000      -0.611447       -16.6383
  26   2.0000      -0.606965       -16.5164
  27   2.0000      -0.604690       -16.4544
  28   2.0000      -0.574814       -15.6415
  29   2.0000      -0.566629       -15.4187
  30   2.0000      -0.564147       -15.3512
  31   2.0000      -0.554860       -15.0985
  32   2.0000      -0.534375       -14.5411
  33   2.0000      -0.527453       -14.3527
  34   2.0000      -0.520774       -14.1710
  35   2.0000      -0.482609       -13.1325
  36   2.0000      -0.448900       -12.2152
  37   2.0000      -0.418242       -11.3809
  38   2.0000      -0.396475       -10.7886
  39   2.0000      -0.362483        -9.8637
  40   0.0000       0.011275         0.3068
  41   0.0000       0.024733         0.6730
  42   0.0000       0.027169         0.7393
  43   0.0000       0.031992         0.8706
  44   0.0000       0.042115         1.1460

MULLIKEN ATOMIC CHARGES
-----------------------
   0 C :   -0.863670
   1 H :    0.302613
   2 H :    0.309899
   3 H :    0.252039
   4 C :    0.966457
   5 O :   -0.931826
   6 N :   -0.390858
   7 H :    0.386432
   8 C :   -0.923896
   9 H :    0.305522
  10 H :    0.302529
  11 H :    0.333235
  12 C :   -0.807435
  13 H :    0.351718
  14 H :    0.247504
  15 H :    0.282731
  16 C :    1.067423
  17 O :   -0.969405
  18 N :   -0.557278
  19 H :    0.243531
  20 C :   -0.838616
  21 H :    0.293332
  22 H :    0.306293
  23 H :    0.331727
Sum of atomic charges:   -0.0000000

LOEWDIN ATOMIC CHARGES
----------------------
   0 C :    0.879971
   1 H :   -0.297911
   2 H :   -0.343907
   3 H :   -0.298037
   4 C :   -0.834156
   5 O :    0.690407
   6 N :    0.812157
   7 H :   -0.842830
   8 C :    0.785167
   9 H :   -0.367085
  10 H :   -0.283507
  11 H :   -0.286882
  12 C :    0.916249
  13 H :   -0.299141
  14 H :   -0.305876
  15 H :   -0.290977
  16 C :   -0.722526
  17 O :    0.866451
  18 N :    0.846094
  19 H :   -0.501742
  20 C :    0.802745
  21 H :   -0.359347
  22 H :   -0.281632
  23 H :   -0.283684

  Mayer bond orders larger than 0.100000
B(  0-C ,  1-H ) :   0.9421 B(  0-C ,  2-H ) :   0.9603 B(  0-C ,  3-H ) :   0.9462
B(  0-C ,  4-C ) :   0.9157 B(  0-C ,  5-O ) :   0.1267 B(  4-C ,  5-O ) :   1.0103
B(  4-C ,  6-N ) :   1.2079 B(  5-O ,  6-N ) :   0.2763 B(  6-N ,  7-H ) :   0.7958
B(  6-N ,  8-C ) :   0.8520 B(  8-C ,  9-H ) :   0.9306 B(  8-C , 10-H ) :   0.9623
B(  8-C , 11-H ) :   0.9091 B( 12-C , 13-H ) :   0.9355 B( 12-C , 14-H ) :   0.9689
B( 12-C , 15-H ) :   0.8963 B( 12-C , 16-C ) :   0.8053 B( 16-C , 17-O ) :   1.2678
B( 16-C , 18-N ) :   1.1116 B( 16-C , 20-C ) :  -0.1028 B( 18-N , 19-H ) :   0.9905
B( 18-N , 20-C ) :   0.8896 B( 20-C , 21-H ) :   0.9234 B( 20-C , 22-H ) :   0.9401
B( 20-C , 23-H ) :   0.9174

MP2 TOTAL ENERGY:     -496.296796717 Eh
FINAL SINGLE POINT ENERGY      -496.296796717007

DIPOLE MOMENT
-------------
                                X             Y             Z
Electronic contribution:     -3.17318       1.01386       0.67375
Nuclear contribution   :      6.35035      -2.08878      -0.92012
                        -----------------------------------------
Total Dipole Moment    :      3.17717      -1.07492      -0.24637
                        -----------------------------------------
Magnitude (a.u.)       :      3.36312
Magnitude (Debye)      :      8.54837

Rotational constants in cm-1:     0.080192     0.017587     0.016333
Rotational constants in MHz :  2404.081532   527.235100   489.639260

                             ****ORCA TERMINATED NORMALLY****
TOTAL RUN TIME: 0 days 6 hours 10 minutes 49 seconds 981 msec
