                         Program Version 5.0.4 -  RELEASE  -
|  1> ! ri-mp2 aug-cc-pvdz aug-cc-pvdz/c tightscf
|  2> %pal nprocs 16 end
|  3> %maxcore 3800
|  4> %base "DZ_S66by10_31_1.0_dimer"
|  5> %scf STABPerform true end
|  6>
|  7> *xyz 0 1
|  8> N   -0.05087365   -0.98008127    0.03396219
|  9> H   -0.05322205   -1.99069374    0.04982167
| 10> C   -1.30881316   -0.36187638    0.00402596
| 11> O   -2.32722000   -1.03255492   -0.00582886
| 12> C   -1.23681849    1.08804829   -0.01222440
| 13> H   -2.15273897    1.65146044   -0.05477443
| 14> C   -0.03519433    1.69783584    0.03370483
| 15> H    0.07036636    2.77247575    0.03188224
| 16> N    1.13452913    0.99028251    0.09184461
| 17> H    2.02372032    1.45677218    0.15569277
| 18> C    1.19318599   -0.39183287    0.11577512
| 19> O    2.23639797   -1.01118826    0.19418562
| 20> C    0.72646659    0.02563807    3.41533182
| 21> H    1.24358433   -0.84534982    3.03810522
| 22> H    1.33207759    0.81263212    3.84264615
| 23> C   -0.60230991    0.12622852    3.36608489
| 24> H   -1.21431280   -0.66125107    2.94918417
| 25> H   -1.11413490    0.99729811    3.75008466
| 26> *
| 27>
| 28> $new_job
| 29> ! ri-mp2 aug-cc-pvtz aug-cc-pvtz/c tightscf
| 30> %pal nprocs 16 end
| 31> %maxcore 3800
| 32> %base "TZ_S66by10_31_1.0_dimer"
| 33>
| 34> *xyz 0 1
| 35> N   -0.05087365   -0.98008127    0.03396219
| 36> H   -0.05322205   -1.99069374    0.04982167
| 37> C   -1.30881316   -0.36187638    0.00402596
| 38> O   -2.32722000   -1.03255492   -0.00582886
| 39> C   -1.23681849    1.08804829   -0.01222440
| 40> H   -2.15273897    1.65146044   -0.05477443
| 41> C   -0.03519433    1.69783584    0.03370483
| 42> H    0.07036636    2.77247575    0.03188224
| 43> N    1.13452913    0.99028251    0.09184461
| 44> H    2.02372032    1.45677218    0.15569277
| 45> C    1.19318599   -0.39183287    0.11577512
| 46> O    2.23639797   -1.01118826    0.19418562
| 47> C    0.72646659    0.02563807    3.41533182
| 48> H    1.24358433   -0.84534982    3.03810522
| 49> H    1.33207759    0.81263212    3.84264615
| 50> C   -0.60230991    0.12622852    3.36608489
| 51> H   -1.21431280   -0.66125107    2.94918417
| 52> H   -1.11413490    0.99729811    3.75008466
| 53> *
| 54>
| 55> $new_job
| 56> ! ri-mp2 aug-cc-pvqz aug-cc-pvqz/c tightscf
| 57> %pal nprocs 16 end
| 58> %maxcore 3800
| 59> %base "QZ_S66by10_31_1.0_dimer"
| 60>
| 61> *xyz 0 1
| 62> N   -0.05087365   -0.98008127    0.03396219
| 63> H   -0.05322205   -1.99069374    0.04982167
| 64> C   -1.30881316   -0.36187638    0.00402596
| 65> O   -2.32722000   -1.03255492   -0.00582886
| 66> C   -1.23681849    1.08804829   -0.01222440
| 67> H   -2.15273897    1.65146044   -0.05477443
| 68> C   -0.03519433    1.69783584    0.03370483
| 69> H    0.07036636    2.77247575    0.03188224
| 70> N    1.13452913    0.99028251    0.09184461
| 71> H    2.02372032    1.45677218    0.15569277
| 72> C    1.19318599   -0.39183287    0.11577512
| 73> O    2.23639797   -1.01118826    0.19418562
| 74> C    0.72646659    0.02563807    3.41533182
| 75> H    1.24358433   -0.84534982    3.03810522
| 76> H    1.33207759    0.81263212    3.84264615
| 77> C   -0.60230991    0.12622852    3.36608489
| 78> H   -1.21431280   -0.66125107    2.94918417
| 79> H   -1.11413490    0.99729811    3.75008466
| 80> *
| 81>
| 82>
| 83>
| 84>
| 85>                          ****END OF INPUT****
 Total Charge           Charge          ....    0
 Multiplicity           Mult            ....    1
 Number of Electrons    NEL             ....   74
MP2 TOTAL ENERGY:     -492.114792074 Eh
FINAL SINGLE POINT ENERGY      -492.114792073825
MP2 TOTAL ENERGY:     -492.537439815 Eh
FINAL SINGLE POINT ENERGY      -492.537439815466

CARTESIAN COORDINATES (ANGSTROEM)
---------------------------------
  N     -0.050874   -0.980081    0.033962
  H     -0.053222   -1.990694    0.049822
  C     -1.308813   -0.361876    0.004026
  O     -2.327220   -1.032555   -0.005829
  C     -1.236818    1.088048   -0.012224
  H     -2.152739    1.651460   -0.054774
  C     -0.035194    1.697836    0.033705
  H      0.070366    2.772476    0.031882
  N      1.134529    0.990283    0.091845
  H      2.023720    1.456772    0.155693
  C      1.193186   -0.391833    0.115775
  O      2.236398   -1.011188    0.194186
  C      0.726467    0.025638    3.415332
  H      1.243584   -0.845350    3.038105
  H      1.332078    0.812632    3.842646
  C     -0.602310    0.126229    3.366085
  H     -1.214313   -0.661251    2.949184
  H     -1.114135    0.997298    3.750085

 Multiplicity           Mult            ....    1
 Number of Electrons    NEL             ....   74
 Basis Dimension        Dim             .... 1168

ORBITAL ENERGIES
----------------

  NO   OCC          E(Eh)            E(eV)
   0   2.0000     -20.543012      -559.0038
   1   2.0000     -20.537872      -558.8639
   2   2.0000     -15.639391      -425.5695
   3   2.0000     -15.623109      -425.1264
   4   2.0000     -11.415876      -310.6418
   5   2.0000     -11.378070      -309.6130
   6   2.0000     -11.336466      -308.4809
   7   2.0000     -11.250875      -306.1519
   8   2.0000     -11.233669      -305.6837
   9   2.0000     -11.231716      -305.6305
  10   2.0000      -1.434112       -39.0242
  11   2.0000      -1.396283       -37.9948
  12   2.0000      -1.310792       -35.6685
  13   2.0000      -1.243580       -33.8395
  14   2.0000      -1.085380       -29.5347
  15   2.0000      -1.039033       -28.2735
  16   2.0000      -0.931193       -25.3390
  17   2.0000      -0.899496       -24.4765
  18   2.0000      -0.804892       -21.9022
  19   2.0000      -0.798027       -21.7154
  20   2.0000      -0.763163       -20.7667
  21   2.0000      -0.712273       -19.3819
  22   2.0000      -0.676172       -18.3996
  23   2.0000      -0.670532       -18.2461
  24   2.0000      -0.651379       -17.7249
  25   2.0000      -0.646515       -17.5926
  26   2.0000      -0.613258       -16.6876
  27   2.0000      -0.599824       -16.3221
  28   2.0000      -0.591634       -16.0992
  29   2.0000      -0.570053       -15.5119
  30   2.0000      -0.524574       -14.2744
  31   2.0000      -0.511057       -13.9066
  32   2.0000      -0.482734       -13.1359
  33   2.0000      -0.448509       -12.2045
  34   2.0000      -0.436674       -11.8825
  35   2.0000      -0.383364       -10.4319
  36   2.0000      -0.365136        -9.9359
  37   0.0000       0.012734         0.3465
  38   0.0000       0.028680         0.7804
  39   0.0000       0.032695         0.8897
  40   0.0000       0.036096         0.9822
  41   0.0000       0.044763         1.2181

MULLIKEN ATOMIC CHARGES
-----------------------
   0 N :   -0.663320
   1 H :    0.065294
   2 C :    1.306670
   3 O :   -0.891257
   4 C :   -0.462129
   5 H :    0.247353
   6 C :   -0.116365
   7 H :    0.417564
   8 N :   -0.627433
   9 H :    0.071250
  10 C :    1.512750
  11 O :   -0.862724
  12 C :   -0.784494
  13 H :    0.400282
  14 H :    0.406081
  15 C :   -0.840375
  16 H :    0.419170
  17 H :    0.401682
Sum of atomic charges:   -0.0000000

LOEWDIN ATOMIC CHARGES
----------------------
   0 N :    0.773348
   1 H :   -0.514548
   2 C :   -0.893977
   3 O :    0.689864
   4 C :    0.319251
   5 H :   -0.349549
   6 C :    0.224172
   7 H :   -0.293652
   8 N :    0.807629
   9 H :   -0.488198
  10 C :   -1.025960
  11 O :    0.699259
  12 C :    0.750502
  13 H :   -0.369996
  14 H :   -0.356873
  15 C :    0.749214
  16 H :   -0.366448
  17 H :   -0.354037

  Mayer bond orders larger than 0.100000
B(  0-N ,  1-H ) :   1.2047 B(  0-N ,  2-C ) :   0.9566 B(  0-N ,  3-O ) :   0.2116
B(  0-N , 10-C ) :   1.0855 B(  0-N , 11-O ) :   0.2129 B(  2-C ,  3-O ) :   0.9198
B(  2-C ,  4-C ) :   1.1386 B(  3-O ,  4-C ) :   0.2604 B(  4-C ,  5-H ) :   1.0491
B(  4-C ,  6-C ) :   1.4517 B(  6-C ,  7-H ) :   0.9297 B(  6-C ,  8-N ) :   0.9035
B(  8-N ,  9-H ) :   1.1947 B(  8-N , 10-C ) :   1.0801 B(  8-N , 11-O ) :   0.2210
B( 10-C , 11-O ) :   0.9795 B( 12-C , 13-H ) :   0.8094 B( 12-C , 14-H ) :   0.8376
B( 12-C , 15-C ) :   1.9855 B( 15-C , 16-H ) :   0.8023 B( 15-C , 17-H ) :   0.8410

MP2 TOTAL ENERGY:     -492.675142627 Eh
FINAL SINGLE POINT ENERGY      -492.675142626779

DIPOLE MOMENT
-------------
                                X             Y             Z
Electronic contribution:      0.31445      -2.11633      -7.39577
Nuclear contribution   :      0.20233       4.01676       7.43397
                        -----------------------------------------
Total Dipole Moment    :      0.51678       1.90043       0.03819
                        -----------------------------------------
Magnitude (a.u.)       :      1.96981
Magnitude (Debye)      :      5.00687

Rotational constants in cm-1:     0.045480     0.041066     0.032592
Rotational constants in MHz :  1363.467983  1231.123060   977.090471

                             ****ORCA TERMINATED NORMALLY****
TOTAL RUN TIME: 0 days 4 hours 32 minutes 22 seconds 662 msec
