                         Program Version 5.0.4 -  RELEASE  -
|  1> ! ri-mp2 aug-cc-pvdz aug-cc-pvdz/c tightscf
|  2> %pal nprocs 16 end
|  3> %maxcore 3800
|  4> %base "DZ_S66by10_33_1.0_dimer"
|  5>
|  6> *xyz 0 1
|  7> N    1.38138219   -0.00023348    0.13146374
|  8> C    0.67935079   -1.14023946    0.09207966
|  9> H    1.25871960   -2.05496223    0.12588361
| 10> C   -0.70972232   -1.19311407    0.00666426
| 11> H   -1.21408768   -2.14856163   -0.02530851
| 12> C   -1.42161357    0.00013343   -0.04081690
| 13> H   -2.50069615    0.00025757   -0.10916973
| 14> C   -0.70940120    1.19317538    0.00652198
| 15> H   -1.21351163    2.14874784   -0.02552831
| 16> C    0.67965167    1.13995623    0.09189303
| 17> H    1.25926073    2.05451090    0.12550248
| 18> C    0.01915380    0.66643716    3.43718255
| 19> H    0.92962780    1.22592288    3.27806771
| 20> H   -0.89039370    1.22884139    3.59414306
| 21> C    0.01948648   -0.66625014    3.43731479
| 22> H    0.93022217   -1.22533263    3.27830436
| 23> H   -0.88980161   -1.22907491    3.59440394
| 24> *
| 25>
| 26> $new_job
| 27> ! ri-mp2 aug-cc-pvtz aug-cc-pvtz/c tightscf
| 28> %pal nprocs 16 end
| 29> %maxcore 3800
| 30> %base "TZ_S66by10_33_1.0_dimer"
| 31>
| 32> *xyz 0 1
| 33> N    1.38138219   -0.00023348    0.13146374
| 34> C    0.67935079   -1.14023946    0.09207966
| 35> H    1.25871960   -2.05496223    0.12588361
| 36> C   -0.70972232   -1.19311407    0.00666426
| 37> H   -1.21408768   -2.14856163   -0.02530851
| 38> C   -1.42161357    0.00013343   -0.04081690
| 39> H   -2.50069615    0.00025757   -0.10916973
| 40> C   -0.70940120    1.19317538    0.00652198
| 41> H   -1.21351163    2.14874784   -0.02552831
| 42> C    0.67965167    1.13995623    0.09189303
| 43> H    1.25926073    2.05451090    0.12550248
| 44> C    0.01915380    0.66643716    3.43718255
| 45> H    0.92962780    1.22592288    3.27806771
| 46> H   -0.89039370    1.22884139    3.59414306
| 47> C    0.01948648   -0.66625014    3.43731479
| 48> H    0.93022217   -1.22533263    3.27830436
| 49> H   -0.88980161   -1.22907491    3.59440394
| 50> *
| 51>
| 52> $new_job
| 53> ! ri-mp2 aug-cc-pvqz aug-cc-pvqz/c tightscf
| 54> %pal nprocs 16 end
| 55> %maxcore 3800
| 56> %base "QZ_S66by10_33_1.0_dimer"
| 57>
| 58> *xyz 0 1
| 59> N    1.38138219   -0.00023348    0.13146374
| 60> C    0.67935079   -1.14023946    0.09207966
| 61> H    1.25871960   -2.05496223    0.12588361
| 62> C   -0.70972232   -1.19311407    0.00666426
| 63> H   -1.21408768   -2.14856163   -0.02530851
| 64> C   -1.42161357    0.00013343   -0.04081690
| 65> H   -2.50069615    0.00025757   -0.10916973
| 66> C   -0.70940120    1.19317538    0.00652198
| 67> H   -1.21351163    2.14874784   -0.02552831
| 68> C    0.67965167    1.13995623    0.09189303
| 69> H    1.25926073    2.05451090    0.12550248
| 70> C    0.01915380    0.66643716    3.43718255
| 71> H    0.92962780    1.22592288    3.27806771
| 72> H   -0.89039370    1.22884139    3.59414306
| 73> C    0.01948648   -0.66625014    3.43731479
| 74> H    0.93022217   -1.22533263    3.27830436
| 75> H   -0.88980161   -1.22907491    3.59440394
| 76> *
| 77>
| 78>
| 79>
| 80>
| 81>                          ****END OF INPUT****
 Total Charge           Charge          ....    0
 Multiplicity           Mult            ....    1
 Number of Electrons    NEL             ....   58
MP2 TOTAL ENERGY:     -325.897541806 Eh
FINAL SINGLE POINT ENERGY      -325.897541805572
MP2 TOTAL ENERGY:     -326.187415970 Eh
FINAL SINGLE POINT ENERGY      -326.187415970131

CARTESIAN COORDINATES (ANGSTROEM)
---------------------------------
  N      1.381382   -0.000233    0.131464
  C      0.679351   -1.140239    0.092080
  H      1.258720   -2.054962    0.125884
  C     -0.709722   -1.193114    0.006664
  H     -1.214088   -2.148562   -0.025309
  C     -1.421614    0.000133   -0.040817
  H     -2.500696    0.000258   -0.109170
  C     -0.709401    1.193175    0.006522
  H     -1.213512    2.148748   -0.025528
  C      0.679652    1.139956    0.091893
  H      1.259261    2.054511    0.125502
  C      0.019154    0.666437    3.437183
  H      0.929628    1.225923    3.278068
  H     -0.890394    1.228841    3.594143
  C      0.019486   -0.666250    3.437315
  H      0.930222   -1.225333    3.278304
  H     -0.889802   -1.229075    3.594404

 Multiplicity           Mult            ....    1
 Number of Electrons    NEL             ....   58
 Basis Dimension        Dim             .... 1054

ORBITAL ENERGIES
----------------

  NO   OCC          E(Eh)            E(eV)
   0   2.0000     -15.562140      -423.4674
   1   2.0000     -11.272045      -306.7279
   2   2.0000     -11.272029      -306.7275
   3   2.0000     -11.256208      -306.2970
   4   2.0000     -11.238684      -305.8201
   5   2.0000     -11.238630      -305.8187
   6   2.0000     -11.221258      -305.3459
   7   2.0000     -11.219534      -305.2990
   8   2.0000      -1.254170       -34.1277
   9   2.0000      -1.087327       -29.5877
  10   2.0000      -1.031145       -28.0589
  11   2.0000      -1.026328       -27.9278
  12   2.0000      -0.857199       -23.3256
  13   2.0000      -0.853810       -23.2333
  14   2.0000      -0.786040       -21.3892
  15   2.0000      -0.720134       -19.5958
  16   2.0000      -0.658540       -17.9198
  17   2.0000      -0.652613       -17.7585
  18   2.0000      -0.637536       -17.3482
  19   2.0000      -0.596193       -16.2232
  20   2.0000      -0.580080       -15.7848
  21   2.0000      -0.575235       -15.6529
  22   2.0000      -0.540305       -14.7024
  23   2.0000      -0.518176       -14.1003
  24   2.0000      -0.501536       -13.6475
  25   2.0000      -0.417981       -11.3738
  26   2.0000      -0.382742       -10.4149
  27   2.0000      -0.366104        -9.9622
  28   2.0000      -0.345437        -9.3998
  29   0.0000       0.022934         0.6241
  30   0.0000       0.027684         0.7533
  31   0.0000       0.032635         0.8880
  32   0.0000       0.039590         1.0773
  33   0.0000       0.041991         1.1426

MULLIKEN ATOMIC CHARGES
-----------------------
   0 N :   -0.663415
   1 C :   -0.155160
   2 H :    0.453271
   3 C :   -0.340173
   4 H :    0.312364
   5 C :   -0.267215
   6 H :    0.367975
   7 C :   -0.340266
   8 H :    0.312231
   9 C :   -0.155094
  10 H :    0.453389
  11 C :   -0.777021
  12 H :    0.401150
  13 H :    0.386940
  14 C :   -0.776932
  15 H :    0.400962
  16 H :    0.386995
Sum of atomic charges:    0.0000000

LOEWDIN ATOMIC CHARGES
----------------------
   0 N :    0.590578
   1 C :    0.045026
   2 H :   -0.349686
   3 C :    0.312813
   4 H :   -0.325423
   5 C :    0.318455
   6 H :   -0.310858
   7 C :    0.312794
   8 H :   -0.325428
   9 C :    0.045043
  10 H :   -0.349705
  11 C :    0.736715
  12 H :   -0.361006
  13 H :   -0.357522
  14 C :    0.736715
  15 H :   -0.361007
  16 H :   -0.357502

  Mayer bond orders larger than 0.100000
B(  0-N ,  1-C ) :   1.1761 B(  0-N ,  2-H ) :  -0.1213 B(  0-N ,  9-C ) :   1.1760
B(  0-N , 10-H ) :  -0.1213 B(  1-C ,  2-H ) :   0.9022 B(  1-C ,  3-C ) :   1.1946
B(  3-C ,  4-H ) :   1.0156 B(  3-C ,  5-C ) :   1.2090 B(  5-C ,  6-H ) :   0.9634
B(  5-C ,  7-C ) :   1.2089 B(  7-C ,  8-H ) :   1.0158 B(  7-C ,  9-C ) :   1.1946
B(  9-C , 10-H ) :   0.9021 B( 11-C , 12-H ) :   0.8191 B( 11-C , 13-H ) :   0.8510
B( 11-C , 14-C ) :   2.0126 B( 14-C , 15-H ) :   0.8194 B( 14-C , 16-H ) :   0.8509

MP2 TOTAL ENERGY:     -326.278688875 Eh
FINAL SINGLE POINT ENERGY      -326.278688875494

DIPOLE MOMENT
-------------
                                X             Y             Z
Electronic contribution:      1.24697      -0.00035      -5.16850
Nuclear contribution   :     -2.15268       0.00046       5.07817
                        -----------------------------------------
Total Dipole Moment    :     -0.90571       0.00011      -0.09034
                        -----------------------------------------
Magnitude (a.u.)       :      0.91021
Magnitude (Debye)      :      2.31357

Rotational constants in cm-1:     0.088880     0.051352     0.049791
Rotational constants in MHz :  2664.565968  1539.492620  1492.688794

                             ****ORCA TERMINATED NORMALLY****
TOTAL RUN TIME: 0 days 0 hours 29 minutes 24 seconds 121 msec
