                         Program Version 5.0.4 -  RELEASE  -
|  1> ! ri-mp2 aug-cc-pvdz aug-cc-pvdz/c tightscf
|  2> %pal nprocs 16 end
|  3> %maxcore 3800
|  4> %base "DZ_S66by10_27_0.95_dimer"
|  5>
|  6> *xyz 0 1
|  7> C    0.81874699    0.86417234    0.18828612
|  8> H    1.46611361    1.71666767    0.34472141
|  9> C    1.36899712   -0.39052394   -0.06669818
| 10> H    2.44303637   -0.51186194   -0.11057444
| 11> C    0.53437860   -1.48849320   -0.27188804
| 12> H    0.96084825   -2.46156422   -0.47550749
| 13> C   -0.84911561   -1.33050735   -0.21989643
| 14> H   -1.49706942   -2.18186028   -0.37955321
| 15> C   -1.39948546   -0.07603020    0.04043417
| 16> H   -2.47268667    0.04490778    0.09338206
| 17> C   -0.56529230    1.02140336    0.24227921
| 18> H   -0.99255667    1.99366131    0.44625817
| 19> N   -2.32471346    0.12605671    3.25225701
| 20> C   -1.70982753    1.28372452    3.53232120
| 21> H   -2.35743159    2.13689598    3.69483330
| 22> C   -0.32761263    1.42457226    3.62249202
| 23> H    0.10423613    2.38822237    3.85370832
| 24> C    0.47333876    0.30759296    3.40827811
| 25> H    1.55090793    0.37797723    3.46311262
| 26> C   -0.14721314   -0.90106208    3.11461853
| 27> H    0.42856137   -1.79668397    2.93054360
| 28> C   -1.53772742   -0.93909997    3.04916911
| 29> H   -2.04658035   -1.86755334    2.82032644
| 30> *
| 31>
| 32> $new_job
| 33> ! ri-mp2 aug-cc-pvtz aug-cc-pvtz/c tightscf
| 34> %pal nprocs 16 end
| 35> %maxcore 3800
| 36> %base "TZ_S66by10_27_0.95_dimer"
| 37>
| 38> *xyz 0 1
| 39> C    0.81874699    0.86417234    0.18828612
| 40> H    1.46611361    1.71666767    0.34472141
| 41> C    1.36899712   -0.39052394   -0.06669818
| 42> H    2.44303637   -0.51186194   -0.11057444
| 43> C    0.53437860   -1.48849320   -0.27188804
| 44> H    0.96084825   -2.46156422   -0.47550749
| 45> C   -0.84911561   -1.33050735   -0.21989643
| 46> H   -1.49706942   -2.18186028   -0.37955321
| 47> C   -1.39948546   -0.07603020    0.04043417
| 48> H   -2.47268667    0.04490778    0.09338206
| 49> C   -0.56529230    1.02140336    0.24227921
| 50> H   -0.99255667    1.99366131    0.44625817
| 51> N   -2.32471346    0.12605671    3.25225701
| 52> C   -1.70982753    1.28372452    3.53232120
| 53> H   -2.35743159    2.13689598    3.69483330
| 54> C   -0.32761263    1.42457226    3.62249202
| 55> H    0.10423613    2.38822237    3.85370832
| 56> C    0.47333876    0.30759296    3.40827811
| 57> H    1.55090793    0.37797723    3.46311262
| 58> C   -0.14721314   -0.90106208    3.11461853
| 59> H    0.42856137   -1.79668397    2.93054360
| 60> C   -1.53772742   -0.93909997    3.04916911
| 61> H   -2.04658035   -1.86755334    2.82032644
| 62> *
| 63>
| 64> $new_job
| 65> ! ri-mp2 aug-cc-pvqz aug-cc-pvqz/c tightscf
| 66> %pal nprocs 16 end
| 67> %maxcore 3800
| 68> %base "QZ_S66by10_27_0.95_dimer"
| 69>
| 70> *xyz 0 1
| 71> C    0.81874699    0.86417234    0.18828612
| 72> H    1.46611361    1.71666767    0.34472141
| 73> C    1.36899712   -0.39052394   -0.06669818
| 74> H    2.44303637   -0.51186194   -0.11057444
| 75> C    0.53437860   -1.48849320   -0.27188804
| 76> H    0.96084825   -2.46156422   -0.47550749
| 77> C   -0.84911561   -1.33050735   -0.21989643
| 78> H   -1.49706942   -2.18186028   -0.37955321
| 79> C   -1.39948546   -0.07603020    0.04043417
| 80> H   -2.47268667    0.04490778    0.09338206
| 81> C   -0.56529230    1.02140336    0.24227921
| 82> H   -0.99255667    1.99366131    0.44625817
| 83> N   -2.32471346    0.12605671    3.25225701
| 84> C   -1.70982753    1.28372452    3.53232120
| 85> H   -2.35743159    2.13689598    3.69483330
| 86> C   -0.32761263    1.42457226    3.62249202
| 87> H    0.10423613    2.38822237    3.85370832
| 88> C    0.47333876    0.30759296    3.40827811
| 89> H    1.55090793    0.37797723    3.46311262
| 90> C   -0.14721314   -0.90106208    3.11461853
| 91> H    0.42856137   -1.79668397    2.93054360
| 92> C   -1.53772742   -0.93909997    3.04916911
| 93> H   -2.04658035   -1.86755334    2.82032644
| 94> *
| 95>
| 96>
| 97>
| 98>
| 99>                          ****END OF INPUT****
 Total Charge           Charge          ....    0
 Multiplicity           Mult            ....    1
 Number of Electrons    NEL             ....   84
MP2 TOTAL ENERGY:     -479.115706527 Eh
FINAL SINGLE POINT ENERGY      -479.115706526885
MP2 TOTAL ENERGY:     -479.533193475 Eh
FINAL SINGLE POINT ENERGY      -479.533193475438

CARTESIAN COORDINATES (ANGSTROEM)
---------------------------------
  C      0.818747    0.864172    0.188286
  H      1.466114    1.716668    0.344721
  C      1.368997   -0.390524   -0.066698
  H      2.443036   -0.511862   -0.110574
  C      0.534379   -1.488493   -0.271888
  H      0.960848   -2.461564   -0.475507
  C     -0.849116   -1.330507   -0.219896
  H     -1.497069   -2.181860   -0.379553
  C     -1.399485   -0.076030    0.040434
  H     -2.472687    0.044908    0.093382
  C     -0.565292    1.021403    0.242279
  H     -0.992557    1.993661    0.446258
  N     -2.324713    0.126057    3.252257
  C     -1.709828    1.283725    3.532321
  H     -2.357432    2.136896    3.694833
  C     -0.327613    1.424572    3.622492
  H      0.104236    2.388222    3.853708
  C      0.473339    0.307593    3.408278
  H      1.550908    0.377977    3.463113
  C     -0.147213   -0.901062    3.114619
  H      0.428561   -1.796684    2.930544
  C     -1.537727   -0.939100    3.049169
  H     -2.046580   -1.867553    2.820326

 Multiplicity           Mult            ....    1
 Number of Electrons    NEL             ....   84
 Basis Dimension        Dim             .... 1466

ORBITAL ENERGIES
----------------

  NO   OCC          E(Eh)            E(eV)
   0   2.0000     -15.557349      -423.3370
   1   2.0000     -11.267498      -306.6042
   2   2.0000     -11.267275      -306.5981
   3   2.0000     -11.251698      -306.1743
   4   2.0000     -11.233473      -305.6783
   5   2.0000     -11.233260      -305.6726
   6   2.0000     -11.232581      -305.6541
   7   2.0000     -11.232003      -305.6383
   8   2.0000     -11.231742      -305.6312
   9   2.0000     -11.231152      -305.6152
  10   2.0000     -11.230394      -305.5945
  11   2.0000     -11.229375      -305.5668
  12   2.0000      -1.249635       -34.0043
  13   2.0000      -1.148392       -31.2493
  14   2.0000      -1.082494       -29.4562
  15   2.0000      -1.026840       -27.9417
  16   2.0000      -1.012667       -27.5561
  17   2.0000      -1.012637       -27.5553
  18   2.0000      -0.852647       -23.2017
  19   2.0000      -0.849111       -23.1055
  20   2.0000      -0.822415       -22.3791
  21   2.0000      -0.822157       -22.3720
  22   2.0000      -0.716069       -19.4852
  23   2.0000      -0.707706       -19.2577
  24   2.0000      -0.653608       -17.7856
  25   2.0000      -0.647903       -17.6303
  26   2.0000      -0.642608       -17.4862
  27   2.0000      -0.617109       -16.7924
  28   2.0000      -0.591948       -16.1077
  29   2.0000      -0.586646       -15.9634
  30   2.0000      -0.586284       -15.9536
  31   2.0000      -0.570543       -15.5253
  32   2.0000      -0.545955       -14.8562
  33   2.0000      -0.513466       -13.9721
  34   2.0000      -0.493440       -13.4272
  35   2.0000      -0.493006       -13.4154
  36   2.0000      -0.491569       -13.3763
  37   2.0000      -0.413844       -11.2613
  38   2.0000      -0.381572       -10.3831
  39   2.0000      -0.348266        -9.4768
  40   2.0000      -0.333545        -9.0762
  41   2.0000      -0.323126        -8.7927
  42   0.0000       0.022339         0.6079
  43   0.0000       0.026488         0.7208
  44   0.0000       0.029988         0.8160
  45   0.0000       0.035717         0.9719
  46   0.0000       0.038687         1.0527

MULLIKEN ATOMIC CHARGES
-----------------------
   0 C :   -0.295697
   1 H :    0.268004
   2 C :   -0.195511
   3 H :    0.294606
   4 C :   -0.378609
   5 H :    0.289188
   6 C :   -0.285141
   7 H :    0.306236
   8 C :   -0.203223
   9 H :    0.253676
  10 C :   -0.325204
  11 H :    0.283762
  12 N :   -0.825724
  13 C :   -0.211526
  14 H :    0.467813
  15 C :   -0.202624
  16 H :    0.292157
  17 C :   -0.281450
  18 H :    0.307707
  19 C :   -0.268434
  20 H :    0.288604
  21 C :   -0.018087
  22 H :    0.439478
Sum of atomic charges:    0.0000000

LOEWDIN ATOMIC CHARGES
----------------------
   0 C :    0.315233
   1 H :   -0.314680
   2 C :    0.325184
   3 H :   -0.321171
   4 C :    0.323988
   5 H :   -0.321270
   6 C :    0.319644
   7 H :   -0.316221
   8 C :    0.305543
   9 H :   -0.311690
  10 C :    0.306966
  11 H :   -0.313655
  12 N :    0.598266
  13 C :    0.061624
  14 H :   -0.350169
  15 C :    0.318245
  16 H :   -0.322894
  17 C :    0.309793
  18 H :   -0.301362
  19 C :    0.303485
  20 H :   -0.316493
  21 C :    0.043127
  22 H :   -0.341491

  Mayer bond orders larger than 0.100000
B(  0-C ,  1-H ) :   1.0860 B(  0-C ,  2-C ) :   1.2103 B(  0-C ,  6-C ) :   0.1846
B(  0-C , 10-C ) :   1.1304 B(  2-C ,  3-H ) :   1.0602 B(  2-C ,  4-C ) :   1.2736
B(  2-C ,  8-C ) :   0.2124 B(  4-C ,  5-H ) :   1.0644 B(  4-C ,  6-C ) :   1.2141
B(  4-C , 10-C ) :   0.1435 B(  6-C ,  7-H ) :   1.0328 B(  6-C ,  8-C ) :   1.1893
B(  8-C ,  9-H ) :   1.0959 B(  8-C , 10-C ) :   1.1693 B( 10-C , 11-H ) :   1.0260
B( 12-N , 13-C ) :   1.1527 B( 12-N , 14-H ) :  -0.1471 B( 12-N , 15-C ) :   0.1001
B( 12-N , 21-C ) :   1.0316 B( 12-N , 22-H ) :  -0.1629 B( 13-C , 14-H ) :   0.8977
B( 13-C , 15-C ) :   1.2226 B( 13-C , 19-C ) :   0.1026 B( 15-C , 16-H ) :   1.0383
B( 15-C , 17-C ) :   1.1586 B( 17-C , 18-H ) :   1.0000 B( 17-C , 19-C ) :   1.1698
B( 19-C , 20-H ) :   1.0088 B( 19-C , 21-C ) :   1.0890 B( 19-C , 22-H ) :  -0.1308
B( 21-C , 22-H ) :   0.9451

MP2 TOTAL ENERGY:     -479.665689698 Eh
FINAL SINGLE POINT ENERGY      -479.665689698258

DIPOLE MOMENT
-------------
                                X             Y             Z
Electronic contribution:     -1.79149       0.12570       1.54422
Nuclear contribution   :      2.65742      -0.07893      -1.55423
                        -----------------------------------------
Total Dipole Moment    :      0.86593       0.04678      -0.01001
                        -----------------------------------------
Magnitude (a.u.)       :      0.86725
Magnitude (Debye)      :      2.20438

Rotational constants in cm-1:     0.054875     0.025785     0.024258
Rotational constants in MHz :  1645.104291   773.017214   727.227709

                             ****ORCA TERMINATED NORMALLY****
TOTAL RUN TIME: 0 days 1 hours 41 minutes 28 seconds 375 msec
