                         Program Version 5.0.4 -  RELEASE  -
|  1> ! ri-mp2 aug-cc-pvdz aug-cc-pvdz/c tightscf
|  2> %pal nprocs 16 end
|  3> %maxcore 3800
|  4> %base "DZ_S66by10_63_0.9_dimer"
|  5>
|  6> *xyz 0 1
|  7> C    0.60678496    1.33042185    0.31643451
|  8> H    1.24649846    2.20226434    0.33035231
|  9> C    1.11808466    0.08724886    0.68511652
| 10> H    2.15005753   -0.00388678    0.99375824
| 11> C    0.29290229   -1.03608737    0.66910727
| 12> H    0.68849686   -2.00096149    0.95537797
| 13> C   -1.04283174   -0.91671112    0.28818964
| 14> H   -1.68270956   -1.78848825    0.27934903
| 15> C   -1.55358838    0.32734899   -0.07994317
| 16> H   -2.58923495    0.42028908   -0.37734619
| 17> C   -0.72804164    1.45084316   -0.06684834
| 18> H   -1.12362379    2.41565865   -0.35386143
| 19> C    0.45275032   -0.32122380    3.72667484
| 20> O    1.64824299   -0.15727305    3.80319062
| 21> O   -0.12675135   -1.53262876    3.92611320
| 22> H    0.60769951   -2.13373725    4.11915132
| 23> C   -0.56913391    0.72270772    3.40599366
| 24> H   -0.09083949    1.69365407    3.35917089
| 25> H   -1.02193401    0.48951153    2.44328562
| 26> H   -1.35398492    0.71717122    4.15849314
| 27> *
| 28>
| 29> $new_job
| 30> ! ri-mp2 aug-cc-pvtz aug-cc-pvtz/c tightscf
| 31> %pal nprocs 16 end
| 32> %maxcore 3800
| 33> %base "TZ_S66by10_63_0.9_dimer"
| 34>
| 35> *xyz 0 1
| 36> C    0.60678496    1.33042185    0.31643451
| 37> H    1.24649846    2.20226434    0.33035231
| 38> C    1.11808466    0.08724886    0.68511652
| 39> H    2.15005753   -0.00388678    0.99375824
| 40> C    0.29290229   -1.03608737    0.66910727
| 41> H    0.68849686   -2.00096149    0.95537797
| 42> C   -1.04283174   -0.91671112    0.28818964
| 43> H   -1.68270956   -1.78848825    0.27934903
| 44> C   -1.55358838    0.32734899   -0.07994317
| 45> H   -2.58923495    0.42028908   -0.37734619
| 46> C   -0.72804164    1.45084316   -0.06684834
| 47> H   -1.12362379    2.41565865   -0.35386143
| 48> C    0.45275032   -0.32122380    3.72667484
| 49> O    1.64824299   -0.15727305    3.80319062
| 50> O   -0.12675135   -1.53262876    3.92611320
| 51> H    0.60769951   -2.13373725    4.11915132
| 52> C   -0.56913391    0.72270772    3.40599366
| 53> H   -0.09083949    1.69365407    3.35917089
| 54> H   -1.02193401    0.48951153    2.44328562
| 55> H   -1.35398492    0.71717122    4.15849314
| 56> *
| 57>
| 58> $new_job
| 59> ! ri-mp2 aug-cc-pvqz aug-cc-pvqz/c tightscf
| 60> %pal nprocs 16 end
| 61> %maxcore 3800
| 62> %base "QZ_S66by10_63_0.9_dimer"
| 63>
| 64> *xyz 0 1
| 65> C    0.60678496    1.33042185    0.31643451
| 66> H    1.24649846    2.20226434    0.33035231
| 67> C    1.11808466    0.08724886    0.68511652
| 68> H    2.15005753   -0.00388678    0.99375824
| 69> C    0.29290229   -1.03608737    0.66910727
| 70> H    0.68849686   -2.00096149    0.95537797
| 71> C   -1.04283174   -0.91671112    0.28818964
| 72> H   -1.68270956   -1.78848825    0.27934903
| 73> C   -1.55358838    0.32734899   -0.07994317
| 74> H   -2.58923495    0.42028908   -0.37734619
| 75> C   -0.72804164    1.45084316   -0.06684834
| 76> H   -1.12362379    2.41565865   -0.35386143
| 77> C    0.45275032   -0.32122380    3.72667484
| 78> O    1.64824299   -0.15727305    3.80319062
| 79> O   -0.12675135   -1.53262876    3.92611320
| 80> H    0.60769951   -2.13373725    4.11915132
| 81> C   -0.56913391    0.72270772    3.40599366
| 82> H   -0.09083949    1.69365407    3.35917089
| 83> H   -1.02193401    0.48951153    2.44328562
| 84> H   -1.35398492    0.71717122    4.15849314
| 85> *
| 86>
| 87>
| 88>
| 89>
| 90>                          ****END OF INPUT****
 Total Charge           Charge          ....    0
 Multiplicity           Mult            ....    1
 Number of Electrons    NEL             ....   74
MP2 TOTAL ENERGY:     -460.073532136 Eh
FINAL SINGLE POINT ENERGY      -460.073532136274
MP2 TOTAL ENERGY:     -460.475635972 Eh
FINAL SINGLE POINT ENERGY      -460.475635971629

CARTESIAN COORDINATES (ANGSTROEM)
---------------------------------
  C      0.606785    1.330422    0.316435
  H      1.246498    2.202264    0.330352
  C      1.118085    0.087249    0.685117
  H      2.150058   -0.003887    0.993758
  C      0.292902   -1.036087    0.669107
  H      0.688497   -2.000961    0.955378
  C     -1.042832   -0.916711    0.288190
  H     -1.682710   -1.788488    0.279349
  C     -1.553588    0.327349   -0.079943
  H     -2.589235    0.420289   -0.377346
  C     -0.728042    1.450843   -0.066848
  H     -1.123624    2.415659   -0.353861
  C      0.452750   -0.321224    3.726675
  O      1.648243   -0.157273    3.803191
  O     -0.126751   -1.532629    3.926113
  H      0.607700   -2.133737    4.119151
  C     -0.569134    0.722708    3.405994
  H     -0.090839    1.693654    3.359171
  H     -1.021934    0.489512    2.443286
  H     -1.353985    0.717171    4.158493

 Multiplicity           Mult            ....    1
 Number of Electrons    NEL             ....   74
 Basis Dimension        Dim             .... 1260

ORBITAL ENERGIES
----------------

  NO   OCC          E(Eh)            E(eV)
   0   2.0000     -20.605156      -560.6948
   1   2.0000     -20.540478      -558.9348
   2   2.0000     -11.380676      -309.6839
   3   2.0000     -11.239896      -305.8531
   4   2.0000     -11.239258      -305.8358
   5   2.0000     -11.238183      -305.8065
   6   2.0000     -11.237156      -305.7786
   7   2.0000     -11.236674      -305.7654
   8   2.0000     -11.235225      -305.7260
   9   2.0000     -11.227165      -305.5067
  10   2.0000      -1.458251       -39.6810
  11   2.0000      -1.353834       -36.8397
  12   2.0000      -1.156035       -31.4573
  13   2.0000      -1.020444       -27.7677
  14   2.0000      -1.019440       -27.7404
  15   2.0000      -1.016823       -27.6692
  16   2.0000      -0.828632       -22.5482
  17   2.0000      -0.828068       -22.5329
  18   2.0000      -0.812687       -22.1144
  19   2.0000      -0.714363       -19.4388
  20   2.0000      -0.700625       -19.0650
  21   2.0000      -0.671973       -18.2853
  22   2.0000      -0.647968       -17.6321
  23   2.0000      -0.646590       -17.5946
  24   2.0000      -0.623264       -16.9599
  25   2.0000      -0.592694       -16.1280
  26   2.0000      -0.591881       -16.1059
  27   2.0000      -0.577851       -15.7241
  28   2.0000      -0.562575       -15.3084
  29   2.0000      -0.558205       -15.1895
  30   2.0000      -0.499536       -13.5931
  31   2.0000      -0.498742       -13.5715
  32   2.0000      -0.496115       -13.5000
  33   2.0000      -0.478777       -13.0282
  34   2.0000      -0.448291       -12.1986
  35   2.0000      -0.343286        -9.3413
  36   2.0000      -0.341866        -9.3026
  37   0.0000       0.022581         0.6145
  38   0.0000       0.027939         0.7603
  39   0.0000       0.031587         0.8595
  40   0.0000       0.036003         0.9797
  41   0.0000       0.041296         1.1237

MULLIKEN ATOMIC CHARGES
-----------------------
   0 C :   -0.408751
   1 H :    0.295026
   2 C :   -0.222370
   3 H :    0.278005
   4 C :   -0.292118
   5 H :    0.316149
   6 C :   -0.342349
   7 H :    0.260754
   8 C :   -0.259172
   9 H :    0.306052
  10 C :   -0.317682
  11 H :    0.284115
  12 C :    1.268468
  13 O :   -0.886492
  14 O :   -0.766068
  15 H :    0.301583
  16 C :   -0.989374
  17 H :    0.339200
  18 H :    0.520853
  19 H :    0.314172
Sum of atomic charges:    0.0000000

LOEWDIN ATOMIC CHARGES
----------------------
   0 C :    0.329971
   1 H :   -0.312856
   2 C :    0.301310
   3 H :   -0.318895
   4 C :    0.305324
   5 H :   -0.314023
   6 C :    0.332328
   7 H :   -0.312964
   8 C :    0.332831
   9 H :   -0.318066
  10 C :    0.331875
  11 H :   -0.317481
  12 C :   -1.050932
  13 O :    0.714490
  14 O :    1.260779
  15 H :   -0.826188
  16 C :    0.856562
  17 H :   -0.303301
  18 H :   -0.407411
  19 H :   -0.283353

  Mayer bond orders larger than 0.100000
B(  0-C ,  1-H ) :   1.0657 B(  0-C ,  2-C ) :   1.2115 B(  0-C ,  6-C ) :   0.1770
B(  0-C , 10-C ) :   1.2261 B(  2-C ,  3-H ) :   1.0675 B(  2-C ,  4-C ) :   1.1729
B(  2-C ,  8-C ) :   0.1542 B(  4-C ,  5-H ) :   1.0325 B(  4-C ,  6-C ) :   1.1696
B(  4-C , 10-C ) :   0.1425 B(  6-C ,  7-H ) :   1.1174 B(  6-C ,  8-C ) :   1.2050
B(  8-C ,  9-H ) :   1.0702 B(  8-C , 10-C ) :   1.1967 B( 10-C , 11-H ) :   1.0882
B( 12-C , 13-O ) :   1.2356 B( 12-C , 14-O ) :   0.6983 B( 12-C , 16-C ) :   1.0343
B( 14-O , 15-H ) :   0.9106 B( 16-C , 17-H ) :   0.9373 B( 16-C , 18-H ) :   0.7669
B( 16-C , 19-H ) :   0.9609

MP2 TOTAL ENERGY:     -460.604683213 Eh
FINAL SINGLE POINT ENERGY      -460.604683212772

DIPOLE MOMENT
-------------
                                X             Y             Z
Electronic contribution:      2.53372      -2.28877       1.60275
Nuclear contribution   :     -3.22732       2.22018      -1.79507
                        -----------------------------------------
Total Dipole Moment    :     -0.69360      -0.06859      -0.19232
                        -----------------------------------------
Magnitude (a.u.)       :      0.72303
Magnitude (Debye)      :      1.83779

Rotational constants in cm-1:     0.073646     0.030055     0.028356
Rotational constants in MHz :  2207.864623   901.037689   850.079970

                             ****ORCA TERMINATED NORMALLY****
TOTAL RUN TIME: 0 days 0 hours 53 minutes 34 seconds 830 msec
