                         Program Version 5.0.4 -  RELEASE  -
|  1> ! ri-mp2 aug-cc-pvdz aug-cc-pvdz/c tightscf
|  2> %pal nprocs 16 end
|  3> %maxcore 3800
|  4> %base "DZ_S66by10_25_1.1_dimer"
|  5>
|  6> *xyz 0 1
|  7> N    1.57248145    0.25454916   -0.25648131
|  8> C    0.96935990   -0.90316032    0.04452614
|  9> H    1.61363891   -1.77218121    0.10234520
| 10> C   -0.39815811   -1.02881911    0.28096043
| 11> H   -0.81842477   -1.99173710    0.53356364
| 12> C   -1.19580525    0.10655779    0.19539732
| 13> H   -2.26068964    0.04953865    0.37344280
| 14> C   -0.58712829    1.31741239   -0.12010544
| 15> H   -1.16181223    2.22950003   -0.20046257
| 16> C    0.78854733    1.33970567   -0.33224053
| 17> H    1.28843202    2.26879436   -0.57852690
| 18> N   -0.56200692   -1.53986094    4.09102624
| 19> C   -1.49448501   -0.57923148    4.16487740
| 20> H   -2.49727426   -0.91018628    4.40707027
| 21> C   -1.23248197    0.77183694    3.95549802
| 22> H   -2.03103973    1.49634238    4.03376911
| 23> C    0.06694536    1.16107823    3.64522961
| 24> H    0.30892992    2.20007671    3.46935836
| 25> C    1.04650467    0.17818007    3.56186815
| 26> H    2.06880591    0.42492581    3.31343117
| 27> C    0.68402495   -1.14695769    3.79506114
| 28> H    1.42788571   -1.93251232    3.73861255
| 29> *
| 30>
| 31> $new_job
| 32> ! ri-mp2 aug-cc-pvtz aug-cc-pvtz/c tightscf
| 33> %pal nprocs 16 end
| 34> %maxcore 3800
| 35> %base "TZ_S66by10_25_1.1_dimer"
| 36>
| 37> *xyz 0 1
| 38> N    1.57248145    0.25454916   -0.25648131
| 39> C    0.96935990   -0.90316032    0.04452614
| 40> H    1.61363891   -1.77218121    0.10234520
| 41> C   -0.39815811   -1.02881911    0.28096043
| 42> H   -0.81842477   -1.99173710    0.53356364
| 43> C   -1.19580525    0.10655779    0.19539732
| 44> H   -2.26068964    0.04953865    0.37344280
| 45> C   -0.58712829    1.31741239   -0.12010544
| 46> H   -1.16181223    2.22950003   -0.20046257
| 47> C    0.78854733    1.33970567   -0.33224053
| 48> H    1.28843202    2.26879436   -0.57852690
| 49> N   -0.56200692   -1.53986094    4.09102624
| 50> C   -1.49448501   -0.57923148    4.16487740
| 51> H   -2.49727426   -0.91018628    4.40707027
| 52> C   -1.23248197    0.77183694    3.95549802
| 53> H   -2.03103973    1.49634238    4.03376911
| 54> C    0.06694536    1.16107823    3.64522961
| 55> H    0.30892992    2.20007671    3.46935836
| 56> C    1.04650467    0.17818007    3.56186815
| 57> H    2.06880591    0.42492581    3.31343117
| 58> C    0.68402495   -1.14695769    3.79506114
| 59> H    1.42788571   -1.93251232    3.73861255
| 60> *
| 61>
| 62> $new_job
| 63> ! ri-mp2 aug-cc-pvqz aug-cc-pvqz/c tightscf
| 64> %pal nprocs 16 end
| 65> %maxcore 3800
| 66> %base "QZ_S66by10_25_1.1_dimer"
| 67>
| 68> *xyz 0 1
| 69> N    1.57248145    0.25454916   -0.25648131
| 70> C    0.96935990   -0.90316032    0.04452614
| 71> H    1.61363891   -1.77218121    0.10234520
| 72> C   -0.39815811   -1.02881911    0.28096043
| 73> H   -0.81842477   -1.99173710    0.53356364
| 74> C   -1.19580525    0.10655779    0.19539732
| 75> H   -2.26068964    0.04953865    0.37344280
| 76> C   -0.58712829    1.31741239   -0.12010544
| 77> H   -1.16181223    2.22950003   -0.20046257
| 78> C    0.78854733    1.33970567   -0.33224053
| 79> H    1.28843202    2.26879436   -0.57852690
| 80> N   -0.56200692   -1.53986094    4.09102624
| 81> C   -1.49448501   -0.57923148    4.16487740
| 82> H   -2.49727426   -0.91018628    4.40707027
| 83> C   -1.23248197    0.77183694    3.95549802
| 84> H   -2.03103973    1.49634238    4.03376911
| 85> C    0.06694536    1.16107823    3.64522961
| 86> H    0.30892992    2.20007671    3.46935836
| 87> C    1.04650467    0.17818007    3.56186815
| 88> H    2.06880591    0.42492581    3.31343117
| 89> C    0.68402495   -1.14695769    3.79506114
| 90> H    1.42788571   -1.93251232    3.73861255
| 91> *
| 92>
| 93>
| 94>
| 95>
| 96>                          ****END OF INPUT****
 Total Charge           Charge          ....    0
 Multiplicity           Mult            ....    1
 Number of Electrons    NEL             ....   84
MP2 TOTAL ENERGY:     -495.137214738 Eh
FINAL SINGLE POINT ENERGY      -495.137214738041
MP2 TOTAL ENERGY:     -495.564366114 Eh
FINAL SINGLE POINT ENERGY      -495.564366113749

CARTESIAN COORDINATES (ANGSTROEM)
---------------------------------
  N      1.572481    0.254549   -0.256481
  C      0.969360   -0.903160    0.044526
  H      1.613639   -1.772181    0.102345
  C     -0.398158   -1.028819    0.280960
  H     -0.818425   -1.991737    0.533564
  C     -1.195805    0.106558    0.195397
  H     -2.260690    0.049539    0.373443
  C     -0.587128    1.317412   -0.120105
  H     -1.161812    2.229500   -0.200463
  C      0.788547    1.339706   -0.332241
  H      1.288432    2.268794   -0.578527
  N     -0.562007   -1.539861    4.091026
  C     -1.494485   -0.579231    4.164877
  H     -2.497274   -0.910186    4.407070
  C     -1.232482    0.771837    3.955498
  H     -2.031040    1.496342    4.033769
  C      0.066945    1.161078    3.645230
  H      0.308930    2.200077    3.469358
  C      1.046505    0.178180    3.561868
  H      2.068806    0.424926    3.313431
  C      0.684025   -1.146958    3.795061
  H      1.427886   -1.932512    3.738613

 Multiplicity           Mult            ....    1
 Number of Electrons    NEL             ....   84
 Basis Dimension        Dim             .... 1420

ORBITAL ENERGIES
----------------

  NO   OCC          E(Eh)            E(eV)
   0   2.0000     -15.563872      -423.5145
   1   2.0000     -15.563828      -423.5133
   2   2.0000     -11.273065      -306.7557
   3   2.0000     -11.273028      -306.7547
   4   2.0000     -11.272322      -306.7355
   5   2.0000     -11.272275      -306.7342
   6   2.0000     -11.256868      -306.3150
   7   2.0000     -11.256823      -306.3137
   8   2.0000     -11.239839      -305.8516
   9   2.0000     -11.239791      -305.8503
  10   2.0000     -11.238015      -305.8019
  11   2.0000     -11.237952      -305.8002
  12   2.0000      -1.255344       -34.1597
  13   2.0000      -1.254482       -34.1362
  14   2.0000      -1.088405       -29.6170
  15   2.0000      -1.086872       -29.5753
  16   2.0000      -1.032278       -28.0897
  17   2.0000      -1.031000       -28.0549
  18   2.0000      -0.857640       -23.3376
  19   2.0000      -0.857441       -23.3321
  20   2.0000      -0.854176       -23.2433
  21   2.0000      -0.854066       -23.2403
  22   2.0000      -0.721090       -19.6219
  23   2.0000      -0.719740       -19.5851
  24   2.0000      -0.659068       -17.9342
  25   2.0000      -0.658642       -17.9226
  26   2.0000      -0.652553       -17.7569
  27   2.0000      -0.652516       -17.7559
  28   2.0000      -0.596968       -16.2443
  29   2.0000      -0.596168       -16.2226
  30   2.0000      -0.575604       -15.6630
  31   2.0000      -0.575500       -15.6602
  32   2.0000      -0.550113       -14.9693
  33   2.0000      -0.530830       -14.4446
  34   2.0000      -0.518440       -14.1075
  35   2.0000      -0.518167       -14.1000
  36   2.0000      -0.419440       -11.4135
  37   2.0000      -0.418865       -11.3979
  38   2.0000      -0.386506       -10.5174
  39   2.0000      -0.378866       -10.3095
  40   2.0000      -0.351902        -9.5758
  41   2.0000      -0.339330        -9.2336
  42   0.0000       0.020636         0.5615
  43   0.0000       0.027525         0.7490
  44   0.0000       0.030262         0.8235
  45   0.0000       0.033766         0.9188
  46   0.0000       0.038781         1.0553

MULLIKEN ATOMIC CHARGES
-----------------------
   0 N :   -0.745482
   1 C :   -0.079072
   2 H :    0.445265
   3 C :   -0.295059
   4 H :    0.305101
   5 C :   -0.336451
   6 H :    0.365960
   7 C :   -0.251210
   8 H :    0.311315
   9 C :   -0.184204
  10 H :    0.463911
  11 N :   -0.746056
  12 C :   -0.181906
  13 H :    0.463530
  14 C :   -0.250232
  15 H :    0.311556
  16 C :   -0.339164
  17 H :    0.365357
  18 C :   -0.294238
  19 H :    0.306731
  20 C :   -0.080556
  21 H :    0.444905
Sum of atomic charges:   -0.0000000

LOEWDIN ATOMIC CHARGES
----------------------
   0 N :    0.591865
   1 C :    0.056901
   2 H :   -0.349636
   3 C :    0.314060
   4 H :   -0.321047
   5 C :    0.315923
   6 H :   -0.307863
   7 C :    0.319194
   8 H :   -0.327336
   9 C :    0.062466
  10 H :   -0.354615
  11 N :    0.591810
  12 C :    0.062290
  13 H :   -0.354533
  14 C :    0.319011
  15 H :   -0.327218
  16 C :    0.316069
  17 H :   -0.307799
  18 C :    0.314264
  19 H :   -0.320991
  20 C :    0.056822
  21 H :   -0.349640

  Mayer bond orders larger than 0.100000
B(  0-N ,  1-C ) :   1.0965 B(  0-N ,  2-H ) :  -0.1447 B(  0-N ,  9-C ) :   1.1984
B(  0-N , 10-H ) :  -0.1337 B(  1-C ,  2-H ) :   0.9125 B(  1-C ,  3-C ) :   1.1501
B(  3-C ,  4-H ) :   1.0098 B(  3-C ,  5-C ) :   1.2242 B(  3-C ,  9-C ) :   0.1249
B(  5-C ,  6-H ) :   0.9360 B(  5-C ,  7-C ) :   1.1752 B(  7-C ,  8-H ) :   1.0126
B(  7-C ,  9-C ) :   1.2097 B(  9-C , 10-H ) :   0.8900 B( 11-N , 12-C ) :   1.1968
B( 11-N , 13-H ) :  -0.1341 B( 11-N , 20-C ) :   1.0969 B( 11-N , 21-H ) :  -0.1446
B( 12-C , 13-H ) :   0.8908 B( 12-C , 14-C ) :   1.2090 B( 12-C , 18-C ) :   0.1246
B( 14-C , 15-H ) :   1.0125 B( 14-C , 16-C ) :   1.1753 B( 16-C , 17-H ) :   0.9364
B( 16-C , 18-C ) :   1.2244 B( 18-C , 19-H ) :   1.0084 B( 18-C , 20-C ) :   1.1510
B( 20-C , 21-H ) :   0.9131

MP2 TOTAL ENERGY:     -495.700729576 Eh
FINAL SINGLE POINT ENERGY      -495.700729575920

DIPOLE MOMENT
-------------
                                X             Y             Z
Electronic contribution:      1.01740      -1.21379      -0.00177
Nuclear contribution   :     -1.68087       2.00584       0.00438
                        -----------------------------------------
Total Dipole Moment    :     -0.66348       0.79205       0.00260
                        -----------------------------------------
Magnitude (a.u.)       :      1.03322
Magnitude (Debye)      :      2.62625

Rotational constants in cm-1:     0.054339     0.021407     0.020684
Rotational constants in MHz :  1629.039009   641.767963   620.103203

                             ****ORCA TERMINATED NORMALLY****
TOTAL RUN TIME: 0 days 1 hours 12 minutes 47 seconds 958 msec
