                         Program Version 5.0.4 -  RELEASE  -
|  1> ! ri-mp2 aug-cc-pvdz aug-cc-pvdz/c tightscf
|  2> %pal nprocs 16 end
|  3> %maxcore 3800
|  4> %base "DZ_S66by10_51_0.8_dimer"
|  5> %scf STABPerform true end
|  6>
|  7> *xyz 0 1
|  8> C   -0.60172996   -0.02857012    0.38493492
|  9> H   -1.66373543   -0.02852657    0.37901431
| 10> C    0.61010917   -0.02866364    0.38816379
| 11> H    1.67213544   -0.02879308    0.38796752
| 12> C   -0.00569282    0.08087188    3.59229333
| 13> H   -0.00229844    0.04713683    2.52899644
| 14> C   -0.00962924    0.11916190    4.80375871
| 15> H   -0.01289548    0.15253778    5.86467013
| 16> *
| 17>
| 18> $new_job
| 19> ! ri-mp2 aug-cc-pvtz aug-cc-pvtz/c tightscf
| 20> %pal nprocs 16 end
| 21> %maxcore 3800
| 22> %base "TZ_S66by10_51_0.8_dimer"
| 23>
| 24> *xyz 0 1
| 25> C   -0.60172996   -0.02857012    0.38493492
| 26> H   -1.66373543   -0.02852657    0.37901431
| 27> C    0.61010917   -0.02866364    0.38816379
| 28> H    1.67213544   -0.02879308    0.38796752
| 29> C   -0.00569282    0.08087188    3.59229333
| 30> H   -0.00229844    0.04713683    2.52899644
| 31> C   -0.00962924    0.11916190    4.80375871
| 32> H   -0.01289548    0.15253778    5.86467013
| 33> *
| 34>
| 35> $new_job
| 36> ! ri-mp2 aug-cc-pvqz aug-cc-pvqz/c tightscf
| 37> %pal nprocs 16 end
| 38> %maxcore 3800
| 39> %base "QZ_S66by10_51_0.8_dimer"
| 40>
| 41> *xyz 0 1
| 42> C   -0.60172996   -0.02857012    0.38493492
| 43> H   -1.66373543   -0.02852657    0.37901431
| 44> C    0.61010917   -0.02866364    0.38816379
| 45> H    1.67213544   -0.02879308    0.38796752
| 46> C   -0.00569282    0.08087188    3.59229333
| 47> H   -0.00229844    0.04713683    2.52899644
| 48> C   -0.00962924    0.11916190    4.80375871
| 49> H   -0.01289548    0.15253778    5.86467013
| 50> *
| 51>
| 52>
| 53>
| 54>
| 55>                          ****END OF INPUT****
 Total Charge           Charge          ....    0
 Multiplicity           Mult            ....    1
 Number of Electrons    NEL             ....   28
MP2 TOTAL ENERGY:     -154.184837248 Eh
FINAL SINGLE POINT ENERGY      -154.184837248488
MP2 TOTAL ENERGY:     -154.328476456 Eh
FINAL SINGLE POINT ENERGY      -154.328476455799

CARTESIAN COORDINATES (ANGSTROEM)
---------------------------------
  C     -0.601730   -0.028570    0.384935
  H     -1.663735   -0.028527    0.379014
  C      0.610109   -0.028664    0.388164
  H      1.672135   -0.028793    0.387968
  C     -0.005693    0.080872    3.592293
  H     -0.002298    0.047137    2.528996
  C     -0.009629    0.119162    4.803759
  H     -0.012895    0.152538    5.864670

 Multiplicity           Mult            ....    1
 Number of Electrons    NEL             ....   28
 Basis Dimension        Dim             ....  504

ORBITAL ENERGIES
----------------

  NO   OCC          E(Eh)            E(eV)
   0   2.0000     -11.258600      -306.3621
   1   2.0000     -11.254976      -306.2635
   2   2.0000     -11.231091      -305.6135
   3   2.0000     -11.225790      -305.4693
   4   2.0000      -1.046200       -28.4686
   5   2.0000      -1.015320       -27.6283
   6   2.0000      -0.782730       -21.2992
   7   2.0000      -0.757884       -20.6231
   8   2.0000      -0.694599       -18.9010
   9   2.0000      -0.670995       -18.2587
  10   2.0000      -0.424785       -11.5590
  11   2.0000      -0.423329       -11.5194
  12   2.0000      -0.397255       -10.8098
  13   2.0000      -0.396431       -10.7874
  14   0.0000       0.025627         0.6973
  15   0.0000       0.028869         0.7856
  16   0.0000       0.031789         0.8650
  17   0.0000       0.055315         1.5052
  18   0.0000       0.070136         1.9085

MULLIKEN ATOMIC CHARGES
-----------------------
   0 C :   -0.620073
   1 H :    0.562780
   2 C :   -0.619925
   3 H :    0.562819
   4 C :   -0.541035
   5 H :    1.020563
   6 C :   -0.859193
   7 H :    0.494065
Sum of atomic charges:   -0.0000000

LOEWDIN ATOMIC CHARGES
----------------------
   0 C :    0.511110
   1 H :   -0.429355
   2 C :    0.511204
   3 H :   -0.429383
   4 C :    0.482601
   5 H :   -0.669533
   6 C :    0.507860
   7 H :   -0.484504

  Mayer bond orders larger than 0.100000
B(  0-C ,  1-H ) :   0.6885 B(  0-C ,  2-C ) :   2.7671 B(  2-C ,  3-H ) :   0.6884
B(  4-C ,  5-H ) :   0.2742 B(  4-C ,  6-C ) :   2.4157 B(  5-H ,  6-C ) :  -0.1601
B(  6-C ,  7-H ) :   0.8499

MP2 TOTAL ENERGY:     -154.371367958 Eh
FINAL SINGLE POINT ENERGY      -154.371367958151

DIPOLE MOMENT
-------------
                                X             Y             Z
Electronic contribution:      0.00065      -0.00747      -0.21646
Nuclear contribution   :      0.00013      -0.00039      -0.00736
                        -----------------------------------------
Total Dipole Moment    :      0.00078      -0.00785      -0.22382
                        -----------------------------------------
Magnitude (a.u.)       :      0.22396
Magnitude (Debye)      :      0.56926

Rotational constants in cm-1:     1.168390     0.082717     0.077248
Rotational constants in MHz : 35027.463175  2479.786654  2315.837206

                             ****ORCA TERMINATED NORMALLY****
TOTAL RUN TIME: 0 days 0 hours 9 minutes 34 seconds 27 msec
