                         Program Version 5.0.4 -  RELEASE  -
|  1> ! ri-mp2 aug-cc-pvdz aug-cc-pvdz/c tightscf
|  2> %pal nprocs 16 end
|  3> %maxcore 3800
|  4> %base "DZ_S66by10_45_1.25_dimer"
|  5> %scf STABPerform true end
|  6>
|  7> *xyz 0 1
|  8> C   -0.60618936    0.05587406    0.58900491
|  9> H   -1.66803667    0.05577624    0.58901162
| 10> C    0.60584873    0.05554087    0.58926624
| 11> H    1.66767817    0.05486328    0.58972794
| 12> C   -2.53035793   -0.36254380    5.02250552
| 13> H   -2.53872455   -1.02449733    4.15609493
| 14> H   -2.58227626   -0.98881301    5.91309629
| 15> H   -3.43277255    0.24636026    4.98974389
| 16> C   -1.26982580    0.49205692    5.03357479
| 17> H   -1.28647747    1.16505614    5.89398391
| 18> H   -1.24455881    1.12627293    4.14477868
| 19> C    0.00009282   -0.34627408    5.07403012
| 20> H    0.00009555   -0.96406373    5.97709152
| 21> H    0.00015991   -1.03457324    4.22478893
| 22> C    1.26999138    0.49210199    5.03366166
| 23> H    1.28661920    1.16506910    5.89408297
| 24> H    1.24484646    1.12627430    4.14486047
| 25> C    2.53051387   -0.36253459    5.02271525
| 26> H    2.53889364   -1.02451735    4.15633617
| 27> H    3.43289264    0.24639675    4.98998888
| 28> H    2.58233110   -0.98874933    5.91334879
| 29> *
| 30>
| 31> $new_job
| 32> ! ri-mp2 aug-cc-pvtz aug-cc-pvtz/c tightscf
| 33> %pal nprocs 16 end
| 34> %maxcore 3800
| 35> %base "TZ_S66by10_45_1.25_dimer"
| 36>
| 37> *xyz 0 1
| 38> C   -0.60618936    0.05587406    0.58900491
| 39> H   -1.66803667    0.05577624    0.58901162
| 40> C    0.60584873    0.05554087    0.58926624
| 41> H    1.66767817    0.05486328    0.58972794
| 42> C   -2.53035793   -0.36254380    5.02250552
| 43> H   -2.53872455   -1.02449733    4.15609493
| 44> H   -2.58227626   -0.98881301    5.91309629
| 45> H   -3.43277255    0.24636026    4.98974389
| 46> C   -1.26982580    0.49205692    5.03357479
| 47> H   -1.28647747    1.16505614    5.89398391
| 48> H   -1.24455881    1.12627293    4.14477868
| 49> C    0.00009282   -0.34627408    5.07403012
| 50> H    0.00009555   -0.96406373    5.97709152
| 51> H    0.00015991   -1.03457324    4.22478893
| 52> C    1.26999138    0.49210199    5.03366166
| 53> H    1.28661920    1.16506910    5.89408297
| 54> H    1.24484646    1.12627430    4.14486047
| 55> C    2.53051387   -0.36253459    5.02271525
| 56> H    2.53889364   -1.02451735    4.15633617
| 57> H    3.43289264    0.24639675    4.98998888
| 58> H    2.58233110   -0.98874933    5.91334879
| 59> *
| 60>
| 61> $new_job
| 62> ! ri-mp2 aug-cc-pvqz aug-cc-pvqz/c tightscf
| 63> %pal nprocs 16 end
| 64> %maxcore 3800
| 65> %base "QZ_S66by10_45_1.25_dimer"
| 66>
| 67> *xyz 0 1
| 68> C   -0.60618936    0.05587406    0.58900491
| 69> H   -1.66803667    0.05577624    0.58901162
| 70> C    0.60584873    0.05554087    0.58926624
| 71> H    1.66767817    0.05486328    0.58972794
| 72> C   -2.53035793   -0.36254380    5.02250552
| 73> H   -2.53872455   -1.02449733    4.15609493
| 74> H   -2.58227626   -0.98881301    5.91309629
| 75> H   -3.43277255    0.24636026    4.98974389
| 76> C   -1.26982580    0.49205692    5.03357479
| 77> H   -1.28647747    1.16505614    5.89398391
| 78> H   -1.24455881    1.12627293    4.14477868
| 79> C    0.00009282   -0.34627408    5.07403012
| 80> H    0.00009555   -0.96406373    5.97709152
| 81> H    0.00015991   -1.03457324    4.22478893
| 82> C    1.26999138    0.49210199    5.03366166
| 83> H    1.28661920    1.16506910    5.89408297
| 84> H    1.24484646    1.12627430    4.14486047
| 85> C    2.53051387   -0.36253459    5.02271525
| 86> H    2.53889364   -1.02451735    4.15633617
| 87> H    3.43289264    0.24639675    4.98998888
| 88> H    2.58233110   -0.98874933    5.91334879
| 89> *
| 90>
| 91>
| 92>
| 93>
| 94>                          ****END OF INPUT****
 Total Charge           Charge          ....    0
 Multiplicity           Mult            ....    1
 Number of Electrons    NEL             ....   56
MP2 TOTAL ENERGY:     -274.207190476 Eh
FINAL SINGLE POINT ENERGY      -274.207190476394
MP2 TOTAL ENERGY:     -274.476226637 Eh
FINAL SINGLE POINT ENERGY      -274.476226637391

CARTESIAN COORDINATES (ANGSTROEM)
---------------------------------
  C     -0.606189    0.055874    0.589005
  H     -1.668037    0.055776    0.589012
  C      0.605849    0.055541    0.589266
  H      1.667678    0.054863    0.589728
  C     -2.530358   -0.362544    5.022506
  H     -2.538725   -1.024497    4.156095
  H     -2.582276   -0.988813    5.913096
  H     -3.432773    0.246360    4.989744
  C     -1.269826    0.492057    5.033575
  H     -1.286477    1.165056    5.893984
  H     -1.244559    1.126273    4.144779
  C      0.000093   -0.346274    5.074030
  H      0.000096   -0.964064    5.977092
  H      0.000160   -1.034573    4.224789
  C      1.269991    0.492102    5.033662
  H      1.286619    1.165069    5.894083
  H      1.244846    1.126274    4.144860
  C      2.530514   -0.362535    5.022715
  H      2.538894   -1.024517    4.156336
  H      3.432893    0.246397    4.989989
  H      2.582331   -0.988749    5.913349

 Multiplicity           Mult            ....    1
 Number of Electrons    NEL             ....   56
 Basis Dimension        Dim             .... 1204

ORBITAL ENERGIES
----------------

  NO   OCC          E(Eh)            E(eV)
   0   2.0000     -11.247059      -306.0480
   1   2.0000     -11.243446      -305.9497
   2   2.0000     -11.208897      -305.0096
   3   2.0000     -11.208845      -305.0082
   4   2.0000     -11.205692      -304.9224
   5   2.0000     -11.205038      -304.9046
   6   2.0000     -11.205034      -304.9045
   7   2.0000      -1.078892       -29.3581
   8   2.0000      -1.029391       -28.0112
   9   2.0000      -1.013448       -27.5773
  10   2.0000      -0.917085       -24.9552
  11   2.0000      -0.817921       -22.2568
  12   2.0000      -0.782468       -21.2920
  13   2.0000      -0.770867       -20.9764
  14   2.0000      -0.683026       -18.5861
  15   2.0000      -0.645430       -17.5631
  16   2.0000      -0.596842       -16.2409
  17   2.0000      -0.591247       -16.0886
  18   2.0000      -0.551919       -15.0185
  19   2.0000      -0.546617       -14.8742
  20   2.0000      -0.524056       -14.2603
  21   2.0000      -0.493035       -13.4162
  22   2.0000      -0.474198       -12.9036
  23   2.0000      -0.459638       -12.5074
  24   2.0000      -0.457166       -12.4401
  25   2.0000      -0.444597       -12.0981
  26   2.0000      -0.410597       -11.1729
  27   2.0000      -0.410574       -11.1723
  28   0.0000       0.026267         0.7147
  29   0.0000       0.026777         0.7286
  30   0.0000       0.033752         0.9184
  31   0.0000       0.034647         0.9428
  32   0.0000       0.038916         1.0589

MULLIKEN ATOMIC CHARGES
-----------------------
   0 C :   -0.589828
   1 H :    0.590126
   2 C :   -0.589822
   3 H :    0.590110
   4 C :   -0.933159
   5 H :    0.237417
   6 H :    0.235689
   7 H :    0.264345
   8 C :   -0.492252
   9 H :    0.276934
  10 H :    0.254944
  11 C :   -0.254279
  12 H :    0.318764
  13 H :    0.247063
  14 C :   -0.492290
  15 H :    0.276947
  16 H :    0.254961
  17 C :   -0.933153
  18 H :    0.237444
  19 H :    0.264352
  20 H :    0.235688
Sum of atomic charges:   -0.0000000

LOEWDIN ATOMIC CHARGES
----------------------
   0 C :    0.486702
   1 H :   -0.473789
   2 C :    0.486701
   3 H :   -0.473809
   4 C :    0.924961
   5 H :   -0.288377
   6 H :   -0.285681
   7 H :   -0.283508
   8 C :    0.498661
   9 H :   -0.269887
  10 H :   -0.279068
  11 C :    0.484150
  12 H :   -0.265983
  13 H :   -0.278170
  14 C :    0.498672
  15 H :   -0.269889
  16 H :   -0.279081
  17 C :    0.924970
  18 H :   -0.288380
  19 H :   -0.283520
  20 H :   -0.285675

  Mayer bond orders larger than 0.100000
B(  0-C ,  1-H ) :   0.6709 B(  0-C ,  2-C ) :   2.5832 B(  2-C ,  3-H ) :   0.6709
B(  4-C ,  5-H ) :   0.9375 B(  4-C ,  6-H ) :   0.9699 B(  4-C ,  7-H ) :   1.0249
B(  4-C ,  8-C ) :   0.9812 B(  8-C ,  9-H ) :   0.8799 B(  8-C , 10-H ) :   0.8705
B(  8-C , 11-C ) :   0.8237 B( 11-C , 12-H ) :   0.8655 B( 11-C , 13-H ) :   0.8901
B( 11-C , 14-C ) :   0.8237 B( 14-C , 15-H ) :   0.8799 B( 14-C , 16-H ) :   0.8705
B( 14-C , 17-C ) :   0.9812 B( 17-C , 18-H ) :   0.9375 B( 17-C , 19-H ) :   1.0249
B( 17-C , 20-H ) :   0.9698

MP2 TOTAL ENERGY:     -274.556129937 Eh
FINAL SINGLE POINT ENERGY      -274.556129937025

DIPOLE MOMENT
-------------
                                X             Y             Z
Electronic contribution:     -0.00044       0.74712      -7.13537
Nuclear contribution   :      0.00042      -0.71303       7.10748
                        -----------------------------------------
Total Dipole Moment    :     -0.00002       0.03408      -0.02789
                        -----------------------------------------
Magnitude (a.u.)       :      0.04404
Magnitude (Debye)      :      0.11194

Rotational constants in cm-1:     0.059044     0.041293     0.025934
Rotational constants in MHz :  1770.102425  1237.942826   777.491141

                             ****ORCA TERMINATED NORMALLY****
TOTAL RUN TIME: 0 days 3 hours 12 minutes 0 seconds 522 msec
