                         Program Version 5.0.4 -  RELEASE  -
|  1> ! ri-mp2 aug-cc-pvdz aug-cc-pvdz/c tightscf
|  2> %pal nprocs 16 end
|  3> %maxcore 3800
|  4> %base "DZ_S66by10_35_0.7_dimer"
|  5> %scf STABPerform true end
|  6>
|  7> *xyz 0 1
|  8> C   -2.53038287   -0.41757533    0.68130643
|  9> H   -2.55988603   -0.98278998   -0.25015619
| 10> H   -2.55403625   -1.13386495    1.50265790
| 11> H   -3.43621355    0.18414376    0.73677133
| 12> C   -1.27615683    0.44363493    0.75002483
| 13> H   -1.27808384    1.02521785    1.67508548
| 14> H   -1.28033899    1.16855564   -0.06715806
| 15> C    0.00220470   -0.38071620    0.67899257
| 16> H    0.00782894   -1.11141304    1.49383122
| 17> H    0.00624866   -0.96052270   -0.24882046
| 18> C    1.26833347    0.46239635    0.74936913
| 19> H    1.26201985    1.04425029    1.67424645
| 20> H    1.26163488    1.18705711   -0.06803458
| 21> C    2.53496627   -0.38042469    0.68068636
| 22> H    2.57244024   -0.94571652   -0.25045186
| 23> H    3.43198117    0.23441492    0.73557772
| 24> H    2.56920771   -1.09581003    1.50245608
| 25> C   -0.00043499    0.03578655    4.24968014
| 26> C    0.00063676   -0.10434455    5.76941309
| 27> H   -0.88639927    0.35973149    6.20278251
| 28> H    0.00988826   -1.15512480    6.06242296
| 29> H    0.87929698    0.37532001    6.20305616
| 30> C   -1.23989032   -0.64586548    3.67578163
| 31> H   -1.26318954   -0.55690836    2.58895244
| 32> H   -1.25197595   -1.70714188    3.92879483
| 33> H   -2.15083404   -0.19357422    4.07086675
| 34> C    1.25217013   -0.62175426    3.67620980
| 35> H    1.27349691   -0.53346859    2.58923884
| 36> H    1.28530066   -1.68231510    3.93030212
| 37> H    2.15398236   -0.15111094    4.07063092
| 38> C   -0.01468286    1.51557904    3.87505886
| 39> H    0.86308314    2.02616606    4.27401400
| 40> H   -0.01520706    1.64203397    2.79140717
| 41> H   -0.90278881    2.00891275    4.27284701
| 42> *
| 43>
| 44> $new_job
| 45> ! ri-mp2 aug-cc-pvtz aug-cc-pvtz/c tightscf
| 46> %pal nprocs 16 end
| 47> %maxcore 3800
| 48> %base "TZ_S66by10_35_0.7_dimer"
| 49>
| 50> *xyz 0 1
| 51> C   -2.53038287   -0.41757533    0.68130643
| 52> H   -2.55988603   -0.98278998   -0.25015619
| 53> H   -2.55403625   -1.13386495    1.50265790
| 54> H   -3.43621355    0.18414376    0.73677133
| 55> C   -1.27615683    0.44363493    0.75002483
| 56> H   -1.27808384    1.02521785    1.67508548
| 57> H   -1.28033899    1.16855564   -0.06715806
| 58> C    0.00220470   -0.38071620    0.67899257
| 59> H    0.00782894   -1.11141304    1.49383122
| 60> H    0.00624866   -0.96052270   -0.24882046
| 61> C    1.26833347    0.46239635    0.74936913
| 62> H    1.26201985    1.04425029    1.67424645
| 63> H    1.26163488    1.18705711   -0.06803458
| 64> C    2.53496627   -0.38042469    0.68068636
| 65> H    2.57244024   -0.94571652   -0.25045186
| 66> H    3.43198117    0.23441492    0.73557772
| 67> H    2.56920771   -1.09581003    1.50245608
| 68> C   -0.00043499    0.03578655    4.24968014
| 69> C    0.00063676   -0.10434455    5.76941309
| 70> H   -0.88639927    0.35973149    6.20278251
| 71> H    0.00988826   -1.15512480    6.06242296
| 72> H    0.87929698    0.37532001    6.20305616
| 73> C   -1.23989032   -0.64586548    3.67578163
| 74> H   -1.26318954   -0.55690836    2.58895244
| 75> H   -1.25197595   -1.70714188    3.92879483
| 76> H   -2.15083404   -0.19357422    4.07086675
| 77> C    1.25217013   -0.62175426    3.67620980
| 78> H    1.27349691   -0.53346859    2.58923884
| 79> H    1.28530066   -1.68231510    3.93030212
| 80> H    2.15398236   -0.15111094    4.07063092
| 81> C   -0.01468286    1.51557904    3.87505886
| 82> H    0.86308314    2.02616606    4.27401400
| 83> H   -0.01520706    1.64203397    2.79140717
| 84> H   -0.90278881    2.00891275    4.27284701
| 85> *
| 86>
| 87> $new_job
| 88> ! ri-mp2 aug-cc-pvqz aug-cc-pvqz/c tightscf
| 89> %pal nprocs 16 end
| 90> %maxcore 3800
| 91> %base "QZ_S66by10_35_0.7_dimer"
| 92>
| 93> *xyz 0 1
| 94> C   -2.53038287   -0.41757533    0.68130643
| 95> H   -2.55988603   -0.98278998   -0.25015619
| 96> H   -2.55403625   -1.13386495    1.50265790
| 97> H   -3.43621355    0.18414376    0.73677133
| 98> C   -1.27615683    0.44363493    0.75002483
| 99> H   -1.27808384    1.02521785    1.67508548
|100> H   -1.28033899    1.16855564   -0.06715806
|101> C    0.00220470   -0.38071620    0.67899257
|102> H    0.00782894   -1.11141304    1.49383122
|103> H    0.00624866   -0.96052270   -0.24882046
|104> C    1.26833347    0.46239635    0.74936913
|105> H    1.26201985    1.04425029    1.67424645
|106> H    1.26163488    1.18705711   -0.06803458
|107> C    2.53496627   -0.38042469    0.68068636
|108> H    2.57244024   -0.94571652   -0.25045186
|109> H    3.43198117    0.23441492    0.73557772
|110> H    2.56920771   -1.09581003    1.50245608
|111> C   -0.00043499    0.03578655    4.24968014
|112> C    0.00063676   -0.10434455    5.76941309
|113> H   -0.88639927    0.35973149    6.20278251
|114> H    0.00988826   -1.15512480    6.06242296
|115> H    0.87929698    0.37532001    6.20305616
|116> C   -1.23989032   -0.64586548    3.67578163
|117> H   -1.26318954   -0.55690836    2.58895244
|118> H   -1.25197595   -1.70714188    3.92879483
|119> H   -2.15083404   -0.19357422    4.07086675
|120> C    1.25217013   -0.62175426    3.67620980
|121> H    1.27349691   -0.53346859    2.58923884
|122> H    1.28530066   -1.68231510    3.93030212
|123> H    2.15398236   -0.15111094    4.07063092
|124> C   -0.01468286    1.51557904    3.87505886
|125> H    0.86308314    2.02616606    4.27401400
|126> H   -0.01520706    1.64203397    2.79140717
|127> H   -0.90278881    2.00891275    4.27284701
|128> *
|129>
|130>
|131>
|132>
|133>                          ****END OF INPUT****
 Total Charge           Charge          ....    0
 Multiplicity           Mult            ....    1
 Number of Electrons    NEL             ....   84
MP2 TOTAL ENERGY:     -394.215008474 Eh
FINAL SINGLE POINT ENERGY      -394.215008473691
MP2 TOTAL ENERGY:     -394.605480486 Eh
FINAL SINGLE POINT ENERGY      -394.605480485616

CARTESIAN COORDINATES (ANGSTROEM)
---------------------------------
  C     -2.530383   -0.417575    0.681306
  H     -2.559886   -0.982790   -0.250156
  H     -2.554036   -1.133865    1.502658
  H     -3.436214    0.184144    0.736771
  C     -1.276157    0.443635    0.750025
  H     -1.278084    1.025218    1.675085
  H     -1.280339    1.168556   -0.067158
  C      0.002205   -0.380716    0.678993
  H      0.007829   -1.111413    1.493831
  H      0.006249   -0.960523   -0.248820
  C      1.268333    0.462396    0.749369
  H      1.262020    1.044250    1.674246
  H      1.261635    1.187057   -0.068035
  C      2.534966   -0.380425    0.680686
  H      2.572440   -0.945717   -0.250452
  H      3.431981    0.234415    0.735578
  H      2.569208   -1.095810    1.502456
  C     -0.000435    0.035787    4.249680
  C      0.000637   -0.104345    5.769413
  H     -0.886399    0.359731    6.202783
  H      0.009888   -1.155125    6.062423
  H      0.879297    0.375320    6.203056
  C     -1.239890   -0.645865    3.675782
  H     -1.263190   -0.556908    2.588952
  H     -1.251976   -1.707142    3.928795
  H     -2.150834   -0.193574    4.070867
  C      1.252170   -0.621754    3.676210
  H      1.273497   -0.533469    2.589239
  H      1.285301   -1.682315    3.930302
  H      2.153982   -0.151111    4.070631
  C     -0.014683    1.515579    3.875059
  H      0.863083    2.026166    4.274014
  H     -0.015207    1.642034    2.791407
  H     -0.902789    2.008913    4.272847

 Multiplicity           Mult            ....    1
 Number of Electrons    NEL             ....   84
 Basis Dimension        Dim             .... 1904

ORBITAL ENERGIES
----------------

  NO   OCC          E(Eh)            E(eV)
   0   2.0000     -11.221700      -305.3580
   1   2.0000     -11.211758      -305.0874
   2   2.0000     -11.211663      -305.0849
   3   2.0000     -11.209726      -305.0321
   4   2.0000     -11.206162      -304.9352
   5   2.0000     -11.206155      -304.9350
   6   2.0000     -11.201719      -304.8143
   7   2.0000     -11.200799      -304.7892
   8   2.0000     -11.194520      -304.6184
   9   2.0000     -11.194500      -304.6178
  10   2.0000      -1.108617       -30.1670
  11   2.0000      -1.084890       -29.5214
  12   2.0000      -1.022617       -27.8268
  13   2.0000      -0.929847       -25.3024
  14   2.0000      -0.926924       -25.2229
  15   2.0000      -0.925893       -25.1948
  16   2.0000      -0.921947       -25.0875
  17   2.0000      -0.823969       -22.4213
  18   2.0000      -0.791007       -21.5244
  19   2.0000      -0.735569       -20.0158
  20   2.0000      -0.672479       -18.2991
  21   2.0000      -0.631110       -17.1734
  22   2.0000      -0.611714       -16.6456
  23   2.0000      -0.604149       -16.4397
  24   2.0000      -0.596918       -16.2430
  25   2.0000      -0.588178       -16.0051
  26   2.0000      -0.565142       -15.3783
  27   2.0000      -0.552379       -15.0310
  28   2.0000      -0.547390       -14.8952
  29   2.0000      -0.541282       -14.7290
  30   2.0000      -0.529204       -14.4004
  31   2.0000      -0.511602       -13.9214
  32   2.0000      -0.506921       -13.7940
  33   2.0000      -0.500888       -13.6299
  34   2.0000      -0.494372       -13.4525
  35   2.0000      -0.478855       -13.0303
  36   2.0000      -0.471231       -12.8229
  37   2.0000      -0.457284       -12.4433
  38   2.0000      -0.450281       -12.2528
  39   2.0000      -0.446303       -12.1445
  40   2.0000      -0.445014       -12.1094
  41   2.0000      -0.430443       -11.7129
  42   0.0000       0.021819         0.5937
  43   0.0000       0.027827         0.7572
  44   0.0000       0.028362         0.7718
  45   0.0000       0.029448         0.8013
  46   0.0000       0.040137         1.0922

MULLIKEN ATOMIC CHARGES
-----------------------
   0 C :   -0.992146
   1 H :    0.210330
   2 H :    0.192664
   3 H :    0.206009
   4 C :   -0.521710
   5 H :    0.430775
   6 H :    0.113796
   7 C :   -0.131135
   8 H :    0.404525
   9 H :    0.217337
  10 C :   -0.522532
  11 H :    0.430034
  12 H :    0.115029
  13 C :   -0.992094
  14 H :    0.210398
  15 H :    0.206048
  16 H :    0.192267
  17 C :    2.185864
  18 C :   -1.271222
  19 H :    0.192887
  20 H :    0.191372
  21 H :    0.193015
  22 C :   -0.925244
  23 H :    0.271474
  24 H :    0.164821
  25 H :    0.142378
  26 C :   -0.926425
  27 H :    0.273644
  28 H :    0.163094
  29 H :    0.143364
  30 C :   -1.067510
  31 H :    0.122124
  32 H :    0.253864
  33 H :    0.122902
Sum of atomic charges:   -0.0000000

LOEWDIN ATOMIC CHARGES
----------------------
   0 C :    0.975773
   1 H :   -0.265127
   2 H :   -0.315225
   3 H :   -0.255829
   4 C :    0.560689
   5 H :   -0.348791
   6 H :   -0.240033
   7 C :    0.566805
   8 H :   -0.338169
   9 H :   -0.234092
  10 C :    0.560660
  11 H :   -0.348438
  12 H :   -0.240024
  13 C :    0.975770
  14 H :   -0.265072
  15 H :   -0.255744
  16 H :   -0.315248
  17 C :   -0.239892
  18 C :    0.916013
  19 H :   -0.270345
  20 H :   -0.269874
  21 H :   -0.270247
  22 C :    0.926341
  23 H :   -0.559203
  24 H :   -0.226500
  25 H :   -0.227324
  26 C :    0.926300
  27 H :   -0.559436
  28 H :   -0.226541
  29 H :   -0.227342
  30 C :    0.944513
  31 H :   -0.243334
  32 H :   -0.367757
  33 H :   -0.243277

  Mayer bond orders larger than 0.100000
B(  0-C ,  1-H ) :   1.0586 B(  0-C ,  2-H ) :   1.0022 B(  0-C ,  3-H ) :   1.0913
B(  0-C ,  4-C ) :   0.8249 B(  0-C ,  7-C ) :  -0.1056 B(  2-H ,  4-C ) :  -0.1136
B(  3-H ,  4-C ) :  -0.1114 B(  4-C ,  5-H ) :   0.9124 B(  4-C ,  6-H ) :   1.1509
B(  4-C ,  7-C ) :   0.6713 B(  4-C , 23-H ) :  -0.1516 B(  5-H , 23-H ) :  -0.1243
B(  7-C ,  8-H ) :   1.0880 B(  7-C ,  9-H ) :   1.0160 B(  7-C , 10-C ) :   0.6728
B(  7-C , 13-C ) :  -0.1058 B(  8-H , 23-H ) :  -0.1015 B(  8-H , 27-H ) :  -0.1005
B( 10-C , 11-H ) :   0.9132 B( 10-C , 12-H ) :   1.1495 B( 10-C , 13-C ) :   0.8247
B( 10-C , 15-H ) :  -0.1112 B( 10-C , 16-H ) :  -0.1142 B( 10-C , 27-H ) :  -0.1524
B( 11-H , 27-H ) :  -0.1246 B( 13-C , 14-H ) :   1.0585 B( 13-C , 15-H ) :   1.0910
B( 13-C , 16-H ) :   1.0023 B( 17-C , 18-C ) :  -0.3924 B( 17-C , 19-H ) :  -0.2839
B( 17-C , 20-H ) :  -0.2639 B( 17-C , 21-H ) :  -0.2835 B( 17-C , 22-C ) :   0.4298
B( 17-C , 23-H ) :  -0.1275 B( 17-C , 26-C ) :   0.4282 B( 17-C , 27-H ) :  -0.1288
B( 17-C , 30-C ) :   0.1898 B( 17-C , 31-H ) :  -0.1495 B( 17-C , 33-H ) :  -0.1502
B( 18-C , 19-H ) :   1.1851 B( 18-C , 20-H ) :   1.1770 B( 18-C , 21-H ) :   1.1848
B( 18-C , 22-C ) :   0.1742 B( 18-C , 26-C ) :   0.1746 B( 18-C , 30-C ) :   0.1461
B( 22-C , 23-H ) :   0.8247 B( 22-C , 24-H ) :   1.1607 B( 22-C , 25-H ) :   1.1775
B( 26-C , 27-H ) :   0.8236 B( 26-C , 28-H ) :   1.1625 B( 26-C , 29-H ) :   1.1759
B( 30-C , 31-H ) :   1.2102 B( 30-C , 32-H ) :   0.9758 B( 30-C , 33-H ) :   1.2093

MP2 TOTAL ENERGY:     -394.720885744 Eh
FINAL SINGLE POINT ENERGY      -394.720885744208

DIPOLE MOMENT
-------------
                                X             Y             Z
Electronic contribution:     -0.00444       0.62992      -0.09807
Nuclear contribution   :      0.00408      -0.57011      -0.05180
                        -----------------------------------------
Total Dipole Moment    :     -0.00036       0.05981      -0.14987
                        -----------------------------------------
Magnitude (a.u.)       :      0.16136
Magnitude (Debye)      :      0.41015

Rotational constants in cm-1:     0.043895     0.028324     0.020478
Rotational constants in MHz :  1315.953368   849.135042   613.908849

                             ****ORCA TERMINATED NORMALLY****
TOTAL RUN TIME: 0 days 23 hours 55 minutes 58 seconds 476 msec
