                         Program Version 5.0.4 -  RELEASE  -
|  1> ! ri-mp2 aug-cc-pvdz aug-cc-pvdz/c tightscf
|  2> %pal nprocs 16 end
|  3> %maxcore 3800
|  4> %base "DZ_S66by10_24_0.9_dimer"
|  5>
|  6> *xyz 0 1
|  7> C    0.71264532    1.12099570    0.06054078
|  8> H    1.35784165    1.98639917    0.12773717
|  9> C    1.25823573   -0.15925190    0.12423352
| 10> H    2.32495428   -0.28709988    0.24674303
| 11> C    0.42688496   -1.27452666    0.04265043
| 12> H    0.85044465   -2.26843268    0.09474995
| 13> C   -0.94957784   -1.11007406   -0.10031360
| 14> H   -1.59445570   -1.97627370   -0.16371348
| 15> C   -1.49552564    0.17105056   -0.16154602
| 16> H   -2.56378279    0.29922115   -0.27370311
| 17> C   -0.66382760    1.28664289   -0.08340143
| 18> H   -1.08690070    2.28100020   -0.13288613
| 19> C    1.82750755    1.11126079    3.25188149
| 20> H    2.47235268    1.97744454    3.31563221
| 21> C    2.37346068   -0.16989031    3.31340122
| 22> H    3.44166756   -0.29803736    3.42614544
| 23> C    1.54181120   -1.28549041    3.23475079
| 24> H    1.96489290   -2.27984284    3.28440446
| 25> C    0.16540964   -1.11985538    3.09003405
| 26> H   -0.47969296   -1.98526562    3.02240141
| 27> C   -0.38015023    0.16037737    3.02606822
| 28> H   -1.44677827    0.28820658    2.90288946
| 29> C    0.45112672    1.27565813    3.10813916
| 30> H    0.02760183    2.26956317    3.05577023
| 31> *
| 32>
| 33> $new_job
| 34> ! ri-mp2 aug-cc-pvtz aug-cc-pvtz/c tightscf
| 35> %pal nprocs 16 end
| 36> %maxcore 3800
| 37> %base "TZ_S66by10_24_0.9_dimer"
| 38>
| 39> *xyz 0 1
| 40> C    0.71264532    1.12099570    0.06054078
| 41> H    1.35784165    1.98639917    0.12773717
| 42> C    1.25823573   -0.15925190    0.12423352
| 43> H    2.32495428   -0.28709988    0.24674303
| 44> C    0.42688496   -1.27452666    0.04265043
| 45> H    0.85044465   -2.26843268    0.09474995
| 46> C   -0.94957784   -1.11007406   -0.10031360
| 47> H   -1.59445570   -1.97627370   -0.16371348
| 48> C   -1.49552564    0.17105056   -0.16154602
| 49> H   -2.56378279    0.29922115   -0.27370311
| 50> C   -0.66382760    1.28664289   -0.08340143
| 51> H   -1.08690070    2.28100020   -0.13288613
| 52> C    1.82750755    1.11126079    3.25188149
| 53> H    2.47235268    1.97744454    3.31563221
| 54> C    2.37346068   -0.16989031    3.31340122
| 55> H    3.44166756   -0.29803736    3.42614544
| 56> C    1.54181120   -1.28549041    3.23475079
| 57> H    1.96489290   -2.27984284    3.28440446
| 58> C    0.16540964   -1.11985538    3.09003405
| 59> H   -0.47969296   -1.98526562    3.02240141
| 60> C   -0.38015023    0.16037737    3.02606822
| 61> H   -1.44677827    0.28820658    2.90288946
| 62> C    0.45112672    1.27565813    3.10813916
| 63> H    0.02760183    2.26956317    3.05577023
| 64> *
| 65>
| 66> $new_job
| 67> ! ri-mp2 aug-cc-pvqz aug-cc-pvqz/c tightscf
| 68> %pal nprocs 16 end
| 69> %maxcore 3800
| 70> %base "QZ_S66by10_24_0.9_dimer"
| 71>
| 72> *xyz 0 1
| 73> C    0.71264532    1.12099570    0.06054078
| 74> H    1.35784165    1.98639917    0.12773717
| 75> C    1.25823573   -0.15925190    0.12423352
| 76> H    2.32495428   -0.28709988    0.24674303
| 77> C    0.42688496   -1.27452666    0.04265043
| 78> H    0.85044465   -2.26843268    0.09474995
| 79> C   -0.94957784   -1.11007406   -0.10031360
| 80> H   -1.59445570   -1.97627370   -0.16371348
| 81> C   -1.49552564    0.17105056   -0.16154602
| 82> H   -2.56378279    0.29922115   -0.27370311
| 83> C   -0.66382760    1.28664289   -0.08340143
| 84> H   -1.08690070    2.28100020   -0.13288613
| 85> C    1.82750755    1.11126079    3.25188149
| 86> H    2.47235268    1.97744454    3.31563221
| 87> C    2.37346068   -0.16989031    3.31340122
| 88> H    3.44166756   -0.29803736    3.42614544
| 89> C    1.54181120   -1.28549041    3.23475079
| 90> H    1.96489290   -2.27984284    3.28440446
| 91> C    0.16540964   -1.11985538    3.09003405
| 92> H   -0.47969296   -1.98526562    3.02240141
| 93> C   -0.38015023    0.16037737    3.02606822
| 94> H   -1.44677827    0.28820658    2.90288946
| 95> C    0.45112672    1.27565813    3.10813916
| 96> H    0.02760183    2.26956317    3.05577023
| 97> *
| 98>
| 99>
|100>
|101>
|102>                          ****END OF INPUT****
 Total Charge           Charge          ....    0
 Multiplicity           Mult            ....    1
 Number of Electrons    NEL             ....   84
MP2 TOTAL ENERGY:     -463.089471282 Eh
FINAL SINGLE POINT ENERGY      -463.089471282115
MP2 TOTAL ENERGY:     -463.498066724 Eh
FINAL SINGLE POINT ENERGY      -463.498066724100

CARTESIAN COORDINATES (ANGSTROEM)
---------------------------------
  C      0.712645    1.120996    0.060541
  H      1.357842    1.986399    0.127737
  C      1.258236   -0.159252    0.124234
  H      2.324954   -0.287100    0.246743
  C      0.426885   -1.274527    0.042650
  H      0.850445   -2.268433    0.094750
  C     -0.949578   -1.110074   -0.100314
  H     -1.594456   -1.976274   -0.163713
  C     -1.495526    0.171051   -0.161546
  H     -2.563783    0.299221   -0.273703
  C     -0.663828    1.286643   -0.083401
  H     -1.086901    2.281000   -0.132886
  C      1.827508    1.111261    3.251881
  H      2.472353    1.977445    3.315632
  C      2.373461   -0.169890    3.313401
  H      3.441668   -0.298037    3.426145
  C      1.541811   -1.285490    3.234751
  H      1.964893   -2.279843    3.284404
  C      0.165410   -1.119855    3.090034
  H     -0.479693   -1.985266    3.022401
  C     -0.380150    0.160377    3.026068
  H     -1.446778    0.288207    2.902889
  C      0.451127    1.275658    3.108139
  H      0.027602    2.269563    3.055770

 Multiplicity           Mult            ....    1
 Number of Electrons    NEL             ....   84
 Basis Dimension        Dim             .... 1512

ORBITAL ENERGIES
----------------

  NO   OCC          E(Eh)            E(eV)
   0   2.0000     -11.228377      -305.5397
   1   2.0000     -11.228371      -305.5395
   2   2.0000     -11.227777      -305.5233
   3   2.0000     -11.227766      -305.5230
   4   2.0000     -11.227649      -305.5199
   5   2.0000     -11.227637      -305.5195
   6   2.0000     -11.226102      -305.4778
   7   2.0000     -11.226094      -305.4775
   8   2.0000     -11.225858      -305.4711
   9   2.0000     -11.225851      -305.4709
  10   2.0000     -11.224667      -305.4387
  11   2.0000     -11.224650      -305.4383
  12   2.0000      -1.148802       -31.2605
  13   2.0000      -1.139317       -31.0024
  14   2.0000      -1.012799       -27.5597
  15   2.0000      -1.009560       -27.4715
  16   2.0000      -1.007160       -27.4062
  17   2.0000      -1.004633       -27.3375
  18   2.0000      -0.819694       -22.3050
  19   2.0000      -0.818627       -22.2760
  20   2.0000      -0.817860       -22.2551
  21   2.0000      -0.816501       -22.2181
  22   2.0000      -0.705842       -19.2069
  23   2.0000      -0.702285       -19.1102
  24   2.0000      -0.639168       -17.3926
  25   2.0000      -0.638385       -17.3713
  26   2.0000      -0.613070       -16.6825
  27   2.0000      -0.612541       -16.6681
  28   2.0000      -0.584432       -15.9032
  29   2.0000      -0.582815       -15.8592
  30   2.0000      -0.581966       -15.8361
  31   2.0000      -0.580269       -15.7899
  32   2.0000      -0.525446       -14.2981
  33   2.0000      -0.489465       -13.3190
  34   2.0000      -0.489455       -13.3187
  35   2.0000      -0.488789       -13.3006
  36   2.0000      -0.488677       -13.2976
  37   2.0000      -0.468873       -12.7587
  38   2.0000      -0.356044        -9.6884
  39   2.0000      -0.334685        -9.1072
  40   2.0000      -0.322942        -8.7877
  41   2.0000      -0.306495        -8.3402
  42   0.0000       0.024387         0.6636
  43   0.0000       0.027654         0.7525
  44   0.0000       0.027920         0.7597
  45   0.0000       0.037773         1.0279
  46   0.0000       0.038174         1.0388

MULLIKEN ATOMIC CHARGES
-----------------------
   0 C :   -0.157922
   1 H :    0.260117
   2 C :   -0.275372
   3 H :    0.222788
   4 C :   -0.195346
   5 H :    0.257058
   6 C :   -0.311590
   7 H :    0.280614
   8 C :   -0.331218
   9 H :    0.288617
  10 C :   -0.314079
  11 H :    0.276348
  12 C :   -0.311392
  13 H :    0.280738
  14 C :   -0.331790
  15 H :    0.288725
  16 C :   -0.313962
  17 H :    0.276302
  18 C :   -0.157874
  19 H :    0.259943
  20 C :   -0.274695
  21 H :    0.222948
  22 C :   -0.195702
  23 H :    0.256741
Sum of atomic charges:   -0.0000000

LOEWDIN ATOMIC CHARGES
----------------------
   0 C :    0.304782
   1 H :   -0.309812
   2 C :    0.303156
   3 H :   -0.312071
   4 C :    0.307061
   5 H :   -0.309494
   6 C :    0.323987
   7 H :   -0.317567
   8 C :    0.323817
   9 H :   -0.319649
  10 C :    0.321792
  11 H :   -0.315940
  12 C :    0.324052
  13 H :   -0.317604
  14 C :    0.323889
  15 H :   -0.319671
  16 C :    0.321836
  17 H :   -0.315954
  18 C :    0.304764
  19 H :   -0.309849
  20 C :    0.303057
  21 H :   -0.312139
  22 C :    0.307063
  23 H :   -0.309505

  Mayer bond orders larger than 0.100000
B(  0-C ,  1-H ) :   1.0893 B(  0-C ,  2-C ) :   1.1041 B(  0-C ,  6-C ) :   0.2069
B(  0-C , 10-C ) :   1.2051 B(  2-C ,  3-H ) :   1.0187 B(  2-C ,  4-C ) :   1.1009
B(  2-C ,  8-C ) :   0.1375 B(  2-C , 14-C ) :  -0.1259 B(  4-C ,  5-H ) :   1.0964
B(  4-C ,  6-C ) :   1.2086 B(  4-C , 10-C ) :   0.1905 B(  6-C ,  7-H ) :   1.0699
B(  6-C ,  8-C ) :   1.2602 B(  8-C ,  9-H ) :   1.0669 B(  8-C , 10-C ) :   1.2587
B(  8-C , 20-C ) :  -0.1257 B( 10-C , 11-H ) :   1.0663 B( 12-C , 13-H ) :   1.0698
B( 12-C , 14-C ) :   1.2603 B( 12-C , 18-C ) :   0.2069 B( 12-C , 22-C ) :   1.2086
B( 14-C , 15-H ) :   1.0667 B( 14-C , 16-C ) :   1.2588 B( 14-C , 20-C ) :   0.1374
B( 16-C , 17-H ) :   1.0663 B( 16-C , 18-C ) :   1.2050 B( 16-C , 22-C ) :   0.1905
B( 18-C , 19-H ) :   1.0895 B( 18-C , 20-C ) :   1.1038 B( 20-C , 21-H ) :   1.0185
B( 20-C , 22-C ) :   1.1006 B( 22-C , 23-H ) :   1.0968

MP2 TOTAL ENERGY:     -463.626867878 Eh
FINAL SINGLE POINT ENERGY      -463.626867877621

DIPOLE MOMENT
-------------
                                X             Y             Z
Electronic contribution:     -0.00012       0.00001       0.00000
Nuclear contribution   :      0.00013      -0.00001      -0.00023
                        -----------------------------------------
Total Dipole Moment    :      0.00001       0.00000      -0.00023
                        -----------------------------------------
Magnitude (a.u.)       :      0.00023
Magnitude (Debye)      :      0.00059

Rotational constants in cm-1:     0.054654     0.027054     0.025217
Rotational constants in MHz :  1638.474121   811.071310   755.978960

                             ****ORCA TERMINATED NORMALLY****
TOTAL RUN TIME: 0 days 1 hours 43 minutes 34 seconds 562 msec
