                         Program Version 5.0.4 -  RELEASE  -
|  1> ! ri-mp2 aug-cc-pvdz aug-cc-pvdz/c tightscf
|  2> %pal nprocs 16 end
|  3> %maxcore 3800
|  4> %base "DZ_S66by10_30_0.7_dimer"
|  5>
|  6> *xyz 0 1
|  7> C    0.83551718    1.11516693    0.02140131
|  8> H    1.48432398    1.98060858    0.01953430
|  9> C    1.38327497   -0.16614721    0.02376531
| 10> H    2.45714902   -0.29520468    0.02277108
| 11> C    0.54755466   -1.28131632    0.02168563
| 12> H    0.97293610   -2.27580453    0.01977853
| 13> C   -0.83552313   -1.11516159    0.02139907
| 14> H   -1.48433419   -1.98060639    0.01953009
| 15> C   -1.38328358    0.16615413    0.02375775
| 16> H   -2.45715618    0.29520906    0.02275707
| 17> C   -0.54756577    1.28132347    0.02168025
| 18> H   -0.97294284    2.27580548    0.01976873
| 19> C    0.65577848   -0.11678975    2.40380160
| 20> H    1.04723926   -1.12390858    2.39933333
| 21> H    1.37085227    0.69327422    2.39930001
| 22> C   -0.65577803    0.11679288    2.40381049
| 23> H   -1.37084998   -0.69327164    2.39931440
| 24> H   -1.04724114    1.12391178    2.39935229
| 25> *
| 26>
| 27> $new_job
| 28> ! ri-mp2 aug-cc-pvtz aug-cc-pvtz/c tightscf
| 29> %pal nprocs 16 end
| 30> %maxcore 3800
| 31> %base "TZ_S66by10_30_0.7_dimer"
| 32>
| 33> *xyz 0 1
| 34> C    0.83551718    1.11516693    0.02140131
| 35> H    1.48432398    1.98060858    0.01953430
| 36> C    1.38327497   -0.16614721    0.02376531
| 37> H    2.45714902   -0.29520468    0.02277108
| 38> C    0.54755466   -1.28131632    0.02168563
| 39> H    0.97293610   -2.27580453    0.01977853
| 40> C   -0.83552313   -1.11516159    0.02139907
| 41> H   -1.48433419   -1.98060639    0.01953009
| 42> C   -1.38328358    0.16615413    0.02375775
| 43> H   -2.45715618    0.29520906    0.02275707
| 44> C   -0.54756577    1.28132347    0.02168025
| 45> H   -0.97294284    2.27580548    0.01976873
| 46> C    0.65577848   -0.11678975    2.40380160
| 47> H    1.04723926   -1.12390858    2.39933333
| 48> H    1.37085227    0.69327422    2.39930001
| 49> C   -0.65577803    0.11679288    2.40381049
| 50> H   -1.37084998   -0.69327164    2.39931440
| 51> H   -1.04724114    1.12391178    2.39935229
| 52> *
| 53>
| 54> $new_job
| 55> ! ri-mp2 aug-cc-pvqz aug-cc-pvqz/c tightscf
| 56> %pal nprocs 16 end
| 57> %maxcore 3800
| 58> %base "QZ_S66by10_30_0.7_dimer"
| 59>
| 60> *xyz 0 1
| 61> C    0.83551718    1.11516693    0.02140131
| 62> H    1.48432398    1.98060858    0.01953430
| 63> C    1.38327497   -0.16614721    0.02376531
| 64> H    2.45714902   -0.29520468    0.02277108
| 65> C    0.54755466   -1.28131632    0.02168563
| 66> H    0.97293610   -2.27580453    0.01977853
| 67> C   -0.83552313   -1.11516159    0.02139907
| 68> H   -1.48433419   -1.98060639    0.01953009
| 69> C   -1.38328358    0.16615413    0.02375775
| 70> H   -2.45715618    0.29520906    0.02275707
| 71> C   -0.54756577    1.28132347    0.02168025
| 72> H   -0.97294284    2.27580548    0.01976873
| 73> C    0.65577848   -0.11678975    2.40380160
| 74> H    1.04723926   -1.12390858    2.39933333
| 75> H    1.37085227    0.69327422    2.39930001
| 76> C   -0.65577803    0.11679288    2.40381049
| 77> H   -1.37084998   -0.69327164    2.39931440
| 78> H   -1.04724114    1.12391178    2.39935229
| 79> *
| 80>
| 81>
| 82>
| 83>
| 84>                          ****END OF INPUT****
 Total Charge           Charge          ....    0
 Multiplicity           Mult            ....    1
 Number of Electrons    NEL             ....   58
MP2 TOTAL ENERGY:     -309.839181605 Eh
FINAL SINGLE POINT ENERGY      -309.839181605051
MP2 TOTAL ENERGY:     -310.120862988 Eh
FINAL SINGLE POINT ENERGY      -310.120862987876

CARTESIAN COORDINATES (ANGSTROEM)
---------------------------------
  C      0.835517    1.115167    0.021401
  H      1.484324    1.980609    0.019534
  C      1.383275   -0.166147    0.023765
  H      2.457149   -0.295205    0.022771
  C      0.547555   -1.281316    0.021686
  H      0.972936   -2.275805    0.019779
  C     -0.835523   -1.115162    0.021399
  H     -1.484334   -1.980606    0.019530
  C     -1.383284    0.166154    0.023758
  H     -2.457156    0.295209    0.022757
  C     -0.547566    1.281323    0.021680
  H     -0.972943    2.275805    0.019769
  C      0.655778   -0.116790    2.403802
  H      1.047239   -1.123909    2.399333
  H      1.370852    0.693274    2.399300
  C     -0.655778    0.116793    2.403810
  H     -1.370850   -0.693272    2.399314
  H     -1.047241    1.123912    2.399352

 Multiplicity           Mult            ....    1
 Number of Electrons    NEL             ....   58
 Basis Dimension        Dim             .... 1100

ORBITAL ENERGIES
----------------

  NO   OCC          E(Eh)            E(eV)
   0   2.0000     -11.236872      -305.7708
   1   2.0000     -11.236870      -305.7708
   2   2.0000     -11.231488      -305.6243
   3   2.0000     -11.231355      -305.6207
   4   2.0000     -11.229891      -305.5809
   5   2.0000     -11.229814      -305.5788
   6   2.0000     -11.200030      -304.7683
   7   2.0000     -11.198298      -304.7212
   8   2.0000      -1.157573       -31.4992
   9   2.0000      -1.020975       -27.7821
  10   2.0000      -1.016253       -27.6537
  11   2.0000      -1.013405       -27.5761
  12   2.0000      -0.827051       -22.5052
  13   2.0000      -0.826389       -22.4872
  14   2.0000      -0.778389       -21.1811
  15   2.0000      -0.712700       -19.3936
  16   2.0000      -0.646523       -17.5928
  17   2.0000      -0.632592       -17.2137
  18   2.0000      -0.617833       -16.8121
  19   2.0000      -0.591391       -16.0926
  20   2.0000      -0.588437       -16.0122
  21   2.0000      -0.572609       -15.5815
  22   2.0000      -0.518642       -14.1130
  23   2.0000      -0.497290       -13.5320
  24   2.0000      -0.496563       -13.5122
  25   2.0000      -0.490827       -13.3561
  26   2.0000      -0.338482        -9.2106
  27   2.0000      -0.334200        -9.0940
  28   2.0000      -0.318201        -8.6587
  29   0.0000       0.025534         0.6948
  30   0.0000       0.028399         0.7728
  31   0.0000       0.029158         0.7934
  32   0.0000       0.040894         1.1128
  33   0.0000       0.041010         1.1159

MULLIKEN ATOMIC CHARGES
-----------------------
   0 C :   -0.299333
   1 H :    0.269008
   2 C :   -0.257559
   3 H :    0.282116
   4 C :   -0.282186
   5 H :    0.297002
   6 C :   -0.299322
   7 H :    0.269003
   8 C :   -0.257583
   9 H :    0.282115
  10 C :   -0.282184
  11 H :    0.297014
  12 C :   -0.645341
  13 H :    0.305877
  14 H :    0.330421
  15 C :   -0.645346
  16 H :    0.330421
  17 H :    0.305876
Sum of atomic charges:   -0.0000000

LOEWDIN ATOMIC CHARGES
----------------------
   0 C :    0.307577
   1 H :   -0.296397
   2 C :    0.275044
   3 H :   -0.288556
   4 C :    0.301990
   5 H :   -0.295628
   6 C :    0.307573
   7 H :   -0.296392
   8 C :    0.275049
   9 H :   -0.288559
  10 C :    0.301998
  11 H :   -0.295636
  12 C :    0.675856
  13 H :   -0.340168
  14 H :   -0.339723
  15 C :    0.675859
  16 H :   -0.339723
  17 H :   -0.340165

  Mayer bond orders larger than 0.100000
B(  0-C ,  1-H ) :   1.0806 B(  0-C ,  2-C ) :   1.2188 B(  0-C ,  6-C ) :   0.1007
B(  0-C , 10-C ) :   1.2177 B(  2-C ,  3-H ) :   1.0756 B(  2-C ,  4-C ) :   1.2132
B(  2-C ,  8-C ) :   0.1521 B(  4-C ,  5-H ) :   1.0570 B(  4-C ,  6-C ) :   1.2177
B(  4-C , 10-C ) :   0.1136 B(  6-C ,  7-H ) :   1.0806 B(  6-C ,  8-C ) :   1.2188
B(  8-C ,  9-H ) :   1.0756 B(  8-C , 10-C ) :   1.2132 B( 10-C , 11-H ) :   1.0570
B( 12-C , 13-H ) :   0.9144 B( 12-C , 14-H ) :   0.8862 B( 12-C , 15-C ) :   1.8955
B( 15-C , 16-H ) :   0.8862 B( 15-C , 17-H ) :   0.9144

MP2 TOTAL ENERGY:     -310.208207749 Eh
FINAL SINGLE POINT ENERGY      -310.208207749023

DIPOLE MOMENT
-------------
                                X             Y             Z
Electronic contribution:     -0.00000       0.00002      -3.19493
Nuclear contribution   :      0.00001      -0.00001       3.00991
                        -----------------------------------------
Total Dipole Moment    :      0.00000       0.00000      -0.18503
                        -----------------------------------------
Magnitude (a.u.)       :      0.18503
Magnitude (Debye)      :      0.47030

Rotational constants in cm-1:     0.085514     0.080676     0.075862
Rotational constants in MHz :  2563.643557  2418.613894  2274.290642

                             ****ORCA TERMINATED NORMALLY****
TOTAL RUN TIME: 0 days 0 hours 36 minutes 29 seconds 819 msec
