                         Program Version 5.0.4 -  RELEASE  -
|  1> ! ri-mp2 aug-cc-pvdz aug-cc-pvdz/c tightscf
|  2> %pal nprocs 16 end
|  3> %maxcore 3800
|  4> %base "DZ_S66by10_15_0.95_dimer"
|  5> %scf STABPerform true end
|  6>
|  7> *xyz 0 1
|  8> C   -0.70150294   -0.29062770    2.40688440
|  9> H   -1.18329596    0.39564777    3.09887422
| 10> H    0.34956157   -0.03032157    2.30783303
| 11> H   -0.79405685   -1.29160545    2.82403929
| 12> C   -1.44854625   -0.24487664    1.09181530
| 13> O   -2.66045000   -0.42847909    1.03434577
| 14> N   -0.67005656    0.00591656    0.00977691
| 15> H    0.32667532    0.12256396    0.14159284
| 16> C   -1.22705457    0.08979374   -1.31996754
| 17> H   -2.29202426   -0.10650119   -1.24087756
| 18> H   -1.07780169    1.07994030   -1.74854354
| 19> H   -0.77662849   -0.64799919   -1.98337273
| 20> C    1.96603659   -2.34706923    0.68047178
| 21> H    2.52426139   -3.25707246    0.47456378
| 22> H    1.03734473   -2.35359868    0.11614636
| 23> H    1.70681766   -2.32362253    1.73741278
| 24> C    2.73367253   -1.09265719    0.34423504
| 25> O    2.18848589    0.00877961    0.28726265
| 26> N    4.06043074   -1.26147096    0.13048707
| 27> H    4.43675204   -2.18871665    0.20724439
| 28> C    4.94766893   -0.15500498   -0.15846147
| 29> H    4.33347655    0.73580479   -0.23828518
| 30> H    5.67508348   -0.01553925    0.63894184
| 31> H    5.47265922   -0.31498671   -1.09760380
| 32> *
| 33>
| 34> $new_job
| 35> ! ri-mp2 aug-cc-pvtz aug-cc-pvtz/c tightscf
| 36> %pal nprocs 16 end
| 37> %maxcore 3800
| 38> %base "TZ_S66by10_15_0.95_dimer"
| 39>
| 40> *xyz 0 1
| 41> C   -0.70150294   -0.29062770    2.40688440
| 42> H   -1.18329596    0.39564777    3.09887422
| 43> H    0.34956157   -0.03032157    2.30783303
| 44> H   -0.79405685   -1.29160545    2.82403929
| 45> C   -1.44854625   -0.24487664    1.09181530
| 46> O   -2.66045000   -0.42847909    1.03434577
| 47> N   -0.67005656    0.00591656    0.00977691
| 48> H    0.32667532    0.12256396    0.14159284
| 49> C   -1.22705457    0.08979374   -1.31996754
| 50> H   -2.29202426   -0.10650119   -1.24087756
| 51> H   -1.07780169    1.07994030   -1.74854354
| 52> H   -0.77662849   -0.64799919   -1.98337273
| 53> C    1.96603659   -2.34706923    0.68047178
| 54> H    2.52426139   -3.25707246    0.47456378
| 55> H    1.03734473   -2.35359868    0.11614636
| 56> H    1.70681766   -2.32362253    1.73741278
| 57> C    2.73367253   -1.09265719    0.34423504
| 58> O    2.18848589    0.00877961    0.28726265
| 59> N    4.06043074   -1.26147096    0.13048707
| 60> H    4.43675204   -2.18871665    0.20724439
| 61> C    4.94766893   -0.15500498   -0.15846147
| 62> H    4.33347655    0.73580479   -0.23828518
| 63> H    5.67508348   -0.01553925    0.63894184
| 64> H    5.47265922   -0.31498671   -1.09760380
| 65> *
| 66>
| 67> $new_job
| 68> ! ri-mp2 aug-cc-pvqz aug-cc-pvqz/c tightscf
| 69> %pal nprocs 16 end
| 70> %maxcore 3800
| 71> %base "QZ_S66by10_15_0.95_dimer"
| 72>
| 73> *xyz 0 1
| 74> C   -0.70150294   -0.29062770    2.40688440
| 75> H   -1.18329596    0.39564777    3.09887422
| 76> H    0.34956157   -0.03032157    2.30783303
| 77> H   -0.79405685   -1.29160545    2.82403929
| 78> C   -1.44854625   -0.24487664    1.09181530
| 79> O   -2.66045000   -0.42847909    1.03434577
| 80> N   -0.67005656    0.00591656    0.00977691
| 81> H    0.32667532    0.12256396    0.14159284
| 82> C   -1.22705457    0.08979374   -1.31996754
| 83> H   -2.29202426   -0.10650119   -1.24087756
| 84> H   -1.07780169    1.07994030   -1.74854354
| 85> H   -0.77662849   -0.64799919   -1.98337273
| 86> C    1.96603659   -2.34706923    0.68047178
| 87> H    2.52426139   -3.25707246    0.47456378
| 88> H    1.03734473   -2.35359868    0.11614636
| 89> H    1.70681766   -2.32362253    1.73741278
| 90> C    2.73367253   -1.09265719    0.34423504
| 91> O    2.18848589    0.00877961    0.28726265
| 92> N    4.06043074   -1.26147096    0.13048707
| 93> H    4.43675204   -2.18871665    0.20724439
| 94> C    4.94766893   -0.15500498   -0.15846147
| 95> H    4.33347655    0.73580479   -0.23828518
| 96> H    5.67508348   -0.01553925    0.63894184
| 97> H    5.47265922   -0.31498671   -1.09760380
| 98> *
| 99>
|100>
|101>
|102>
|103>                          ****END OF INPUT****
 Total Charge           Charge          ....    0
 Multiplicity           Mult            ....    1
 Number of Electrons    NEL             ....   80
MP2 TOTAL ENERGY:     -495.709088843 Eh
FINAL SINGLE POINT ENERGY      -495.709088843249
MP2 TOTAL ENERGY:     -496.155715833 Eh
FINAL SINGLE POINT ENERGY      -496.155715833330

CARTESIAN COORDINATES (ANGSTROEM)
---------------------------------
  C     -0.701503   -0.290628    2.406884
  H     -1.183296    0.395648    3.098874
  H      0.349562   -0.030322    2.307833
  H     -0.794057   -1.291605    2.824039
  C     -1.448546   -0.244877    1.091815
  O     -2.660450   -0.428479    1.034346
  N     -0.670057    0.005917    0.009777
  H      0.326675    0.122564    0.141593
  C     -1.227055    0.089794   -1.319968
  H     -2.292024   -0.106501   -1.240878
  H     -1.077802    1.079940   -1.748544
  H     -0.776628   -0.647999   -1.983373
  C      1.966037   -2.347069    0.680472
  H      2.524261   -3.257072    0.474564
  H      1.037345   -2.353599    0.116146
  H      1.706818   -2.323623    1.737413
  C      2.733673   -1.092657    0.344235
  O      2.188486    0.008780    0.287263
  N      4.060431   -1.261471    0.130487
  H      4.436752   -2.188717    0.207244
  C      4.947669   -0.155005   -0.158461
  H      4.333477    0.735805   -0.238285
  H      5.675083   -0.015539    0.638942
  H      5.472659   -0.314987   -1.097604

 Multiplicity           Mult            ....    1
 Number of Electrons    NEL             ....   80
 Basis Dimension        Dim             .... 1444

ORBITAL ENERGIES
----------------

  NO   OCC          E(Eh)            E(eV)
   0   2.0000     -20.534906      -558.7832
   1   2.0000     -20.485699      -557.4442
   2   2.0000     -15.606706      -424.6801
   3   2.0000     -15.550471      -423.1498
   4   2.0000     -11.372573      -309.4635
   5   2.0000     -11.322942      -308.1129
   6   2.0000     -11.271500      -306.7131
   7   2.0000     -11.251021      -306.1558
   8   2.0000     -11.234297      -305.7008
   9   2.0000     -11.213959      -305.1473
  10   2.0000      -1.400839       -38.1188
  11   2.0000      -1.349214       -36.7140
  12   2.0000      -1.253421       -34.1073
  13   2.0000      -1.202928       -32.7333
  14   2.0000      -1.038831       -28.2680
  15   2.0000      -0.997398       -27.1406
  16   2.0000      -0.951122       -25.8813
  17   2.0000      -0.909971       -24.7616
  18   2.0000      -0.815662       -22.1953
  19   2.0000      -0.761866       -20.7314
  20   2.0000      -0.712004       -19.3746
  21   2.0000      -0.678332       -18.4584
  22   2.0000      -0.668511       -18.1911
  23   2.0000      -0.653688       -17.7878
  24   2.0000      -0.632029       -17.1984
  25   2.0000      -0.612569       -16.6688
  26   2.0000      -0.606005       -16.4902
  27   2.0000      -0.604023       -16.4363
  28   2.0000      -0.574141       -15.6232
  29   2.0000      -0.567610       -15.4455
  30   2.0000      -0.563257       -15.3270
  31   2.0000      -0.556303       -15.1378
  32   2.0000      -0.534045       -14.5321
  33   2.0000      -0.527358       -14.3501
  34   2.0000      -0.522367       -14.2143
  35   2.0000      -0.484006       -13.1705
  36   2.0000      -0.447996       -12.1906
  37   2.0000      -0.416401       -11.3309
  38   2.0000      -0.398180       -10.8350
  39   2.0000      -0.365048        -9.9335
  40   0.0000       0.011590         0.3154
  41   0.0000       0.024965         0.6793
  42   0.0000       0.027386         0.7452
  43   0.0000       0.032008         0.8710
  44   0.0000       0.041991         1.1426

MULLIKEN ATOMIC CHARGES
-----------------------
   0 C :   -0.862988
   1 H :    0.301380
   2 H :    0.305581
   3 H :    0.254263
   4 C :    0.958470
   5 O :   -0.926068
   6 N :   -0.409806
   7 H :    0.393220
   8 C :   -0.917832
   9 H :    0.304786
  10 H :    0.304389
  11 H :    0.331386
  12 C :   -0.806883
  13 H :    0.348725
  14 H :    0.251861
  15 H :    0.283121
  16 C :    1.045152
  17 O :   -0.953293
  18 N :   -0.546900
  19 H :    0.245216
  20 C :   -0.830813
  21 H :    0.294569
  22 H :    0.304434
  23 H :    0.328033
Sum of atomic charges:    0.0000000

LOEWDIN ATOMIC CHARGES
----------------------
   0 C :    0.880362
   1 H :   -0.298502
   2 H :   -0.340941
   3 H :   -0.297824
   4 C :   -0.835390
   5 O :    0.690998
   6 N :    0.815772
   7 H :   -0.783126
   8 C :    0.784453
   9 H :   -0.366962
  10 H :   -0.283706
  11 H :   -0.286846
  12 C :    0.911670
  13 H :   -0.300693
  14 H :   -0.306063
  15 H :   -0.290329
  16 C :   -0.744432
  17 O :    0.836237
  18 N :    0.842714
  19 H :   -0.502316
  20 C :    0.801287
  21 H :   -0.360446
  22 H :   -0.281924
  23 H :   -0.283993

  Mayer bond orders larger than 0.100000
B(  0-C ,  1-H ) :   0.9433 B(  0-C ,  2-H ) :   0.9613 B(  0-C ,  3-H ) :   0.9435
B(  0-C ,  4-C ) :   0.9166 B(  0-C ,  5-O ) :   0.1237 B(  4-C ,  5-O ) :   1.0285
B(  4-C ,  6-N ) :   1.1983 B(  5-O ,  6-N ) :   0.2626 B(  6-N ,  7-H ) :   0.7925
B(  6-N ,  8-C ) :   0.8505 B(  8-C ,  9-H ) :   0.9309 B(  8-C , 10-H ) :   0.9569
B(  8-C , 11-H ) :   0.9099 B( 12-C , 13-H ) :   0.9373 B( 12-C , 14-H ) :   0.9634
B( 12-C , 15-H ) :   0.8940 B( 12-C , 16-C ) :   0.8149 B( 16-C , 17-O ) :   1.2797
B( 16-C , 18-N ) :   1.1174 B( 18-N , 19-H ) :   0.9862 B( 18-N , 20-C ) :   0.8862
B( 20-C , 21-H ) :   0.9218 B( 20-C , 22-H ) :   0.9404 B( 20-C , 23-H ) :   0.9212

MP2 TOTAL ENERGY:     -496.297440683 Eh
FINAL SINGLE POINT ENERGY      -496.297440682530

DIPOLE MOMENT
-------------
                                X             Y             Z
Electronic contribution:     -3.22363       1.01921       0.67544
Nuclear contribution   :      6.35035      -2.08878      -0.92012
                        -----------------------------------------
Total Dipole Moment    :      3.12673      -1.06957      -0.24469
                        -----------------------------------------
Magnitude (a.u.)       :      3.31365
Magnitude (Debye)      :      8.42263

Rotational constants in cm-1:     0.080176     0.017019     0.015835
Rotational constants in MHz :  2403.606107   510.204051   474.728408

                             ****ORCA TERMINATED NORMALLY****
TOTAL RUN TIME: 0 days 7 hours 14 minutes 12 seconds 561 msec
