                         Program Version 5.0.4 -  RELEASE  -
|  1> ! ri-mp2 aug-cc-pvdz aug-cc-pvdz/c tightscf
|  2> %pal nprocs 16 end
|  3> %maxcore 3800
|  4> %base "DZ_S66by10_9_1.05_dimer"
|  5> %scf STABPerform true end
|  6>
|  7> *xyz 0 1
|  8> N   -0.89345122   -0.04384432   -0.04299745
|  9> H    0.09694826   -0.25605945   -0.07106993
| 10> H   -1.36843879   -0.93339065    0.03383773
| 11> C   -1.17578248    0.75790769    1.14523719
| 12> H   -2.24162660    0.97221601    1.19502464
| 13> H   -0.88078955    0.30424674    2.09720910
| 14> H   -0.66300572    1.71432940    1.06080916
| 15> O    2.45963284   -0.03077342    0.03574462
| 16> H    2.74165896    0.33917534   -0.80411946
| 17> C    2.84554669    0.88081084    1.05518078
| 18> H    2.52236364    0.45117817    1.99824733
| 19> H    3.92660193    1.01989431    1.09422075
| 20> H    2.36707213    1.85440868    0.94000425
| 21> *
| 22>
| 23> $new_job
| 24> ! ri-mp2 aug-cc-pvtz aug-cc-pvtz/c tightscf
| 25> %pal nprocs 16 end
| 26> %maxcore 3800
| 27> %base "TZ_S66by10_9_1.05_dimer"
| 28>
| 29> *xyz 0 1
| 30> N   -0.89345122   -0.04384432   -0.04299745
| 31> H    0.09694826   -0.25605945   -0.07106993
| 32> H   -1.36843879   -0.93339065    0.03383773
| 33> C   -1.17578248    0.75790769    1.14523719
| 34> H   -2.24162660    0.97221601    1.19502464
| 35> H   -0.88078955    0.30424674    2.09720910
| 36> H   -0.66300572    1.71432940    1.06080916
| 37> O    2.45963284   -0.03077342    0.03574462
| 38> H    2.74165896    0.33917534   -0.80411946
| 39> C    2.84554669    0.88081084    1.05518078
| 40> H    2.52236364    0.45117817    1.99824733
| 41> H    3.92660193    1.01989431    1.09422075
| 42> H    2.36707213    1.85440868    0.94000425
| 43> *
| 44>
| 45> $new_job
| 46> ! ri-mp2 aug-cc-pvqz aug-cc-pvqz/c tightscf
| 47> %pal nprocs 16 end
| 48> %maxcore 3800
| 49> %base "QZ_S66by10_9_1.05_dimer"
| 50>
| 51> *xyz 0 1
| 52> N   -0.89345122   -0.04384432   -0.04299745
| 53> H    0.09694826   -0.25605945   -0.07106993
| 54> H   -1.36843879   -0.93339065    0.03383773
| 55> C   -1.17578248    0.75790769    1.14523719
| 56> H   -2.24162660    0.97221601    1.19502464
| 57> H   -0.88078955    0.30424674    2.09720910
| 58> H   -0.66300572    1.71432940    1.06080916
| 59> O    2.45963284   -0.03077342    0.03574462
| 60> H    2.74165896    0.33917534   -0.80411946
| 61> C    2.84554669    0.88081084    1.05518078
| 62> H    2.52236364    0.45117817    1.99824733
| 63> H    3.92660193    1.01989431    1.09422075
| 64> H    2.36707213    1.85440868    0.94000425
| 65> *
| 66>
| 67>
| 68>
| 69>
| 70>                          ****END OF INPUT****
 Total Charge           Charge          ....    0
 Multiplicity           Mult            ....    1
 Number of Electrons    NEL             ....   36
MP2 TOTAL ENERGY:     -211.000138794 Eh
FINAL SINGLE POINT ENERGY      -211.000138794183
MP2 TOTAL ENERGY:     -211.201109806 Eh
FINAL SINGLE POINT ENERGY      -211.201109805997

CARTESIAN COORDINATES (ANGSTROEM)
---------------------------------
  N     -0.893451   -0.043844   -0.042997
  H      0.096948   -0.256059   -0.071070
  H     -1.368439   -0.933391    0.033838
  C     -1.175782    0.757908    1.145237
  H     -2.241627    0.972216    1.195025
  H     -0.880790    0.304247    2.097209
  H     -0.663006    1.714329    1.060809
  O      2.459633   -0.030773    0.035745
  H      2.741659    0.339175   -0.804119
  C      2.845547    0.880811    1.055181
  H      2.522364    0.451178    1.998247
  H      3.926602    1.019894    1.094221
  H      2.367072    1.854409    0.940004

 Multiplicity           Mult            ....    1
 Number of Electrons    NEL             ....   36
 Basis Dimension        Dim             ....  734

ORBITAL ENERGIES
----------------

  NO   OCC          E(Eh)            E(eV)
   0   2.0000     -20.566237      -559.6357
   1   2.0000     -15.522694      -422.3940
   2   2.0000     -11.276208      -306.8412
   3   2.0000     -11.231123      -305.6144
   4   2.0000      -1.367387       -37.2085
   5   2.0000      -1.158035       -31.5117
   6   2.0000      -0.933772       -25.4092
   7   2.0000      -0.885974       -24.1086
   8   2.0000      -0.700847       -19.0710
   9   2.0000      -0.653234       -17.7754
  10   2.0000      -0.626737       -17.0544
  11   2.0000      -0.603040       -16.4095
  12   2.0000      -0.592679       -16.1276
  13   2.0000      -0.545285       -14.8380
  14   2.0000      -0.515602       -14.0303
  15   2.0000      -0.505853       -13.7650
  16   2.0000      -0.460658       -12.5351
  17   2.0000      -0.381130       -10.3711
  18   0.0000       0.024169         0.6577
  19   0.0000       0.033556         0.9131
  20   0.0000       0.037356         1.0165
  21   0.0000       0.040025         1.0891
  22   0.0000       0.049464         1.3460

MULLIKEN ATOMIC CHARGES
-----------------------
   0 N :   -0.650991
   1 H :    0.304202
   2 H :    0.244417
   3 C :   -0.771925
   4 H :    0.402831
   5 H :    0.228821
   6 H :    0.261863
   7 O :   -0.741827
   8 H :    0.351065
   9 C :   -0.626618
  10 H :    0.283454
  11 H :    0.456103
  12 H :    0.258605
Sum of atomic charges:   -0.0000000

LOEWDIN ATOMIC CHARGES
----------------------
   0 N :    1.254764
   1 H :   -0.603563
   2 H :   -0.526869
   3 C :    0.733887
   4 H :   -0.315703
   5 H :   -0.293909
   6 H :   -0.321601
   7 O :    1.248523
   8 H :   -0.791531
   9 C :    0.586097
  10 H :   -0.337974
  11 H :   -0.314907
  12 H :   -0.317213

  Mayer bond orders larger than 0.100000
B(  0-N ,  1-H ) :   0.8893 B(  0-N ,  2-H ) :   0.9333 B(  0-N ,  3-C ) :   0.9813
B(  3-C ,  4-H ) :   0.8250 B(  3-C ,  5-H ) :   0.9540 B(  3-C ,  6-H ) :   0.9248
B(  7-O ,  8-H ) :   0.8700 B(  7-O ,  9-C ) :   0.8719 B(  9-C , 10-H ) :   0.9141
B(  9-C , 11-H ) :   0.7717 B(  9-C , 12-H ) :   0.9184

MP2 TOTAL ENERGY:     -211.263681376 Eh
FINAL SINGLE POINT ENERGY      -211.263681376302

DIPOLE MOMENT
-------------
                                X             Y             Z
Electronic contribution:      1.68257      -1.58584      -2.16505
Nuclear contribution   :     -1.03853       1.89663       2.51703
                        -----------------------------------------
Total Dipole Moment    :      0.64403       0.31078       0.35198
                        -----------------------------------------
Magnitude (a.u.)       :      0.79703
Magnitude (Debye)      :      2.02589

Rotational constants in cm-1:     0.408638     0.075106     0.065559
Rotational constants in MHz : 12250.645008  2251.612531  1965.403261

                             ****ORCA TERMINATED NORMALLY****
TOTAL RUN TIME: 0 days 0 hours 28 minutes 24 seconds 649 msec
