                         Program Version 5.0.4 -  RELEASE  -
|  1> ! ri-mp2 aug-cc-pvdz aug-cc-pvdz/c tightscf
|  2> %pal nprocs 16 end
|  3> %maxcore 3800
|  4> %base "DZ_S66by10_35_0.8_dimer"
|  5> %scf STABPerform true end
|  6>
|  7> *xyz 0 1
|  8> C   -2.53038287   -0.41757533    0.68130643
|  9> H   -2.55988603   -0.98278998   -0.25015619
| 10> H   -2.55403625   -1.13386495    1.50265790
| 11> H   -3.43621355    0.18414376    0.73677133
| 12> C   -1.27615683    0.44363493    0.75002483
| 13> H   -1.27808384    1.02521785    1.67508548
| 14> H   -1.28033899    1.16855564   -0.06715806
| 15> C    0.00220470   -0.38071620    0.67899257
| 16> H    0.00782894   -1.11141304    1.49383122
| 17> H    0.00624866   -0.96052270   -0.24882046
| 18> C    1.26833347    0.46239635    0.74936913
| 19> H    1.26201985    1.04425029    1.67424645
| 20> H    1.26163488    1.18705711   -0.06803458
| 21> C    2.53496627   -0.38042469    0.68068636
| 22> H    2.57244024   -0.94571652   -0.25045186
| 23> H    3.43198117    0.23441492    0.73557772
| 24> H    2.56920771   -1.09581003    1.50245608
| 25> C   -0.00046445    0.04541857    4.58856419
| 26> C    0.00060729   -0.09471254    6.10829714
| 27> H   -0.88642873    0.36936350    6.54166655
| 28> H    0.00985880   -1.14549279    6.40130701
| 29> H    0.87926752    0.38495202    6.54194021
| 30> C   -1.23991979   -0.63623346    4.01466568
| 31> H   -1.26321900   -0.54727634    2.92783649
| 32> H   -1.25200542   -1.69750986    4.26767888
| 33> H   -2.15086351   -0.18394221    4.40975080
| 34> C    1.25214066   -0.61212224    4.01509385
| 35> H    1.27346745   -0.52383657    2.92812289
| 36> H    1.28527120   -1.67268308    4.26918617
| 37> H    2.15395290   -0.14147893    4.40951497
| 38> C   -0.01471232    1.52521106    4.21394291
| 39> H    0.86305367    2.03579808    4.61289804
| 40> H   -0.01523653    1.65166598    3.13029122
| 41> H   -0.90281827    2.01854477    4.61173105
| 42> *
| 43>
| 44> $new_job
| 45> ! ri-mp2 aug-cc-pvtz aug-cc-pvtz/c tightscf
| 46> %pal nprocs 16 end
| 47> %maxcore 3800
| 48> %base "TZ_S66by10_35_0.8_dimer"
| 49>
| 50> *xyz 0 1
| 51> C   -2.53038287   -0.41757533    0.68130643
| 52> H   -2.55988603   -0.98278998   -0.25015619
| 53> H   -2.55403625   -1.13386495    1.50265790
| 54> H   -3.43621355    0.18414376    0.73677133
| 55> C   -1.27615683    0.44363493    0.75002483
| 56> H   -1.27808384    1.02521785    1.67508548
| 57> H   -1.28033899    1.16855564   -0.06715806
| 58> C    0.00220470   -0.38071620    0.67899257
| 59> H    0.00782894   -1.11141304    1.49383122
| 60> H    0.00624866   -0.96052270   -0.24882046
| 61> C    1.26833347    0.46239635    0.74936913
| 62> H    1.26201985    1.04425029    1.67424645
| 63> H    1.26163488    1.18705711   -0.06803458
| 64> C    2.53496627   -0.38042469    0.68068636
| 65> H    2.57244024   -0.94571652   -0.25045186
| 66> H    3.43198117    0.23441492    0.73557772
| 67> H    2.56920771   -1.09581003    1.50245608
| 68> C   -0.00046445    0.04541857    4.58856419
| 69> C    0.00060729   -0.09471254    6.10829714
| 70> H   -0.88642873    0.36936350    6.54166655
| 71> H    0.00985880   -1.14549279    6.40130701
| 72> H    0.87926752    0.38495202    6.54194021
| 73> C   -1.23991979   -0.63623346    4.01466568
| 74> H   -1.26321900   -0.54727634    2.92783649
| 75> H   -1.25200542   -1.69750986    4.26767888
| 76> H   -2.15086351   -0.18394221    4.40975080
| 77> C    1.25214066   -0.61212224    4.01509385
| 78> H    1.27346745   -0.52383657    2.92812289
| 79> H    1.28527120   -1.67268308    4.26918617
| 80> H    2.15395290   -0.14147893    4.40951497
| 81> C   -0.01471232    1.52521106    4.21394291
| 82> H    0.86305367    2.03579808    4.61289804
| 83> H   -0.01523653    1.65166598    3.13029122
| 84> H   -0.90281827    2.01854477    4.61173105
| 85> *
| 86>
| 87> $new_job
| 88> ! ri-mp2 aug-cc-pvqz aug-cc-pvqz/c tightscf
| 89> %pal nprocs 16 end
| 90> %maxcore 3800
| 91> %base "QZ_S66by10_35_0.8_dimer"
| 92>
| 93> *xyz 0 1
| 94> C   -2.53038287   -0.41757533    0.68130643
| 95> H   -2.55988603   -0.98278998   -0.25015619
| 96> H   -2.55403625   -1.13386495    1.50265790
| 97> H   -3.43621355    0.18414376    0.73677133
| 98> C   -1.27615683    0.44363493    0.75002483
| 99> H   -1.27808384    1.02521785    1.67508548
|100> H   -1.28033899    1.16855564   -0.06715806
|101> C    0.00220470   -0.38071620    0.67899257
|102> H    0.00782894   -1.11141304    1.49383122
|103> H    0.00624866   -0.96052270   -0.24882046
|104> C    1.26833347    0.46239635    0.74936913
|105> H    1.26201985    1.04425029    1.67424645
|106> H    1.26163488    1.18705711   -0.06803458
|107> C    2.53496627   -0.38042469    0.68068636
|108> H    2.57244024   -0.94571652   -0.25045186
|109> H    3.43198117    0.23441492    0.73557772
|110> H    2.56920771   -1.09581003    1.50245608
|111> C   -0.00046445    0.04541857    4.58856419
|112> C    0.00060729   -0.09471254    6.10829714
|113> H   -0.88642873    0.36936350    6.54166655
|114> H    0.00985880   -1.14549279    6.40130701
|115> H    0.87926752    0.38495202    6.54194021
|116> C   -1.23991979   -0.63623346    4.01466568
|117> H   -1.26321900   -0.54727634    2.92783649
|118> H   -1.25200542   -1.69750986    4.26767888
|119> H   -2.15086351   -0.18394221    4.40975080
|120> C    1.25214066   -0.61212224    4.01509385
|121> H    1.27346745   -0.52383657    2.92812289
|122> H    1.28527120   -1.67268308    4.26918617
|123> H    2.15395290   -0.14147893    4.40951497
|124> C   -0.01471232    1.52521106    4.21394291
|125> H    0.86305367    2.03579808    4.61289804
|126> H   -0.01523653    1.65166598    3.13029122
|127> H   -0.90281827    2.01854477    4.61173105
|128> *
|129>
|130>
|131>
|132>
|133>                          ****END OF INPUT****
 Total Charge           Charge          ....    0
 Multiplicity           Mult            ....    1
 Number of Electrons    NEL             ....   84
MP2 TOTAL ENERGY:     -394.236714093 Eh
FINAL SINGLE POINT ENERGY      -394.236714093363
MP2 TOTAL ENERGY:     -394.627058085 Eh
FINAL SINGLE POINT ENERGY      -394.627058084843

CARTESIAN COORDINATES (ANGSTROEM)
---------------------------------
  C     -2.530383   -0.417575    0.681306
  H     -2.559886   -0.982790   -0.250156
  H     -2.554036   -1.133865    1.502658
  H     -3.436214    0.184144    0.736771
  C     -1.276157    0.443635    0.750025
  H     -1.278084    1.025218    1.675085
  H     -1.280339    1.168556   -0.067158
  C      0.002205   -0.380716    0.678993
  H      0.007829   -1.111413    1.493831
  H      0.006249   -0.960523   -0.248820
  C      1.268333    0.462396    0.749369
  H      1.262020    1.044250    1.674246
  H      1.261635    1.187057   -0.068035
  C      2.534966   -0.380425    0.680686
  H      2.572440   -0.945717   -0.250452
  H      3.431981    0.234415    0.735578
  H      2.569208   -1.095810    1.502456
  C     -0.000464    0.045419    4.588564
  C      0.000607   -0.094713    6.108297
  H     -0.886429    0.369364    6.541667
  H      0.009859   -1.145493    6.401307
  H      0.879268    0.384952    6.541940
  C     -1.239920   -0.636233    4.014666
  H     -1.263219   -0.547276    2.927836
  H     -1.252005   -1.697510    4.267679
  H     -2.150864   -0.183942    4.409751
  C      1.252141   -0.612122    4.015094
  H      1.273467   -0.523837    2.928123
  H      1.285271   -1.672683    4.269186
  H      2.153953   -0.141479    4.409515
  C     -0.014712    1.525211    4.213943
  H      0.863054    2.035798    4.612898
  H     -0.015237    1.651666    3.130291
  H     -0.902818    2.018545    4.611731

 Multiplicity           Mult            ....    1
 Number of Electrons    NEL             ....   84
 Basis Dimension        Dim             .... 1904

ORBITAL ENERGIES
----------------

  NO   OCC          E(Eh)            E(eV)
   0   2.0000     -11.223792      -305.4149
   1   2.0000     -11.212031      -305.0949
   2   2.0000     -11.211943      -305.0925
   3   2.0000     -11.209905      -305.0370
   4   2.0000     -11.206276      -304.9383
   5   2.0000     -11.206274      -304.9382
   6   2.0000     -11.203384      -304.8596
   7   2.0000     -11.202614      -304.8386
   8   2.0000     -11.200002      -304.7676
   9   2.0000     -11.199983      -304.7670
  10   2.0000      -1.106171       -30.1004
  11   2.0000      -1.083766       -29.4908
  12   2.0000      -1.018311       -27.7097
  13   2.0000      -0.928946       -25.2779
  14   2.0000      -0.927781       -25.2462
  15   2.0000      -0.927453       -25.2373
  16   2.0000      -0.920541       -25.0492
  17   2.0000      -0.821964       -22.3668
  18   2.0000      -0.788244       -21.4492
  19   2.0000      -0.731935       -19.9170
  20   2.0000      -0.662680       -18.0324
  21   2.0000      -0.619545       -16.8587
  22   2.0000      -0.611559       -16.6414
  23   2.0000      -0.600580       -16.3426
  24   2.0000      -0.599448       -16.3118
  25   2.0000      -0.597990       -16.2721
  26   2.0000      -0.559593       -15.2273
  27   2.0000      -0.551961       -15.0196
  28   2.0000      -0.547916       -14.9096
  29   2.0000      -0.546975       -14.8840
  30   2.0000      -0.528209       -14.3733
  31   2.0000      -0.511064       -13.9068
  32   2.0000      -0.508217       -13.8293
  33   2.0000      -0.506042       -13.7701
  34   2.0000      -0.494546       -13.4573
  35   2.0000      -0.478455       -13.0194
  36   2.0000      -0.469595       -12.7783
  37   2.0000      -0.459547       -12.5049
  38   2.0000      -0.450394       -12.2559
  39   2.0000      -0.449115       -12.2210
  40   2.0000      -0.448121       -12.1940
  41   2.0000      -0.439824       -11.9682
  42   0.0000       0.022298         0.6068
  43   0.0000       0.028003         0.7620
  44   0.0000       0.028308         0.7703
  45   0.0000       0.029561         0.8044
  46   0.0000       0.039990         1.0882

MULLIKEN ATOMIC CHARGES
-----------------------
   0 C :   -1.012473
   1 H :    0.225674
   2 H :    0.212485
   3 H :    0.222310
   4 C :   -0.519147
   5 H :    0.431686
   6 H :    0.161809
   7 C :   -0.204854
   8 H :    0.442766
   9 H :    0.263744
  10 C :   -0.519238
  11 H :    0.430728
  12 H :    0.162606
  13 C :   -1.012630
  14 H :    0.225806
  15 H :    0.222377
  16 H :    0.212409
  17 C :    2.234605
  18 C :   -1.247609
  19 H :    0.205562
  20 H :    0.199674
  21 H :    0.205672
  22 C :   -1.110155
  23 H :    0.262239
  24 H :    0.197358
  25 H :    0.182766
  26 C :   -1.110158
  27 H :    0.262452
  28 H :    0.196696
  29 H :    0.183052
  30 C :   -1.165846
  31 H :    0.144963
  32 H :    0.267051
  33 H :    0.145616
Sum of atomic charges:    0.0000000

LOEWDIN ATOMIC CHARGES
----------------------
   0 C :    0.954495
   1 H :   -0.274320
   2 H :   -0.304927
   3 H :   -0.267128
   4 C :    0.532969
   5 H :   -0.322240
   6 H :   -0.253658
   7 C :    0.530465
   8 H :   -0.311758
   9 H :   -0.249825
  10 C :    0.532932
  11 H :   -0.322050
  12 H :   -0.253643
  13 C :    0.954476
  14 H :   -0.274285
  15 H :   -0.267078
  16 H :   -0.304967
  17 C :   -0.278474
  18 C :    0.910839
  19 H :   -0.270606
  20 H :   -0.270299
  21 H :   -0.270507
  22 C :    0.920544
  23 H :   -0.436477
  24 H :   -0.244001
  25 H :   -0.243993
  26 C :    0.920537
  27 H :   -0.436518
  28 H :   -0.244027
  29 H :   -0.244045
  30 C :    0.927671
  31 H :   -0.254960
  32 H :   -0.330216
  33 H :   -0.254926

  Mayer bond orders larger than 0.100000
B(  0-C ,  1-H ) :   1.0457 B(  0-C ,  2-H ) :   0.9830 B(  0-C ,  3-H ) :   1.0684
B(  0-C ,  4-C ) :   0.8571 B(  0-C ,  7-C ) :  -0.1008 B(  4-C ,  5-H ) :   0.8778
B(  4-C ,  6-H ) :   1.0673 B(  4-C ,  7-C ) :   0.7261 B(  7-C ,  8-H ) :   0.9761
B(  7-C ,  9-H ) :   0.9748 B(  7-C , 10-C ) :   0.7262 B(  7-C , 13-C ) :  -0.1004
B( 10-C , 11-H ) :   0.8795 B( 10-C , 12-H ) :   1.0664 B( 10-C , 13-C ) :   0.8568
B( 13-C , 14-H ) :   1.0457 B( 13-C , 15-H ) :   1.0681 B( 13-C , 16-H ) :   0.9830
B( 17-C , 18-C ) :  -0.2713 B( 17-C , 19-H ) :  -0.2457 B( 17-C , 20-H ) :  -0.2300
B( 17-C , 21-H ) :  -0.2456 B( 17-C , 22-C ) :   0.4383 B( 17-C , 23-H ) :  -0.2190
B( 17-C , 26-C ) :   0.4375 B( 17-C , 27-H ) :  -0.2204 B( 17-C , 30-C ) :   0.2173
B( 17-C , 31-H ) :  -0.1288 B( 17-C , 33-H ) :  -0.1293 B( 18-C , 19-H ) :   1.1460
B( 18-C , 20-H ) :   1.1393 B( 18-C , 21-H ) :   1.1458 B( 18-C , 22-C ) :   0.1913
B( 18-C , 26-C ) :   0.1916 B( 18-C , 30-C ) :   0.1846 B( 22-C , 23-H ) :   0.9871
B( 22-C , 24-H ) :   1.0464 B( 22-C , 25-H ) :   1.1017 B( 22-C , 30-C ) :   0.1137
B( 26-C , 27-H ) :   0.9877 B( 26-C , 28-H ) :   1.0469 B( 26-C , 29-H ) :   1.1008
B( 26-C , 30-C ) :   0.1133 B( 30-C , 31-H ) :   1.1731 B( 30-C , 32-H ) :   0.9781
B( 30-C , 33-H ) :   1.1725

MP2 TOTAL ENERGY:     -394.742480470 Eh
FINAL SINGLE POINT ENERGY      -394.742480469815

DIPOLE MOMENT
-------------
                                X             Y             Z
Electronic contribution:     -0.00438       0.61451      -0.03425
Nuclear contribution   :      0.00408      -0.57011      -0.05180
                        -----------------------------------------
Total Dipole Moment    :     -0.00030       0.04440      -0.08605
                        -----------------------------------------
Magnitude (a.u.)       :      0.09683
Magnitude (Debye)      :      0.24612

Rotational constants in cm-1:     0.043895     0.024574     0.018443
Rotational constants in MHz :  1315.950123   736.716491   552.910885

                             ****ORCA TERMINATED NORMALLY****
TOTAL RUN TIME: 1 days 1 hours 45 minutes 14 seconds 683 msec
