                         Program Version 5.0.4 -  RELEASE  -
|  1> ! ri-mp2 aug-cc-pvdz aug-cc-pvdz/c tightscf
|  2> %pal nprocs 16 end
|  3> %maxcore 3800
|  4> %base "DZ_S66by10_24_0.95_dimer"
|  5>
|  6> *xyz 0 1
|  7> C    0.71264532    1.12099570    0.06054078
|  8> H    1.35784165    1.98639917    0.12773717
|  9> C    1.25823573   -0.15925190    0.12423352
| 10> H    2.32495428   -0.28709988    0.24674303
| 11> C    0.42688496   -1.27452666    0.04265043
| 12> H    0.85044465   -2.26843268    0.09474995
| 13> C   -0.94957784   -1.11007406   -0.10031360
| 14> H   -1.59445570   -1.97627370   -0.16371348
| 15> C   -1.49552564    0.17105056   -0.16154602
| 16> H   -2.56378279    0.29922115   -0.27370311
| 17> C   -0.66382760    1.28664289   -0.08340143
| 18> H   -1.08690070    2.28100020   -0.13288613
| 19> C    1.88880471    1.11068566    3.42723526
| 20> H    2.53364983    1.97686941    3.49098598
| 21> C    2.43475783   -0.17046543    3.48875499
| 22> H    3.50296472   -0.29861248    3.60149921
| 23> C    1.60310835   -1.28606554    3.41010457
| 24> H    2.02619006   -2.28041797    3.45975823
| 25> C    0.22670679   -1.12043051    3.26538782
| 26> H   -0.41839580   -1.98584075    3.19775519
| 27> C   -0.31885308    0.15980224    3.20142199
| 28> H   -1.38548111    0.28763145    3.07824323
| 29> C    0.51242387    1.27508300    3.28349293
| 30> H    0.08889899    2.26898804    3.23112400
| 31> *
| 32>
| 33> $new_job
| 34> ! ri-mp2 aug-cc-pvtz aug-cc-pvtz/c tightscf
| 35> %pal nprocs 16 end
| 36> %maxcore 3800
| 37> %base "TZ_S66by10_24_0.95_dimer"
| 38>
| 39> *xyz 0 1
| 40> C    0.71264532    1.12099570    0.06054078
| 41> H    1.35784165    1.98639917    0.12773717
| 42> C    1.25823573   -0.15925190    0.12423352
| 43> H    2.32495428   -0.28709988    0.24674303
| 44> C    0.42688496   -1.27452666    0.04265043
| 45> H    0.85044465   -2.26843268    0.09474995
| 46> C   -0.94957784   -1.11007406   -0.10031360
| 47> H   -1.59445570   -1.97627370   -0.16371348
| 48> C   -1.49552564    0.17105056   -0.16154602
| 49> H   -2.56378279    0.29922115   -0.27370311
| 50> C   -0.66382760    1.28664289   -0.08340143
| 51> H   -1.08690070    2.28100020   -0.13288613
| 52> C    1.88880471    1.11068566    3.42723526
| 53> H    2.53364983    1.97686941    3.49098598
| 54> C    2.43475783   -0.17046543    3.48875499
| 55> H    3.50296472   -0.29861248    3.60149921
| 56> C    1.60310835   -1.28606554    3.41010457
| 57> H    2.02619006   -2.28041797    3.45975823
| 58> C    0.22670679   -1.12043051    3.26538782
| 59> H   -0.41839580   -1.98584075    3.19775519
| 60> C   -0.31885308    0.15980224    3.20142199
| 61> H   -1.38548111    0.28763145    3.07824323
| 62> C    0.51242387    1.27508300    3.28349293
| 63> H    0.08889899    2.26898804    3.23112400
| 64> *
| 65>
| 66> $new_job
| 67> ! ri-mp2 aug-cc-pvqz aug-cc-pvqz/c tightscf
| 68> %pal nprocs 16 end
| 69> %maxcore 3800
| 70> %base "QZ_S66by10_24_0.95_dimer"
| 71>
| 72> *xyz 0 1
| 73> C    0.71264532    1.12099570    0.06054078
| 74> H    1.35784165    1.98639917    0.12773717
| 75> C    1.25823573   -0.15925190    0.12423352
| 76> H    2.32495428   -0.28709988    0.24674303
| 77> C    0.42688496   -1.27452666    0.04265043
| 78> H    0.85044465   -2.26843268    0.09474995
| 79> C   -0.94957784   -1.11007406   -0.10031360
| 80> H   -1.59445570   -1.97627370   -0.16371348
| 81> C   -1.49552564    0.17105056   -0.16154602
| 82> H   -2.56378279    0.29922115   -0.27370311
| 83> C   -0.66382760    1.28664289   -0.08340143
| 84> H   -1.08690070    2.28100020   -0.13288613
| 85> C    1.88880471    1.11068566    3.42723526
| 86> H    2.53364983    1.97686941    3.49098598
| 87> C    2.43475783   -0.17046543    3.48875499
| 88> H    3.50296472   -0.29861248    3.60149921
| 89> C    1.60310835   -1.28606554    3.41010457
| 90> H    2.02619006   -2.28041797    3.45975823
| 91> C    0.22670679   -1.12043051    3.26538782
| 92> H   -0.41839580   -1.98584075    3.19775519
| 93> C   -0.31885308    0.15980224    3.20142199
| 94> H   -1.38548111    0.28763145    3.07824323
| 95> C    0.51242387    1.27508300    3.28349293
| 96> H    0.08889899    2.26898804    3.23112400
| 97> *
| 98>
| 99>
|100>
|101>
|102>                          ****END OF INPUT****
 Total Charge           Charge          ....    0
 Multiplicity           Mult            ....    1
 Number of Electrons    NEL             ....   84
MP2 TOTAL ENERGY:     -463.090213437 Eh
FINAL SINGLE POINT ENERGY      -463.090213437320
MP2 TOTAL ENERGY:     -463.499335573 Eh
FINAL SINGLE POINT ENERGY      -463.499335572830

CARTESIAN COORDINATES (ANGSTROEM)
---------------------------------
  C      0.712645    1.120996    0.060541
  H      1.357842    1.986399    0.127737
  C      1.258236   -0.159252    0.124234
  H      2.324954   -0.287100    0.246743
  C      0.426885   -1.274527    0.042650
  H      0.850445   -2.268433    0.094750
  C     -0.949578   -1.110074   -0.100314
  H     -1.594456   -1.976274   -0.163713
  C     -1.495526    0.171051   -0.161546
  H     -2.563783    0.299221   -0.273703
  C     -0.663828    1.286643   -0.083401
  H     -1.086901    2.281000   -0.132886
  C      1.888805    1.110686    3.427235
  H      2.533650    1.976869    3.490986
  C      2.434758   -0.170465    3.488755
  H      3.502965   -0.298612    3.601499
  C      1.603108   -1.286066    3.410105
  H      2.026190   -2.280418    3.459758
  C      0.226707   -1.120431    3.265388
  H     -0.418396   -1.985841    3.197755
  C     -0.318853    0.159802    3.201422
  H     -1.385481    0.287631    3.078243
  C      0.512424    1.275083    3.283493
  H      0.088899    2.268988    3.231124

 Multiplicity           Mult            ....    1
 Number of Electrons    NEL             ....   84
 Basis Dimension        Dim             .... 1512

ORBITAL ENERGIES
----------------

  NO   OCC          E(Eh)            E(eV)
   0   2.0000     -11.229172      -305.5613
   1   2.0000     -11.229168      -305.5612
   2   2.0000     -11.228245      -305.5361
   3   2.0000     -11.228236      -305.5358
   4   2.0000     -11.228095      -305.5320
   5   2.0000     -11.228084      -305.5317
   6   2.0000     -11.226960      -305.5011
   7   2.0000     -11.226952      -305.5009
   8   2.0000     -11.226799      -305.4967
   9   2.0000     -11.226792      -305.4965
  10   2.0000     -11.225401      -305.4587
  11   2.0000     -11.225386      -305.4583
  12   2.0000      -1.147387       -31.2220
  13   2.0000      -1.141087       -31.0506
  14   2.0000      -1.011544       -27.5255
  15   2.0000      -1.009246       -27.4630
  16   2.0000      -1.008020       -27.4296
  17   2.0000      -1.006189       -27.3798
  18   2.0000      -0.819278       -22.2937
  19   2.0000      -0.818555       -22.2740
  20   2.0000      -0.818373       -22.2691
  21   2.0000      -0.817348       -22.2412
  22   2.0000      -0.705437       -19.1959
  23   2.0000      -0.703075       -19.1317
  24   2.0000      -0.639024       -17.3887
  25   2.0000      -0.638807       -17.3828
  26   2.0000      -0.613422       -16.6921
  27   2.0000      -0.612986       -16.6802
  28   2.0000      -0.584068       -15.8933
  29   2.0000      -0.582877       -15.8609
  30   2.0000      -0.582303       -15.8453
  31   2.0000      -0.581166       -15.8143
  32   2.0000      -0.519419       -14.1341
  33   2.0000      -0.489591       -13.3225
  34   2.0000      -0.489551       -13.3214
  35   2.0000      -0.489291       -13.3143
  36   2.0000      -0.489153       -13.3105
  37   2.0000      -0.475124       -12.9288
  38   2.0000      -0.350741        -9.5441
  39   2.0000      -0.333383        -9.0718
  40   2.0000      -0.326090        -8.8733
  41   2.0000      -0.312292        -8.4979
  42   0.0000       0.024458         0.6655
  43   0.0000       0.027670         0.7529
  44   0.0000       0.027897         0.7591
  45   0.0000       0.037677         1.0252
  46   0.0000       0.038125         1.0374

MULLIKEN ATOMIC CHARGES
-----------------------
   0 C :   -0.214162
   1 H :    0.290365
   2 C :   -0.368768
   3 H :    0.232356
   4 C :   -0.235716
   5 H :    0.283909
   6 C :   -0.261234
   7 H :    0.294279
   8 C :   -0.342932
   9 H :    0.300828
  10 C :   -0.269425
  11 H :    0.290511
  12 C :   -0.261284
  13 H :    0.294341
  14 C :   -0.343137
  15 H :    0.300910
  16 C :   -0.269475
  17 H :    0.290434
  18 C :   -0.213826
  19 H :    0.290204
  20 C :   -0.368415
  21 H :    0.232359
  22 C :   -0.235807
  23 H :    0.283686
Sum of atomic charges:    0.0000000

LOEWDIN ATOMIC CHARGES
----------------------
   0 C :    0.309669
   1 H :   -0.313126
   2 C :    0.307747
   3 H :   -0.313473
   4 C :    0.311622
   5 H :   -0.313243
   6 C :    0.324714
   7 H :   -0.320394
   8 C :    0.324661
   9 H :   -0.322126
  10 C :    0.323066
  11 H :   -0.319075
  12 C :    0.324770
  13 H :   -0.320425
  14 C :    0.324719
  15 H :   -0.322140
  16 C :    0.323102
  17 H :   -0.319085
  18 C :    0.309658
  19 H :   -0.313157
  20 C :    0.307668
  21 H :   -0.313522
  22 C :    0.311623
  23 H :   -0.313251

  Mayer bond orders larger than 0.100000
B(  0-C ,  1-H ) :   1.0562 B(  0-C ,  2-C ) :   1.1596 B(  0-C ,  6-C ) :   0.2099
B(  0-C , 10-C ) :   1.2126 B(  2-C ,  3-H ) :   1.0296 B(  2-C ,  4-C ) :   1.1472
B(  2-C ,  8-C ) :   0.1453 B(  2-C , 14-C ) :  -0.1225 B(  4-C ,  5-H ) :   1.0625
B(  4-C ,  6-C ) :   1.2067 B(  4-C , 10-C ) :   0.1943 B(  6-C ,  7-H ) :   1.0570
B(  6-C ,  8-C ) :   1.2452 B(  8-C ,  9-H ) :   1.0496 B(  8-C , 10-C ) :   1.2481
B(  8-C , 20-C ) :  -0.1224 B( 10-C , 11-H ) :   1.0538 B( 12-C , 13-H ) :   1.0569
B( 12-C , 14-C ) :   1.2451 B( 12-C , 18-C ) :   0.2100 B( 12-C , 22-C ) :   1.2067
B( 14-C , 15-H ) :   1.0495 B( 14-C , 16-C ) :   1.2479 B( 14-C , 20-C ) :   0.1452
B( 16-C , 17-H ) :   1.0539 B( 16-C , 18-C ) :   1.2124 B( 16-C , 22-C ) :   0.1943
B( 18-C , 19-H ) :   1.0564 B( 18-C , 20-C ) :   1.1594 B( 20-C , 21-H ) :   1.0294
B( 20-C , 22-C ) :   1.1470 B( 22-C , 23-H ) :   1.0628

MP2 TOTAL ENERGY:     -463.628344859 Eh
FINAL SINGLE POINT ENERGY      -463.628344858745

DIPOLE MOMENT
-------------
                                X             Y             Z
Electronic contribution:     -0.00011       0.00001       0.00001
Nuclear contribution   :      0.00013      -0.00001      -0.00023
                        -----------------------------------------
Total Dipole Moment    :      0.00002       0.00000      -0.00022
                        -----------------------------------------
Magnitude (a.u.)       :      0.00022
Magnitude (Debye)      :      0.00055

Rotational constants in cm-1:     0.054362     0.025031     0.023504
Rotational constants in MHz :  1629.719998   750.397154   704.622226

                             ****ORCA TERMINATED NORMALLY****
TOTAL RUN TIME: 0 days 1 hours 54 minutes 25 seconds 389 msec
