                         Program Version 5.0.4 -  RELEASE  -
|  1> ! ri-mp2 aug-cc-pvdz aug-cc-pvdz/c tightscf
|  2> %pal nprocs 16 end
|  3> %maxcore 3800
|  4> %base "DZ_S66by10_32_0.7_dimer"
|  5> %scf STABPerform true end
|  6>
|  7> *xyz 0 1
|  8> N   -0.05545357   -0.94799090    0.01001028
|  9> H   -0.05731609   -1.95771330    0.05505287
| 10> C   -1.31395971   -0.33514498   -0.06458622
| 11> O   -2.32889664   -1.00790087   -0.12310273
| 12> C   -1.24835877    1.11605191   -0.06650860
| 13> H   -2.16434937    1.67533298   -0.14710244
| 14> C   -0.05308010    1.73142748    0.03419541
| 15> H    0.04811054    2.80642986    0.04341968
| 16> N    1.11592628    1.02759107    0.13516893
| 17> H    1.99665515    1.49727976    0.26162029
| 18> C    1.17534700   -0.35380470    0.17616616
| 19> O    2.21463146   -0.96646542    0.33517250
| 20> C    0.65972194   -0.17900731    2.37641483
| 21> H    1.65554021   -0.53299316    2.26219610
| 22> C   -0.48488214    0.20745038    2.48260667
| 23> H   -1.48976470    0.53615072    2.58297084
| 24> *
| 25>
| 26> $new_job
| 27> ! ri-mp2 aug-cc-pvtz aug-cc-pvtz/c tightscf
| 28> %pal nprocs 16 end
| 29> %maxcore 3800
| 30> %base "TZ_S66by10_32_0.7_dimer"
| 31>
| 32> *xyz 0 1
| 33> N   -0.05545357   -0.94799090    0.01001028
| 34> H   -0.05731609   -1.95771330    0.05505287
| 35> C   -1.31395971   -0.33514498   -0.06458622
| 36> O   -2.32889664   -1.00790087   -0.12310273
| 37> C   -1.24835877    1.11605191   -0.06650860
| 38> H   -2.16434937    1.67533298   -0.14710244
| 39> C   -0.05308010    1.73142748    0.03419541
| 40> H    0.04811054    2.80642986    0.04341968
| 41> N    1.11592628    1.02759107    0.13516893
| 42> H    1.99665515    1.49727976    0.26162029
| 43> C    1.17534700   -0.35380470    0.17616616
| 44> O    2.21463146   -0.96646542    0.33517250
| 45> C    0.65972194   -0.17900731    2.37641483
| 46> H    1.65554021   -0.53299316    2.26219610
| 47> C   -0.48488214    0.20745038    2.48260667
| 48> H   -1.48976470    0.53615072    2.58297084
| 49> *
| 50>
| 51> $new_job
| 52> ! ri-mp2 aug-cc-pvqz aug-cc-pvqz/c tightscf
| 53> %pal nprocs 16 end
| 54> %maxcore 3800
| 55> %base "QZ_S66by10_32_0.7_dimer"
| 56>
| 57> *xyz 0 1
| 58> N   -0.05545357   -0.94799090    0.01001028
| 59> H   -0.05731609   -1.95771330    0.05505287
| 60> C   -1.31395971   -0.33514498   -0.06458622
| 61> O   -2.32889664   -1.00790087   -0.12310273
| 62> C   -1.24835877    1.11605191   -0.06650860
| 63> H   -2.16434937    1.67533298   -0.14710244
| 64> C   -0.05308010    1.73142748    0.03419541
| 65> H    0.04811054    2.80642986    0.04341968
| 66> N    1.11592628    1.02759107    0.13516893
| 67> H    1.99665515    1.49727976    0.26162029
| 68> C    1.17534700   -0.35380470    0.17616616
| 69> O    2.21463146   -0.96646542    0.33517250
| 70> C    0.65972194   -0.17900731    2.37641483
| 71> H    1.65554021   -0.53299316    2.26219610
| 72> C   -0.48488214    0.20745038    2.48260667
| 73> H   -1.48976470    0.53615072    2.58297084
| 74> *
| 75>
| 76>
| 77>
| 78>
| 79>                          ****END OF INPUT****
 Total Charge           Charge          ....    0
 Multiplicity           Mult            ....    1
 Number of Electrons    NEL             ....   72
MP2 TOTAL ENERGY:     -490.846545135 Eh
FINAL SINGLE POINT ENERGY      -490.846545135110
MP2 TOTAL ENERGY:     -491.265503756 Eh
FINAL SINGLE POINT ENERGY      -491.265503756156

CARTESIAN COORDINATES (ANGSTROEM)
---------------------------------
  N     -0.055454   -0.947991    0.010010
  H     -0.057316   -1.957713    0.055053
  C     -1.313960   -0.335145   -0.064586
  O     -2.328897   -1.007901   -0.123103
  C     -1.248359    1.116052   -0.066509
  H     -2.164349    1.675333   -0.147102
  C     -0.053080    1.731427    0.034195
  H      0.048111    2.806430    0.043420
  N      1.115926    1.027591    0.135169
  H      1.996655    1.497280    0.261620
  C      1.175347   -0.353805    0.176166
  O      2.214631   -0.966465    0.335172
  C      0.659722   -0.179007    2.376415
  H      1.655540   -0.532993    2.262196
  C     -0.484882    0.207450    2.482607
  H     -1.489765    0.536151    2.582971

 Multiplicity           Mult            ....    1
 Number of Electrons    NEL             ....   72
 Basis Dimension        Dim             .... 1076

ORBITAL ENERGIES
----------------

  NO   OCC          E(Eh)            E(eV)
   0   2.0000     -20.543442      -559.0155
   1   2.0000     -20.540444      -558.9339
   2   2.0000     -15.639635      -425.5761
   3   2.0000     -15.614809      -424.9006
   4   2.0000     -11.419562      -310.7421
   5   2.0000     -11.378006      -309.6113
   6   2.0000     -11.336037      -308.4693
   7   2.0000     -11.254995      -306.2640
   8   2.0000     -11.238545      -305.8164
   9   2.0000     -11.234017      -305.6932
  10   2.0000      -1.440231       -39.1907
  11   2.0000      -1.398671       -38.0598
  12   2.0000      -1.313975       -35.7551
  13   2.0000      -1.243267       -33.8310
  14   2.0000      -1.089081       -29.6354
  15   2.0000      -1.037458       -28.2307
  16   2.0000      -0.932484       -25.3742
  17   2.0000      -0.900494       -24.5037
  18   2.0000      -0.806224       -21.9385
  19   2.0000      -0.785687       -21.3796
  20   2.0000      -0.764623       -20.8064
  21   2.0000      -0.711671       -19.3656
  22   2.0000      -0.701596       -19.0914
  23   2.0000      -0.678213       -18.4551
  24   2.0000      -0.656567       -17.8661
  25   2.0000      -0.651344       -17.7240
  26   2.0000      -0.615525       -16.7493
  27   2.0000      -0.602240       -16.3878
  28   2.0000      -0.570199       -15.5159
  29   2.0000      -0.531011       -14.4495
  30   2.0000      -0.486220       -13.2307
  31   2.0000      -0.451053       -12.2738
  32   2.0000      -0.447277       -12.1710
  33   2.0000      -0.402916       -10.9639
  34   2.0000      -0.393216       -10.7000
  35   2.0000      -0.368734       -10.0338
  36   0.0000       0.013101         0.3565
  37   0.0000       0.027166         0.7392
  38   0.0000       0.035100         0.9551
  39   0.0000       0.037459         1.0193
  40   0.0000       0.044898         1.2217

MULLIKEN ATOMIC CHARGES
-----------------------
   0 N :   -0.640303
   1 H :    0.041751
   2 C :    1.316114
   3 O :   -0.912619
   4 C :   -0.416014
   5 H :    0.271705
   6 C :   -0.240936
   7 H :    0.386686
   8 N :   -0.581726
   9 H :    0.041080
  10 C :    1.901117
  11 O :   -0.943975
  12 C :   -0.498072
  13 H :    0.469123
  14 C :   -0.670631
  15 H :    0.476700
Sum of atomic charges:   -0.0000000

LOEWDIN ATOMIC CHARGES
----------------------
   0 N :    0.761390
   1 H :   -0.494102
   2 C :   -0.912546
   3 O :    0.706334
   4 C :    0.296299
   5 H :   -0.335812
   6 C :    0.218575
   7 H :   -0.282513
   8 N :    0.808384
   9 H :   -0.466776
  10 C :   -1.131734
  11 O :    0.774254
  12 C :    0.445412
  13 H :   -0.519186
  14 C :    0.528254
  15 H :   -0.396232

  Mayer bond orders larger than 0.100000
B(  0-N ,  1-H ) :   1.1699 B(  0-N ,  2-C ) :   1.0057 B(  0-N ,  3-O ) :   0.2356
B(  0-N , 10-C ) :   1.0256 B(  0-N , 11-O ) :   0.2406 B(  2-C ,  3-O ) :   0.8615
B(  2-C ,  4-C ) :   1.1421 B(  3-O ,  4-C ) :   0.2714 B(  4-C ,  5-H ) :   1.0311
B(  4-C ,  6-C ) :   1.4632 B(  5-H ,  6-C ) :  -0.1039 B(  6-C ,  7-H ) :   0.9664
B(  6-C ,  8-N ) :   0.9197 B(  8-N ,  9-H ) :   1.1848 B(  8-N , 10-C ) :   1.0360
B(  8-N , 11-O ) :   0.2256 B( 10-C , 11-O ) :   0.7723 B( 10-C , 12-C ) :  -0.2064
B( 12-C , 13-H ) :   0.8015 B( 12-C , 14-C ) :   2.6623 B( 14-C , 15-H ) :   0.7807

MP2 TOTAL ENERGY:     -491.401801988 Eh
FINAL SINGLE POINT ENERGY      -491.401801988040

DIPOLE MOMENT
-------------
                                X             Y             Z
Electronic contribution:      0.38130      -1.85398      -1.91779
Nuclear contribution   :      0.08327       3.75301       1.88271
                        -----------------------------------------
Total Dipole Moment    :      0.46457       1.89904      -0.03508
                        -----------------------------------------
Magnitude (a.u.)       :      1.95535
Magnitude (Debye)      :      4.97011

Rotational constants in cm-1:     0.068488     0.044139     0.042437
Rotational constants in MHz :  2053.216086  1323.255032  1272.228040

                             ****ORCA TERMINATED NORMALLY****
TOTAL RUN TIME: 0 days 2 hours 56 minutes 58 seconds 514 msec
