                         Program Version 5.0.4 -  RELEASE  -
|  1> ! ri-mp2 aug-cc-pvdz aug-cc-pvdz/c tightscf
|  2> %pal nprocs 16 end
|  3> %maxcore 3800
|  4> %base "DZ_S66by10_60_0.9_dimer"
|  5> %scf STABPerform true end
|  6>
|  7> *xyz 0 1
|  8> C   -0.61056257    0.22750310   -0.17060207
|  9> H    0.10738506    0.86143603   -0.63420924
| 10> C   -1.38627573   -0.52532550    0.37997353
| 11> H   -2.08070324   -1.17406739    0.85437937
| 12> C    2.65174149   -0.56022583    0.40625103
| 13> O    2.39756244    0.39587642   -0.29258672
| 14> O    1.70383687   -1.33456606    0.97393763
| 15> H    0.84283749   -0.96726707    0.70616649
| 16> C    4.02737665   -1.04167566    0.75640193
| 17> H    4.76576246   -0.40412557    0.28555161
| 18> H    4.15358716   -1.02982093    1.83643726
| 19> H    4.14965379   -2.06952020    0.42316760
| 20> *
| 21>
| 22> $new_job
| 23> ! ri-mp2 aug-cc-pvtz aug-cc-pvtz/c tightscf
| 24> %pal nprocs 16 end
| 25> %maxcore 3800
| 26> %base "TZ_S66by10_60_0.9_dimer"
| 27>
| 28> *xyz 0 1
| 29> C   -0.61056257    0.22750310   -0.17060207
| 30> H    0.10738506    0.86143603   -0.63420924
| 31> C   -1.38627573   -0.52532550    0.37997353
| 32> H   -2.08070324   -1.17406739    0.85437937
| 33> C    2.65174149   -0.56022583    0.40625103
| 34> O    2.39756244    0.39587642   -0.29258672
| 35> O    1.70383687   -1.33456606    0.97393763
| 36> H    0.84283749   -0.96726707    0.70616649
| 37> C    4.02737665   -1.04167566    0.75640193
| 38> H    4.76576246   -0.40412557    0.28555161
| 39> H    4.15358716   -1.02982093    1.83643726
| 40> H    4.14965379   -2.06952020    0.42316760
| 41> *
| 42>
| 43> $new_job
| 44> ! ri-mp2 aug-cc-pvqz aug-cc-pvqz/c tightscf
| 45> %pal nprocs 16 end
| 46> %maxcore 3800
| 47> %base "QZ_S66by10_60_0.9_dimer"
| 48>
| 49> *xyz 0 1
| 50> C   -0.61056257    0.22750310   -0.17060207
| 51> H    0.10738506    0.86143603   -0.63420924
| 52> C   -1.38627573   -0.52532550    0.37997353
| 53> H   -2.08070324   -1.17406739    0.85437937
| 54> C    2.65174149   -0.56022583    0.40625103
| 55> O    2.39756244    0.39587642   -0.29258672
| 56> O    1.70383687   -1.33456606    0.97393763
| 57> H    0.84283749   -0.96726707    0.70616649
| 58> C    4.02737665   -1.04167566    0.75640193
| 59> H    4.76576246   -0.40412557    0.28555161
| 60> H    4.15358716   -1.02982093    1.83643726
| 61> H    4.14965379   -2.06952020    0.42316760
| 62> *
| 63>
| 64>
| 65>
| 66>
| 67>                          ****END OF INPUT****
 Total Charge           Charge          ....    0
 Multiplicity           Mult            ....    1
 Number of Electrons    NEL             ....   46
MP2 TOTAL ENERGY:     -305.623437868 Eh
FINAL SINGLE POINT ENERGY      -305.623437867778
MP2 TOTAL ENERGY:     -305.894398312 Eh
FINAL SINGLE POINT ENERGY      -305.894398312479

CARTESIAN COORDINATES (ANGSTROEM)
---------------------------------
  C     -0.610563    0.227503   -0.170602
  H      0.107385    0.861436   -0.634209
  C     -1.386276   -0.525326    0.379974
  H     -2.080703   -1.174067    0.854379
  C      2.651741   -0.560226    0.406251
  O      2.397562    0.395876   -0.292587
  O      1.703837   -1.334566    0.973938
  H      0.842837   -0.967267    0.706166
  C      4.027377   -1.041676    0.756402
  H      4.765762   -0.404126    0.285552
  H      4.153587   -1.029821    1.836437
  H      4.149654   -2.069520    0.423168

 Multiplicity           Mult            ....    1
 Number of Electrons    NEL             ....   46
 Basis Dimension        Dim             ....  756

ORBITAL ENERGIES
----------------

  NO   OCC          E(Eh)            E(eV)
   0   2.0000     -20.597100      -560.4756
   1   2.0000     -20.544467      -559.0434
   2   2.0000     -11.385376      -309.8118
   3   2.0000     -11.255842      -306.2870
   4   2.0000     -11.251698      -306.1743
   5   2.0000     -11.239689      -305.8475
   6   2.0000      -1.457328       -39.6559
   7   2.0000      -1.355644       -36.8889
   8   2.0000      -1.044608       -28.4252
   9   2.0000      -1.024123       -27.8678
  10   2.0000      -0.817688       -22.2504
  11   2.0000      -0.777643       -21.1607
  12   2.0000      -0.706729       -19.2311
  13   2.0000      -0.690906       -18.8005
  14   2.0000      -0.671437       -18.2707
  15   2.0000      -0.645834       -17.5740
  16   2.0000      -0.579990       -15.7823
  17   2.0000      -0.570995       -15.5376
  18   2.0000      -0.556521       -15.1437
  19   2.0000      -0.479777       -13.0554
  20   2.0000      -0.457777       -12.4568
  21   2.0000      -0.421498       -11.4695
  22   2.0000      -0.420281       -11.4364
  23   0.0000       0.024202         0.6586
  24   0.0000       0.029183         0.7941
  25   0.0000       0.039139         1.0650
  26   0.0000       0.041877         1.1395
  27   0.0000       0.046881         1.2757

MULLIKEN ATOMIC CHARGES
-----------------------
   0 C :   -0.577987
   1 H :    0.656916
   2 C :   -0.652819
   3 H :    0.546947
   4 C :    0.874693
   5 O :   -0.734387
   6 O :   -0.594837
   7 H :    0.318581
   8 C :   -0.715416
   9 H :    0.300521
  10 H :    0.288950
  11 H :    0.288838
Sum of atomic charges:   -0.0000000

LOEWDIN ATOMIC CHARGES
----------------------
   0 C :    0.518213
   1 H :   -0.479794
   2 C :    0.566695
   3 H :   -0.441209
   4 C :   -1.017155
   5 O :    0.709935
   6 O :    1.268517
   7 H :   -1.063087
   8 C :    0.871678
   9 H :   -0.325312
  10 H :   -0.304162
  11 H :   -0.304319

  Mayer bond orders larger than 0.100000
B(  0-C ,  1-H ) :   0.5676 B(  0-C ,  2-C ) :   2.7060 B(  2-C ,  3-H ) :   0.7302
B(  4-C ,  5-O ) :   1.4964 B(  4-C ,  6-O ) :   1.0023 B(  4-C ,  8-C ) :   0.8424
B(  6-O ,  7-H ) :   0.8816 B(  8-C ,  9-H ) :   0.9693 B(  8-C , 10-H ) :   0.9250
B(  8-C , 11-H ) :   0.9257

MP2 TOTAL ENERGY:     -305.980897933 Eh
FINAL SINGLE POINT ENERGY      -305.980897932535

DIPOLE MOMENT
-------------
                                X             Y             Z
Electronic contribution:     -2.43885       1.14461      -0.83343
Nuclear contribution   :      2.46052      -1.69769       1.23726
                        -----------------------------------------
Total Dipole Moment    :      0.02167      -0.55308       0.40383
                        -----------------------------------------
Magnitude (a.u.)       :      0.68516
Magnitude (Debye)      :      1.74153

Rotational constants in cm-1:     0.303016     0.054980     0.046938
Rotational constants in MHz :  9084.194184  1648.254001  1407.174712

                             ****ORCA TERMINATED NORMALLY****
TOTAL RUN TIME: 0 days 0 hours 37 minutes 44 seconds 977 msec
