                         Program Version 5.0.4 -  RELEASE  -
|  1> ! ri-mp2 aug-cc-pvdz aug-cc-pvdz/c tightscf
|  2> %pal nprocs 16 end
|  3> %maxcore 3800
|  4> %base "DZ_S66by10_63_0.95_dimer"
|  5>
|  6> *xyz 0 1
|  7> C    0.60678496    1.33042185    0.31643451
|  8> H    1.24649846    2.20226434    0.33035231
|  9> C    1.11808466    0.08724886    0.68511652
| 10> H    2.15005753   -0.00388678    0.99375824
| 11> C    0.29290229   -1.03608737    0.66910727
| 12> H    0.68849686   -2.00096149    0.95537797
| 13> C   -1.04283174   -0.91671112    0.28818964
| 14> H   -1.68270956   -1.78848825    0.27934903
| 15> C   -1.55358838    0.32734899   -0.07994317
| 16> H   -2.58923495    0.42028908   -0.37734619
| 17> C   -0.72804164    1.45084316   -0.06684834
| 18> H   -1.12362379    2.41565865   -0.35386143
| 19> C    0.43539576   -0.29575747    3.88000346
| 20> O    1.63088844   -0.13180672    3.95651923
| 21> O   -0.14410591   -1.50716243    4.07944181
| 22> H    0.59034495   -2.10827092    4.27247993
| 23> C   -0.58648847    0.74817405    3.55932228
| 24> H   -0.10819405    1.71912040    3.51249951
| 25> H   -1.03928857    0.51497786    2.59661423
| 26> H   -1.37133948    0.74263755    4.31182176
| 27> *
| 28>
| 29> $new_job
| 30> ! ri-mp2 aug-cc-pvtz aug-cc-pvtz/c tightscf
| 31> %pal nprocs 16 end
| 32> %maxcore 3800
| 33> %base "TZ_S66by10_63_0.95_dimer"
| 34>
| 35> *xyz 0 1
| 36> C    0.60678496    1.33042185    0.31643451
| 37> H    1.24649846    2.20226434    0.33035231
| 38> C    1.11808466    0.08724886    0.68511652
| 39> H    2.15005753   -0.00388678    0.99375824
| 40> C    0.29290229   -1.03608737    0.66910727
| 41> H    0.68849686   -2.00096149    0.95537797
| 42> C   -1.04283174   -0.91671112    0.28818964
| 43> H   -1.68270956   -1.78848825    0.27934903
| 44> C   -1.55358838    0.32734899   -0.07994317
| 45> H   -2.58923495    0.42028908   -0.37734619
| 46> C   -0.72804164    1.45084316   -0.06684834
| 47> H   -1.12362379    2.41565865   -0.35386143
| 48> C    0.43539576   -0.29575747    3.88000346
| 49> O    1.63088844   -0.13180672    3.95651923
| 50> O   -0.14410591   -1.50716243    4.07944181
| 51> H    0.59034495   -2.10827092    4.27247993
| 52> C   -0.58648847    0.74817405    3.55932228
| 53> H   -0.10819405    1.71912040    3.51249951
| 54> H   -1.03928857    0.51497786    2.59661423
| 55> H   -1.37133948    0.74263755    4.31182176
| 56> *
| 57>
| 58> $new_job
| 59> ! ri-mp2 aug-cc-pvqz aug-cc-pvqz/c tightscf
| 60> %pal nprocs 16 end
| 61> %maxcore 3800
| 62> %base "QZ_S66by10_63_0.95_dimer"
| 63>
| 64> *xyz 0 1
| 65> C    0.60678496    1.33042185    0.31643451
| 66> H    1.24649846    2.20226434    0.33035231
| 67> C    1.11808466    0.08724886    0.68511652
| 68> H    2.15005753   -0.00388678    0.99375824
| 69> C    0.29290229   -1.03608737    0.66910727
| 70> H    0.68849686   -2.00096149    0.95537797
| 71> C   -1.04283174   -0.91671112    0.28818964
| 72> H   -1.68270956   -1.78848825    0.27934903
| 73> C   -1.55358838    0.32734899   -0.07994317
| 74> H   -2.58923495    0.42028908   -0.37734619
| 75> C   -0.72804164    1.45084316   -0.06684834
| 76> H   -1.12362379    2.41565865   -0.35386143
| 77> C    0.43539576   -0.29575747    3.88000346
| 78> O    1.63088844   -0.13180672    3.95651923
| 79> O   -0.14410591   -1.50716243    4.07944181
| 80> H    0.59034495   -2.10827092    4.27247993
| 81> C   -0.58648847    0.74817405    3.55932228
| 82> H   -0.10819405    1.71912040    3.51249951
| 83> H   -1.03928857    0.51497786    2.59661423
| 84> H   -1.37133948    0.74263755    4.31182176
| 85> *
| 86>
| 87>
| 88>
| 89>
| 90>                          ****END OF INPUT****
 Total Charge           Charge          ....    0
 Multiplicity           Mult            ....    1
 Number of Electrons    NEL             ....   74
MP2 TOTAL ENERGY:     -460.073944053 Eh
FINAL SINGLE POINT ENERGY      -460.073944052799
MP2 TOTAL ENERGY:     -460.476325188 Eh
FINAL SINGLE POINT ENERGY      -460.476325187578

CARTESIAN COORDINATES (ANGSTROEM)
---------------------------------
  C      0.606785    1.330422    0.316435
  H      1.246498    2.202264    0.330352
  C      1.118085    0.087249    0.685117
  H      2.150058   -0.003887    0.993758
  C      0.292902   -1.036087    0.669107
  H      0.688497   -2.000961    0.955378
  C     -1.042832   -0.916711    0.288190
  H     -1.682710   -1.788488    0.279349
  C     -1.553588    0.327349   -0.079943
  H     -2.589235    0.420289   -0.377346
  C     -0.728042    1.450843   -0.066848
  H     -1.123624    2.415659   -0.353861
  C      0.435396   -0.295757    3.880003
  O      1.630888   -0.131807    3.956519
  O     -0.144106   -1.507162    4.079442
  H      0.590345   -2.108271    4.272480
  C     -0.586488    0.748174    3.559322
  H     -0.108194    1.719120    3.512500
  H     -1.039289    0.514978    2.596614
  H     -1.371339    0.742638    4.311822

 Multiplicity           Mult            ....    1
 Number of Electrons    NEL             ....   74
 Basis Dimension        Dim             .... 1260

ORBITAL ENERGIES
----------------

  NO   OCC          E(Eh)            E(eV)
   0   2.0000     -20.605595      -560.7067
   1   2.0000     -20.541405      -558.9600
   2   2.0000     -11.381372      -309.7029
   3   2.0000     -11.239686      -305.8474
   4   2.0000     -11.239036      -305.8297
   5   2.0000     -11.238031      -305.8024
   6   2.0000     -11.237164      -305.7788
   7   2.0000     -11.236720      -305.7667
   8   2.0000     -11.235328      -305.7288
   9   2.0000     -11.229529      -305.5710
  10   2.0000      -1.458596       -39.6904
  11   2.0000      -1.354218       -36.8501
  12   2.0000      -1.155244       -31.4358
  13   2.0000      -1.020098       -27.7583
  14   2.0000      -1.019031       -27.7292
  15   2.0000      -1.017827       -27.6965
  16   2.0000      -0.828198       -22.5364
  17   2.0000      -0.827780       -22.5250
  18   2.0000      -0.813316       -22.1314
  19   2.0000      -0.713843       -19.4247
  20   2.0000      -0.701018       -19.0757
  21   2.0000      -0.672646       -18.3036
  22   2.0000      -0.647643       -17.6233
  23   2.0000      -0.645812       -17.5734
  24   2.0000      -0.623037       -16.9537
  25   2.0000      -0.592291       -16.1171
  26   2.0000      -0.591625       -16.0989
  27   2.0000      -0.578442       -15.7402
  28   2.0000      -0.563758       -15.3406
  29   2.0000      -0.556969       -15.1559
  30   2.0000      -0.499884       -13.6025
  31   2.0000      -0.498991       -13.5782
  32   2.0000      -0.498519       -13.5654
  33   2.0000      -0.479107       -13.0372
  34   2.0000      -0.449066       -12.2197
  35   2.0000      -0.342774        -9.3274
  36   2.0000      -0.341623        -9.2960
  37   0.0000       0.022688         0.6174
  38   0.0000       0.027952         0.7606
  39   0.0000       0.031575         0.8592
  40   0.0000       0.035807         0.9744
  41   0.0000       0.041286         1.1235

MULLIKEN ATOMIC CHARGES
-----------------------
   0 C :   -0.402651
   1 H :    0.306789
   2 C :   -0.239129
   3 H :    0.263844
   4 C :   -0.304121
   5 H :    0.320032
   6 C :   -0.334525
   7 H :    0.271589
   8 C :   -0.276325
   9 H :    0.318484
  10 C :   -0.301607
  11 H :    0.310607
  12 C :    1.238064
  13 O :   -0.870137
  14 O :   -0.761252
  15 H :    0.305353
  16 C :   -0.977155
  17 H :    0.337604
  18 H :    0.464663
  19 H :    0.329871
Sum of atomic charges:    0.0000000

LOEWDIN ATOMIC CHARGES
----------------------
   0 C :    0.328249
   1 H :   -0.315869
   2 C :    0.306871
   3 H :   -0.317878
   4 C :    0.309420
   5 H :   -0.315865
   6 C :    0.329480
   7 H :   -0.316365
   8 C :    0.329886
   9 H :   -0.320524
  10 C :    0.329191
  11 H :   -0.319902
  12 C :   -1.048178
  13 O :    0.707900
  14 O :    1.257017
  15 H :   -0.828762
  16 C :    0.858124
  17 H :   -0.306432
  18 H :   -0.377976
  19 H :   -0.288387

  Mayer bond orders larger than 0.100000
B(  0-C ,  1-H ) :   1.0489 B(  0-C ,  2-C ) :   1.2217 B(  0-C ,  6-C ) :   0.1818
B(  0-C , 10-C ) :   1.2159 B(  2-C ,  3-H ) :   1.0735 B(  2-C ,  4-C ) :   1.1784
B(  2-C ,  8-C ) :   0.1574 B(  4-C ,  5-H ) :   1.0339 B(  4-C ,  6-C ) :   1.1773
B(  4-C , 10-C ) :   0.1466 B(  6-C ,  7-H ) :   1.1083 B(  6-C ,  8-C ) :   1.2062
B(  8-C ,  9-H ) :   1.0592 B(  8-C , 10-C ) :   1.1953 B( 10-C , 11-H ) :   1.0609
B( 12-C , 13-O ) :   1.2542 B( 12-C , 14-O ) :   0.7082 B( 12-C , 16-C ) :   1.0326
B( 14-O , 15-H ) :   0.9110 B( 16-C , 17-H ) :   0.9368 B( 16-C , 18-H ) :   0.7789
B( 16-C , 19-H ) :   0.9434

MP2 TOTAL ENERGY:     -460.605509081 Eh
FINAL SINGLE POINT ENERGY      -460.605509081343

DIPOLE MOMENT
-------------
                                X             Y             Z
Electronic contribution:      2.52245      -2.27965       1.65740
Nuclear contribution   :     -3.22197       2.21233      -1.84233
                        -----------------------------------------
Total Dipole Moment    :     -0.69952      -0.06732      -0.18493
                        -----------------------------------------
Magnitude (a.u.)       :      0.72668
Magnitude (Debye)      :      1.84707

Rotational constants in cm-1:     0.072645     0.028301     0.026922
Rotational constants in MHz :  2177.846317   848.439391   807.104341

                             ****ORCA TERMINATED NORMALLY****
TOTAL RUN TIME: 0 days 0 hours 56 minutes 34 seconds 146 msec
