                         Program Version 5.0.4 -  RELEASE  -
|  1> ! ri-mp2 aug-cc-pvdz aug-cc-pvdz/c tightscf
|  2> %pal nprocs 16 end
|  3> %maxcore 3800
|  4> %base "DZ_S66by10_4_0.9_dimer"
|  5> %scf STABPerform true end
|  6>
|  7> *xyz 0 1
|  8> O   -0.39201845   -0.38471874    0.07607132
|  9> H   -0.91146085    0.41381204    0.17764877
| 10> H    0.52490382   -0.06848469    0.09051136
| 11> C    2.05149617   -2.26091762   -0.22781360
| 12> H    2.70145901   -3.12202950   -0.36072899
| 13> H    1.37052020   -2.18344556   -1.07167887
| 14> H    1.43847927   -2.39971361    0.65919476
| 15> C    2.80622825   -0.96290475   -0.09522009
| 16> O    2.22951280    0.11239011    0.06136865
| 17> N    4.15686137   -1.06040743   -0.15983806
| 18> H    4.55781300   -1.97094141   -0.28935316
| 19> C    5.02510348    0.09156303   -0.05039498
| 20> H    4.38860935    0.95986347    0.08438963
| 21> H    5.69069299    0.00010783    0.80569790
| 22> H    5.61956921    0.22098352   -0.95265417
| 23> *
| 24>
| 25> $new_job
| 26> ! ri-mp2 aug-cc-pvtz aug-cc-pvtz/c tightscf
| 27> %pal nprocs 16 end
| 28> %maxcore 3800
| 29> %base "TZ_S66by10_4_0.9_dimer"
| 30>
| 31> *xyz 0 1
| 32> O   -0.39201845   -0.38471874    0.07607132
| 33> H   -0.91146085    0.41381204    0.17764877
| 34> H    0.52490382   -0.06848469    0.09051136
| 35> C    2.05149617   -2.26091762   -0.22781360
| 36> H    2.70145901   -3.12202950   -0.36072899
| 37> H    1.37052020   -2.18344556   -1.07167887
| 38> H    1.43847927   -2.39971361    0.65919476
| 39> C    2.80622825   -0.96290475   -0.09522009
| 40> O    2.22951280    0.11239011    0.06136865
| 41> N    4.15686137   -1.06040743   -0.15983806
| 42> H    4.55781300   -1.97094141   -0.28935316
| 43> C    5.02510348    0.09156303   -0.05039498
| 44> H    4.38860935    0.95986347    0.08438963
| 45> H    5.69069299    0.00010783    0.80569790
| 46> H    5.61956921    0.22098352   -0.95265417
| 47> *
| 48>
| 49> $new_job
| 50> ! ri-mp2 aug-cc-pvqz aug-cc-pvqz/c tightscf
| 51> %pal nprocs 16 end
| 52> %maxcore 3800
| 53> %base "QZ_S66by10_4_0.9_dimer"
| 54>
| 55> *xyz 0 1
| 56> O   -0.39201845   -0.38471874    0.07607132
| 57> H   -0.91146085    0.41381204    0.17764877
| 58> H    0.52490382   -0.06848469    0.09051136
| 59> C    2.05149617   -2.26091762   -0.22781360
| 60> H    2.70145901   -3.12202950   -0.36072899
| 61> H    1.37052020   -2.18344556   -1.07167887
| 62> H    1.43847927   -2.39971361    0.65919476
| 63> C    2.80622825   -0.96290475   -0.09522009
| 64> O    2.22951280    0.11239011    0.06136865
| 65> N    4.15686137   -1.06040743   -0.15983806
| 66> H    4.55781300   -1.97094141   -0.28935316
| 67> C    5.02510348    0.09156303   -0.05039498
| 68> H    4.38860935    0.95986347    0.08438963
| 69> H    5.69069299    0.00010783    0.80569790
| 70> H    5.61956921    0.22098352   -0.95265417
| 71> *
| 72>
| 73>
| 74>
| 75>
| 76>                          ****END OF INPUT****
 Total Charge           Charge          ....    0
 Multiplicity           Mult            ....    1
 Number of Electrons    NEL             ....   50
MP2 TOTAL ENERGY:     -324.120019459 Eh
FINAL SINGLE POINT ENERGY      -324.120019458692
MP2 TOTAL ENERGY:     -324.412025453 Eh
FINAL SINGLE POINT ENERGY      -324.412025453428

CARTESIAN COORDINATES (ANGSTROEM)
---------------------------------
  O     -0.392018   -0.384719    0.076071
  H     -0.911461    0.413812    0.177649
  H      0.524904   -0.068485    0.090511
  C      2.051496   -2.260918   -0.227814
  H      2.701459   -3.122030   -0.360729
  H      1.370520   -2.183446   -1.071679
  H      1.438479   -2.399714    0.659195
  C      2.806228   -0.962905   -0.095220
  O      2.229513    0.112390    0.061369
  N      4.156861   -1.060407   -0.159838
  H      4.557813   -1.970941   -0.289353
  C      5.025103    0.091563   -0.050395
  H      4.388609    0.959863    0.084390
  H      5.690693    0.000108    0.805698
  H      5.619569    0.220984   -0.952654

 Multiplicity           Mult            ....    1
 Number of Electrons    NEL             ....   50
 Basis Dimension        Dim             ....  894

ORBITAL ENERGIES
----------------

  NO   OCC          E(Eh)            E(eV)
   0   2.0000     -20.525227      -558.5198
   1   2.0000     -20.511177      -558.1375
   2   2.0000     -15.597388      -424.4265
   3   2.0000     -11.361948      -309.1743
   4   2.0000     -11.263909      -306.5066
   5   2.0000     -11.234499      -305.7063
   6   2.0000      -1.392763       -37.8990
   7   2.0000      -1.302557       -35.4444
   8   2.0000      -1.243731       -33.8436
   9   2.0000      -1.025833       -27.9143
  10   2.0000      -0.940880       -25.6026
  11   2.0000      -0.805902       -21.9297
  12   2.0000      -0.700764       -19.0688
  13   2.0000      -0.680171       -18.5084
  14   2.0000      -0.666499       -18.1363
  15   2.0000      -0.643357       -17.5066
  16   2.0000      -0.592473       -16.1220
  17   2.0000      -0.591463       -16.0945
  18   2.0000      -0.564350       -15.3567
  19   2.0000      -0.553675       -15.0663
  20   2.0000      -0.534590       -14.5469
  21   2.0000      -0.516074       -14.0431
  22   2.0000      -0.462759       -12.5923
  23   2.0000      -0.438073       -11.9206
  24   2.0000      -0.406998       -11.0750
  25   0.0000       0.017790         0.4841
  26   0.0000       0.030274         0.8238
  27   0.0000       0.035439         0.9644
  28   0.0000       0.037392         1.0175
  29   0.0000       0.048687         1.3248

MULLIKEN ATOMIC CHARGES
-----------------------
   0 O :   -0.718950
   1 H :    0.280469
   2 H :    0.290746
   3 C :   -0.729208
   4 H :    0.290903
   5 H :    0.273218
   6 H :    0.272498
   7 C :    0.939493
   8 O :   -0.789969
   9 N :   -0.473524
  10 H :    0.243182
  11 C :   -0.723379
  12 H :    0.294907
  13 H :    0.274351
  14 H :    0.275263
Sum of atomic charges:   -0.0000000

LOEWDIN ATOMIC CHARGES
----------------------
   0 O :    1.614505
   1 H :   -0.778607
   2 H :   -1.180502
   3 C :    0.907038
   4 H :   -0.307398
   5 H :   -0.299416
   6 H :   -0.298203
   7 C :   -0.719366
   8 O :    0.855420
   9 N :    0.843669
  10 H :   -0.505110
  11 C :    0.798297
  12 H :   -0.362496
  13 H :   -0.283922
  14 H :   -0.283909

  Mayer bond orders larger than 0.100000
B(  0-O ,  1-H ) :   0.9874 B(  0-O ,  2-H ) :   0.8789 B(  2-H ,  8-O ) :   0.1017
B(  3-C ,  4-H ) :   0.9752 B(  3-C ,  5-H ) :   0.9368 B(  3-C ,  6-H ) :   0.9371
B(  3-C ,  7-C ) :   0.8173 B(  7-C ,  8-O ) :   1.3077 B(  7-C ,  9-N ) :   1.1739
B(  8-O ,  9-N ) :   0.1208 B(  9-N , 10-H ) :   0.9844 B(  9-N , 11-C ) :   0.8386
B( 11-C , 12-H ) :   0.9405 B( 11-C , 13-H ) :   0.9559 B( 11-C , 14-H ) :   0.9548

MP2 TOTAL ENERGY:     -324.506016614 Eh
FINAL SINGLE POINT ENERGY      -324.506016613805

DIPOLE MOMENT
-------------
                                X             Y             Z
Electronic contribution:     -0.64139       0.99224       0.15874
Nuclear contribution   :      2.28009      -1.60263      -0.30134
                        -----------------------------------------
Total Dipole Moment    :      1.63871      -0.61039      -0.14260
                        -----------------------------------------
Magnitude (a.u.)       :      1.75450
Magnitude (Debye)      :      4.45959

Rotational constants in cm-1:     0.228369     0.055609     0.045473
Rotational constants in MHz :  6846.340509  1667.119191  1363.257434

                             ****ORCA TERMINATED NORMALLY****
TOTAL RUN TIME: 0 days 1 hours 9 minutes 36 seconds 637 msec
