                         Program Version 5.0.4 -  RELEASE  -
|  1> ! ri-mp2 aug-cc-pvdz aug-cc-pvdz/c tightscf
|  2> %pal nprocs 16 end
|  3> %maxcore 3800
|  4> %base "DZ_S66by10_27_0.7_dimer"
|  5>
|  6> *xyz 0 1
|  7> C    0.81874699    0.86417234    0.18828612
|  8> H    1.46611361    1.71666767    0.34472141
|  9> C    1.36899712   -0.39052394   -0.06669818
| 10> H    2.44303637   -0.51186194   -0.11057444
| 11> C    0.53437860   -1.48849320   -0.27188804
| 12> H    0.96084825   -2.46156422   -0.47550749
| 13> C   -0.84911561   -1.33050735   -0.21989643
| 14> H   -1.49706942   -2.18186028   -0.37955321
| 15> C   -1.39948546   -0.07603020    0.04043417
| 16> H   -2.47268667    0.04490778    0.09338206
| 17> C   -0.56529230    1.02140336    0.24227921
| 18> H   -0.99255667    1.99366131    0.44625817
| 19> N   -2.08201507    0.00725933    2.36943105
| 20> C   -1.46712914    1.16492714    2.64949524
| 21> H   -2.11473320    2.01809859    2.81200733
| 22> C   -0.08491424    1.30577487    2.73966606
| 23> H    0.34693451    2.26942499    2.97088235
| 24> C    0.71603715    0.18879557    2.52545215
| 25> H    1.79360632    0.25917985    2.58028666
| 26> C    0.09548524   -1.01985947    2.23179257
| 27> H    0.67125976   -1.91548135    2.04771763
| 28> C   -1.29502903   -1.05789735    2.16634315
| 29> H   -1.80388196   -1.98635073    1.93750048
| 30> *
| 31>
| 32> $new_job
| 33> ! ri-mp2 aug-cc-pvtz aug-cc-pvtz/c tightscf
| 34> %pal nprocs 16 end
| 35> %maxcore 3800
| 36> %base "TZ_S66by10_27_0.7_dimer"
| 37>
| 38> *xyz 0 1
| 39> C    0.81874699    0.86417234    0.18828612
| 40> H    1.46611361    1.71666767    0.34472141
| 41> C    1.36899712   -0.39052394   -0.06669818
| 42> H    2.44303637   -0.51186194   -0.11057444
| 43> C    0.53437860   -1.48849320   -0.27188804
| 44> H    0.96084825   -2.46156422   -0.47550749
| 45> C   -0.84911561   -1.33050735   -0.21989643
| 46> H   -1.49706942   -2.18186028   -0.37955321
| 47> C   -1.39948546   -0.07603020    0.04043417
| 48> H   -2.47268667    0.04490778    0.09338206
| 49> C   -0.56529230    1.02140336    0.24227921
| 50> H   -0.99255667    1.99366131    0.44625817
| 51> N   -2.08201507    0.00725933    2.36943105
| 52> C   -1.46712914    1.16492714    2.64949524
| 53> H   -2.11473320    2.01809859    2.81200733
| 54> C   -0.08491424    1.30577487    2.73966606
| 55> H    0.34693451    2.26942499    2.97088235
| 56> C    0.71603715    0.18879557    2.52545215
| 57> H    1.79360632    0.25917985    2.58028666
| 58> C    0.09548524   -1.01985947    2.23179257
| 59> H    0.67125976   -1.91548135    2.04771763
| 60> C   -1.29502903   -1.05789735    2.16634315
| 61> H   -1.80388196   -1.98635073    1.93750048
| 62> *
| 63>
| 64> $new_job
| 65> ! ri-mp2 aug-cc-pvqz aug-cc-pvqz/c tightscf
| 66> %pal nprocs 16 end
| 67> %maxcore 3800
| 68> %base "QZ_S66by10_27_0.7_dimer"
| 69>
| 70> *xyz 0 1
| 71> C    0.81874699    0.86417234    0.18828612
| 72> H    1.46611361    1.71666767    0.34472141
| 73> C    1.36899712   -0.39052394   -0.06669818
| 74> H    2.44303637   -0.51186194   -0.11057444
| 75> C    0.53437860   -1.48849320   -0.27188804
| 76> H    0.96084825   -2.46156422   -0.47550749
| 77> C   -0.84911561   -1.33050735   -0.21989643
| 78> H   -1.49706942   -2.18186028   -0.37955321
| 79> C   -1.39948546   -0.07603020    0.04043417
| 80> H   -2.47268667    0.04490778    0.09338206
| 81> C   -0.56529230    1.02140336    0.24227921
| 82> H   -0.99255667    1.99366131    0.44625817
| 83> N   -2.08201507    0.00725933    2.36943105
| 84> C   -1.46712914    1.16492714    2.64949524
| 85> H   -2.11473320    2.01809859    2.81200733
| 86> C   -0.08491424    1.30577487    2.73966606
| 87> H    0.34693451    2.26942499    2.97088235
| 88> C    0.71603715    0.18879557    2.52545215
| 89> H    1.79360632    0.25917985    2.58028666
| 90> C    0.09548524   -1.01985947    2.23179257
| 91> H    0.67125976   -1.91548135    2.04771763
| 92> C   -1.29502903   -1.05789735    2.16634315
| 93> H   -1.80388196   -1.98635073    1.93750048
| 94> *
| 95>
| 96>
| 97>
| 98>
| 99>                          ****END OF INPUT****
 Total Charge           Charge          ....    0
 Multiplicity           Mult            ....    1
 Number of Electrons    NEL             ....   84
MP2 TOTAL ENERGY:     -479.042027593 Eh
FINAL SINGLE POINT ENERGY      -479.042027592724
MP2 TOTAL ENERGY:     -479.459953749 Eh
FINAL SINGLE POINT ENERGY      -479.459953748659

CARTESIAN COORDINATES (ANGSTROEM)
---------------------------------
  C      0.818747    0.864172    0.188286
  H      1.466114    1.716668    0.344721
  C      1.368997   -0.390524   -0.066698
  H      2.443036   -0.511862   -0.110574
  C      0.534379   -1.488493   -0.271888
  H      0.960848   -2.461564   -0.475507
  C     -0.849116   -1.330507   -0.219896
  H     -1.497069   -2.181860   -0.379553
  C     -1.399485   -0.076030    0.040434
  H     -2.472687    0.044908    0.093382
  C     -0.565292    1.021403    0.242279
  H     -0.992557    1.993661    0.446258
  N     -2.082015    0.007259    2.369431
  C     -1.467129    1.164927    2.649495
  H     -2.114733    2.018099    2.812007
  C     -0.084914    1.305775    2.739666
  H      0.346935    2.269425    2.970882
  C      0.716037    0.188796    2.525452
  H      1.793606    0.259180    2.580287
  C      0.095485   -1.019859    2.231793
  H      0.671260   -1.915481    2.047718
  C     -1.295029   -1.057897    2.166343
  H     -1.803882   -1.986351    1.937500

 Multiplicity           Mult            ....    1
 Number of Electrons    NEL             ....   84
 Basis Dimension        Dim             .... 1466

ORBITAL ENERGIES
----------------

  NO   OCC          E(Eh)            E(eV)
   0   2.0000     -15.541023      -422.8927
   1   2.0000     -11.271768      -306.7204
   2   2.0000     -11.256997      -306.3185
   3   2.0000     -11.253071      -306.2116
   4   2.0000     -11.235587      -305.7359
   5   2.0000     -11.234357      -305.7024
   6   2.0000     -11.230841      -305.6067
   7   2.0000     -11.230763      -305.6046
   8   2.0000     -11.228145      -305.5334
   9   2.0000     -11.223665      -305.4115
  10   2.0000     -11.222419      -305.3775
  11   2.0000     -11.222158      -305.3704
  12   2.0000      -1.254182       -34.1280
  13   2.0000      -1.155275       -31.4366
  14   2.0000      -1.085380       -29.5347
  15   2.0000      -1.042271       -28.3616
  16   2.0000      -1.016892       -27.6710
  17   2.0000      -1.004498       -27.3338
  18   2.0000      -0.857904       -23.3448
  19   2.0000      -0.853560       -23.2266
  20   2.0000      -0.824604       -22.4386
  21   2.0000      -0.822706       -22.3870
  22   2.0000      -0.728042       -19.8110
  23   2.0000      -0.702490       -19.1157
  24   2.0000      -0.656274       -17.8581
  25   2.0000      -0.652822       -17.7642
  26   2.0000      -0.640123       -17.4186
  27   2.0000      -0.619851       -16.8670
  28   2.0000      -0.601263       -16.3612
  29   2.0000      -0.596638       -16.2353
  30   2.0000      -0.589235       -16.0339
  31   2.0000      -0.579913       -15.7802
  32   2.0000      -0.565784       -15.3958
  33   2.0000      -0.513705       -13.9786
  34   2.0000      -0.495704       -13.4888
  35   2.0000      -0.494710       -13.4617
  36   2.0000      -0.457305       -12.4439
  37   2.0000      -0.413230       -11.2446
  38   2.0000      -0.407284       -11.0828
  39   2.0000      -0.353919        -9.6306
  40   2.0000      -0.305390        -8.3101
  41   2.0000      -0.278105        -7.5676
  42   0.0000       0.021804         0.5933
  43   0.0000       0.026261         0.7146
  44   0.0000       0.029533         0.8036
  45   0.0000       0.036319         0.9883
  46   0.0000       0.038691         1.0528

MULLIKEN ATOMIC CHARGES
-----------------------
   0 C :   -0.178323
   1 H :    0.172809
   2 C :   -0.579719
   3 H :    0.198235
   4 C :   -0.356780
   5 H :    0.181815
   6 C :   -0.410026
   7 H :    0.274064
   8 C :    0.017322
   9 H :    0.253912
  10 C :    0.044522
  11 H :    0.328729
  12 N :   -0.882151
  13 C :   -0.258093
  14 H :    0.383239
  15 C :   -0.444981
  16 H :    0.210735
  17 C :    0.043055
  18 H :    0.217918
  19 C :   -0.104152
  20 H :    0.335354
  21 C :    0.217298
  22 H :    0.335218
Sum of atomic charges:   -0.0000000

LOEWDIN ATOMIC CHARGES
----------------------
   0 C :    0.288337
   1 H :   -0.281684
   2 C :    0.318100
   3 H :   -0.294918
   4 C :    0.306418
   5 H :   -0.294539
   6 C :    0.295963
   7 H :   -0.285333
   8 C :    0.252844
   9 H :   -0.305784
  10 C :    0.274900
  11 H :   -0.308358
  12 N :    0.619016
  13 C :    0.051961
  14 H :   -0.319384
  15 C :    0.301845
  16 H :   -0.292217
  17 C :    0.283214
  18 H :   -0.274917
  19 C :    0.282605
  20 H :   -0.312905
  21 C :    0.012350
  22 H :   -0.317516

  Mayer bond orders larger than 0.100000
B(  0-C ,  1-H ) :   1.1957 B(  0-C ,  2-C ) :   1.2793 B(  0-C ,  6-C ) :   0.1360
B(  0-C , 10-C ) :   0.9615 B(  0-C , 11-H ) :  -0.1964 B(  1-H , 10-C ) :  -0.1356
B(  2-C ,  3-H ) :   1.1590 B(  2-C ,  4-C ) :   1.3085 B(  2-C ,  8-C ) :   0.1032
B(  4-C ,  5-H ) :   1.1729 B(  4-C ,  6-C ) :   1.2544 B(  4-C , 10-C ) :   0.1113
B(  6-C ,  7-H ) :   1.0645 B(  6-C ,  8-C ) :   1.1111 B(  6-C ,  9-H ) :  -0.1455
B(  7-H ,  8-C ) :  -0.1321 B(  8-C ,  9-H ) :   1.1190 B(  8-C , 10-C ) :   1.0095
B(  8-C , 11-H ) :  -0.1949 B(  8-C , 21-C ) :  -0.1237 B(  9-H , 10-C ) :  -0.1696
B( 10-C , 11-H ) :   1.0405 B( 12-N , 13-C ) :   1.1153 B( 12-N , 14-H ) :  -0.1666
B( 12-N , 21-C ) :   0.9268 B( 12-N , 22-H ) :  -0.1492 B( 13-C , 14-H ) :   0.9910
B( 13-C , 15-C ) :   1.3539 B( 15-C , 16-H ) :   1.1302 B( 15-C , 17-C ) :   1.1219
B( 15-C , 18-H ) :  -0.1112 B( 16-H , 17-C ) :  -0.1026 B( 17-C , 18-H ) :   1.1132
B( 17-C , 19-C ) :   1.0361 B( 17-C , 20-H ) :  -0.2215 B( 18-H , 19-C ) :  -0.1358
B( 19-C , 20-H ) :   1.0236 B( 19-C , 21-C ) :   1.0156 B( 19-C , 22-H ) :  -0.1656
B( 20-H , 21-C ) :  -0.1748 B( 21-C , 22-H ) :   1.0664

MP2 TOTAL ENERGY:     -479.591612952 Eh
FINAL SINGLE POINT ENERGY      -479.591612951906

DIPOLE MOMENT
-------------
                                X             Y             Z
Electronic contribution:     -1.72468       0.03968       1.08529
Nuclear contribution   :      2.53637      -0.01967      -1.11389
                        -----------------------------------------
Total Dipole Moment    :      0.81168       0.02001      -0.02861
                        -----------------------------------------
Magnitude (a.u.)       :      0.81244
Magnitude (Debye)      :      2.06505

Rotational constants in cm-1:     0.057391     0.038885     0.034537
Rotational constants in MHz :  1720.542467  1165.749896  1035.404553

                             ****ORCA TERMINATED NORMALLY****
TOTAL RUN TIME: 0 days 2 hours 58 minutes 40 seconds 114 msec
