                         Program Version 5.0.4 -  RELEASE  -
|  1> ! ri-mp2 aug-cc-pvdz aug-cc-pvdz/c tightscf
|  2> %pal nprocs 16 end
|  3> %maxcore 3800
|  4> %base "DZ_S66by10_39_0.7_dimer"
|  5>
|  6> *xyz 0 1
|  7> C    0.76554546    0.86824433    0.82099095
|  8> H    1.43747647    1.68000664    1.06510281
|  9> C    1.23765260   -0.44283807    0.79388795
| 10> H    2.27575877   -0.64853808    1.01771141
| 11> C    0.37223723   -1.48853667    0.47726862
| 12> H    0.73818789   -2.50608012    0.45705609
| 13> C   -0.96493318   -1.22297162    0.18687834
| 14> H   -1.63645949   -2.03456079   -0.05777362
| 15> C   -1.43706509    0.08840558    0.21327714
| 16> H   -2.47468432    0.29430216   -0.01146746
| 17> C   -0.57190649    1.13402416    0.53081281
| 18> H   -0.93769935    2.15171058    0.55107764
| 19> C   -0.80800821   -0.80557438    3.07523256
| 20> H   -0.91426205   -0.63062522    2.00292569
| 21> H   -1.45964578   -1.63483828    3.34838322
| 22> C    0.66153298   -1.06263747    3.41936243
| 23> H    1.15676376   -1.70022252    2.68877816
| 24> H    0.72481215   -1.56285124    4.38682907
| 25> C    1.30167002    0.34275920    3.51031529
| 26> H    1.95193834    0.53543014    2.65846237
| 27> H    1.91453721    0.43192863    4.40604065
| 28> C    0.12262390    1.34193622    3.53718733
| 29> H    0.00547241    1.80090662    2.55490199
| 30> H    0.26821749    2.14344105    4.25958593
| 31> C   -1.11114786    0.48484103    3.83283619
| 32> H   -2.04213637    0.96057848    3.52692305
| 33> H   -1.17657363    0.27552012    4.90337143
| 34> *
| 35>
| 36> $new_job
| 37> ! ri-mp2 aug-cc-pvtz aug-cc-pvtz/c tightscf
| 38> %pal nprocs 16 end
| 39> %maxcore 3800
| 40> %base "TZ_S66by10_39_0.7_dimer"
| 41>
| 42> *xyz 0 1
| 43> C    0.76554546    0.86824433    0.82099095
| 44> H    1.43747647    1.68000664    1.06510281
| 45> C    1.23765260   -0.44283807    0.79388795
| 46> H    2.27575877   -0.64853808    1.01771141
| 47> C    0.37223723   -1.48853667    0.47726862
| 48> H    0.73818789   -2.50608012    0.45705609
| 49> C   -0.96493318   -1.22297162    0.18687834
| 50> H   -1.63645949   -2.03456079   -0.05777362
| 51> C   -1.43706509    0.08840558    0.21327714
| 52> H   -2.47468432    0.29430216   -0.01146746
| 53> C   -0.57190649    1.13402416    0.53081281
| 54> H   -0.93769935    2.15171058    0.55107764
| 55> C   -0.80800821   -0.80557438    3.07523256
| 56> H   -0.91426205   -0.63062522    2.00292569
| 57> H   -1.45964578   -1.63483828    3.34838322
| 58> C    0.66153298   -1.06263747    3.41936243
| 59> H    1.15676376   -1.70022252    2.68877816
| 60> H    0.72481215   -1.56285124    4.38682907
| 61> C    1.30167002    0.34275920    3.51031529
| 62> H    1.95193834    0.53543014    2.65846237
| 63> H    1.91453721    0.43192863    4.40604065
| 64> C    0.12262390    1.34193622    3.53718733
| 65> H    0.00547241    1.80090662    2.55490199
| 66> H    0.26821749    2.14344105    4.25958593
| 67> C   -1.11114786    0.48484103    3.83283619
| 68> H   -2.04213637    0.96057848    3.52692305
| 69> H   -1.17657363    0.27552012    4.90337143
| 70> *
| 71>
| 72> $new_job
| 73> ! ri-mp2 aug-cc-pvqz aug-cc-pvqz/c tightscf
| 74> %pal nprocs 16 end
| 75> %maxcore 3800
| 76> %base "QZ_S66by10_39_0.7_dimer"
| 77>
| 78> *xyz 0 1
| 79> C    0.76554546    0.86824433    0.82099095
| 80> H    1.43747647    1.68000664    1.06510281
| 81> C    1.23765260   -0.44283807    0.79388795
| 82> H    2.27575877   -0.64853808    1.01771141
| 83> C    0.37223723   -1.48853667    0.47726862
| 84> H    0.73818789   -2.50608012    0.45705609
| 85> C   -0.96493318   -1.22297162    0.18687834
| 86> H   -1.63645949   -2.03456079   -0.05777362
| 87> C   -1.43706509    0.08840558    0.21327714
| 88> H   -2.47468432    0.29430216   -0.01146746
| 89> C   -0.57190649    1.13402416    0.53081281
| 90> H   -0.93769935    2.15171058    0.55107764
| 91> C   -0.80800821   -0.80557438    3.07523256
| 92> H   -0.91426205   -0.63062522    2.00292569
| 93> H   -1.45964578   -1.63483828    3.34838322
| 94> C    0.66153298   -1.06263747    3.41936243
| 95> H    1.15676376   -1.70022252    2.68877816
| 96> H    0.72481215   -1.56285124    4.38682907
| 97> C    1.30167002    0.34275920    3.51031529
| 98> H    1.95193834    0.53543014    2.65846237
| 99> H    1.91453721    0.43192863    4.40604065
|100> C    0.12262390    1.34193622    3.53718733
|101> H    0.00547241    1.80090662    2.55490199
|102> H    0.26821749    2.14344105    4.25958593
|103> C   -1.11114786    0.48484103    3.83283619
|104> H   -2.04213637    0.96057848    3.52692305
|105> H   -1.17657363    0.27552012    4.90337143
|106> *
|107>
|108>
|109>
|110>
|111>                          ****END OF INPUT****
 Total Charge           Charge          ....    0
 Multiplicity           Mult            ....    1
 Number of Electrons    NEL             ....   82
MP2 TOTAL ENERGY:     -427.430595253 Eh
FINAL SINGLE POINT ENERGY      -427.430595253190
MP2 TOTAL ENERGY:     -427.823182761 Eh
FINAL SINGLE POINT ENERGY      -427.823182761394

CARTESIAN COORDINATES (ANGSTROEM)
---------------------------------
  C      0.765545    0.868244    0.820991
  H      1.437476    1.680007    1.065103
  C      1.237653   -0.442838    0.793888
  H      2.275759   -0.648538    1.017711
  C      0.372237   -1.488537    0.477269
  H      0.738188   -2.506080    0.457056
  C     -0.964933   -1.222972    0.186878
  H     -1.636459   -2.034561   -0.057774
  C     -1.437065    0.088406    0.213277
  H     -2.474684    0.294302   -0.011467
  C     -0.571906    1.134024    0.530813
  H     -0.937699    2.151711    0.551078
  C     -0.808008   -0.805574    3.075233
  H     -0.914262   -0.630625    2.002926
  H     -1.459646   -1.634838    3.348383
  C      0.661533   -1.062637    3.419362
  H      1.156764   -1.700223    2.688778
  H      0.724812   -1.562851    4.386829
  C      1.301670    0.342759    3.510315
  H      1.951938    0.535430    2.658462
  H      1.914537    0.431929    4.406041
  C      0.122624    1.341936    3.537187
  H      0.005472    1.800907    2.554902
  H      0.268217    2.143441    4.259586
  C     -1.111148    0.484841    3.832836
  H     -2.042136    0.960578    3.526923
  H     -1.176574    0.275520    4.903371

 Multiplicity           Mult            ....    1
 Number of Electrons    NEL             ....   82
 Basis Dimension        Dim             .... 1616

ORBITAL ENERGIES
----------------

  NO   OCC          E(Eh)            E(eV)
   0   2.0000     -11.237688      -305.7930
   1   2.0000     -11.235993      -305.7469
   2   2.0000     -11.235240      -305.7264
   3   2.0000     -11.233825      -305.6879
   4   2.0000     -11.232795      -305.6599
   5   2.0000     -11.231876      -305.6349
   6   2.0000     -11.199127      -304.7437
   7   2.0000     -11.196757      -304.6793
   8   2.0000     -11.195669      -304.6496
   9   2.0000     -11.195461      -304.6440
  10   2.0000     -11.180515      -304.2373
  11   2.0000      -1.162967       -31.6459
  12   2.0000      -1.102819       -30.0092
  13   2.0000      -1.025288       -27.8995
  14   2.0000      -1.022237       -27.8165
  15   2.0000      -0.946060       -25.7436
  16   2.0000      -0.944260       -25.6946
  17   2.0000      -0.832015       -22.6403
  18   2.0000      -0.831276       -22.6202
  19   2.0000      -0.767865       -20.8947
  20   2.0000      -0.758212       -20.6320
  21   2.0000      -0.719424       -19.5765
  22   2.0000      -0.654618       -17.8131
  23   2.0000      -0.649333       -17.6692
  24   2.0000      -0.634221       -17.2580
  25   2.0000      -0.624074       -16.9819
  26   2.0000      -0.594385       -16.1740
  27   2.0000      -0.592745       -16.1294
  28   2.0000      -0.567151       -15.4330
  29   2.0000      -0.562106       -15.2957
  30   2.0000      -0.509416       -13.8619
  31   2.0000      -0.499656       -13.5963
  32   2.0000      -0.499121       -13.5818
  33   2.0000      -0.464365       -12.6360
  34   2.0000      -0.462102       -12.5744
  35   2.0000      -0.453103       -12.3296
  36   2.0000      -0.446630       -12.1534
  37   2.0000      -0.442287       -12.0352
  38   2.0000      -0.418844       -11.3973
  39   2.0000      -0.335079        -9.1180
  40   2.0000      -0.328535        -8.9399
  41   0.0000       0.021621         0.5883
  42   0.0000       0.027865         0.7582
  43   0.0000       0.028326         0.7708
  44   0.0000       0.033365         0.9079
  45   0.0000       0.039409         1.0724

MULLIKEN ATOMIC CHARGES
-----------------------
   0 C :   -0.011951
   1 H :    0.466187
   2 C :   -0.000604
   3 H :    0.336482
   4 C :   -0.547919
   5 H :    0.176280
   6 C :   -0.524316
   7 H :    0.233404
   8 C :   -0.548016
   9 H :    0.226317
  10 C :   -0.396736
  11 H :    0.220929
  12 C :   -0.754534
  13 H :    1.230736
  14 H :    0.192600
  15 C :   -0.661155
  16 H :    0.354227
  17 H :    0.173979
  18 C :   -0.535076
  19 H :    0.259085
  20 H :    0.281737
  21 C :   -0.611451
  22 H :    0.276189
  23 H :    0.321141
  24 C :   -0.598298
  25 H :    0.218342
  26 H :    0.222421
Sum of atomic charges:    0.0000000

LOEWDIN ATOMIC CHARGES
----------------------
   0 C :    0.341793
   1 H :   -0.281150
   2 C :    0.339169
   3 H :   -0.277230
   4 C :    0.363031
   5 H :   -0.277258
   6 C :    0.355895
   7 H :   -0.282929
   8 C :    0.374991
   9 H :   -0.289138
  10 C :    0.386487
  11 H :   -0.276492
  12 C :    0.516763
  13 H :   -0.613720
  14 H :   -0.215787
  15 C :    0.561065
  16 H :   -0.343197
  17 H :   -0.247917
  18 C :    0.569108
  19 H :   -0.411072
  20 H :   -0.242253
  21 C :    0.555559
  22 H :   -0.436536
  23 H :   -0.237444
  24 C :    0.569377
  25 H :   -0.244188
  26 H :   -0.256927

  Mayer bond orders larger than 0.100000
B(  0-C ,  1-H ) :   0.9460 B(  0-C ,  2-C ) :   1.0415 B(  0-C ,  3-H ) :  -0.1722
B(  0-C ,  6-C ) :   0.1482 B(  0-C , 10-C ) :   1.1811 B(  0-C , 13-H ) :  -0.1375
B(  1-H ,  2-C ) :  -0.1582 B(  1-H , 10-C ) :  -0.1508 B(  2-C ,  3-H ) :   1.0764
B(  2-C ,  4-C ) :   1.1715 B(  2-C ,  5-H ) :  -0.1074 B(  2-C ,  8-C ) :   0.1680
B(  2-C , 13-H ) :  -0.1255 B(  3-H ,  4-C ) :  -0.1418 B(  4-C ,  5-H ) :   1.1997
B(  4-C ,  6-C ) :   1.3995 B(  4-C ,  8-C ) :   0.1009 B(  4-C , 10-C ) :   0.1202
B(  4-C , 13-H ) :  -0.3790 B(  6-C ,  7-H ) :   1.1373 B(  6-C ,  8-C ) :   1.3254
B(  6-C , 12-C ) :   0.2077 B(  6-C , 13-H ) :  -0.4546 B(  8-C ,  9-H ) :   1.1277
B(  8-C , 10-C ) :   1.3599 B(  8-C , 13-H ) :  -0.3733 B( 10-C , 11-H ) :   1.1362
B( 10-C , 13-H ) :  -0.1226 B( 12-C , 13-H ) :   0.6214 B( 12-C , 14-H ) :   1.0394
B( 12-C , 15-C ) :   0.6992 B( 12-C , 24-C ) :   0.9652 B( 15-C , 16-H ) :   0.8973
B( 15-C , 17-H ) :   1.0651 B( 15-C , 18-C ) :   0.9157 B( 18-C , 19-H ) :   0.9768
B( 18-C , 20-H ) :   0.9511 B( 18-C , 21-C ) :   0.9434 B( 21-C , 22-H ) :   0.8382
B( 21-C , 23-H ) :   0.9275 B( 21-C , 24-C ) :   0.9943 B( 24-C , 25-H ) :   0.9507
B( 24-C , 26-H ) :   1.0045

MP2 TOTAL ENERGY:     -427.943098177 Eh
FINAL SINGLE POINT ENERGY      -427.943098177375

DIPOLE MOMENT
-------------
                                X             Y             Z
Electronic contribution:     -0.35407      -0.56365      -6.88167
Nuclear contribution   :      0.38442       0.55600       6.76249
                        -----------------------------------------
Total Dipole Moment    :      0.03035      -0.00765      -0.11918
                        -----------------------------------------
Magnitude (a.u.)       :      0.12322
Magnitude (Debye)      :      0.31321

Rotational constants in cm-1:     0.058024     0.033964     0.032905
Rotational constants in MHz :  1739.512047  1018.226789   986.454880

                             ****ORCA TERMINATED NORMALLY****
TOTAL RUN TIME: 0 days 2 hours 23 minutes 52 seconds 475 msec
