                         Program Version 5.0.4 -  RELEASE  -
|  1> ! ri-mp2 aug-cc-pvdz aug-cc-pvdz/c tightscf
|  2> %pal nprocs 16 end
|  3> %maxcore 3800
|  4> %base "DZ_S66by10_41_0.9_dimer"
|  5> %scf STABPerform true end
|  6>
|  7> *xyz 0 1
|  8> N   -0.20890478   -0.96458262    0.53476104
|  9> H   -0.22415099   -1.97310940    0.60508386
| 10> C   -1.44634208   -0.34458112    0.30665858
| 11> O   -2.46123675   -1.01079161    0.19789196
| 12> C   -1.35778219    1.10318559    0.22814378
| 13> H   -2.25657214    1.66773071    0.04984731
| 14> C   -0.16300320    1.70989257    0.38112632
| 15> H   -0.04629046    2.78244591    0.33334968
| 16> N    0.98545210    1.00082412    0.61120636
| 17> H    1.86755978    1.46692777    0.74478430
| 18> C    1.02702092   -0.37917011    0.71264723
| 19> O    2.04919670   -0.99739548    0.93725979
| 20> C    1.11943392    2.35417926    3.79560408
| 21> H    0.68858530    2.66522795    2.84282152
| 22> H    0.48520000    2.75961238    4.58385173
| 23> H    2.10231394    2.81462667    3.88872557
| 24> C    1.19245038    0.83530830    3.88512243
| 25> H    1.62283402    0.54574545    4.84641338
| 26> H    1.86703997    0.44414775    3.12000426
| 27> C   -0.17233481    0.17714165    3.73030567
| 28> H   -0.84357907    0.54601746    4.51192491
| 29> H   -0.61980568    0.48740667    2.78040544
| 30> C   -0.11604587   -1.34354490    3.78994116
| 31> H    0.30755962   -1.64597531    4.75057735
| 32> H    0.57547587   -1.70542384    3.02543873
| 33> C   -1.48532879   -1.98541811    3.60616751
| 34> H   -1.92370779   -1.71196043    2.64598200
| 35> H   -1.42839000   -3.07218649    3.65022470
| 36> H   -2.17329157   -1.65707213    4.38540056
| 37> *
| 38>
| 39> $new_job
| 40> ! ri-mp2 aug-cc-pvtz aug-cc-pvtz/c tightscf
| 41> %pal nprocs 16 end
| 42> %maxcore 3800
| 43> %base "TZ_S66by10_41_0.9_dimer"
| 44>
| 45> *xyz 0 1
| 46> N   -0.20890478   -0.96458262    0.53476104
| 47> H   -0.22415099   -1.97310940    0.60508386
| 48> C   -1.44634208   -0.34458112    0.30665858
| 49> O   -2.46123675   -1.01079161    0.19789196
| 50> C   -1.35778219    1.10318559    0.22814378
| 51> H   -2.25657214    1.66773071    0.04984731
| 52> C   -0.16300320    1.70989257    0.38112632
| 53> H   -0.04629046    2.78244591    0.33334968
| 54> N    0.98545210    1.00082412    0.61120636
| 55> H    1.86755978    1.46692777    0.74478430
| 56> C    1.02702092   -0.37917011    0.71264723
| 57> O    2.04919670   -0.99739548    0.93725979
| 58> C    1.11943392    2.35417926    3.79560408
| 59> H    0.68858530    2.66522795    2.84282152
| 60> H    0.48520000    2.75961238    4.58385173
| 61> H    2.10231394    2.81462667    3.88872557
| 62> C    1.19245038    0.83530830    3.88512243
| 63> H    1.62283402    0.54574545    4.84641338
| 64> H    1.86703997    0.44414775    3.12000426
| 65> C   -0.17233481    0.17714165    3.73030567
| 66> H   -0.84357907    0.54601746    4.51192491
| 67> H   -0.61980568    0.48740667    2.78040544
| 68> C   -0.11604587   -1.34354490    3.78994116
| 69> H    0.30755962   -1.64597531    4.75057735
| 70> H    0.57547587   -1.70542384    3.02543873
| 71> C   -1.48532879   -1.98541811    3.60616751
| 72> H   -1.92370779   -1.71196043    2.64598200
| 73> H   -1.42839000   -3.07218649    3.65022470
| 74> H   -2.17329157   -1.65707213    4.38540056
| 75> *
| 76>
| 77> $new_job
| 78> ! ri-mp2 aug-cc-pvqz aug-cc-pvqz/c tightscf
| 79> %pal nprocs 16 end
| 80> %maxcore 3800
| 81> %base "QZ_S66by10_41_0.9_dimer"
| 82>
| 83> *xyz 0 1
| 84> N   -0.20890478   -0.96458262    0.53476104
| 85> H   -0.22415099   -1.97310940    0.60508386
| 86> C   -1.44634208   -0.34458112    0.30665858
| 87> O   -2.46123675   -1.01079161    0.19789196
| 88> C   -1.35778219    1.10318559    0.22814378
| 89> H   -2.25657214    1.66773071    0.04984731
| 90> C   -0.16300320    1.70989257    0.38112632
| 91> H   -0.04629046    2.78244591    0.33334968
| 92> N    0.98545210    1.00082412    0.61120636
| 93> H    1.86755978    1.46692777    0.74478430
| 94> C    1.02702092   -0.37917011    0.71264723
| 95> O    2.04919670   -0.99739548    0.93725979
| 96> C    1.11943392    2.35417926    3.79560408
| 97> H    0.68858530    2.66522795    2.84282152
| 98> H    0.48520000    2.75961238    4.58385173
| 99> H    2.10231394    2.81462667    3.88872557
|100> C    1.19245038    0.83530830    3.88512243
|101> H    1.62283402    0.54574545    4.84641338
|102> H    1.86703997    0.44414775    3.12000426
|103> C   -0.17233481    0.17714165    3.73030567
|104> H   -0.84357907    0.54601746    4.51192491
|105> H   -0.61980568    0.48740667    2.78040544
|106> C   -0.11604587   -1.34354490    3.78994116
|107> H    0.30755962   -1.64597531    4.75057735
|108> H    0.57547587   -1.70542384    3.02543873
|109> C   -1.48532879   -1.98541811    3.60616751
|110> H   -1.92370779   -1.71196043    2.64598200
|111> H   -1.42839000   -3.07218649    3.65022470
|112> H   -2.17329157   -1.65707213    4.38540056
|113> *
|114>
|115>
|116>
|117>
|118>                          ****END OF INPUT****
 Total Charge           Charge          ....    0
 Multiplicity           Mult            ....    1
 Number of Electrons    NEL             ....  100
MP2 TOTAL ENERGY:     -610.904873404 Eh
FINAL SINGLE POINT ENERGY      -610.904873404195
MP2 TOTAL ENERGY:     -611.446525698 Eh
FINAL SINGLE POINT ENERGY      -611.446525698307

CARTESIAN COORDINATES (ANGSTROEM)
---------------------------------
  N     -0.208905   -0.964583    0.534761
  H     -0.224151   -1.973109    0.605084
  C     -1.446342   -0.344581    0.306659
  O     -2.461237   -1.010792    0.197892
  C     -1.357782    1.103186    0.228144
  H     -2.256572    1.667731    0.049847
  C     -0.163003    1.709893    0.381126
  H     -0.046290    2.782446    0.333350
  N      0.985452    1.000824    0.611206
  H      1.867560    1.466928    0.744784
  C      1.027021   -0.379170    0.712647
  O      2.049197   -0.997395    0.937260
  C      1.119434    2.354179    3.795604
  H      0.688585    2.665228    2.842822
  H      0.485200    2.759612    4.583852
  H      2.102314    2.814627    3.888726
  C      1.192450    0.835308    3.885122
  H      1.622834    0.545745    4.846413
  H      1.867040    0.444148    3.120004
  C     -0.172335    0.177142    3.730306
  H     -0.843579    0.546017    4.511925
  H     -0.619806    0.487407    2.780405
  C     -0.116046   -1.343545    3.789941
  H      0.307560   -1.645975    4.750577
  H      0.575476   -1.705424    3.025439
  C     -1.485329   -1.985418    3.606168
  H     -1.923708   -1.711960    2.645982
  H     -1.428390   -3.072186    3.650225
  H     -2.173292   -1.657072    4.385401

 Multiplicity           Mult            ....    1
 Number of Electrons    NEL             ....  100
 Basis Dimension        Dim             .... 1776

ORBITAL ENERGIES
----------------

  NO   OCC          E(Eh)            E(eV)
   0   2.0000     -20.546185      -559.0901
   1   2.0000     -20.540546      -558.9367
   2   2.0000     -15.642171      -425.6451
   3   2.0000     -15.625564      -425.1932
   4   2.0000     -11.418838      -310.7224
   5   2.0000     -11.380926      -309.6907
   6   2.0000     -11.339955      -308.5759
   7   2.0000     -11.254812      -306.2590
   8   2.0000     -11.218791      -305.2788
   9   2.0000     -11.215868      -305.1993
  10   2.0000     -11.212519      -305.1082
  11   2.0000     -11.208838      -305.0080
  12   2.0000     -11.200247      -304.7742
  13   2.0000      -1.437781       -39.1240
  14   2.0000      -1.399592       -38.0848
  15   2.0000      -1.314420       -35.7672
  16   2.0000      -1.246727       -33.9252
  17   2.0000      -1.089222       -29.6392
  18   2.0000      -1.085113       -29.5274
  19   2.0000      -1.018666       -27.7193
  20   2.0000      -0.935302       -25.4509
  21   2.0000      -0.922590       -25.1049
  22   2.0000      -0.902574       -24.5603
  23   2.0000      -0.823528       -22.4093
  24   2.0000      -0.808349       -21.9963
  25   2.0000      -0.788683       -21.4612
  26   2.0000      -0.766312       -20.8524
  27   2.0000      -0.715735       -19.4762
  28   2.0000      -0.688658       -18.7393
  29   2.0000      -0.679234       -18.4829
  30   2.0000      -0.654767       -17.8171
  31   2.0000      -0.634363       -17.2619
  32   2.0000      -0.616524       -16.7765
  33   2.0000      -0.605106       -16.4658
  34   2.0000      -0.602759       -16.4019
  35   2.0000      -0.601354       -16.3637
  36   2.0000      -0.570870       -15.5342
  37   2.0000      -0.558647       -15.2016
  38   2.0000      -0.550963       -14.9925
  39   2.0000      -0.530740       -14.4422
  40   2.0000      -0.528080       -14.3698
  41   2.0000      -0.498498       -13.5648
  42   2.0000      -0.486651       -13.2425
  43   2.0000      -0.479778       -13.0554
  44   2.0000      -0.464438       -12.6380
  45   2.0000      -0.459438       -12.5019
  46   2.0000      -0.450376       -12.2554
  47   2.0000      -0.449539       -12.2326
  48   2.0000      -0.437271       -11.8987
  49   2.0000      -0.369839       -10.0638
  50   0.0000       0.013755         0.3743
  51   0.0000       0.027532         0.7492
  52   0.0000       0.027754         0.7552
  53   0.0000       0.031667         0.8617
  54   0.0000       0.039760         1.0819

MULLIKEN ATOMIC CHARGES
-----------------------
   0 N :   -0.745295
   1 H :   -0.015281
   2 C :    1.424675
   3 O :   -0.955720
   4 C :   -0.567644
   5 H :    0.234516
   6 C :   -0.154529
   7 H :    0.329201
   8 N :   -0.653293
   9 H :    0.057291
  10 C :    2.239759
  11 O :   -1.001969
  12 C :   -1.009941
  13 H :    0.273073
  14 H :    0.229411
  15 H :    0.255973
  16 C :   -0.567007
  17 H :    0.285010
  18 H :    0.255928
  19 C :    0.033089
  20 H :    0.248178
  21 H :    0.080577
  22 C :   -0.575048
  23 H :    0.277963
  24 H :    0.265287
  25 C :   -1.001253
  26 H :    0.293281
  27 H :    0.244541
  28 H :    0.219227
Sum of atomic charges:    0.0000000

LOEWDIN ATOMIC CHARGES
----------------------
   0 N :    0.789535
   1 H :   -0.508266
   2 C :   -0.863535
   3 O :    0.713849
   4 C :    0.347776
   5 H :   -0.342559
   6 C :    0.230293
   7 H :   -0.286754
   8 N :    0.821703
   9 H :   -0.481229
  10 C :   -1.004244
  11 O :    0.743424
  12 C :    0.932830
  13 H :   -0.321820
  14 H :   -0.276420
  15 H :   -0.273471
  16 C :    0.510153
  17 H :   -0.260220
  18 H :   -0.328862
  19 C :    0.492404
  20 H :   -0.253026
  21 H :   -0.349272
  22 C :    0.509775
  23 H :   -0.261578
  24 H :   -0.325564
  25 C :    0.935423
  26 H :   -0.340536
  27 H :   -0.272869
  28 H :   -0.276939

  Mayer bond orders larger than 0.100000
B(  0-N ,  1-H ) :   1.3047 B(  0-N ,  2-C ) :   0.9867 B(  0-N ,  3-O ) :   0.1679
B(  0-N , 10-C ) :   0.8163 B(  0-N , 11-O ) :   0.2683 B(  1-H ,  2-C ) :  -0.1001
B(  1-H , 10-C ) :  -0.1106 B(  2-C ,  3-O ) :   0.6786 B(  2-C ,  4-C ) :   1.1465
B(  3-O ,  4-C ) :   0.2947 B(  4-C ,  5-H ) :   1.0604 B(  4-C ,  6-C ) :   1.5501
B(  6-C ,  7-H ) :   1.0356 B(  6-C ,  8-N ) :   0.8925 B(  8-N ,  9-H ) :   1.2225
B(  8-N , 10-C ) :   0.8618 B(  8-N , 11-O ) :   0.2439 B( 10-C , 11-O ) :   0.5381
B( 12-C , 13-H ) :   0.8804 B( 12-C , 14-H ) :   1.0116 B( 12-C , 15-H ) :   1.0371
B( 12-C , 16-C ) :   1.0108 B( 12-C , 19-C ) :  -0.1417 B( 16-C , 17-H ) :   0.9004
B( 16-C , 18-H ) :   0.9049 B( 16-C , 19-C ) :   0.7274 B( 19-C , 20-H ) :   0.9403
B( 19-C , 21-H ) :   0.9098 B( 19-C , 22-C ) :   0.7161 B( 19-C , 25-C ) :  -0.1294
B( 22-C , 23-H ) :   0.9088 B( 22-C , 24-H ) :   0.9090 B( 22-C , 25-C ) :   1.0124
B( 25-C , 26-H ) :   0.8592 B( 25-C , 27-H ) :   1.0481 B( 25-C , 28-H ) :   1.0228

MP2 TOTAL ENERGY:     -611.618253385 Eh
FINAL SINGLE POINT ENERGY      -611.618253385160

DIPOLE MOMENT
-------------
                                X             Y             Z
Electronic contribution:     -0.46874      -2.46214     -17.19505
Nuclear contribution   :      1.02443       4.24448      17.19840
                        -----------------------------------------
Total Dipole Moment    :      0.55569       1.78234       0.00335
                        -----------------------------------------
Magnitude (a.u.)       :      1.86696
Magnitude (Debye)      :      4.74543

Rotational constants in cm-1:     0.028209     0.022773     0.018270
Rotational constants in MHz :   845.686252   682.705420   547.727054

                             ****ORCA TERMINATED NORMALLY****
TOTAL RUN TIME: 0 days 16 hours 37 minutes 55 seconds 58 msec
