                         Program Version 5.0.4 -  RELEASE  -
|  1> ! ri-mp2 aug-cc-pvdz aug-cc-pvdz/c tightscf
|  2> %pal nprocs 16 end
|  3> %maxcore 3800
|  4> %base "DZ_S66by10_6_0.95_dimer"
|  5> %scf STABPerform true end
|  6>
|  7> *xyz 0 1
|  8> O   -0.70692019    0.04583037    0.00638610
|  9> H    0.26562361    0.07171014    0.00133929
| 10> C   -1.07667067   -1.31391581    0.00161428
| 11> H   -2.16292358   -1.36319577    0.00586542
| 12> H   -0.72340594   -1.84465168   -0.88774350
| 13> H   -0.71607978   -1.85282083    0.88307978
| 14> N    2.13369892   -0.03264602   -0.00317509
| 15> H    2.50431847    0.47513049    0.78995730
| 16> H    2.50444176    0.43169255   -0.82243393
| 17> C    2.61145086   -1.41867947    0.03428611
| 18> H    2.21956602   -1.95270474   -0.82790562
| 19> H    3.69816201   -1.52541463    0.03732061
| 20> H    2.21932445   -1.90540964    0.92391826
| 21> *
| 22>
| 23> $new_job
| 24> ! ri-mp2 aug-cc-pvtz aug-cc-pvtz/c tightscf
| 25> %pal nprocs 16 end
| 26> %maxcore 3800
| 27> %base "TZ_S66by10_6_0.95_dimer"
| 28>
| 29> *xyz 0 1
| 30> O   -0.70692019    0.04583037    0.00638610
| 31> H    0.26562361    0.07171014    0.00133929
| 32> C   -1.07667067   -1.31391581    0.00161428
| 33> H   -2.16292358   -1.36319577    0.00586542
| 34> H   -0.72340594   -1.84465168   -0.88774350
| 35> H   -0.71607978   -1.85282083    0.88307978
| 36> N    2.13369892   -0.03264602   -0.00317509
| 37> H    2.50431847    0.47513049    0.78995730
| 38> H    2.50444176    0.43169255   -0.82243393
| 39> C    2.61145086   -1.41867947    0.03428611
| 40> H    2.21956602   -1.95270474   -0.82790562
| 41> H    3.69816201   -1.52541463    0.03732061
| 42> H    2.21932445   -1.90540964    0.92391826
| 43> *
| 44>
| 45> $new_job
| 46> ! ri-mp2 aug-cc-pvqz aug-cc-pvqz/c tightscf
| 47> %pal nprocs 16 end
| 48> %maxcore 3800
| 49> %base "QZ_S66by10_6_0.95_dimer"
| 50>
| 51> *xyz 0 1
| 52> O   -0.70692019    0.04583037    0.00638610
| 53> H    0.26562361    0.07171014    0.00133929
| 54> C   -1.07667067   -1.31391581    0.00161428
| 55> H   -2.16292358   -1.36319577    0.00586542
| 56> H   -0.72340594   -1.84465168   -0.88774350
| 57> H   -0.71607978   -1.85282083    0.88307978
| 58> N    2.13369892   -0.03264602   -0.00317509
| 59> H    2.50431847    0.47513049    0.78995730
| 60> H    2.50444176    0.43169255   -0.82243393
| 61> C    2.61145086   -1.41867947    0.03428611
| 62> H    2.21956602   -1.95270474   -0.82790562
| 63> H    3.69816201   -1.52541463    0.03732061
| 64> H    2.21932445   -1.90540964    0.92391826
| 65> *
| 66>
| 67>
| 68>
| 69>
| 70>                          ****END OF INPUT****
 Total Charge           Charge          ....    0
 Multiplicity           Mult            ....    1
 Number of Electrons    NEL             ....   36
MP2 TOTAL ENERGY:     -211.007736311 Eh
FINAL SINGLE POINT ENERGY      -211.007736310637
MP2 TOTAL ENERGY:     -211.208598637 Eh
FINAL SINGLE POINT ENERGY      -211.208598636817

CARTESIAN COORDINATES (ANGSTROEM)
---------------------------------
  O     -0.706920    0.045830    0.006386
  H      0.265624    0.071710    0.001339
  C     -1.076671   -1.313916    0.001614
  H     -2.162924   -1.363196    0.005865
  H     -0.723406   -1.844652   -0.887743
  H     -0.716080   -1.852821    0.883080
  N      2.133699   -0.032646   -0.003175
  H      2.504318    0.475130    0.789957
  H      2.504442    0.431693   -0.822434
  C      2.611451   -1.418679    0.034286
  H      2.219566   -1.952705   -0.827906
  H      3.698162   -1.525415    0.037321
  H      2.219324   -1.905410    0.923918

 Multiplicity           Mult            ....    1
 Number of Electrons    NEL             ....   36
 Basis Dimension        Dim             ....  734

ORBITAL ENERGIES
----------------

  NO   OCC          E(Eh)            E(eV)
   0   2.0000     -20.513104      -558.1899
   1   2.0000     -15.564055      -423.5195
   2   2.0000     -11.257779      -306.3398
   3   2.0000     -11.246768      -306.0401
   4   2.0000      -1.321888       -35.9704
   5   2.0000      -1.197165       -32.5765
   6   2.0000      -0.918566       -24.9954
   7   2.0000      -0.898062       -24.4375
   8   2.0000      -0.686791       -18.6885
   9   2.0000      -0.671262       -18.2660
  10   2.0000      -0.623180       -16.9576
  11   2.0000      -0.593609       -16.1529
  12   2.0000      -0.576356       -15.6835
  13   2.0000      -0.564963       -15.3734
  14   2.0000      -0.537800       -14.6343
  15   2.0000      -0.483125       -13.1465
  16   2.0000      -0.416921       -11.3450
  17   2.0000      -0.416357       -11.3297
  18   0.0000       0.020729         0.5641
  19   0.0000       0.033768         0.9189
  20   0.0000       0.036202         0.9851
  21   0.0000       0.036919         1.0046
  22   0.0000       0.050237         1.3670

MULLIKEN ATOMIC CHARGES
-----------------------
   0 O :   -0.726968
   1 H :    0.277786
   2 C :   -0.579810
   3 H :    0.495222
   4 H :    0.213756
   5 H :    0.214389
   6 N :   -0.338771
   7 H :    0.183899
   8 H :    0.183475
   9 C :   -0.834389
  10 H :    0.244938
  11 H :    0.422306
  12 H :    0.244167
Sum of atomic charges:   -0.0000000

LOEWDIN ATOMIC CHARGES
----------------------
   0 O :    1.240794
   1 H :   -1.026930
   2 C :    0.544204
   3 H :   -0.343848
   4 H :   -0.321214
   5 H :   -0.321664
   6 N :    1.272846
   7 H :   -0.470143
   8 H :   -0.470224
   9 C :    0.789594
  10 H :   -0.304713
  11 H :   -0.284184
  12 H :   -0.304519

  Mayer bond orders larger than 0.100000
B(  0-O ,  1-H ) :   0.9320 B(  0-O ,  2-C ) :   0.8508 B(  1-H ,  6-N ) :   0.1198
B(  2-C ,  3-H ) :   0.7320 B(  2-C ,  4-H ) :   0.9520 B(  2-C ,  5-H ) :   0.9521
B(  6-N ,  7-H ) :   1.0065 B(  6-N ,  8-H ) :   1.0063 B(  6-N ,  9-C ) :   1.0201
B(  9-C , 10-H ) :   0.9569 B(  9-C , 11-H ) :   0.7857 B(  9-C , 12-H ) :   0.9592

MP2 TOTAL ENERGY:     -211.271129796 Eh
FINAL SINGLE POINT ENERGY      -211.271129795978

DIPOLE MOMENT
-------------
                                X             Y             Z
Electronic contribution:     -1.51183       2.75116      -0.02230
Nuclear contribution   :      2.91319      -3.23470       0.01752
                        -----------------------------------------
Total Dipole Moment    :      1.40137      -0.48354      -0.00478
                        -----------------------------------------
Magnitude (a.u.)       :      1.48245
Magnitude (Debye)      :      3.76810

Rotational constants in cm-1:     0.418816     0.093913     0.079947
Rotational constants in MHz : 12555.782277  2815.446078  2396.737433

                             ****ORCA TERMINATED NORMALLY****
TOTAL RUN TIME: 0 days 0 hours 25 minutes 13 seconds 809 msec
