                         Program Version 5.0.4 -  RELEASE  -
|  1> ! ri-mp2 aug-cc-pvdz aug-cc-pvdz/c tightscf
|  2> %pal nprocs 16 end
|  3> %maxcore 3800
|  4> %base "DZ_S66by10_26_0.7_dimer"
|  5> %scf STABPerform true end
|  6>
|  7> *xyz 0 1
|  8> N    1.37690111    0.83974747    0.73462494
|  9> H    1.05181240    1.38622385    1.52335563
| 10> C    1.30898271    1.45752981   -0.52065500
| 11> O    0.92056136    2.61107777   -0.62597673
| 12> N    2.01142293   -1.21320830   -0.09807182
| 13> H    1.72728551    0.99084268   -2.61199556
| 14> C    2.02573687   -0.69717123   -1.36439740
| 15> H    2.29751698   -1.39106004   -2.14564531
| 16> C    1.71451235    0.59193780   -1.61248722
| 17> H    2.12945422   -2.20152091    0.05682913
| 18> C    1.64594503   -0.48520598    1.01871830
| 19> O    1.56111602   -0.97181638    2.12980905
| 20> N   -0.55148935   -0.69724487    0.73462494
| 21> H   -0.22640064   -1.24372125    1.52335563
| 22> C   -0.48357095   -1.31502721   -0.52065500
| 23> O   -0.09514960   -2.46857517   -0.62597673
| 24> N   -1.18601117    1.35571090   -0.09807182
| 25> H   -0.90187375   -0.84834009   -2.61199556
| 26> C   -1.20032511    0.83967383   -1.36439740
| 27> H   -1.47210522    1.53356264   -2.14564531
| 28> C   -0.88910059   -0.44943520   -1.61248722
| 29> H   -1.30404245    2.34402350    0.05682913
| 30> C   -0.82053327    0.62770858    1.01871830
| 31> O   -0.73570426    1.11431897    2.12980905
| 32> *
| 33>
| 34> $new_job
| 35> ! ri-mp2 aug-cc-pvtz aug-cc-pvtz/c tightscf
| 36> %pal nprocs 16 end
| 37> %maxcore 3800
| 38> %base "TZ_S66by10_26_0.7_dimer"
| 39>
| 40> *xyz 0 1
| 41> N    1.37690111    0.83974747    0.73462494
| 42> H    1.05181240    1.38622385    1.52335563
| 43> C    1.30898271    1.45752981   -0.52065500
| 44> O    0.92056136    2.61107777   -0.62597673
| 45> N    2.01142293   -1.21320830   -0.09807182
| 46> H    1.72728551    0.99084268   -2.61199556
| 47> C    2.02573687   -0.69717123   -1.36439740
| 48> H    2.29751698   -1.39106004   -2.14564531
| 49> C    1.71451235    0.59193780   -1.61248722
| 50> H    2.12945422   -2.20152091    0.05682913
| 51> C    1.64594503   -0.48520598    1.01871830
| 52> O    1.56111602   -0.97181638    2.12980905
| 53> N   -0.55148935   -0.69724487    0.73462494
| 54> H   -0.22640064   -1.24372125    1.52335563
| 55> C   -0.48357095   -1.31502721   -0.52065500
| 56> O   -0.09514960   -2.46857517   -0.62597673
| 57> N   -1.18601117    1.35571090   -0.09807182
| 58> H   -0.90187375   -0.84834009   -2.61199556
| 59> C   -1.20032511    0.83967383   -1.36439740
| 60> H   -1.47210522    1.53356264   -2.14564531
| 61> C   -0.88910059   -0.44943520   -1.61248722
| 62> H   -1.30404245    2.34402350    0.05682913
| 63> C   -0.82053327    0.62770858    1.01871830
| 64> O   -0.73570426    1.11431897    2.12980905
| 65> *
| 66>
| 67> $new_job
| 68> ! ri-mp2 aug-cc-pvqz aug-cc-pvqz/c tightscf
| 69> %pal nprocs 16 end
| 70> %maxcore 3800
| 71> %base "QZ_S66by10_26_0.7_dimer"
| 72>
| 73> *xyz 0 1
| 74> N    1.37690111    0.83974747    0.73462494
| 75> H    1.05181240    1.38622385    1.52335563
| 76> C    1.30898271    1.45752981   -0.52065500
| 77> O    0.92056136    2.61107777   -0.62597673
| 78> N    2.01142293   -1.21320830   -0.09807182
| 79> H    1.72728551    0.99084268   -2.61199556
| 80> C    2.02573687   -0.69717123   -1.36439740
| 81> H    2.29751698   -1.39106004   -2.14564531
| 82> C    1.71451235    0.59193780   -1.61248722
| 83> H    2.12945422   -2.20152091    0.05682913
| 84> C    1.64594503   -0.48520598    1.01871830
| 85> O    1.56111602   -0.97181638    2.12980905
| 86> N   -0.55148935   -0.69724487    0.73462494
| 87> H   -0.22640064   -1.24372125    1.52335563
| 88> C   -0.48357095   -1.31502721   -0.52065500
| 89> O   -0.09514960   -2.46857517   -0.62597673
| 90> N   -1.18601117    1.35571090   -0.09807182
| 91> H   -0.90187375   -0.84834009   -2.61199556
| 92> C   -1.20032511    0.83967383   -1.36439740
| 93> H   -1.47210522    1.53356264   -2.14564531
| 94> C   -0.88910059   -0.44943520   -1.61248722
| 95> H   -1.30404245    2.34402350    0.05682913
| 96> C   -0.82053327    0.62770858    1.01871830
| 97> O   -0.73570426    1.11431897    2.12980905
| 98> *
| 99>
|100>
|101>
|102>
|103>                          ****END OF INPUT****
 Total Charge           Charge          ....    0
 Multiplicity           Mult            ....    1
 Number of Electrons    NEL             ....  116
MP2 TOTAL ENERGY:     -827.508092968 Eh
FINAL SINGLE POINT ENERGY      -827.508092968338
MP2 TOTAL ENERGY:     -828.199991833 Eh
FINAL SINGLE POINT ENERGY      -828.199991832659

CARTESIAN COORDINATES (ANGSTROEM)
---------------------------------
  N      1.376901    0.839747    0.734625
  H      1.051812    1.386224    1.523356
  C      1.308983    1.457530   -0.520655
  O      0.920561    2.611078   -0.625977
  N      2.011423   -1.213208   -0.098072
  H      1.727286    0.990843   -2.611996
  C      2.025737   -0.697171   -1.364397
  H      2.297517   -1.391060   -2.145645
  C      1.714512    0.591938   -1.612487
  H      2.129454   -2.201521    0.056829
  C      1.645945   -0.485206    1.018718
  O      1.561116   -0.971816    2.129809
  N     -0.551489   -0.697245    0.734625
  H     -0.226401   -1.243721    1.523356
  C     -0.483571   -1.315027   -0.520655
  O     -0.095150   -2.468575   -0.625977
  N     -1.186011    1.355711   -0.098072
  H     -0.901874   -0.848340   -2.611996
  C     -1.200325    0.839674   -1.364397
  H     -1.472105    1.533563   -2.145645
  C     -0.889101   -0.449435   -1.612487
  H     -1.304042    2.344024    0.056829
  C     -0.820533    0.627709    1.018718
  O     -0.735704    1.114319    2.129809

 Multiplicity           Mult            ....    1
 Number of Electrons    NEL             ....  116
 Basis Dimension        Dim             .... 1648

ORBITAL ENERGIES
----------------

  NO   OCC          E(Eh)            E(eV)
   0   2.0000     -20.546974      -559.1116
   1   2.0000     -20.546974      -559.1116
   2   2.0000     -20.543242      -559.0100
   3   2.0000     -20.543241      -559.0100
   4   2.0000     -15.634669      -425.4410
   5   2.0000     -15.634669      -425.4410
   6   2.0000     -15.618222      -424.9934
   7   2.0000     -15.618205      -424.9930
   8   2.0000     -11.422729      -310.8282
   9   2.0000     -11.422727      -310.8282
  10   2.0000     -11.389421      -309.9219
  11   2.0000     -11.389420      -309.9219
  12   2.0000     -11.336095      -308.4708
  13   2.0000     -11.336092      -308.4708
  14   2.0000     -11.257299      -306.3267
  15   2.0000     -11.257295      -306.3266
  16   2.0000      -1.464524       -39.8517
  17   2.0000      -1.430261       -38.9194
  18   2.0000      -1.414974       -38.5034
  19   2.0000      -1.408334       -38.3227
  20   2.0000      -1.316812       -35.8323
  21   2.0000      -1.316601       -35.8265
  22   2.0000      -1.259554       -34.2742
  23   2.0000      -1.245929       -33.9035
  24   2.0000      -1.103586       -30.0301
  25   2.0000      -1.083552       -29.4850
  26   2.0000      -0.943087       -25.6627
  27   2.0000      -0.935189       -25.4478
  28   2.0000      -0.909743       -24.7554
  29   2.0000      -0.905253       -24.6332
  30   2.0000      -0.814336       -22.1592
  31   2.0000      -0.808943       -22.0125
  32   2.0000      -0.773737       -21.0545
  33   2.0000      -0.765759       -20.8373
  34   2.0000      -0.745263       -20.2796
  35   2.0000      -0.722843       -19.6695
  36   2.0000      -0.714594       -19.4451
  37   2.0000      -0.691835       -18.8258
  38   2.0000      -0.681920       -18.5560
  39   2.0000      -0.660068       -17.9614
  40   2.0000      -0.655989       -17.8504
  41   2.0000      -0.639146       -17.3920
  42   2.0000      -0.621588       -16.9143
  43   2.0000      -0.619610       -16.8604
  44   2.0000      -0.610070       -16.6009
  45   2.0000      -0.608926       -16.5697
  46   2.0000      -0.589243       -16.0341
  47   2.0000      -0.583546       -15.8791
  48   2.0000      -0.512154       -13.9364
  49   2.0000      -0.506040       -13.7700
  50   2.0000      -0.492382       -13.3984
  51   2.0000      -0.482788       -13.1373
  52   2.0000      -0.461720       -12.5640
  53   2.0000      -0.457935       -12.4610
  54   2.0000      -0.449834       -12.2406
  55   2.0000      -0.429039       -11.6747
  56   2.0000      -0.410425       -11.1682
  57   2.0000      -0.335400        -9.1267
  58   0.0000       0.013975         0.3803
  59   0.0000       0.022064         0.6004
  60   0.0000       0.031602         0.8599
  61   0.0000       0.031925         0.8687
  62   0.0000       0.042287         1.1507

MULLIKEN ATOMIC CHARGES
-----------------------
   0 N :   -0.618116
   1 H :   -0.020797
   2 C :    1.645547
   3 O :   -1.100745
   4 N :   -0.700917
   5 H :    0.222688
   6 C :   -0.108480
   7 H :    0.323007
   8 C :   -0.495650
   9 H :    0.039060
  10 C :    1.895071
  11 O :   -1.080668
  12 N :   -0.618116
  13 H :   -0.020797
  14 C :    1.645547
  15 O :   -1.100745
  16 N :   -0.700917
  17 H :    0.222688
  18 C :   -0.108480
  19 H :    0.323007
  20 C :   -0.495651
  21 H :    0.039060
  22 C :    1.895072
  23 O :   -1.080668
Sum of atomic charges:    0.0000000

LOEWDIN ATOMIC CHARGES
----------------------
   0 N :    0.765647
   1 H :   -0.704502
   2 C :   -0.885656
   3 O :    0.762962
   4 N :    0.804365
   5 H :   -0.322238
   6 C :    0.209860
   7 H :   -0.266634
   8 C :    0.324031
   9 H :   -0.507070
  10 C :   -1.027192
  11 O :    0.846427
  12 N :    0.765647
  13 H :   -0.704502
  14 C :   -0.885656
  15 O :    0.762962
  16 N :    0.804365
  17 H :   -0.322238
  18 C :    0.209860
  19 H :   -0.266634
  20 C :    0.324031
  21 H :   -0.507070
  22 C :   -1.027192
  23 O :    0.846427

  Mayer bond orders larger than 0.100000
B(  0-N ,  1-H ) :   1.1577 B(  0-N ,  2-C ) :   1.0786 B(  0-N ,  3-O ) :   0.2506
B(  0-N , 10-C ) :   1.0901 B(  0-N , 11-O ) :   0.2989 B(  2-C ,  3-O ) :   0.4220
B(  2-C ,  8-C ) :   1.0636 B(  3-O ,  8-C ) :   0.2564 B(  4-N ,  6-C ) :   0.9297
B(  4-N ,  9-H ) :   1.1676 B(  4-N , 10-C ) :   1.0517 B(  4-N , 11-O ) :   0.2744
B(  5-H ,  6-C ) :  -0.1131 B(  5-H ,  8-C ) :   1.0636 B(  6-C ,  7-H ) :   1.0624
B(  6-C ,  8-C ) :   1.4681 B(  7-H ,  8-C ) :  -0.1029 B( 10-C , 11-O ) :   0.3662
B( 12-N , 13-H ) :   1.1577 B( 12-N , 14-C ) :   1.0786 B( 12-N , 15-O ) :   0.2506
B( 12-N , 22-C ) :   1.0901 B( 12-N , 23-O ) :   0.2989 B( 14-C , 15-O ) :   0.4220
B( 14-C , 20-C ) :   1.0636 B( 15-O , 20-C ) :   0.2564 B( 16-N , 18-C ) :   0.9297
B( 16-N , 21-H ) :   1.1676 B( 16-N , 22-C ) :   1.0517 B( 16-N , 23-O ) :   0.2744
B( 17-H , 18-C ) :  -0.1131 B( 17-H , 20-C ) :   1.0636 B( 18-C , 19-H ) :   1.0624
B( 18-C , 20-C ) :   1.4681 B( 19-H , 20-C ) :  -0.1029 B( 22-C , 23-O ) :   0.3662

MP2 TOTAL ENERGY:     -828.427836897 Eh
FINAL SINGLE POINT ENERGY      -828.427836897237

DIPOLE MOMENT
-------------
                                X             Y             Z
Electronic contribution:     -0.00000       0.00000       3.60689
Nuclear contribution   :      0.00000      -0.00000      -5.91054
                        -----------------------------------------
Total Dipole Moment    :      0.00000       0.00000      -2.30365
                        -----------------------------------------
Magnitude (a.u.)       :      2.30365
Magnitude (Debye)      :      5.85541

Rotational constants in cm-1:     0.026177     0.023324     0.022252
Rotational constants in MHz :   784.763196   699.240467   667.087945

                             ****ORCA TERMINATED NORMALLY****
TOTAL RUN TIME: 0 days 15 hours 37 minutes 2 seconds 93 msec
