                         Program Version 5.0.4 -  RELEASE  -
|  1> ! ri-mp2 aug-cc-pvdz aug-cc-pvdz/c tightscf
|  2> %pal nprocs 16 end
|  3> %maxcore 3800
|  4> %base "DZ_S66by10_46_0.9_dimer"
|  5> %scf STABPerform true end
|  6>
|  7> *xyz 0 1
|  8> C    1.37219093    1.01247736    0.97082468
|  9> H    0.95217623    2.01404955    1.03311725
| 10> H    1.94742170    0.92651560    0.05071776
| 11> H    2.05170208    0.85182517    1.80295247
| 12> C    0.32673706   -0.07764727    0.98819876
| 13> O    0.61882128   -1.25248130    1.17128126
| 14> N   -0.95002884    0.34488680    0.77391491
| 15> H   -1.10467156    1.32202550    0.60611216
| 16> C   -2.05985440   -0.57736895    0.68015349
| 17> H   -1.66935602   -1.56679601    0.89718425
| 18> H   -2.83459176   -0.33138032    1.40366139
| 19> H   -2.49097050   -0.57892483   -0.31993926
| 20> C    2.64335521    0.45062919    4.65056934
| 21> H    2.76019450    1.20504509    3.87182451
| 22> H    2.55724484    0.97551552    5.60222539
| 23> H    3.55544666   -0.14361271    4.67737735
| 24> C    1.41508299   -0.41275832    4.39301779
| 25> H    1.32051364   -1.15821232    5.18606862
| 26> H    1.53150312   -0.96622264    3.45917399
| 27> C    0.13254514    0.40585563    4.32771644
| 28> H    0.02097482    0.98359052    5.25080008
| 29> H    0.21177929    1.13867054    3.51806378
| 30> C   -1.11181115   -0.44447960    4.11083654
| 31> H   -1.20261311   -1.15896609    4.93225376
| 32> H   -0.98400414   -1.03341733    3.20062209
| 33> C   -2.37864964    0.39581190    4.02072181
| 34> H   -2.31173640    1.10286289    3.19295258
| 35> H   -3.26399186   -0.22020559    3.86688891
| 36> H   -2.52900568    0.97202299    4.93394141
| 37> *
| 38>
| 39> $new_job
| 40> ! ri-mp2 aug-cc-pvtz aug-cc-pvtz/c tightscf
| 41> %pal nprocs 16 end
| 42> %maxcore 3800
| 43> %base "TZ_S66by10_46_0.9_dimer"
| 44>
| 45> *xyz 0 1
| 46> C    1.37219093    1.01247736    0.97082468
| 47> H    0.95217623    2.01404955    1.03311725
| 48> H    1.94742170    0.92651560    0.05071776
| 49> H    2.05170208    0.85182517    1.80295247
| 50> C    0.32673706   -0.07764727    0.98819876
| 51> O    0.61882128   -1.25248130    1.17128126
| 52> N   -0.95002884    0.34488680    0.77391491
| 53> H   -1.10467156    1.32202550    0.60611216
| 54> C   -2.05985440   -0.57736895    0.68015349
| 55> H   -1.66935602   -1.56679601    0.89718425
| 56> H   -2.83459176   -0.33138032    1.40366139
| 57> H   -2.49097050   -0.57892483   -0.31993926
| 58> C    2.64335521    0.45062919    4.65056934
| 59> H    2.76019450    1.20504509    3.87182451
| 60> H    2.55724484    0.97551552    5.60222539
| 61> H    3.55544666   -0.14361271    4.67737735
| 62> C    1.41508299   -0.41275832    4.39301779
| 63> H    1.32051364   -1.15821232    5.18606862
| 64> H    1.53150312   -0.96622264    3.45917399
| 65> C    0.13254514    0.40585563    4.32771644
| 66> H    0.02097482    0.98359052    5.25080008
| 67> H    0.21177929    1.13867054    3.51806378
| 68> C   -1.11181115   -0.44447960    4.11083654
| 69> H   -1.20261311   -1.15896609    4.93225376
| 70> H   -0.98400414   -1.03341733    3.20062209
| 71> C   -2.37864964    0.39581190    4.02072181
| 72> H   -2.31173640    1.10286289    3.19295258
| 73> H   -3.26399186   -0.22020559    3.86688891
| 74> H   -2.52900568    0.97202299    4.93394141
| 75> *
| 76>
| 77> $new_job
| 78> ! ri-mp2 aug-cc-pvqz aug-cc-pvqz/c tightscf
| 79> %pal nprocs 16 end
| 80> %maxcore 3800
| 81> %base "QZ_S66by10_46_0.9_dimer"
| 82>
| 83> *xyz 0 1
| 84> C    1.37219093    1.01247736    0.97082468
| 85> H    0.95217623    2.01404955    1.03311725
| 86> H    1.94742170    0.92651560    0.05071776
| 87> H    2.05170208    0.85182517    1.80295247
| 88> C    0.32673706   -0.07764727    0.98819876
| 89> O    0.61882128   -1.25248130    1.17128126
| 90> N   -0.95002884    0.34488680    0.77391491
| 91> H   -1.10467156    1.32202550    0.60611216
| 92> C   -2.05985440   -0.57736895    0.68015349
| 93> H   -1.66935602   -1.56679601    0.89718425
| 94> H   -2.83459176   -0.33138032    1.40366139
| 95> H   -2.49097050   -0.57892483   -0.31993926
| 96> C    2.64335521    0.45062919    4.65056934
| 97> H    2.76019450    1.20504509    3.87182451
| 98> H    2.55724484    0.97551552    5.60222539
| 99> H    3.55544666   -0.14361271    4.67737735
|100> C    1.41508299   -0.41275832    4.39301779
|101> H    1.32051364   -1.15821232    5.18606862
|102> H    1.53150312   -0.96622264    3.45917399
|103> C    0.13254514    0.40585563    4.32771644
|104> H    0.02097482    0.98359052    5.25080008
|105> H    0.21177929    1.13867054    3.51806378
|106> C   -1.11181115   -0.44447960    4.11083654
|107> H   -1.20261311   -1.15896609    4.93225376
|108> H   -0.98400414   -1.03341733    3.20062209
|109> C   -2.37864964    0.39581190    4.02072181
|110> H   -2.31173640    1.10286289    3.19295258
|111> H   -3.26399186   -0.22020559    3.86688891
|112> H   -2.52900568    0.97202299    4.93394141
|113> *
|114>
|115>
|116>
|117>
|118>                          ****END OF INPUT****
 Total Charge           Charge          ....    0
 Multiplicity           Mult            ....    1
 Number of Electrons    NEL             ....   82
MP2 TOTAL ENERGY:     -444.970951010 Eh
FINAL SINGLE POINT ENERGY      -444.970951010365
MP2 TOTAL ENERGY:     -445.389439556 Eh
FINAL SINGLE POINT ENERGY      -445.389439556339

CARTESIAN COORDINATES (ANGSTROEM)
---------------------------------
  C      1.372191    1.012477    0.970825
  H      0.952176    2.014050    1.033117
  H      1.947422    0.926516    0.050718
  H      2.051702    0.851825    1.802952
  C      0.326737   -0.077647    0.988199
  O      0.618821   -1.252481    1.171281
  N     -0.950029    0.344887    0.773915
  H     -1.104672    1.322026    0.606112
  C     -2.059854   -0.577369    0.680153
  H     -1.669356   -1.566796    0.897184
  H     -2.834592   -0.331380    1.403661
  H     -2.490970   -0.578925   -0.319939
  C      2.643355    0.450629    4.650569
  H      2.760194    1.205045    3.871825
  H      2.557245    0.975516    5.602225
  H      3.555447   -0.143613    4.677377
  C      1.415083   -0.412758    4.393018
  H      1.320514   -1.158212    5.186069
  H      1.531503   -0.966223    3.459174
  C      0.132545    0.405856    4.327716
  H      0.020975    0.983591    5.250800
  H      0.211779    1.138671    3.518064
  C     -1.111811   -0.444480    4.110837
  H     -1.202613   -1.158966    4.932254
  H     -0.984004   -1.033417    3.200622
  C     -2.378650    0.395812    4.020722
  H     -2.311736    1.102863    3.192953
  H     -3.263992   -0.220206    3.866889
  H     -2.529006    0.972023    4.933941

 Multiplicity           Mult            ....    1
 Number of Electrons    NEL             ....   82
 Basis Dimension        Dim             .... 1674

ORBITAL ENERGIES
----------------

  NO   OCC          E(Eh)            E(eV)
   0   2.0000     -20.510908      -558.1302
   1   2.0000     -15.585901      -424.1139
   2   2.0000     -11.349001      -308.8220
   3   2.0000     -11.254717      -306.2564
   4   2.0000     -11.234663      -305.7107
   5   2.0000     -11.205875      -304.9274
   6   2.0000     -11.204990      -304.9033
   7   2.0000     -11.203423      -304.8606
   8   2.0000     -11.202005      -304.8221
   9   2.0000     -11.199514      -304.7543
  10   2.0000      -1.377020       -37.4706
  11   2.0000      -1.232110       -33.5274
  12   2.0000      -1.075773       -29.2733
  13   2.0000      -1.021295       -27.7909
  14   2.0000      -1.010067       -27.4853
  15   2.0000      -0.933630       -25.4054
  16   2.0000      -0.915734       -24.9184
  17   2.0000      -0.815344       -22.1866
  18   2.0000      -0.791568       -21.5397
  19   2.0000      -0.779281       -21.2053
  20   2.0000      -0.692827       -18.8528
  21   2.0000      -0.660088       -17.9619
  22   2.0000      -0.654798       -17.8180
  23   2.0000      -0.620948       -16.8968
  24   2.0000      -0.601609       -16.3706
  25   2.0000      -0.594648       -16.1812
  26   2.0000      -0.584699       -15.9105
  27   2.0000      -0.574338       -15.6285
  28   2.0000      -0.556669       -15.1477
  29   2.0000      -0.549936       -14.9645
  30   2.0000      -0.546198       -14.8628
  31   2.0000      -0.544868       -14.8266
  32   2.0000      -0.525254       -14.2929
  33   2.0000      -0.506669       -13.7872
  34   2.0000      -0.489976       -13.3329
  35   2.0000      -0.471151       -12.8207
  36   2.0000      -0.455870       -12.4049
  37   2.0000      -0.451764       -12.2931
  38   2.0000      -0.441624       -12.0172
  39   2.0000      -0.423550       -11.5254
  40   2.0000      -0.392962       -10.6930
  41   0.0000       0.018939         0.5154
  42   0.0000       0.027616         0.7515
  43   0.0000       0.029278         0.7967
  44   0.0000       0.032441         0.8828
  45   0.0000       0.039168         1.0658

MULLIKEN ATOMIC CHARGES
-----------------------
   0 C :   -1.013490
   1 H :    0.183331
   2 H :    0.331257
   3 H :    0.384161
   4 C :    1.552323
   5 O :   -1.066218
   6 N :   -0.556470
   7 H :    0.226599
   8 C :   -0.899034
   9 H :    0.255678
  10 H :    0.288030
  11 H :    0.340146
  12 C :   -1.006634
  13 H :    0.268207
  14 H :    0.217263
  15 H :    0.243431
  16 C :   -0.512096
  17 H :    0.252445
  18 H :    0.309857
  19 C :   -0.184883
  20 H :    0.269430
  21 H :    0.309742
  22 C :   -0.480759
  23 H :    0.263527
  24 H :    0.336694
  25 C :   -1.023414
  26 H :    0.234443
  27 H :    0.236752
  28 H :    0.239681
Sum of atomic charges:   -0.0000000

LOEWDIN ATOMIC CHARGES
----------------------
   0 C :    0.905068
   1 H :   -0.294624
   2 H :   -0.276129
   3 H :   -0.344639
   4 C :   -0.836674
   5 O :    0.756086
   6 N :    0.842975
   7 H :   -0.493162
   8 C :    0.789368
   9 H :   -0.351759
  10 H :   -0.318538
  11 H :   -0.270496
  12 C :    0.934078
  13 H :   -0.303602
  14 H :   -0.281304
  15 H :   -0.275532
  16 C :    0.508639
  17 H :   -0.264099
  18 H :   -0.328146
  19 C :    0.492185
  20 H :   -0.260351
  21 H :   -0.304233
  22 C :    0.508217
  23 H :   -0.258791
  24 H :   -0.339761
  25 C :    0.923432
  26 H :   -0.306521
  27 H :   -0.275668
  28 H :   -0.276020

  Mayer bond orders larger than 0.100000
B(  0-C ,  1-H ) :   1.0714 B(  0-C ,  2-H ) :   0.9200 B(  0-C ,  3-H ) :   0.8451
B(  0-C ,  4-C ) :   0.7787 B(  0-C ,  5-O ) :   0.1060 B(  1-H ,  4-C ) :  -0.1148
B(  4-C ,  5-O ) :   0.8830 B(  4-C ,  6-N ) :   1.0177 B(  4-C ,  8-C ) :  -0.1240
B(  5-O ,  6-N ) :   0.1440 B(  6-N ,  7-H ) :   1.0206 B(  6-N ,  8-C ) :   0.8672
B(  8-C ,  9-H ) :   1.0056 B(  8-C , 10-H ) :   0.8820 B(  8-C , 11-H ) :   0.9488
B( 12-C , 13-H ) :   0.9256 B( 12-C , 14-H ) :   1.0185 B( 12-C , 15-H ) :   1.0559
B( 12-C , 16-C ) :   0.9372 B( 12-C , 19-C ) :  -0.1208 B( 15-H , 16-C ) :  -0.1052
B( 16-C , 17-H ) :   0.9275 B( 16-C , 18-H ) :   0.8414 B( 16-C , 19-C ) :   0.7098
B( 19-C , 20-H ) :   0.9320 B( 19-C , 21-H ) :   0.8437 B( 19-C , 22-C ) :   0.8287
B( 19-C , 25-C ) :  -0.1229 B( 22-C , 23-H ) :   0.9100 B( 22-C , 24-H ) :   0.8299
B( 22-C , 25-C ) :   0.9395 B( 22-C , 27-H ) :  -0.1142 B( 25-C , 26-H ) :   0.9494
B( 25-C , 27-H ) :   1.0275 B( 25-C , 28-H ) :   1.0058

MP2 TOTAL ENERGY:     -445.517797386 Eh
FINAL SINGLE POINT ENERGY      -445.517797385580

DIPOLE MOMENT
-------------
                                X             Y             Z
Electronic contribution:      0.65785      -3.02300      -7.70088
Nuclear contribution   :     -1.28551       4.27096       7.31203
                        -----------------------------------------
Total Dipole Moment    :     -0.62766       1.24796      -0.38885
                        -----------------------------------------
Magnitude (a.u.)       :      1.45002
Magnitude (Debye)      :      3.68566

Rotational constants in cm-1:     0.043338     0.030013     0.020940
Rotational constants in MHz :  1299.230946   899.766435   627.771958

                             ****ORCA TERMINATED NORMALLY****
TOTAL RUN TIME: 0 days 11 hours 3 minutes 33 seconds 378 msec
