                         Program Version 5.0.4 -  RELEASE  -
|  1> ! ri-mp2 aug-cc-pvdz aug-cc-pvdz/c tightscf
|  2> %pal nprocs 16 end
|  3> %maxcore 3800
|  4> %base "DZ_S66by10_57_1.0_dimer"
|  5>
|  6> *xyz 0 1
|  7> C    0.40877989    1.05102502    0.37553605
|  8> H    1.01193875    1.94854570    0.36807788
|  9> C    1.01916788   -0.19976963    0.28905343
| 10> H    2.09557130   -0.27183333    0.21719099
| 11> C    0.24172263   -1.35688270    0.29668995
| 12> H    0.71521633   -2.32658869    0.22807218
| 13> C   -1.14617971   -1.26425757    0.39390198
| 14> H   -1.74918186   -2.16192663    0.39940980
| 15> C   -1.75727780   -0.01396023    0.48295173
| 16> H   -2.83351378    0.05824368    0.55903918
| 17> C   -0.97968602    1.14420653    0.47228370
| 18> H   -1.45405142    2.11400088    0.53713589
| 19> C    0.24535544    1.95613972    4.24227302
| 20> H   -0.11278966    2.12187056    3.22898025
| 21> H    1.26993900    2.31284928    4.32371453
| 22> H   -0.35874143    2.52977555    4.94062574
| 23> C    0.20850911    0.50297661    4.65798185
| 24> O    0.49313751    0.15061519    5.79651991
| 25> N   -0.16388616   -0.36274014    3.67874076
| 26> H   -0.32501406   -0.00474940    2.75267242
| 27> C   -0.20067904   -1.78961937    3.89682782
| 28> H   -0.12259147   -1.95652690    4.96682405
| 29> H   -1.13591957   -2.20796994    3.53008970
| 30> H    0.62844744   -2.29349213    3.39949039
| 31> *
| 32>
| 33> $new_job
| 34> ! ri-mp2 aug-cc-pvtz aug-cc-pvtz/c tightscf
| 35> %pal nprocs 16 end
| 36> %maxcore 3800
| 37> %base "TZ_S66by10_57_1.0_dimer"
| 38>
| 39> *xyz 0 1
| 40> C    0.40877989    1.05102502    0.37553605
| 41> H    1.01193875    1.94854570    0.36807788
| 42> C    1.01916788   -0.19976963    0.28905343
| 43> H    2.09557130   -0.27183333    0.21719099
| 44> C    0.24172263   -1.35688270    0.29668995
| 45> H    0.71521633   -2.32658869    0.22807218
| 46> C   -1.14617971   -1.26425757    0.39390198
| 47> H   -1.74918186   -2.16192663    0.39940980
| 48> C   -1.75727780   -0.01396023    0.48295173
| 49> H   -2.83351378    0.05824368    0.55903918
| 50> C   -0.97968602    1.14420653    0.47228370
| 51> H   -1.45405142    2.11400088    0.53713589
| 52> C    0.24535544    1.95613972    4.24227302
| 53> H   -0.11278966    2.12187056    3.22898025
| 54> H    1.26993900    2.31284928    4.32371453
| 55> H   -0.35874143    2.52977555    4.94062574
| 56> C    0.20850911    0.50297661    4.65798185
| 57> O    0.49313751    0.15061519    5.79651991
| 58> N   -0.16388616   -0.36274014    3.67874076
| 59> H   -0.32501406   -0.00474940    2.75267242
| 60> C   -0.20067904   -1.78961937    3.89682782
| 61> H   -0.12259147   -1.95652690    4.96682405
| 62> H   -1.13591957   -2.20796994    3.53008970
| 63> H    0.62844744   -2.29349213    3.39949039
| 64> *
| 65>
| 66> $new_job
| 67> ! ri-mp2 aug-cc-pvqz aug-cc-pvqz/c tightscf
| 68> %pal nprocs 16 end
| 69> %maxcore 3800
| 70> %base "QZ_S66by10_57_1.0_dimer"
| 71>
| 72> *xyz 0 1
| 73> C    0.40877989    1.05102502    0.37553605
| 74> H    1.01193875    1.94854570    0.36807788
| 75> C    1.01916788   -0.19976963    0.28905343
| 76> H    2.09557130   -0.27183333    0.21719099
| 77> C    0.24172263   -1.35688270    0.29668995
| 78> H    0.71521633   -2.32658869    0.22807218
| 79> C   -1.14617971   -1.26425757    0.39390198
| 80> H   -1.74918186   -2.16192663    0.39940980
| 81> C   -1.75727780   -0.01396023    0.48295173
| 82> H   -2.83351378    0.05824368    0.55903918
| 83> C   -0.97968602    1.14420653    0.47228370
| 84> H   -1.45405142    2.11400088    0.53713589
| 85> C    0.24535544    1.95613972    4.24227302
| 86> H   -0.11278966    2.12187056    3.22898025
| 87> H    1.26993900    2.31284928    4.32371453
| 88> H   -0.35874143    2.52977555    4.94062574
| 89> C    0.20850911    0.50297661    4.65798185
| 90> O    0.49313751    0.15061519    5.79651991
| 91> N   -0.16388616   -0.36274014    3.67874076
| 92> H   -0.32501406   -0.00474940    2.75267242
| 93> C   -0.20067904   -1.78961937    3.89682782
| 94> H   -0.12259147   -1.95652690    4.96682405
| 95> H   -1.13591957   -2.20796994    3.53008970
| 96> H    0.62844744   -2.29349213    3.39949039
| 97> *
| 98>
| 99>
|100>
|101>
|102>                          ****END OF INPUT****
 Total Charge           Charge          ....    0
 Multiplicity           Mult            ....    1
 Number of Electrons    NEL             ....   82
MP2 TOTAL ENERGY:     -479.399809070 Eh
FINAL SINGLE POINT ENERGY      -479.399809070119
MP2 TOTAL ENERGY:     -479.827134971 Eh
FINAL SINGLE POINT ENERGY      -479.827134971073

CARTESIAN COORDINATES (ANGSTROEM)
---------------------------------
  C      0.408780    1.051025    0.375536
  H      1.011939    1.948546    0.368078
  C      1.019168   -0.199770    0.289053
  H      2.095571   -0.271833    0.217191
  C      0.241723   -1.356883    0.296690
  H      0.715216   -2.326589    0.228072
  C     -1.146180   -1.264258    0.393902
  H     -1.749182   -2.161927    0.399410
  C     -1.757278   -0.013960    0.482952
  H     -2.833514    0.058244    0.559039
  C     -0.979686    1.144207    0.472284
  H     -1.454051    2.114001    0.537136
  C      0.245355    1.956140    4.242273
  H     -0.112790    2.121871    3.228980
  H      1.269939    2.312849    4.323715
  H     -0.358741    2.529776    4.940626
  C      0.208509    0.502977    4.657982
  O      0.493138    0.150615    5.796520
  N     -0.163886   -0.362740    3.678741
  H     -0.325014   -0.004749    2.752672
  C     -0.200679   -1.789619    3.896828
  H     -0.122591   -1.956527    4.966824
  H     -1.135920   -2.207970    3.530090
  H      0.628447   -2.293492    3.399490

 Multiplicity           Mult            ....    1
 Number of Electrons    NEL             ....   82
 Basis Dimension        Dim             .... 1478

ORBITAL ENERGIES
----------------

  NO   OCC          E(Eh)            E(eV)
   0   2.0000     -20.496667      -557.7427
   1   2.0000     -15.568577      -423.6425
   2   2.0000     -11.334527      -308.4282
   3   2.0000     -11.253889      -306.2339
   4   2.0000     -11.253156      -306.2139
   5   2.0000     -11.252873      -306.2063
   6   2.0000     -11.251996      -306.1824
   7   2.0000     -11.251708      -306.1745
   8   2.0000     -11.250957      -306.1541
   9   2.0000     -11.244126      -305.9682
  10   2.0000     -11.223761      -305.4141
  11   2.0000      -1.361081       -37.0369
  12   2.0000      -1.217018       -33.1168
  13   2.0000      -1.169629       -31.8272
  14   2.0000      -1.033783       -28.1307
  15   2.0000      -1.033346       -28.1188
  16   2.0000      -1.007592       -27.4180
  17   2.0000      -0.920682       -25.0530
  18   2.0000      -0.842353       -22.9216
  19   2.0000      -0.842233       -22.9183
  20   2.0000      -0.776877       -21.1399
  21   2.0000      -0.728000       -19.8099
  22   2.0000      -0.679784       -18.4979
  23   2.0000      -0.661842       -18.0096
  24   2.0000      -0.641336       -17.4516
  25   2.0000      -0.637392       -17.3443
  26   2.0000      -0.622205       -16.9311
  27   2.0000      -0.606512       -16.5040
  28   2.0000      -0.606222       -16.4961
  29   2.0000      -0.577246       -15.7077
  30   2.0000      -0.571817       -15.5599
  31   2.0000      -0.544422       -14.8145
  32   2.0000      -0.535891       -14.5823
  33   2.0000      -0.517911       -14.0931
  34   2.0000      -0.512970       -13.9586
  35   2.0000      -0.512766       -13.9531
  36   2.0000      -0.493652       -13.4329
  37   2.0000      -0.409716       -11.1489
  38   2.0000      -0.380217       -10.3462
  39   2.0000      -0.357085        -9.7168
  40   2.0000      -0.355355        -9.6697
  41   0.0000       0.019122         0.5203
  42   0.0000       0.024739         0.6732
  43   0.0000       0.025554         0.6954
  44   0.0000       0.037363         1.0167
  45   0.0000       0.037639         1.0242

MULLIKEN ATOMIC CHARGES
-----------------------
   0 C :   -0.274319
   1 H :    0.308372
   2 C :   -0.343555
   3 H :    0.295804
   4 C :   -0.366925
   5 H :    0.276637
   6 C :   -0.295327
   7 H :    0.349439
   8 C :   -0.370946
   9 H :    0.277744
  10 C :   -0.262737
  11 H :    0.310150
  12 C :   -0.921294
  13 H :    0.286614
  14 H :    0.255572
  15 H :    0.298474
  16 C :    0.959126
  17 O :   -0.913346
  18 N :   -0.631044
  19 H :    0.728770
  20 C :   -0.975905
  21 H :    0.361914
  22 H :    0.302538
  23 H :    0.344242
Sum of atomic charges:   -0.0000000

LOEWDIN ATOMIC CHARGES
----------------------
   0 C :    0.328333
   1 H :   -0.314655
   2 C :    0.339542
   3 H :   -0.315021
   4 C :    0.327575
   5 H :   -0.314988
   6 C :    0.327643
   7 H :   -0.314974
   8 C :    0.337969
   9 H :   -0.314588
  10 C :    0.327423
  11 H :   -0.314856
  12 C :    0.892134
  13 H :   -0.334876
  14 H :   -0.293372
  15 H :   -0.298697
  16 C :   -0.822225
  17 O :    0.697203
  18 N :    0.828648
  19 H :   -0.623812
  20 C :    0.779003
  21 H :   -0.354648
  22 H :   -0.287443
  23 H :   -0.281319

  Mayer bond orders larger than 0.100000
B(  0-C ,  1-H ) :   1.0409 B(  0-C ,  2-C ) :   1.2446 B(  0-C ,  6-C ) :   0.1209
B(  0-C , 10-C ) :   1.1142 B(  2-C ,  3-H ) :   1.0409 B(  2-C ,  4-C ) :   1.3265
B(  2-C ,  8-C ) :   0.2768 B(  4-C ,  5-H ) :   1.0753 B(  4-C ,  6-C ) :   1.1507
B(  4-C , 10-C ) :   0.1124 B(  6-C ,  7-H ) :   0.9859 B(  6-C ,  8-C ) :   1.3053
B(  8-C ,  9-H ) :   1.0688 B(  8-C , 10-C ) :   1.2734 B( 10-C , 11-H ) :   1.0432
B( 12-C , 13-H ) :   0.9383 B( 12-C , 14-H ) :   0.9516 B( 12-C , 15-H ) :   0.9575
B( 12-C , 16-C ) :   0.9379 B( 12-C , 17-O ) :   0.1630 B( 16-C , 17-O ) :   1.0721
B( 16-C , 18-N ) :   1.2451 B( 17-O , 18-N ) :   0.2222 B( 18-N , 19-H ) :   0.6563
B( 18-N , 20-C ) :   0.7991 B( 20-C , 21-H ) :   0.8860 B( 20-C , 22-H ) :   0.9541
B( 20-C , 23-H ) :   0.9188

MP2 TOTAL ENERGY:     -479.962182669 Eh
FINAL SINGLE POINT ENERGY      -479.962182669330

DIPOLE MOMENT
-------------
                                X             Y             Z
Electronic contribution:      0.18605       0.04697      -0.90755
Nuclear contribution   :     -0.57437       0.06901      -0.97801
                        -----------------------------------------
Total Dipole Moment    :     -0.38832       0.11598      -1.88556
                        -----------------------------------------
Magnitude (a.u.)       :      1.92862
Magnitude (Debye)      :      4.90216

Rotational constants in cm-1:     0.056602     0.021514     0.018808
Rotational constants in MHz :  1696.892751   644.988445   563.850352

                             ****ORCA TERMINATED NORMALLY****
TOTAL RUN TIME: 0 days 1 hours 27 minutes 59 seconds 118 msec
