                         Program Version 5.0.4 -  RELEASE  -
|  1> ! ri-mp2 aug-cc-pvdz aug-cc-pvdz/c tightscf
|  2> %pal nprocs 16 end
|  3> %maxcore 3800
|  4> %base "DZ_S66by10_53_0.9_dimer"
|  5>
|  6> *xyz 0 1
|  7> C    0.85556074    0.35853244    1.04975426
|  8> H    1.51382550    0.90267956    1.71276582
|  9> C    1.34289713   -0.67537866    0.25115740
| 10> H    2.39288384   -0.93334472    0.28196305
| 11> C    0.47780661   -1.37670110   -0.58781577
| 12> H    0.85608399   -2.17890753   -1.20682428
| 13> C   -0.87482983   -1.04255615   -0.63045178
| 14> H   -1.54540573   -1.58570014   -1.28241614
| 15> C   -1.36239729   -0.00701391    0.16584645
| 16> H   -2.41157102    0.25346723    0.13077885
| 17> C   -0.49844404    0.69315695    1.00699199
| 18> H   -0.86611090    1.49033989    1.63803696
| 19> C    0.11930824    0.61602943    4.59382543
| 20> O    0.36579759    1.65945568    4.00658614
| 21> N   -0.18473901   -0.53897710    3.94265808
| 22> H   -0.15953869   -0.54599244    2.93602147
| 23> H   -0.34051549   -1.39446942    4.43835979
| 24> C    0.14215294    0.52113760    6.10224290
| 25> H    1.17386674    0.60534988    6.43731669
| 26> H   -0.27975097   -0.40550539    6.48326857
| 27> H   -0.40731172    1.36498391    6.50901341
| 28> *
| 29>
| 30> $new_job
| 31> ! ri-mp2 aug-cc-pvtz aug-cc-pvtz/c tightscf
| 32> %pal nprocs 16 end
| 33> %maxcore 3800
| 34> %base "TZ_S66by10_53_0.9_dimer"
| 35>
| 36> *xyz 0 1
| 37> C    0.85556074    0.35853244    1.04975426
| 38> H    1.51382550    0.90267956    1.71276582
| 39> C    1.34289713   -0.67537866    0.25115740
| 40> H    2.39288384   -0.93334472    0.28196305
| 41> C    0.47780661   -1.37670110   -0.58781577
| 42> H    0.85608399   -2.17890753   -1.20682428
| 43> C   -0.87482983   -1.04255615   -0.63045178
| 44> H   -1.54540573   -1.58570014   -1.28241614
| 45> C   -1.36239729   -0.00701391    0.16584645
| 46> H   -2.41157102    0.25346723    0.13077885
| 47> C   -0.49844404    0.69315695    1.00699199
| 48> H   -0.86611090    1.49033989    1.63803696
| 49> C    0.11930824    0.61602943    4.59382543
| 50> O    0.36579759    1.65945568    4.00658614
| 51> N   -0.18473901   -0.53897710    3.94265808
| 52> H   -0.15953869   -0.54599244    2.93602147
| 53> H   -0.34051549   -1.39446942    4.43835979
| 54> C    0.14215294    0.52113760    6.10224290
| 55> H    1.17386674    0.60534988    6.43731669
| 56> H   -0.27975097   -0.40550539    6.48326857
| 57> H   -0.40731172    1.36498391    6.50901341
| 58> *
| 59>
| 60> $new_job
| 61> ! ri-mp2 aug-cc-pvqz aug-cc-pvqz/c tightscf
| 62> %pal nprocs 16 end
| 63> %maxcore 3800
| 64> %base "QZ_S66by10_53_0.9_dimer"
| 65>
| 66> *xyz 0 1
| 67> C    0.85556074    0.35853244    1.04975426
| 68> H    1.51382550    0.90267956    1.71276582
| 69> C    1.34289713   -0.67537866    0.25115740
| 70> H    2.39288384   -0.93334472    0.28196305
| 71> C    0.47780661   -1.37670110   -0.58781577
| 72> H    0.85608399   -2.17890753   -1.20682428
| 73> C   -0.87482983   -1.04255615   -0.63045178
| 74> H   -1.54540573   -1.58570014   -1.28241614
| 75> C   -1.36239729   -0.00701391    0.16584645
| 76> H   -2.41157102    0.25346723    0.13077885
| 77> C   -0.49844404    0.69315695    1.00699199
| 78> H   -0.86611090    1.49033989    1.63803696
| 79> C    0.11930824    0.61602943    4.59382543
| 80> O    0.36579759    1.65945568    4.00658614
| 81> N   -0.18473901   -0.53897710    3.94265808
| 82> H   -0.15953869   -0.54599244    2.93602147
| 83> H   -0.34051549   -1.39446942    4.43835979
| 84> C    0.14215294    0.52113760    6.10224290
| 85> H    1.17386674    0.60534988    6.43731669
| 86> H   -0.27975097   -0.40550539    6.48326857
| 87> H   -0.40731172    1.36498391    6.50901341
| 88> *
| 89>
| 90>
| 91>
| 92>
| 93>                          ****END OF INPUT****
 Total Charge           Charge          ....    0
 Multiplicity           Mult            ....    1
 Number of Electrons    NEL             ....   74
MP2 TOTAL ENERGY:     -440.216936380 Eh
FINAL SINGLE POINT ENERGY      -440.216936380351
MP2 TOTAL ENERGY:     -440.607308828 Eh
FINAL SINGLE POINT ENERGY      -440.607308828468

CARTESIAN COORDINATES (ANGSTROEM)
---------------------------------
  C      0.855561    0.358532    1.049754
  H      1.513825    0.902680    1.712766
  C      1.342897   -0.675379    0.251157
  H      2.392884   -0.933345    0.281963
  C      0.477807   -1.376701   -0.587816
  H      0.856084   -2.178908   -1.206824
  C     -0.874830   -1.042556   -0.630452
  H     -1.545406   -1.585700   -1.282416
  C     -1.362397   -0.007014    0.165846
  H     -2.411571    0.253467    0.130779
  C     -0.498444    0.693157    1.006992
  H     -0.866111    1.490340    1.638037
  C      0.119308    0.616029    4.593825
  O      0.365798    1.659456    4.006586
  N     -0.184739   -0.538977    3.942658
  H     -0.159539   -0.545992    2.936021
  H     -0.340515   -1.394469    4.438360
  C      0.142153    0.521138    6.102243
  H      1.173867    0.605350    6.437317
  H     -0.279751   -0.405505    6.483269
  H     -0.407312    1.364984    6.509013

 Multiplicity           Mult            ....    1
 Number of Electrons    NEL             ....   74
 Basis Dimension        Dim             .... 1306

ORBITAL ENERGIES
----------------

  NO   OCC          E(Eh)            E(eV)
   0   2.0000     -20.510478      -558.1185
   1   2.0000     -15.575864      -423.8408
   2   2.0000     -11.350117      -308.8524
   3   2.0000     -11.235410      -305.7310
   4   2.0000     -11.234476      -305.7056
   5   2.0000     -11.234175      -305.6974
   6   2.0000     -11.233523      -305.6797
   7   2.0000     -11.233220      -305.6714
   8   2.0000     -11.228931      -305.5547
   9   2.0000     -11.227707      -305.5214
  10   2.0000      -1.374687       -37.4071
  11   2.0000      -1.208059       -32.8730
  12   2.0000      -1.149665       -31.2840
  13   2.0000      -1.014654       -27.6101
  14   2.0000      -1.013717       -27.5846
  15   2.0000      -1.002715       -27.2853
  16   2.0000      -0.823812       -22.4171
  17   2.0000      -0.821904       -22.3651
  18   2.0000      -0.795846       -21.6561
  19   2.0000      -0.724636       -19.7183
  20   2.0000      -0.707173       -19.2432
  21   2.0000      -0.664037       -18.0694
  22   2.0000      -0.642141       -17.4735
  23   2.0000      -0.617631       -16.8066
  24   2.0000      -0.613693       -16.6994
  25   2.0000      -0.586896       -15.9703
  26   2.0000      -0.586797       -15.9676
  27   2.0000      -0.582128       -15.8405
  28   2.0000      -0.561357       -15.2753
  29   2.0000      -0.522800       -14.2261
  30   2.0000      -0.502172       -13.6648
  31   2.0000      -0.492616       -13.4048
  32   2.0000      -0.491792       -13.3823
  33   2.0000      -0.423486       -11.5236
  34   2.0000      -0.411235       -11.1903
  35   2.0000      -0.337488        -9.1835
  36   2.0000      -0.336065        -9.1448
  37   0.0000       0.020173         0.5489
  38   0.0000       0.027448         0.7469
  39   0.0000       0.030244         0.8230
  40   0.0000       0.036468         0.9923
  41   0.0000       0.038876         1.0579

MULLIKEN ATOMIC CHARGES
-----------------------
   0 C :   -0.155090
   1 H :    0.385035
   2 C :   -0.480425
   3 H :    0.294800
   4 C :   -0.375428
   5 H :    0.340461
   6 C :   -0.359884
   7 H :    0.344668
   8 C :   -0.477189
   9 H :    0.294164
  10 C :   -0.173890
  11 H :    0.388328
  12 C :    0.937575
  13 O :   -0.865539
  14 N :   -0.824464
  15 H :    0.453144
  16 H :    0.216360
  17 C :   -0.745541
  18 H :    0.295975
  19 H :    0.236104
  20 H :    0.270835
Sum of atomic charges:   -0.0000000

LOEWDIN ATOMIC CHARGES
----------------------
   0 C :    0.308597
   1 H :   -0.332556
   2 C :    0.345789
   3 H :   -0.322683
   4 C :    0.332271
   5 H :   -0.327477
   6 C :    0.332492
   7 H :   -0.327440
   8 C :    0.346291
   9 H :   -0.322360
  10 C :    0.308584
  11 H :   -0.332103
  12 C :   -0.827951
  13 O :    0.701748
  14 N :    1.257512
  15 H :   -0.624918
  16 H :   -0.487398
  17 C :    0.890022
  18 H :   -0.296127
  19 H :   -0.314601
  20 H :   -0.307692

  Mayer bond orders larger than 0.100000
B(  0-C ,  1-H ) :   0.9485 B(  0-C ,  2-C ) :   1.1994 B(  0-C ,  6-C ) :   0.1222
B(  0-C , 10-C ) :   1.1728 B(  2-C ,  3-H ) :   1.0372 B(  2-C ,  4-C ) :   1.2691
B(  2-C ,  8-C ) :   0.1473 B(  4-C ,  5-H ) :   0.9970 B(  4-C ,  6-C ) :   1.1831
B(  4-C , 10-C ) :   0.1251 B(  6-C ,  7-H ) :   0.9924 B(  6-C ,  8-C ) :   1.2601
B(  8-C ,  9-H ) :   1.0384 B(  8-C , 10-C ) :   1.2080 B( 10-C , 11-H ) :   0.9418
B( 12-C , 13-O ) :   1.3365 B( 12-C , 14-N ) :   1.1125 B( 12-C , 17-C ) :   0.7676
B( 13-O , 14-N ) :   0.1462 B( 14-N , 15-H ) :   0.6822 B( 14-N , 16-H ) :   1.0785
B( 17-C , 18-H ) :   0.9076 B( 17-C , 19-H ) :   1.0042 B( 17-C , 20-H ) :   0.9956

MP2 TOTAL ENERGY:     -440.731542084 Eh
FINAL SINGLE POINT ENERGY      -440.731542084367

DIPOLE MOMENT
-------------
                                X             Y             Z
Electronic contribution:      0.21610       1.28311      -3.93139
Nuclear contribution   :     -0.48803      -2.67683       4.47542
                        -----------------------------------------
Total Dipole Moment    :     -0.27193      -1.39373       0.54402
                        -----------------------------------------
Magnitude (a.u.)       :      1.52065
Magnitude (Debye)      :      3.86519

Rotational constants in cm-1:     0.103090     0.019219     0.018855
Rotational constants in MHz :  3090.573399   576.181343   565.246438

                             ****ORCA TERMINATED NORMALLY****
TOTAL RUN TIME: 0 days 0 hours 46 minutes 26 seconds 784 msec
