                         Program Version 5.0.4 -  RELEASE  -
|  1> ! ri-mp2 aug-cc-pvdz aug-cc-pvdz/c tightscf
|  2> %pal nprocs 16 end
|  3> %maxcore 3800
|  4> %base "DZ_S66by10_5_0.95_dimer"
|  5> %scf STABPerform true end
|  6>
|  7> *xyz 0 1
|  8> O   -0.63613493   -0.02328241    0.28059932
|  9> H    0.30809737   -0.04707875    0.07646369
| 10> C   -1.15206541   -1.31128778    0.01525955
| 11> H   -2.20994502   -1.29626539    0.26395586
| 12> H   -1.05661024   -1.59267086   -1.03619061
| 13> H   -0.67483575   -2.08627276    0.62051145
| 14> O    2.14468649   -0.11952874   -0.00904238
| 15> H    2.61347580    0.49485579   -0.57870833
| 16> C    2.65352042    0.03749020    1.31267494
| 17> H    2.09995134   -0.65070622    1.94280582
| 18> H    3.71251652   -0.21294870    1.36939809
| 19> H    2.50108078    1.04818426    1.69056749
| 20> *
| 21>
| 22> $new_job
| 23> ! ri-mp2 aug-cc-pvtz aug-cc-pvtz/c tightscf
| 24> %pal nprocs 16 end
| 25> %maxcore 3800
| 26> %base "TZ_S66by10_5_0.95_dimer"
| 27>
| 28> *xyz 0 1
| 29> O   -0.63613493   -0.02328241    0.28059932
| 30> H    0.30809737   -0.04707875    0.07646369
| 31> C   -1.15206541   -1.31128778    0.01525955
| 32> H   -2.20994502   -1.29626539    0.26395586
| 33> H   -1.05661024   -1.59267086   -1.03619061
| 34> H   -0.67483575   -2.08627276    0.62051145
| 35> O    2.14468649   -0.11952874   -0.00904238
| 36> H    2.61347580    0.49485579   -0.57870833
| 37> C    2.65352042    0.03749020    1.31267494
| 38> H    2.09995134   -0.65070622    1.94280582
| 39> H    3.71251652   -0.21294870    1.36939809
| 40> H    2.50108078    1.04818426    1.69056749
| 41> *
| 42>
| 43> $new_job
| 44> ! ri-mp2 aug-cc-pvqz aug-cc-pvqz/c tightscf
| 45> %pal nprocs 16 end
| 46> %maxcore 3800
| 47> %base "QZ_S66by10_5_0.95_dimer"
| 48>
| 49> *xyz 0 1
| 50> O   -0.63613493   -0.02328241    0.28059932
| 51> H    0.30809737   -0.04707875    0.07646369
| 52> C   -1.15206541   -1.31128778    0.01525955
| 53> H   -2.20994502   -1.29626539    0.26395586
| 54> H   -1.05661024   -1.59267086   -1.03619061
| 55> H   -0.67483575   -2.08627276    0.62051145
| 56> O    2.14468649   -0.11952874   -0.00904238
| 57> H    2.61347580    0.49485579   -0.57870833
| 58> C    2.65352042    0.03749020    1.31267494
| 59> H    2.09995134   -0.65070622    1.94280582
| 60> H    3.71251652   -0.21294870    1.36939809
| 61> H    2.50108078    1.04818426    1.69056749
| 62> *
| 63>
| 64>
| 65>
| 66>
| 67>                          ****END OF INPUT****
 Total Charge           Charge          ....    0
 Multiplicity           Mult            ....    1
 Number of Electrons    NEL             ....   36
MP2 TOTAL ENERGY:     -230.852850372 Eh
FINAL SINGLE POINT ENERGY      -230.852850371930
MP2 TOTAL ENERGY:     -231.067596002 Eh
FINAL SINGLE POINT ENERGY      -231.067596001512

CARTESIAN COORDINATES (ANGSTROEM)
---------------------------------
  O     -0.636135   -0.023282    0.280599
  H      0.308097   -0.047079    0.076464
  C     -1.152065   -1.311288    0.015260
  H     -2.209945   -1.296265    0.263956
  H     -1.056610   -1.592671   -1.036191
  H     -0.674836   -2.086273    0.620511
  O      2.144686   -0.119529   -0.009042
  H      2.613476    0.494856   -0.578708
  C      2.653520    0.037490    1.312675
  H      2.099951   -0.650706    1.942806
  H      3.712517   -0.212949    1.369398
  H      2.501081    1.048184    1.690567

 Multiplicity           Mult            ....    1
 Number of Electrons    NEL             ....   36
 Basis Dimension        Dim             ....  688

ORBITAL ENERGIES
----------------

  NO   OCC          E(Eh)            E(eV)
   0   2.0000     -20.581419      -560.0489
   1   2.0000     -20.523177      -558.4640
   2   2.0000     -11.283710      -307.0454
   3   2.0000     -11.249429      -306.1125
   4   2.0000      -1.383760       -37.6540
   5   2.0000      -1.329298       -36.1720
   6   2.0000      -0.943475       -25.6733
   7   2.0000      -0.903785       -24.5933
   8   2.0000      -0.719546       -19.5798
   9   2.0000      -0.673965       -18.3395
  10   2.0000      -0.635978       -17.3059
  11   2.0000      -0.611177       -16.6310
  12   2.0000      -0.597874       -16.2690
  13   2.0000      -0.570342       -15.5198
  14   2.0000      -0.528396       -14.3784
  15   2.0000      -0.486822       -13.2471
  16   2.0000      -0.466090       -12.6830
  17   2.0000      -0.424595       -11.5538
  18   0.0000       0.021685         0.5901
  19   0.0000       0.035345         0.9618
  20   0.0000       0.036994         1.0067
  21   0.0000       0.040063         1.0902
  22   0.0000       0.051825         1.4102

MULLIKEN ATOMIC CHARGES
-----------------------
   0 O :   -0.723937
   1 H :    0.324587
   2 C :   -0.495861
   3 H :    0.349229
   4 H :    0.241977
   5 H :    0.247625
   6 O :   -0.657745
   7 H :    0.347767
   8 C :   -0.560239
   9 H :    0.298192
  10 H :    0.356890
  11 H :    0.271513
Sum of atomic charges:    0.0000000

LOEWDIN ATOMIC CHARGES
----------------------
   0 O :    1.243349
   1 H :   -1.063543
   2 C :    0.561766
   3 H :   -0.345905
   4 H :   -0.318806
   5 H :   -0.320501
   6 O :    1.294609
   7 H :   -0.742782
   8 C :    0.633058
   9 H :   -0.328481
  10 H :   -0.309416
  11 H :   -0.303349

  Mayer bond orders larger than 0.100000
B(  0-O ,  1-H ) :   0.9149 B(  0-O ,  2-C ) :   0.8590 B(  2-C ,  3-H ) :   0.8836
B(  2-C ,  4-H ) :   0.9293 B(  2-C ,  5-H ) :   0.9169 B(  6-O ,  7-H ) :   0.8819
B(  6-O ,  8-C ) :   0.8544 B(  8-C ,  9-H ) :   0.8982 B(  8-C , 10-H ) :   0.8664
B(  8-C , 11-H ) :   0.9149

MP2 TOTAL ENERGY:     -231.135564039 Eh
FINAL SINGLE POINT ENERGY      -231.135564038730

DIPOLE MOMENT
-------------
                                X             Y             Z
Electronic contribution:      0.14166       1.46314      -1.16504
Nuclear contribution   :      1.04240      -1.49422       1.18232
                        -----------------------------------------
Total Dipole Moment    :      1.18406      -0.03108       0.01728
                        -----------------------------------------
Magnitude (a.u.)       :      1.18459
Magnitude (Debye)      :      3.01100

Rotational constants in cm-1:     0.545534     0.080239     0.078990
Rotational constants in MHz : 16354.693561  2405.490403  2368.057641

                             ****ORCA TERMINATED NORMALLY****
TOTAL RUN TIME: 0 days 0 hours 33 minutes 56 seconds 277 msec
