                         Program Version 5.0.4 -  RELEASE  -
|  1> ! ri-mp2 aug-cc-pvdz aug-cc-pvdz/c tightscf
|  2> %pal nprocs 16 end
|  3> %maxcore 3800
|  4> %base "DZ_S66by10_28_0.95_dimer"
|  5>
|  6> *xyz 0 1
|  7> C    0.82576911    1.23652484   -0.04025044
|  8> H    1.52101317    2.06312520   -0.08247145
|  9> C    1.30015992   -0.06294088    0.12725601
| 10> H    2.36365753   -0.24226113    0.20767420
| 11> C    0.40352312   -1.12855218    0.19824486
| 12> H    0.77375338   -2.13742677    0.32412109
| 13> C   -0.96780949   -0.89519049    0.10313994
| 14> H   -1.66520900   -1.71998342    0.16042745
| 15> C   -1.44350838    0.40448328   -0.06244130
| 16> H   -2.50751124    0.58550112   -0.12415016
| 17> C   -0.54575549    1.46876875   -0.13624741
| 18> H   -0.91422190    2.47742220   -0.26785516
| 19> N   -0.28165718    0.69063527    3.03974698
| 20> H   -0.65496458    1.59239669    2.77685401
| 21> C    1.11048950    0.61764836    3.17176032
| 22> O    1.80139982    1.61207205    3.02692625
| 23> C    1.58938961   -0.71642935    3.48987052
| 24> H    2.64644171   -0.86864529    3.62399166
| 25> C    0.70968038   -1.73081053    3.61608705
| 26> H    1.01560791   -2.73923113    3.85261141
| 27> N   -0.63556550   -1.54577861    3.44599490
| 28> H   -1.28431333   -2.30833755    3.54486407
| 29> C   -1.21001381   -0.32097758    3.14658029
| 30> O   -2.40780222   -0.17015430    3.00446810
| 31> *
| 32>
| 33> $new_job
| 34> ! ri-mp2 aug-cc-pvtz aug-cc-pvtz/c tightscf
| 35> %pal nprocs 16 end
| 36> %maxcore 3800
| 37> %base "TZ_S66by10_28_0.95_dimer"
| 38>
| 39> *xyz 0 1
| 40> C    0.82576911    1.23652484   -0.04025044
| 41> H    1.52101317    2.06312520   -0.08247145
| 42> C    1.30015992   -0.06294088    0.12725601
| 43> H    2.36365753   -0.24226113    0.20767420
| 44> C    0.40352312   -1.12855218    0.19824486
| 45> H    0.77375338   -2.13742677    0.32412109
| 46> C   -0.96780949   -0.89519049    0.10313994
| 47> H   -1.66520900   -1.71998342    0.16042745
| 48> C   -1.44350838    0.40448328   -0.06244130
| 49> H   -2.50751124    0.58550112   -0.12415016
| 50> C   -0.54575549    1.46876875   -0.13624741
| 51> H   -0.91422190    2.47742220   -0.26785516
| 52> N   -0.28165718    0.69063527    3.03974698
| 53> H   -0.65496458    1.59239669    2.77685401
| 54> C    1.11048950    0.61764836    3.17176032
| 55> O    1.80139982    1.61207205    3.02692625
| 56> C    1.58938961   -0.71642935    3.48987052
| 57> H    2.64644171   -0.86864529    3.62399166
| 58> C    0.70968038   -1.73081053    3.61608705
| 59> H    1.01560791   -2.73923113    3.85261141
| 60> N   -0.63556550   -1.54577861    3.44599490
| 61> H   -1.28431333   -2.30833755    3.54486407
| 62> C   -1.21001381   -0.32097758    3.14658029
| 63> O   -2.40780222   -0.17015430    3.00446810
| 64> *
| 65>
| 66> $new_job
| 67> ! ri-mp2 aug-cc-pvqz aug-cc-pvqz/c tightscf
| 68> %pal nprocs 16 end
| 69> %maxcore 3800
| 70> %base "QZ_S66by10_28_0.95_dimer"
| 71>
| 72> *xyz 0 1
| 73> C    0.82576911    1.23652484   -0.04025044
| 74> H    1.52101317    2.06312520   -0.08247145
| 75> C    1.30015992   -0.06294088    0.12725601
| 76> H    2.36365753   -0.24226113    0.20767420
| 77> C    0.40352312   -1.12855218    0.19824486
| 78> H    0.77375338   -2.13742677    0.32412109
| 79> C   -0.96780949   -0.89519049    0.10313994
| 80> H   -1.66520900   -1.71998342    0.16042745
| 81> C   -1.44350838    0.40448328   -0.06244130
| 82> H   -2.50751124    0.58550112   -0.12415016
| 83> C   -0.54575549    1.46876875   -0.13624741
| 84> H   -0.91422190    2.47742220   -0.26785516
| 85> N   -0.28165718    0.69063527    3.03974698
| 86> H   -0.65496458    1.59239669    2.77685401
| 87> C    1.11048950    0.61764836    3.17176032
| 88> O    1.80139982    1.61207205    3.02692625
| 89> C    1.58938961   -0.71642935    3.48987052
| 90> H    2.64644171   -0.86864529    3.62399166
| 91> C    0.70968038   -1.73081053    3.61608705
| 92> H    1.01560791   -2.73923113    3.85261141
| 93> N   -0.63556550   -1.54577861    3.44599490
| 94> H   -1.28431333   -2.30833755    3.54486407
| 95> C   -1.21001381   -0.32097758    3.14658029
| 96> O   -2.40780222   -0.17015430    3.00446810
| 97> *
| 98>
| 99>
|100>
|101>
|102>                          ****END OF INPUT****
 Total Charge           Charge          ....    0
 Multiplicity           Mult            ....    1
 Number of Electrons    NEL             ....  100
MP2 TOTAL ENERGY:     -645.335698349 Eh
FINAL SINGLE POINT ENERGY      -645.335698348704
MP2 TOTAL ENERGY:     -645.885127439 Eh
FINAL SINGLE POINT ENERGY      -645.885127439313

CARTESIAN COORDINATES (ANGSTROEM)
---------------------------------
  C      0.825769    1.236525   -0.040250
  H      1.521013    2.063125   -0.082471
  C      1.300160   -0.062941    0.127256
  H      2.363658   -0.242261    0.207674
  C      0.403523   -1.128552    0.198245
  H      0.773753   -2.137427    0.324121
  C     -0.967809   -0.895190    0.103140
  H     -1.665209   -1.719983    0.160427
  C     -1.443508    0.404483   -0.062441
  H     -2.507511    0.585501   -0.124150
  C     -0.545755    1.468769   -0.136247
  H     -0.914222    2.477422   -0.267855
  N     -0.281657    0.690635    3.039747
  H     -0.654965    1.592397    2.776854
  C      1.110489    0.617648    3.171760
  O      1.801400    1.612072    3.026926
  C      1.589390   -0.716429    3.489871
  H      2.646442   -0.868645    3.623992
  C      0.709680   -1.730811    3.616087
  H      1.015608   -2.739231    3.852611
  N     -0.635565   -1.545779    3.445995
  H     -1.284313   -2.308338    3.544864
  C     -1.210014   -0.320978    3.146580
  O     -2.407802   -0.170154    3.004468

 Multiplicity           Mult            ....    1
 Number of Electrons    NEL             ....  100
 Basis Dimension        Dim             .... 1580

ORBITAL ENERGIES
----------------

  NO   OCC          E(Eh)            E(eV)
   0   2.0000     -20.535983      -558.8125
   1   2.0000     -20.530801      -558.6715
   2   2.0000     -15.634706      -425.4420
   3   2.0000     -15.614516      -424.8926
   4   2.0000     -11.409433      -310.4664
   5   2.0000     -11.371887      -309.4448
   6   2.0000     -11.331927      -308.3574
   7   2.0000     -11.247281      -306.0541
   8   2.0000     -11.237248      -305.7811
   9   2.0000     -11.233931      -305.6908
  10   2.0000     -11.233186      -305.6705
  11   2.0000     -11.232671      -305.6565
  12   2.0000     -11.232071      -305.6402
  13   2.0000     -11.231311      -305.6195
  14   2.0000      -1.427664       -38.8487
  15   2.0000      -1.389848       -37.8197
  16   2.0000      -1.305292       -35.5188
  17   2.0000      -1.237193       -33.6657
  18   2.0000      -1.151031       -31.3212
  19   2.0000      -1.080747       -29.4086
  20   2.0000      -1.015729       -27.6394
  21   2.0000      -1.014725       -27.6121
  22   2.0000      -0.925734       -25.1905
  23   2.0000      -0.893688       -24.3185
  24   2.0000      -0.824665       -22.4403
  25   2.0000      -0.823917       -22.4199
  26   2.0000      -0.799814       -21.7640
  27   2.0000      -0.757588       -20.6150
  28   2.0000      -0.710179       -19.3250
  29   2.0000      -0.706872       -19.2350
  30   2.0000      -0.670850       -18.2548
  31   2.0000      -0.663825       -18.0636
  32   2.0000      -0.646044       -17.5797
  33   2.0000      -0.644043       -17.5253
  34   2.0000      -0.619116       -16.8470
  35   2.0000      -0.608309       -16.5529
  36   2.0000      -0.594921       -16.1886
  37   2.0000      -0.588870       -16.0240
  38   2.0000      -0.587694       -15.9920
  39   2.0000      -0.565554       -15.3895
  40   2.0000      -0.521012       -14.1775
  41   2.0000      -0.499350       -13.5880
  42   2.0000      -0.495011       -13.4699
  43   2.0000      -0.494461       -13.4550
  44   2.0000      -0.475800       -12.9472
  45   2.0000      -0.442389       -12.0380
  46   2.0000      -0.429098       -11.6764
  47   2.0000      -0.363781        -9.8990
  48   2.0000      -0.338411        -9.2086
  49   2.0000      -0.334742        -9.1088
  50   0.0000       0.012572         0.3421
  51   0.0000       0.028112         0.7650
  52   0.0000       0.031112         0.8466
  53   0.0000       0.032392         0.8814
  54   0.0000       0.039952         1.0872

MULLIKEN ATOMIC CHARGES
-----------------------
   0 C :   -0.319452
   1 H :    0.312189
   2 C :   -0.222238
   3 H :    0.257493
   4 C :   -0.274171
   5 H :    0.314492
   6 C :   -0.246242
   7 H :    0.265116
   8 C :   -0.323712
   9 H :    0.283689
  10 C :   -0.325330
  11 H :    0.301421
  12 N :   -0.759481
  13 H :    0.114132
  14 C :    1.461392
  15 O :   -0.963547
  16 C :   -0.435489
  17 H :    0.227459
  18 C :   -0.227715
  19 H :    0.387107
  20 N :   -0.695151
  21 H :    0.067395
  22 C :    1.740924
  23 O :   -0.940283
Sum of atomic charges:    0.0000000

LOEWDIN ATOMIC CHARGES
----------------------
   0 C :    0.315573
   1 H :   -0.313016
   2 C :    0.305674
   3 H :   -0.311685
   4 C :    0.310782
   5 H :   -0.315439
   6 C :    0.304303
   7 H :   -0.314394
   8 C :    0.315292
   9 H :   -0.313405
  10 C :    0.329751
  11 H :   -0.316499
  12 N :    0.777680
  13 H :   -0.522280
  14 C :   -0.897707
  15 O :    0.708110
  16 C :    0.324933
  17 H :   -0.344714
  18 C :    0.228473
  19 H :   -0.292533
  20 N :    0.815923
  21 H :   -0.485839
  22 C :   -1.024661
  23 O :    0.715681

  Mayer bond orders larger than 0.100000
B(  0-C ,  1-H ) :   1.0427 B(  0-C ,  2-C ) :   1.2040 B(  0-C ,  6-C ) :   0.1702
B(  0-C , 10-C ) :   1.2401 B(  2-C ,  3-H ) :   1.0935 B(  2-C ,  4-C ) :   1.1364
B(  2-C ,  8-C ) :   0.1704 B(  4-C ,  5-H ) :   0.9933 B(  4-C ,  6-C ) :   1.1790
B(  4-C , 10-C ) :   0.1815 B(  6-C ,  7-H ) :   1.0965 B(  6-C ,  8-C ) :   1.1735
B(  8-C ,  9-H ) :   1.0858 B(  8-C , 10-C ) :   1.2483 B( 10-C , 11-H ) :   1.0574
B( 12-N , 13-H ) :   1.1645 B( 12-N , 14-C ) :   0.9905 B( 12-N , 15-O ) :   0.2274
B( 12-N , 22-C ) :   1.0361 B( 12-N , 23-O ) :   0.2551 B( 14-C , 15-O ) :   0.7855
B( 14-C , 16-C ) :   1.0264 B( 15-O , 16-C ) :   0.2264 B( 16-C , 17-H ) :   1.0620
B( 16-C , 18-C ) :   1.5796 B( 16-C , 19-H ) :  -0.1001 B( 18-C , 19-H ) :   0.9801
B( 18-C , 20-N ) :   0.8990 B( 20-N , 21-H ) :   1.2069 B( 20-N , 22-C ) :   0.9830
B( 20-N , 23-O ) :   0.2307 B( 22-C , 23-O ) :   0.7577

MP2 TOTAL ENERGY:     -646.063739866 Eh
FINAL SINGLE POINT ENERGY      -646.063739865915

DIPOLE MOMENT
-------------
                                X             Y             Z
Electronic contribution:     -0.98323       1.02416       5.09824
Nuclear contribution   :      1.19835      -2.79089      -4.80657
                        -----------------------------------------
Total Dipole Moment    :      0.21512      -1.76673       0.29167
                        -----------------------------------------
Magnitude (a.u.)       :      1.80352
Magnitude (Debye)      :      4.58419

Rotational constants in cm-1:     0.032017     0.024229     0.019903
Rotational constants in MHz :   959.831777   726.357608   596.683991

                             ****ORCA TERMINATED NORMALLY****
TOTAL RUN TIME: 0 days 2 hours 36 minutes 47 seconds 52 msec
