                         Program Version 5.0.4 -  RELEASE  -
|  1> ! ri-mp2 aug-cc-pvdz aug-cc-pvdz/c tightscf
|  2> %pal nprocs 16 end
|  3> %maxcore 3800
|  4> %base "DZ_S66by10_30_0.8_dimer"
|  5>
|  6> *xyz 0 1
|  7> C    0.83551718    1.11516693    0.02140131
|  8> H    1.48432398    1.98060858    0.01953430
|  9> C    1.38327497   -0.16614721    0.02376531
| 10> H    2.45714902   -0.29520468    0.02277108
| 11> C    0.54755466   -1.28131632    0.02168563
| 12> H    0.97293610   -2.27580453    0.01977853
| 13> C   -0.83552313   -1.11516159    0.02139907
| 14> H   -1.48433419   -1.98060639    0.01953009
| 15> C   -1.38328358    0.16615413    0.02375775
| 16> H   -2.45715618    0.29520906    0.02275707
| 17> C   -0.54756577    1.28132347    0.02168025
| 18> H   -0.97294284    2.27580548    0.01976873
| 19> C    0.65577914   -0.11678998    2.75539682
| 20> H    1.04723992   -1.12390881    2.75092855
| 21> H    1.37085293    0.69327400    2.75089523
| 22> C   -0.65577737    0.11679265    2.75540571
| 23> H   -1.37084932   -0.69327186    2.75090962
| 24> H   -1.04724048    1.12391155    2.75094751
| 25> *
| 26>
| 27> $new_job
| 28> ! ri-mp2 aug-cc-pvtz aug-cc-pvtz/c tightscf
| 29> %pal nprocs 16 end
| 30> %maxcore 3800
| 31> %base "TZ_S66by10_30_0.8_dimer"
| 32>
| 33> *xyz 0 1
| 34> C    0.83551718    1.11516693    0.02140131
| 35> H    1.48432398    1.98060858    0.01953430
| 36> C    1.38327497   -0.16614721    0.02376531
| 37> H    2.45714902   -0.29520468    0.02277108
| 38> C    0.54755466   -1.28131632    0.02168563
| 39> H    0.97293610   -2.27580453    0.01977853
| 40> C   -0.83552313   -1.11516159    0.02139907
| 41> H   -1.48433419   -1.98060639    0.01953009
| 42> C   -1.38328358    0.16615413    0.02375775
| 43> H   -2.45715618    0.29520906    0.02275707
| 44> C   -0.54756577    1.28132347    0.02168025
| 45> H   -0.97294284    2.27580548    0.01976873
| 46> C    0.65577914   -0.11678998    2.75539682
| 47> H    1.04723992   -1.12390881    2.75092855
| 48> H    1.37085293    0.69327400    2.75089523
| 49> C   -0.65577737    0.11679265    2.75540571
| 50> H   -1.37084932   -0.69327186    2.75090962
| 51> H   -1.04724048    1.12391155    2.75094751
| 52> *
| 53>
| 54> $new_job
| 55> ! ri-mp2 aug-cc-pvqz aug-cc-pvqz/c tightscf
| 56> %pal nprocs 16 end
| 57> %maxcore 3800
| 58> %base "QZ_S66by10_30_0.8_dimer"
| 59>
| 60> *xyz 0 1
| 61> C    0.83551718    1.11516693    0.02140131
| 62> H    1.48432398    1.98060858    0.01953430
| 63> C    1.38327497   -0.16614721    0.02376531
| 64> H    2.45714902   -0.29520468    0.02277108
| 65> C    0.54755466   -1.28131632    0.02168563
| 66> H    0.97293610   -2.27580453    0.01977853
| 67> C   -0.83552313   -1.11516159    0.02139907
| 68> H   -1.48433419   -1.98060639    0.01953009
| 69> C   -1.38328358    0.16615413    0.02375775
| 70> H   -2.45715618    0.29520906    0.02275707
| 71> C   -0.54756577    1.28132347    0.02168025
| 72> H   -0.97294284    2.27580548    0.01976873
| 73> C    0.65577914   -0.11678998    2.75539682
| 74> H    1.04723992   -1.12390881    2.75092855
| 75> H    1.37085293    0.69327400    2.75089523
| 76> C   -0.65577737    0.11679265    2.75540571
| 77> H   -1.37084932   -0.69327186    2.75090962
| 78> H   -1.04724048    1.12391155    2.75094751
| 79> *
| 80>
| 81>
| 82>
| 83>
| 84>                          ****END OF INPUT****
 Total Charge           Charge          ....    0
 Multiplicity           Mult            ....    1
 Number of Electrons    NEL             ....   58
MP2 TOTAL ENERGY:     -309.866182599 Eh
FINAL SINGLE POINT ENERGY      -309.866182599339
MP2 TOTAL ENERGY:     -310.146766047 Eh
FINAL SINGLE POINT ENERGY      -310.146766046563

CARTESIAN COORDINATES (ANGSTROEM)
---------------------------------
  C      0.835517    1.115167    0.021401
  H      1.484324    1.980609    0.019534
  C      1.383275   -0.166147    0.023765
  H      2.457149   -0.295205    0.022771
  C      0.547555   -1.281316    0.021686
  H      0.972936   -2.275805    0.019779
  C     -0.835523   -1.115162    0.021399
  H     -1.484334   -1.980606    0.019530
  C     -1.383284    0.166154    0.023758
  H     -2.457156    0.295209    0.022757
  C     -0.547566    1.281323    0.021680
  H     -0.972943    2.275805    0.019769
  C      0.655779   -0.116790    2.755397
  H      1.047240   -1.123909    2.750929
  H      1.370853    0.693274    2.750895
  C     -0.655777    0.116793    2.755406
  H     -1.370849   -0.693272    2.750910
  H     -1.047240    1.123912    2.750948

 Multiplicity           Mult            ....    1
 Number of Electrons    NEL             ....   58
 Basis Dimension        Dim             .... 1100

ORBITAL ENERGIES
----------------

  NO   OCC          E(Eh)            E(eV)
   0   2.0000     -11.233825      -305.6879
   1   2.0000     -11.233720      -305.6851
   2   2.0000     -11.231852      -305.6342
   3   2.0000     -11.231466      -305.6237
   4   2.0000     -11.230551      -305.5988
   5   2.0000     -11.230326      -305.5927
   6   2.0000     -11.208089      -304.9876
   7   2.0000     -11.206357      -304.9405
   8   2.0000      -1.150727       -31.3129
   9   2.0000      -1.016840       -27.6696
  10   2.0000      -1.015143       -27.6234
  11   2.0000      -1.013787       -27.5865
  12   2.0000      -0.823828       -22.4175
  13   2.0000      -0.823724       -22.4147
  14   2.0000      -0.778594       -21.1866
  15   2.0000      -0.709569       -19.3083
  16   2.0000      -0.644108       -17.5271
  17   2.0000      -0.630253       -17.1501
  18   2.0000      -0.617867       -16.8130
  19   2.0000      -0.588040       -16.0014
  20   2.0000      -0.587106       -15.9760
  21   2.0000      -0.572013       -15.5653
  22   2.0000      -0.511616       -13.9218
  23   2.0000      -0.494538       -13.4571
  24   2.0000      -0.494425       -13.4540
  25   2.0000      -0.493157       -13.4195
  26   2.0000      -0.342017        -9.3068
  27   2.0000      -0.337030        -9.1710
  28   2.0000      -0.335412        -9.1270
  29   0.0000       0.025904         0.7049
  30   0.0000       0.028736         0.7820
  31   0.0000       0.029311         0.7976
  32   0.0000       0.041134         1.1193
  33   0.0000       0.041314         1.1242

MULLIKEN ATOMIC CHARGES
-----------------------
   0 C :   -0.249050
   1 H :    0.293740
   2 C :   -0.342252
   3 H :    0.251749
   4 C :   -0.259601
   5 H :    0.307296
   6 C :   -0.249051
   7 H :    0.293733
   8 C :   -0.342257
   9 H :    0.251749
  10 C :   -0.259607
  11 H :    0.307304
  12 C :   -0.696720
  13 H :    0.346451
  14 H :    0.348398
  15 C :   -0.696729
  16 H :    0.348399
  17 H :    0.346448
Sum of atomic charges:   -0.0000000

LOEWDIN ATOMIC CHARGES
----------------------
   0 C :    0.310047
   1 H :   -0.309850
   2 C :    0.292389
   3 H :   -0.306349
   4 C :    0.307106
   5 H :   -0.309628
   6 C :    0.310043
   7 H :   -0.309845
   8 C :    0.292392
   9 H :   -0.306352
  10 C :    0.307114
  11 H :   -0.309636
  12 C :    0.704248
  13 H :   -0.344045
  14 H :   -0.343919
  15 C :    0.704250
  16 H :   -0.343920
  17 H :   -0.344043

  Mayer bond orders larger than 0.100000
B(  0-C ,  1-H ) :   1.0602 B(  0-C ,  2-C ) :   1.2146 B(  0-C ,  6-C ) :   0.1435
B(  0-C , 10-C ) :   1.2042 B(  2-C ,  3-H ) :   1.1097 B(  2-C ,  4-C ) :   1.2208
B(  2-C ,  8-C ) :   0.1283 B(  4-C ,  5-H ) :   1.0488 B(  4-C ,  6-C ) :   1.2042
B(  4-C , 10-C ) :   0.1423 B(  6-C ,  7-H ) :   1.0602 B(  6-C ,  8-C ) :   1.2146
B(  8-C ,  9-H ) :   1.1097 B(  8-C , 10-C ) :   1.2208 B( 10-C , 11-H ) :   1.0488
B( 12-C , 13-H ) :   0.8690 B( 12-C , 14-H ) :   0.8649 B( 12-C , 15-C ) :   1.9340
B( 15-C , 16-H ) :   0.8649 B( 15-C , 17-H ) :   0.8690

MP2 TOTAL ENERGY:     -310.234242391 Eh
FINAL SINGLE POINT ENERGY      -310.234242390794

DIPOLE MOMENT
-------------
                                X             Y             Z
Electronic contribution:     -0.00001       0.00002      -3.59555
Nuclear contribution   :      0.00001      -0.00001       3.45772
                        -----------------------------------------
Total Dipole Moment    :      0.00000       0.00000      -0.13783
                        -----------------------------------------
Magnitude (a.u.)       :      0.13783
Magnitude (Debye)      :      0.35035

Rotational constants in cm-1:     0.085514     0.068509     0.065006
Rotational constants in MHz :  2563.643557  2053.845871  1948.827553

                             ****ORCA TERMINATED NORMALLY****
TOTAL RUN TIME: 0 days 0 hours 31 minutes 38 seconds 637 msec
