                         Program Version 5.0.4 -  RELEASE  -
|  1> ! ri-mp2 aug-cc-pvdz aug-cc-pvdz/c tightscf
|  2> %pal nprocs 16 end
|  3> %maxcore 3800
|  4> %base "DZ_S66by10_66_1.0_dimer"
|  5>
|  6> *xyz 0 1
|  7> N   -0.54105920    0.02957620   -0.20899508
|  8> H    0.05555335   -0.78611810   -0.13029335
|  9> H   -1.46966940   -0.27470845    0.05314338
| 10> C   -0.07879927    1.04239036    0.73845886
| 11> H   -0.72015294    1.91941377    0.67198026
| 12> H   -0.05075819    0.72382293    1.78551453
| 13> H    0.92643072    1.35660379    0.46199919
| 14> N    2.35864105   -1.26025685    0.03133133
| 15> C    2.69707736   -0.44791278   -0.98038114
| 16> H    2.15441014   -0.59245076   -1.90576250
| 17> C    3.66840663    0.54422101   -0.88001414
| 18> H    3.89325907    1.16856130   -1.73286483
| 19> C    4.32924669    0.71376245    0.33225030
| 20> H    5.08710064    1.47599979    0.44863443
| 21> C    3.98911378   -0.12120007    1.39137325
| 22> H    4.47170219   -0.03073783    2.35407391
| 23> C    3.00533222   -1.08598908    1.19218987
| 24> H    2.71924789   -1.74973669    1.99880053
| 25> *
| 26>
| 27> $new_job
| 28> ! ri-mp2 aug-cc-pvtz aug-cc-pvtz/c tightscf
| 29> %pal nprocs 16 end
| 30> %maxcore 3800
| 31> %base "TZ_S66by10_66_1.0_dimer"
| 32>
| 33> *xyz 0 1
| 34> N   -0.54105920    0.02957620   -0.20899508
| 35> H    0.05555335   -0.78611810   -0.13029335
| 36> H   -1.46966940   -0.27470845    0.05314338
| 37> C   -0.07879927    1.04239036    0.73845886
| 38> H   -0.72015294    1.91941377    0.67198026
| 39> H   -0.05075819    0.72382293    1.78551453
| 40> H    0.92643072    1.35660379    0.46199919
| 41> N    2.35864105   -1.26025685    0.03133133
| 42> C    2.69707736   -0.44791278   -0.98038114
| 43> H    2.15441014   -0.59245076   -1.90576250
| 44> C    3.66840663    0.54422101   -0.88001414
| 45> H    3.89325907    1.16856130   -1.73286483
| 46> C    4.32924669    0.71376245    0.33225030
| 47> H    5.08710064    1.47599979    0.44863443
| 48> C    3.98911378   -0.12120007    1.39137325
| 49> H    4.47170219   -0.03073783    2.35407391
| 50> C    3.00533222   -1.08598908    1.19218987
| 51> H    2.71924789   -1.74973669    1.99880053
| 52> *
| 53>
| 54> $new_job
| 55> ! ri-mp2 aug-cc-pvqz aug-cc-pvqz/c tightscf
| 56> %pal nprocs 16 end
| 57> %maxcore 3800
| 58> %base "QZ_S66by10_66_1.0_dimer"
| 59>
| 60> *xyz 0 1
| 61> N   -0.54105920    0.02957620   -0.20899508
| 62> H    0.05555335   -0.78611810   -0.13029335
| 63> H   -1.46966940   -0.27470845    0.05314338
| 64> C   -0.07879927    1.04239036    0.73845886
| 65> H   -0.72015294    1.91941377    0.67198026
| 66> H   -0.05075819    0.72382293    1.78551453
| 67> H    0.92643072    1.35660379    0.46199919
| 68> N    2.35864105   -1.26025685    0.03133133
| 69> C    2.69707736   -0.44791278   -0.98038114
| 70> H    2.15441014   -0.59245076   -1.90576250
| 71> C    3.66840663    0.54422101   -0.88001414
| 72> H    3.89325907    1.16856130   -1.73286483
| 73> C    4.32924669    0.71376245    0.33225030
| 74> H    5.08710064    1.47599979    0.44863443
| 75> C    3.98911378   -0.12120007    1.39137325
| 76> H    4.47170219   -0.03073783    2.35407391
| 77> C    3.00533222   -1.08598908    1.19218987
| 78> H    2.71924789   -1.74973669    1.99880053
| 79> *
| 80>
| 81>
| 82>
| 83>
| 84>                          ****END OF INPUT****
 Total Charge           Charge          ....    0
 Multiplicity           Mult            ....    1
 Number of Electrons    NEL             ....   60
MP2 TOTAL ENERGY:     -343.145314129 Eh
FINAL SINGLE POINT ENERGY      -343.145314128828
MP2 TOTAL ENERGY:     -343.452682698 Eh
FINAL SINGLE POINT ENERGY      -343.452682698333

CARTESIAN COORDINATES (ANGSTROEM)
---------------------------------
  N     -0.541059    0.029576   -0.208995
  H      0.055553   -0.786118   -0.130293
  H     -1.469669   -0.274708    0.053143
  C     -0.078799    1.042390    0.738459
  H     -0.720153    1.919414    0.671980
  H     -0.050758    0.723823    1.785515
  H      0.926431    1.356604    0.461999
  N      2.358641   -1.260257    0.031331
  C      2.697077   -0.447913   -0.980381
  H      2.154410   -0.592451   -1.905763
  C      3.668407    0.544221   -0.880014
  H      3.893259    1.168561   -1.732865
  C      4.329247    0.713762    0.332250
  H      5.087101    1.476000    0.448634
  C      3.989114   -0.121200    1.391373
  H      4.471702   -0.030738    2.354074
  C      3.005332   -1.085989    1.192190
  H      2.719248   -1.749737    1.998801

 Multiplicity           Mult            ....    1
 Number of Electrons    NEL             ....   60
 Basis Dimension        Dim             .... 1100

ORBITAL ENERGIES
----------------

  NO   OCC          E(Eh)            E(eV)
   0   2.0000     -15.568489      -423.6401
   1   2.0000     -15.520913      -422.3455
   2   2.0000     -11.278699      -306.9090
   3   2.0000     -11.276586      -306.8515
   4   2.0000     -11.262904      -306.4792
   5   2.0000     -11.244361      -305.9746
   6   2.0000     -11.243341      -305.9469
   7   2.0000     -11.226765      -305.4958
   8   2.0000      -1.260774       -34.3074
   9   2.0000      -1.155730       -31.4490
  10   2.0000      -1.093113       -29.7451
  11   2.0000      -1.036971       -28.2174
  12   2.0000      -0.882479       -24.0135
  13   2.0000      -0.862651       -23.4739
  14   2.0000      -0.859424       -23.3861
  15   2.0000      -0.725890       -19.7525
  16   2.0000      -0.664398       -18.0792
  17   2.0000      -0.657196       -17.8832
  18   2.0000      -0.650320       -17.6961
  19   2.0000      -0.601630       -16.3712
  20   2.0000      -0.591412       -16.0932
  21   2.0000      -0.580639       -15.8000
  22   2.0000      -0.548106       -14.9147
  23   2.0000      -0.537700       -14.6316
  24   2.0000      -0.523208       -14.2372
  25   2.0000      -0.502951       -13.6860
  26   2.0000      -0.425299       -11.5730
  27   2.0000      -0.388592       -10.5741
  28   2.0000      -0.378900       -10.3104
  29   2.0000      -0.351071        -9.5531
  30   0.0000       0.021803         0.5933
  31   0.0000       0.028461         0.7745
  32   0.0000       0.031656         0.8614
  33   0.0000       0.038037         1.0350
  34   0.0000       0.043247         1.1768

MULLIKEN ATOMIC CHARGES
-----------------------
   0 N :   -0.686170
   1 H :    0.268706
   2 H :    0.214790
   3 C :   -0.786439
   4 H :    0.369010
   5 H :    0.248172
   6 H :    0.315570
   7 N :   -0.554722
   8 C :   -0.039913
   9 H :    0.445677
  10 C :   -0.365878
  11 H :    0.339490
  12 C :   -0.358587
  13 H :    0.372572
  14 C :   -0.345329
  15 H :    0.320673
  16 C :   -0.235438
  17 H :    0.477817
Sum of atomic charges:    0.0000000

LOEWDIN ATOMIC CHARGES
----------------------
   0 N :    1.259810
   1 H :   -0.616550
   2 H :   -0.519024
   3 C :    0.735843
   4 H :   -0.307673
   5 H :   -0.284985
   6 H :   -0.339082
   7 N :    0.590224
   8 C :    0.060886
   9 H :   -0.339894
  10 C :    0.334867
  11 H :   -0.325020
  12 C :    0.331051
  13 H :   -0.312275
  14 C :    0.330862
  15 H :   -0.328846
  16 C :    0.076551
  17 H :   -0.346745

  Mayer bond orders larger than 0.100000
B(  0-N ,  1-H ) :   0.8855 B(  0-N ,  2-H ) :   0.9690 B(  0-N ,  3-C ) :   0.9568
B(  3-C ,  4-H ) :   0.8670 B(  3-C ,  5-H ) :   0.9370 B(  3-C ,  6-H ) :   0.8625
B(  7-N ,  8-C ) :   1.1475 B(  7-N ,  9-H ) :  -0.1228 B(  7-N , 16-C ) :   1.2193
B(  7-N , 17-H ) :  -0.1164 B(  8-C ,  9-H ) :   0.8900 B(  8-C , 10-C ) :   1.1999
B(  8-C , 14-C ) :   0.1287 B( 10-C , 11-H ) :   0.9777 B( 10-C , 12-C ) :   1.2338
B( 12-C , 13-H ) :   0.9544 B( 12-C , 14-C ) :   1.2558 B( 14-C , 15-H ) :   1.0115
B( 14-C , 16-C ) :   1.1917 B( 16-C , 17-H ) :   0.8690

MP2 TOTAL ENERGY:     -343.549484359 Eh
FINAL SINGLE POINT ENERGY      -343.549484359263

DIPOLE MOMENT
-------------
                                X             Y             Z
Electronic contribution:      6.39726      -3.15165      -1.22053
Nuclear contribution   :     -5.65071       3.53841       1.78744
                        -----------------------------------------
Total Dipole Moment    :      0.74655       0.38676       0.56691
                        -----------------------------------------
Magnitude (a.u.)       :      1.01406
Magnitude (Debye)      :      2.57753

Rotational constants in cm-1:     0.106529     0.040086     0.038735
Rotational constants in MHz :  3193.645709  1201.742922  1161.243327

                             ****ORCA TERMINATED NORMALLY****
TOTAL RUN TIME: 0 days 0 hours 30 minutes 31 seconds 597 msec
