                         Program Version 5.0.4 -  RELEASE  -
|  1> ! ri-mp2 aug-cc-pvdz aug-cc-pvdz/c tightscf
|  2> %pal nprocs 16 end
|  3> %maxcore 3800
|  4> %base "DZ_S66by10_30_1.0_dimer"
|  5>
|  6> *xyz 0 1
|  7> C    0.83551718    1.11516693    0.02140131
|  8> H    1.48432398    1.98060858    0.01953430
|  9> C    1.38327497   -0.16614721    0.02376531
| 10> H    2.45714902   -0.29520468    0.02277108
| 11> C    0.54755466   -1.28131632    0.02168563
| 12> H    0.97293610   -2.27580453    0.01977853
| 13> C   -0.83552313   -1.11516159    0.02139907
| 14> H   -1.48433419   -1.98060639    0.01953009
| 15> C   -1.38328358    0.16615413    0.02375775
| 16> H   -2.45715618    0.29520906    0.02275707
| 17> C   -0.54756577    1.28132347    0.02168025
| 18> H   -0.97294284    2.27580548    0.01976873
| 19> C    0.65578046   -0.11679043    3.45858726
| 20> H    1.04724124   -1.12390926    3.45411899
| 21> H    1.37085425    0.69327354    3.45408567
| 22> C   -0.65577606    0.11679220    3.45859615
| 23> H   -1.37084800   -0.69327232    3.45410006
| 24> H   -1.04723916    1.12391110    3.45413795
| 25> *
| 26>
| 27> $new_job
| 28> ! ri-mp2 aug-cc-pvtz aug-cc-pvtz/c tightscf
| 29> %pal nprocs 16 end
| 30> %maxcore 3800
| 31> %base "TZ_S66by10_30_1.0_dimer"
| 32>
| 33> *xyz 0 1
| 34> C    0.83551718    1.11516693    0.02140131
| 35> H    1.48432398    1.98060858    0.01953430
| 36> C    1.38327497   -0.16614721    0.02376531
| 37> H    2.45714902   -0.29520468    0.02277108
| 38> C    0.54755466   -1.28131632    0.02168563
| 39> H    0.97293610   -2.27580453    0.01977853
| 40> C   -0.83552313   -1.11516159    0.02139907
| 41> H   -1.48433419   -1.98060639    0.01953009
| 42> C   -1.38328358    0.16615413    0.02375775
| 43> H   -2.45715618    0.29520906    0.02275707
| 44> C   -0.54756577    1.28132347    0.02168025
| 45> H   -0.97294284    2.27580548    0.01976873
| 46> C    0.65578046   -0.11679043    3.45858726
| 47> H    1.04724124   -1.12390926    3.45411899
| 48> H    1.37085425    0.69327354    3.45408567
| 49> C   -0.65577606    0.11679220    3.45859615
| 50> H   -1.37084800   -0.69327232    3.45410006
| 51> H   -1.04723916    1.12391110    3.45413795
| 52> *
| 53>
| 54> $new_job
| 55> ! ri-mp2 aug-cc-pvqz aug-cc-pvqz/c tightscf
| 56> %pal nprocs 16 end
| 57> %maxcore 3800
| 58> %base "QZ_S66by10_30_1.0_dimer"
| 59>
| 60> *xyz 0 1
| 61> C    0.83551718    1.11516693    0.02140131
| 62> H    1.48432398    1.98060858    0.01953430
| 63> C    1.38327497   -0.16614721    0.02376531
| 64> H    2.45714902   -0.29520468    0.02277108
| 65> C    0.54755466   -1.28131632    0.02168563
| 66> H    0.97293610   -2.27580453    0.01977853
| 67> C   -0.83552313   -1.11516159    0.02139907
| 68> H   -1.48433419   -1.98060639    0.01953009
| 69> C   -1.38328358    0.16615413    0.02375775
| 70> H   -2.45715618    0.29520906    0.02275707
| 71> C   -0.54756577    1.28132347    0.02168025
| 72> H   -0.97294284    2.27580548    0.01976873
| 73> C    0.65578046   -0.11679043    3.45858726
| 74> H    1.04724124   -1.12390926    3.45411899
| 75> H    1.37085425    0.69327354    3.45408567
| 76> C   -0.65577606    0.11679220    3.45859615
| 77> H   -1.37084800   -0.69327232    3.45410006
| 78> H   -1.04723916    1.12391110    3.45413795
| 79> *
| 80>
| 81>
| 82>
| 83>
| 84>                          ****END OF INPUT****
 Total Charge           Charge          ....    0
 Multiplicity           Mult            ....    1
 Number of Electrons    NEL             ....   58
MP2 TOTAL ENERGY:     -309.872339744 Eh
FINAL SINGLE POINT ENERGY      -309.872339744473
MP2 TOTAL ENERGY:     -310.153851269 Eh
FINAL SINGLE POINT ENERGY      -310.153851269448

CARTESIAN COORDINATES (ANGSTROEM)
---------------------------------
  C      0.835517    1.115167    0.021401
  H      1.484324    1.980609    0.019534
  C      1.383275   -0.166147    0.023765
  H      2.457149   -0.295205    0.022771
  C      0.547555   -1.281316    0.021686
  H      0.972936   -2.275805    0.019779
  C     -0.835523   -1.115162    0.021399
  H     -1.484334   -1.980606    0.019530
  C     -1.383284    0.166154    0.023758
  H     -2.457156    0.295209    0.022757
  C     -0.547566    1.281323    0.021680
  H     -0.972943    2.275805    0.019769
  C      0.655780   -0.116790    3.458587
  H      1.047241   -1.123909    3.454119
  H      1.370854    0.693274    3.454086
  C     -0.655776    0.116792    3.458596
  H     -1.370848   -0.693272    3.454100
  H     -1.047239    1.123911    3.454138

 Multiplicity           Mult            ....    1
 Number of Electrons    NEL             ....   58
 Basis Dimension        Dim             .... 1100

ORBITAL ENERGIES
----------------

  NO   OCC          E(Eh)            E(eV)
   0   2.0000     -11.232842      -305.6612
   1   2.0000     -11.232383      -305.6487
   2   2.0000     -11.232122      -305.6416
   3   2.0000     -11.231105      -305.6139
   4   2.0000     -11.230870      -305.6075
   5   2.0000     -11.230369      -305.5939
   6   2.0000     -11.217839      -305.2529
   7   2.0000     -11.216111      -305.2059
   8   2.0000      -1.147979       -31.2381
   9   2.0000      -1.022823       -27.8324
  10   2.0000      -1.012491       -27.5513
  11   2.0000      -1.012488       -27.5512
  12   2.0000      -0.822176       -22.3725
  13   2.0000      -0.822076       -22.3698
  14   2.0000      -0.782729       -21.2991
  15   2.0000      -0.707902       -19.2630
  16   2.0000      -0.642435       -17.4815
  17   2.0000      -0.634129       -17.2555
  18   2.0000      -0.617230       -16.7957
  19   2.0000      -0.586217       -15.9518
  20   2.0000      -0.586214       -15.9517
  21   2.0000      -0.576827       -15.6963
  22   2.0000      -0.502488       -13.6734
  23   2.0000      -0.498203       -13.5568
  24   2.0000      -0.493198       -13.4206
  25   2.0000      -0.493050       -13.4166
  26   2.0000      -0.362351        -9.8601
  27   2.0000      -0.334859        -9.1120
  28   2.0000      -0.334763        -9.1094
  29   0.0000       0.026116         0.7106
  30   0.0000       0.028954         0.7879
  31   0.0000       0.029437         0.8010
  32   0.0000       0.041301         1.1239
  33   0.0000       0.041375         1.1259

MULLIKEN ATOMIC CHARGES
-----------------------
   0 C :   -0.305131
   1 H :    0.323680
   2 C :   -0.311661
   3 H :    0.299289
   4 C :   -0.335722
   5 H :    0.325257
   6 C :   -0.305144
   7 H :    0.323674
   8 C :   -0.311647
   9 H :    0.299291
  10 C :   -0.335732
  11 H :    0.325265
  12 C :   -0.808011
  13 H :    0.413119
  14 H :    0.399184
  15 C :   -0.808015
  16 H :    0.399183
  17 H :    0.413120
Sum of atomic charges:    0.0000000

LOEWDIN ATOMIC CHARGES
----------------------
   0 C :    0.316806
   1 H :   -0.321968
   2 C :    0.312346
   3 H :   -0.321307
   4 C :    0.316242
   5 H :   -0.321929
   6 C :    0.316802
   7 H :   -0.321963
   8 C :    0.312348
   9 H :   -0.321309
  10 C :    0.316249
  11 H :   -0.321937
  12 C :    0.736846
  13 H :   -0.358523
  14 H :   -0.358514
  15 C :    0.736847
  16 H :   -0.358516
  17 H :   -0.358521

  Mayer bond orders larger than 0.100000
B(  0-C ,  1-H ) :   1.0240 B(  0-C ,  2-C ) :   1.2510 B(  0-C ,  6-C ) :   0.1566
B(  0-C , 10-C ) :   1.2446 B(  2-C ,  3-H ) :   1.0369 B(  2-C ,  4-C ) :   1.2433
B(  2-C ,  8-C ) :   0.1871 B(  4-C ,  5-H ) :   1.0225 B(  4-C ,  6-C ) :   1.2446
B(  4-C , 10-C ) :   0.1365 B(  6-C ,  7-H ) :   1.0240 B(  6-C ,  8-C ) :   1.2510
B(  8-C ,  9-H ) :   1.0369 B(  8-C , 10-C ) :   1.2433 B( 10-C , 11-H ) :   1.0225
B( 12-C , 13-H ) :   0.8167 B( 12-C , 14-H ) :   0.8366 B( 12-C , 15-C ) :   1.9833
B( 15-C , 16-H ) :   0.8366 B( 15-C , 17-H ) :   0.8167

MP2 TOTAL ENERGY:     -310.241702228 Eh
FINAL SINGLE POINT ENERGY      -310.241702228365

DIPOLE MOMENT
-------------
                                X             Y             Z
Electronic contribution:     -0.00001       0.00002      -4.41926
Nuclear contribution   :      0.00001      -0.00001       4.35334
                        -----------------------------------------
Total Dipole Moment    :     -0.00000       0.00000      -0.06592
                        -----------------------------------------
Magnitude (a.u.)       :      0.06592
Magnitude (Debye)      :      0.16755

Rotational constants in cm-1:     0.085514     0.050232     0.048323
Rotational constants in MHz :  2563.643555  1505.915343  1448.675875

                             ****ORCA TERMINATED NORMALLY****
TOTAL RUN TIME: 0 days 0 hours 30 minutes 17 seconds 711 msec
