                         Program Version 5.0.4 -  RELEASE  -
|  1> ! ri-mp2 aug-cc-pvdz aug-cc-pvdz/c tightscf
|  2> %pal nprocs 16 end
|  3> %maxcore 3800
|  4> %base "DZ_S66by10_55_1.1_dimer"
|  5>
|  6> *xyz 0 1
|  7> C    0.75974918    1.03127506    0.37377239
|  8> H    1.43501626    1.87566427    0.37470462
|  9> C    1.26661779   -0.26736234    0.42127308
| 10> H    2.33491597   -0.42918019    0.45943234
| 11> C    0.39532054   -1.35599116    0.42490511
| 12> H    0.78866193   -2.36249259    0.46303549
| 13> C   -0.98220564   -1.14665441    0.38127024
| 14> H   -1.65765632   -1.99114019    0.38512100
| 15> C   -1.48934612    0.15114979    0.33757234
| 16> H   -2.55794704    0.31375049    0.30771900
| 17> C   -0.61877516    1.24033121    0.33388373
| 18> H   -1.01176161    2.24710690    0.30436922
| 19> O    0.02468498    0.29372724    3.95580351
| 20> H    0.11078520    0.34360033    2.99860997
| 21> C   -0.87146562   -0.76388683    4.23885855
| 22> H   -0.96718631   -0.82062141    5.31979469
| 23> H   -1.86361521   -0.59218909    3.81506835
| 24> H   -0.50500530   -1.72692790    3.87594703
| 25> *
| 26>
| 27> $new_job
| 28> ! ri-mp2 aug-cc-pvtz aug-cc-pvtz/c tightscf
| 29> %pal nprocs 16 end
| 30> %maxcore 3800
| 31> %base "TZ_S66by10_55_1.1_dimer"
| 32>
| 33> *xyz 0 1
| 34> C    0.75974918    1.03127506    0.37377239
| 35> H    1.43501626    1.87566427    0.37470462
| 36> C    1.26661779   -0.26736234    0.42127308
| 37> H    2.33491597   -0.42918019    0.45943234
| 38> C    0.39532054   -1.35599116    0.42490511
| 39> H    0.78866193   -2.36249259    0.46303549
| 40> C   -0.98220564   -1.14665441    0.38127024
| 41> H   -1.65765632   -1.99114019    0.38512100
| 42> C   -1.48934612    0.15114979    0.33757234
| 43> H   -2.55794704    0.31375049    0.30771900
| 44> C   -0.61877516    1.24033121    0.33388373
| 45> H   -1.01176161    2.24710690    0.30436922
| 46> O    0.02468498    0.29372724    3.95580351
| 47> H    0.11078520    0.34360033    2.99860997
| 48> C   -0.87146562   -0.76388683    4.23885855
| 49> H   -0.96718631   -0.82062141    5.31979469
| 50> H   -1.86361521   -0.59218909    3.81506835
| 51> H   -0.50500530   -1.72692790    3.87594703
| 52> *
| 53>
| 54> $new_job
| 55> ! ri-mp2 aug-cc-pvqz aug-cc-pvqz/c tightscf
| 56> %pal nprocs 16 end
| 57> %maxcore 3800
| 58> %base "QZ_S66by10_55_1.1_dimer"
| 59>
| 60> *xyz 0 1
| 61> C    0.75974918    1.03127506    0.37377239
| 62> H    1.43501626    1.87566427    0.37470462
| 63> C    1.26661779   -0.26736234    0.42127308
| 64> H    2.33491597   -0.42918019    0.45943234
| 65> C    0.39532054   -1.35599116    0.42490511
| 66> H    0.78866193   -2.36249259    0.46303549
| 67> C   -0.98220564   -1.14665441    0.38127024
| 68> H   -1.65765632   -1.99114019    0.38512100
| 69> C   -1.48934612    0.15114979    0.33757234
| 70> H   -2.55794704    0.31375049    0.30771900
| 71> C   -0.61877516    1.24033121    0.33388373
| 72> H   -1.01176161    2.24710690    0.30436922
| 73> O    0.02468498    0.29372724    3.95580351
| 74> H    0.11078520    0.34360033    2.99860997
| 75> C   -0.87146562   -0.76388683    4.23885855
| 76> H   -0.96718631   -0.82062141    5.31979469
| 77> H   -1.86361521   -0.59218909    3.81506835
| 78> H   -0.50500530   -1.72692790    3.87594703
| 79> *
| 80>
| 81>
| 82>
| 83>
| 84>                          ****END OF INPUT****
 Total Charge           Charge          ....    0
 Multiplicity           Mult            ....    1
 Number of Electrons    NEL             ....   60
MP2 TOTAL ENERGY:     -346.968861048 Eh
FINAL SINGLE POINT ENERGY      -346.968861048341
MP2 TOTAL ENERGY:     -347.281318848 Eh
FINAL SINGLE POINT ENERGY      -347.281318847882

CARTESIAN COORDINATES (ANGSTROEM)
---------------------------------
  C      0.759749    1.031275    0.373772
  H      1.435016    1.875664    0.374705
  C      1.266618   -0.267362    0.421273
  H      2.334916   -0.429180    0.459432
  C      0.395321   -1.355991    0.424905
  H      0.788662   -2.362493    0.463035
  C     -0.982206   -1.146654    0.381270
  H     -1.657656   -1.991140    0.385121
  C     -1.489346    0.151150    0.337572
  H     -2.557947    0.313750    0.307719
  C     -0.618775    1.240331    0.333884
  H     -1.011762    2.247107    0.304369
  O      0.024685    0.293727    3.955804
  H      0.110785    0.343600    2.998610
  C     -0.871466   -0.763887    4.238859
  H     -0.967186   -0.820621    5.319795
  H     -1.863615   -0.592189    3.815068
  H     -0.505005   -1.726928    3.875947

 Multiplicity           Mult            ....    1
 Number of Electrons    NEL             ....   60
 Basis Dimension        Dim             .... 1100

ORBITAL ENERGIES
----------------

  NO   OCC          E(Eh)            E(eV)
   0   2.0000     -20.541142      -558.9529
   1   2.0000     -11.257575      -306.3342
   2   2.0000     -11.245102      -305.9948
   3   2.0000     -11.244527      -305.9791
   4   2.0000     -11.244516      -305.9788
   5   2.0000     -11.243279      -305.9452
   6   2.0000     -11.243252      -305.9445
   7   2.0000     -11.242653      -305.9281
   8   2.0000      -1.343933       -36.5703
   9   2.0000      -1.160611       -31.5818
  10   2.0000      -1.024675       -27.8828
  11   2.0000      -1.024542       -27.8792
  12   2.0000      -0.912832       -24.8394
  13   2.0000      -0.833626       -22.6841
  14   2.0000      -0.833607       -22.6836
  15   2.0000      -0.719321       -19.5737
  16   2.0000      -0.679363       -18.4864
  17   2.0000      -0.653311       -17.7775
  18   2.0000      -0.628800       -17.1105
  19   2.0000      -0.607991       -16.5443
  20   2.0000      -0.597717       -16.2647
  21   2.0000      -0.597664       -16.2633
  22   2.0000      -0.581294       -15.8178
  23   2.0000      -0.514073       -13.9886
  24   2.0000      -0.504385       -13.7250
  25   2.0000      -0.504314       -13.7231
  26   2.0000      -0.491625       -13.3778
  27   2.0000      -0.437427       -11.9030
  28   2.0000      -0.347959        -9.4684
  29   2.0000      -0.347734        -9.4623
  30   0.0000       0.023749         0.6462
  31   0.0000       0.028926         0.7871
  32   0.0000       0.029200         0.7946
  33   0.0000       0.038148         1.0381
  34   0.0000       0.041039         1.1167

MULLIKEN ATOMIC CHARGES
-----------------------
   0 C :   -0.247043
   1 H :    0.285637
   2 C :   -0.326705
   3 H :    0.337887
   4 C :   -0.371867
   5 H :    0.317638
   6 C :   -0.239963
   7 H :    0.271040
   8 C :   -0.374441
   9 H :    0.318519
  10 C :   -0.332042
  11 H :    0.339592
  12 O :   -0.758437
  13 H :    0.399140
  14 C :   -0.644475
  15 H :    0.495383
  16 H :    0.265513
  17 H :    0.264623
Sum of atomic charges:    0.0000000

LOEWDIN ATOMIC CHARGES
----------------------
   0 C :    0.328375
   1 H :   -0.319690
   2 C :    0.329609
   3 H :   -0.320068
   4 C :    0.326502
   5 H :   -0.321477
   6 C :    0.320807
   7 H :   -0.321339
   8 C :    0.326383
   9 H :   -0.321559
  10 C :    0.329845
  11 H :   -0.320168
  12 O :    1.251046
  13 H :   -0.879205
  14 C :    0.565050
  15 H :   -0.339132
  16 H :   -0.317456
  17 H :   -0.317521

  Mayer bond orders larger than 0.100000
B(  0-C ,  1-H ) :   1.0939 B(  0-C ,  2-C ) :   1.1959 B(  0-C ,  6-C ) :   0.1354
B(  0-C , 10-C ) :   1.1998 B(  2-C ,  3-H ) :   1.0304 B(  2-C ,  4-C ) :   1.2298
B(  2-C ,  8-C ) :   0.1500 B(  4-C ,  5-H ) :   1.0340 B(  4-C ,  6-C ) :   1.2025
B(  4-C , 10-C ) :   0.1514 B(  6-C ,  7-H ) :   1.0713 B(  6-C ,  8-C ) :   1.2020
B(  8-C ,  9-H ) :   1.0324 B(  8-C , 10-C ) :   1.2297 B( 10-C , 11-H ) :   1.0272
B( 12-O , 13-H ) :   0.8567 B( 12-O , 14-C ) :   0.8404 B( 14-C , 15-H ) :   0.7357
B( 14-C , 16-H ) :   0.9188 B( 14-C , 17-H ) :   0.9189

MP2 TOTAL ENERGY:     -347.379908273 Eh
FINAL SINGLE POINT ENERGY      -347.379908272504

DIPOLE MOMENT
-------------
                                X             Y             Z
Electronic contribution:      1.47751       1.54621      -4.23666
Nuclear contribution   :     -1.77364      -1.93604       3.58668
                        -----------------------------------------
Total Dipole Moment    :     -0.29613      -0.38983      -0.64999
                        -----------------------------------------
Magnitude (a.u.)       :      0.81372
Magnitude (Debye)      :      2.06831

Rotational constants in cm-1:     0.086868     0.041337     0.039993
Rotational constants in MHz :  2604.224458  1239.252545  1198.955479

                             ****ORCA TERMINATED NORMALLY****
TOTAL RUN TIME: 0 days 0 hours 57 minutes 40 seconds 739 msec
