                         Program Version 5.0.4 -  RELEASE  -
|  1> ! ri-mp2 aug-cc-pvdz aug-cc-pvdz/c tightscf
|  2> %pal nprocs 16 end
|  3> %maxcore 3800
|  4> %base "DZ_S66by10_33_0.7_dimer"
|  5>
|  6> *xyz 0 1
|  7> N    1.38138219   -0.00023348    0.13146374
|  8> C    0.67935079   -1.14023946    0.09207966
|  9> H    1.25871960   -2.05496223    0.12588361
| 10> C   -0.70972232   -1.19311407    0.00666426
| 11> H   -1.21408768   -2.14856163   -0.02530851
| 12> C   -1.42161357    0.00013343   -0.04081690
| 13> H   -2.50069615    0.00025757   -0.10916973
| 14> C   -0.70940120    1.19317538    0.00652198
| 15> H   -1.21351163    2.14874784   -0.02552831
| 16> C    0.67965167    1.13995623    0.09189303
| 17> H    1.25926073    2.05451090    0.12550248
| 18> C    0.01049857    0.66639522    2.47543450
| 19> H    0.92097257    1.22588094    2.31631966
| 20> H   -0.89904893    1.22879945    2.63239501
| 21> C    0.01083125   -0.66629208    2.47556674
| 22> H    0.92156694   -1.22537456    2.31655631
| 23> H   -0.89845685   -1.22911685    2.63265590
| 24> *
| 25>
| 26> $new_job
| 27> ! ri-mp2 aug-cc-pvtz aug-cc-pvtz/c tightscf
| 28> %pal nprocs 16 end
| 29> %maxcore 3800
| 30> %base "TZ_S66by10_33_0.7_dimer"
| 31>
| 32> *xyz 0 1
| 33> N    1.38138219   -0.00023348    0.13146374
| 34> C    0.67935079   -1.14023946    0.09207966
| 35> H    1.25871960   -2.05496223    0.12588361
| 36> C   -0.70972232   -1.19311407    0.00666426
| 37> H   -1.21408768   -2.14856163   -0.02530851
| 38> C   -1.42161357    0.00013343   -0.04081690
| 39> H   -2.50069615    0.00025757   -0.10916973
| 40> C   -0.70940120    1.19317538    0.00652198
| 41> H   -1.21351163    2.14874784   -0.02552831
| 42> C    0.67965167    1.13995623    0.09189303
| 43> H    1.25926073    2.05451090    0.12550248
| 44> C    0.01049857    0.66639522    2.47543450
| 45> H    0.92097257    1.22588094    2.31631966
| 46> H   -0.89904893    1.22879945    2.63239501
| 47> C    0.01083125   -0.66629208    2.47556674
| 48> H    0.92156694   -1.22537456    2.31655631
| 49> H   -0.89845685   -1.22911685    2.63265590
| 50> *
| 51>
| 52> $new_job
| 53> ! ri-mp2 aug-cc-pvqz aug-cc-pvqz/c tightscf
| 54> %pal nprocs 16 end
| 55> %maxcore 3800
| 56> %base "QZ_S66by10_33_0.7_dimer"
| 57>
| 58> *xyz 0 1
| 59> N    1.38138219   -0.00023348    0.13146374
| 60> C    0.67935079   -1.14023946    0.09207966
| 61> H    1.25871960   -2.05496223    0.12588361
| 62> C   -0.70972232   -1.19311407    0.00666426
| 63> H   -1.21408768   -2.14856163   -0.02530851
| 64> C   -1.42161357    0.00013343   -0.04081690
| 65> H   -2.50069615    0.00025757   -0.10916973
| 66> C   -0.70940120    1.19317538    0.00652198
| 67> H   -1.21351163    2.14874784   -0.02552831
| 68> C    0.67965167    1.13995623    0.09189303
| 69> H    1.25926073    2.05451090    0.12550248
| 70> C    0.01049857    0.66639522    2.47543450
| 71> H    0.92097257    1.22588094    2.31631966
| 72> H   -0.89904893    1.22879945    2.63239501
| 73> C    0.01083125   -0.66629208    2.47556674
| 74> H    0.92156694   -1.22537456    2.31655631
| 75> H   -0.89845685   -1.22911685    2.63265590
| 76> *
| 77>
| 78>
| 79>
| 80>
| 81>                          ****END OF INPUT****
 Total Charge           Charge          ....    0
 Multiplicity           Mult            ....    1
 Number of Electrons    NEL             ....   58
MP2 TOTAL ENERGY:     -325.872460692 Eh
FINAL SINGLE POINT ENERGY      -325.872460692241
MP2 TOTAL ENERGY:     -326.162261364 Eh
FINAL SINGLE POINT ENERGY      -326.162261364016

CARTESIAN COORDINATES (ANGSTROEM)
---------------------------------
  N      1.381382   -0.000233    0.131464
  C      0.679351   -1.140239    0.092080
  H      1.258720   -2.054962    0.125884
  C     -0.709722   -1.193114    0.006664
  H     -1.214088   -2.148562   -0.025309
  C     -1.421614    0.000133   -0.040817
  H     -2.500696    0.000258   -0.109170
  C     -0.709401    1.193175    0.006522
  H     -1.213512    2.148748   -0.025528
  C      0.679652    1.139956    0.091893
  H      1.259261    2.054511    0.125502
  C      0.010499    0.666395    2.475434
  H      0.920973    1.225881    2.316320
  H     -0.899049    1.228799    2.632395
  C      0.010831   -0.666292    2.475567
  H      0.921567   -1.225375    2.316556
  H     -0.898457   -1.229117    2.632656

 Multiplicity           Mult            ....    1
 Number of Electrons    NEL             ....   58
 Basis Dimension        Dim             .... 1054

ORBITAL ENERGIES
----------------

  NO   OCC          E(Eh)            E(eV)
   0   2.0000     -15.556113      -423.3033
   1   2.0000     -11.276859      -306.8589
   2   2.0000     -11.276843      -306.8585
   3   2.0000     -11.252237      -306.1889
   4   2.0000     -11.239879      -305.8526
   5   2.0000     -11.239806      -305.8507
   6   2.0000     -11.208389      -304.9958
   7   2.0000     -11.206662      -304.9488
   8   2.0000      -1.258720       -34.2515
   9   2.0000      -1.089959       -29.6593
  10   2.0000      -1.038225       -28.2515
  11   2.0000      -1.022487       -27.8233
  12   2.0000      -0.860795       -23.4234
  13   2.0000      -0.857307       -23.3285
  14   2.0000      -0.785040       -21.3620
  15   2.0000      -0.724196       -19.7064
  16   2.0000      -0.660462       -17.9721
  17   2.0000      -0.658913       -17.9299
  18   2.0000      -0.636985       -17.3332
  19   2.0000      -0.600732       -16.3468
  20   2.0000      -0.581505       -15.8236
  21   2.0000      -0.575623       -15.6635
  22   2.0000      -0.544222       -14.8090
  23   2.0000      -0.521050       -14.1785
  24   2.0000      -0.498870       -13.5750
  25   2.0000      -0.418260       -11.3814
  26   2.0000      -0.384710       -10.4685
  27   2.0000      -0.346777        -9.4363
  28   2.0000      -0.333616        -9.0782
  29   0.0000       0.022428         0.6103
  30   0.0000       0.027255         0.7417
  31   0.0000       0.032134         0.8744
  32   0.0000       0.041265         1.1229
  33   0.0000       0.041638         1.1330

MULLIKEN ATOMIC CHARGES
-----------------------
   0 N :   -0.719699
   1 C :   -0.069896
   2 H :    0.450302
   3 C :   -0.249431
   4 H :    0.259083
   5 C :   -0.339831
   6 H :    0.333478
   7 C :   -0.249560
   8 H :    0.258948
   9 C :   -0.069698
  10 H :    0.450413
  11 C :   -0.680021
  12 H :    0.342273
  13 H :    0.310780
  14 C :   -0.680011
  15 H :    0.342190
  16 H :    0.310679
Sum of atomic charges:    0.0000000

LOEWDIN ATOMIC CHARGES
----------------------
   0 N :    0.622282
   1 C :    0.007525
   2 H :   -0.317009
   3 C :    0.297659
   4 H :   -0.300979
   5 C :    0.327574
   6 H :   -0.295421
   7 C :    0.297618
   8 H :   -0.300975
   9 C :    0.007568
  10 H :   -0.317027
  11 C :    0.683179
  12 H :   -0.377205
  13 H :   -0.320392
  14 C :    0.683178
  15 H :   -0.377204
  16 H :   -0.320370

  Mayer bond orders larger than 0.100000
B(  0-N ,  1-C ) :   1.1100 B(  0-N ,  2-H ) :  -0.1343 B(  0-N ,  3-C ) :   0.1002
B(  0-N ,  7-C ) :   0.1003 B(  0-N ,  9-C ) :   1.1099 B(  0-N , 10-H ) :  -0.1343
B(  1-C ,  2-H ) :   0.9002 B(  1-C ,  3-C ) :   1.1320 B(  3-C ,  4-H ) :   1.0786
B(  3-C ,  5-C ) :   1.2267 B(  5-C ,  6-H ) :   0.9976 B(  5-C ,  7-C ) :   1.2266
B(  7-C ,  8-H ) :   1.0787 B(  7-C ,  9-C ) :   1.1321 B(  9-C , 10-H ) :   0.9001
B( 11-C , 12-H ) :   0.8619 B( 11-C , 13-H ) :   0.9061 B( 11-C , 14-C ) :   1.9732
B( 14-C , 15-H ) :   0.8619 B( 14-C , 16-H ) :   0.9061

MP2 TOTAL ENERGY:     -326.253189227 Eh
FINAL SINGLE POINT ENERGY      -326.253189227019

DIPOLE MOMENT
-------------
                                X             Y             Z
Electronic contribution:      1.26430      -0.00027      -3.78389
Nuclear contribution   :     -2.16602       0.00040       3.59641
                        -----------------------------------------
Total Dipole Moment    :     -0.90172       0.00013      -0.18748
                        -----------------------------------------
Magnitude (a.u.)       :      0.92101
Magnitude (Debye)      :      2.34101

Rotational constants in cm-1:     0.089215     0.079357     0.075449
Rotational constants in MHz :  2674.602258  2379.069832  2261.890953

                             ****ORCA TERMINATED NORMALLY****
TOTAL RUN TIME: 0 days 0 hours 37 minutes 36 seconds 29 msec
