                         Program Version 5.0.4 -  RELEASE  -
|  1> ! ri-mp2 aug-cc-pvdz aug-cc-pvdz/c tightscf
|  2> %pal nprocs 16 end
|  3> %maxcore 3800
|  4> %base "DZ_S66by10_6_2.0_dimer"
|  5> %scf STABPerform true end
|  6>
|  7> *xyz 0 1
|  8> O   -0.70692019    0.04583037    0.00638610
|  9> H    0.26562361    0.07171014    0.00133929
| 10> C   -1.07667067   -1.31391581    0.00161428
| 11> H   -2.16292358   -1.36319577    0.00586542
| 12> H   -0.72340594   -1.84465168   -0.88774350
| 13> H   -0.71607978   -1.85282083    0.88307978
| 14> N    4.19830338   -0.14798088   -0.00816441
| 15> H    4.56892293    0.35979563    0.78496798
| 16> H    4.56904622    0.31635769   -0.82742324
| 17> C    4.67605531   -1.53401432    0.02929680
| 18> H    4.28417047   -2.06803960   -0.83289493
| 19> H    5.76276647   -1.64074949    0.03233129
| 20> H    4.28392891   -2.02074449    0.91892894
| 21> *
| 22>
| 23> $new_job
| 24> ! ri-mp2 aug-cc-pvtz aug-cc-pvtz/c tightscf
| 25> %pal nprocs 16 end
| 26> %maxcore 3800
| 27> %base "TZ_S66by10_6_2.0_dimer"
| 28>
| 29> *xyz 0 1
| 30> O   -0.70692019    0.04583037    0.00638610
| 31> H    0.26562361    0.07171014    0.00133929
| 32> C   -1.07667067   -1.31391581    0.00161428
| 33> H   -2.16292358   -1.36319577    0.00586542
| 34> H   -0.72340594   -1.84465168   -0.88774350
| 35> H   -0.71607978   -1.85282083    0.88307978
| 36> N    4.19830338   -0.14798088   -0.00816441
| 37> H    4.56892293    0.35979563    0.78496798
| 38> H    4.56904622    0.31635769   -0.82742324
| 39> C    4.67605531   -1.53401432    0.02929680
| 40> H    4.28417047   -2.06803960   -0.83289493
| 41> H    5.76276647   -1.64074949    0.03233129
| 42> H    4.28392891   -2.02074449    0.91892894
| 43> *
| 44>
| 45> $new_job
| 46> ! ri-mp2 aug-cc-pvqz aug-cc-pvqz/c tightscf
| 47> %pal nprocs 16 end
| 48> %maxcore 3800
| 49> %base "QZ_S66by10_6_2.0_dimer"
| 50>
| 51> *xyz 0 1
| 52> O   -0.70692019    0.04583037    0.00638610
| 53> H    0.26562361    0.07171014    0.00133929
| 54> C   -1.07667067   -1.31391581    0.00161428
| 55> H   -2.16292358   -1.36319577    0.00586542
| 56> H   -0.72340594   -1.84465168   -0.88774350
| 57> H   -0.71607978   -1.85282083    0.88307978
| 58> N    4.19830338   -0.14798088   -0.00816441
| 59> H    4.56892293    0.35979563    0.78496798
| 60> H    4.56904622    0.31635769   -0.82742324
| 61> C    4.67605531   -1.53401432    0.02929680
| 62> H    4.28417047   -2.06803960   -0.83289493
| 63> H    5.76276647   -1.64074949    0.03233129
| 64> H    4.28392891   -2.02074449    0.91892894
| 65> *
| 66>
| 67>
| 68>
| 69>
| 70>                          ****END OF INPUT****
 Total Charge           Charge          ....    0
 Multiplicity           Mult            ....    1
 Number of Electrons    NEL             ....   36
MP2 TOTAL ENERGY:     -210.996569596 Eh
FINAL SINGLE POINT ENERGY      -210.996569595569
MP2 TOTAL ENERGY:     -211.197847208 Eh
FINAL SINGLE POINT ENERGY      -211.197847207671

CARTESIAN COORDINATES (ANGSTROEM)
---------------------------------
  O     -0.706920    0.045830    0.006386
  H      0.265624    0.071710    0.001339
  C     -1.076671   -1.313916    0.001614
  H     -2.162924   -1.363196    0.005865
  H     -0.723406   -1.844652   -0.887743
  H     -0.716080   -1.852821    0.883080
  N      4.198303   -0.147981   -0.008164
  H      4.568923    0.359796    0.784968
  H      4.569046    0.316358   -0.827423
  C      4.676055   -1.534014    0.029297
  H      4.284170   -2.068040   -0.832895
  H      5.762766   -1.640749    0.032331
  H      4.283929   -2.020744    0.918929

 Multiplicity           Mult            ....    1
 Number of Electrons    NEL             ....   36
 Basis Dimension        Dim             ....  734

ORBITAL ENERGIES
----------------

  NO   OCC          E(Eh)            E(eV)
   0   2.0000     -20.550019      -559.1944
   1   2.0000     -15.545600      -423.0173
   2   2.0000     -11.262202      -306.4601
   3   2.0000     -11.245609      -306.0086
   4   2.0000      -1.350603       -36.7518
   5   2.0000      -1.176788       -32.0220
   6   2.0000      -0.916313       -24.9341
   7   2.0000      -0.903046       -24.5731
   8   2.0000      -0.683158       -18.5897
   9   2.0000      -0.668474       -18.1901
  10   2.0000      -0.613175       -16.6853
  11   2.0000      -0.610791       -16.6205
  12   2.0000      -0.588355       -16.0100
  13   2.0000      -0.562444       -15.3049
  14   2.0000      -0.524112       -14.2618
  15   2.0000      -0.495758       -13.4902
  16   2.0000      -0.442501       -12.0411
  17   2.0000      -0.401461       -10.9243
  18   0.0000       0.022784         0.6200
  19   0.0000       0.032331         0.8798
  20   0.0000       0.036066         0.9814
  21   0.0000       0.036674         0.9979
  22   0.0000       0.045231         1.2308

MULLIKEN ATOMIC CHARGES
-----------------------
   0 O :   -0.716291
   1 H :    0.349118
   2 C :   -0.446032
   3 H :    0.348207
   4 H :    0.230824
   5 H :    0.230366
   6 N :   -0.632487
   7 H :    0.248064
   8 H :    0.248188
   9 C :   -0.698225
  10 H :    0.267879
  11 H :    0.302508
  12 H :    0.267880
Sum of atomic charges:    0.0000000

LOEWDIN ATOMIC CHARGES
----------------------
   0 O :    1.218580
   1 H :   -0.792577
   2 C :    0.554419
   3 H :   -0.343451
   4 H :   -0.320340
   5 H :   -0.320362
   6 N :    1.251487
   7 H :   -0.531653
   8 H :   -0.531665
   9 C :    0.748683
  10 H :   -0.318180
  11 H :   -0.296767
  12 H :   -0.318173

  Mayer bond orders larger than 0.100000
B(  0-O ,  1-H ) :   0.8877 B(  0-O ,  2-C ) :   0.8344 B(  2-C ,  3-H ) :   0.8644
B(  2-C ,  4-H ) :   0.9374 B(  2-C ,  5-H ) :   0.9375 B(  6-N ,  7-H ) :   0.9340
B(  6-N ,  8-H ) :   0.9339 B(  6-N ,  9-C ) :   0.9706 B(  9-C , 10-H ) :   0.9272
B(  9-C , 11-H ) :   0.8960 B(  9-C , 12-H ) :   0.9272

MP2 TOTAL ENERGY:     -211.260634359 Eh
FINAL SINGLE POINT ENERGY      -211.260634359128

DIPOLE MOMENT
-------------
                                X             Y             Z
Electronic contribution:     -2.92332       2.75768      -0.01997
Nuclear contribution   :      4.00835      -3.29588       0.01488
                        -----------------------------------------
Total Dipole Moment    :      1.08502      -0.53820      -0.00509
                        -----------------------------------------
Magnitude (a.u.)       :      1.21118
Magnitude (Debye)      :      3.07858

Rotational constants in cm-1:     0.418988     0.036681     0.034339
Rotational constants in MHz : 12560.953544  1099.660196  1029.456261

                             ****ORCA TERMINATED NORMALLY****
TOTAL RUN TIME: 0 days 0 hours 13 minutes 46 seconds 697 msec
