                         Program Version 5.0.4 -  RELEASE  -
|  1> ! ri-mp2 aug-cc-pvdz aug-cc-pvdz/c tightscf
|  2> %pal nprocs 16 end
|  3> %maxcore 3800
|  4> %base "DZ_S66by10_28_1.05_dimer"
|  5>
|  6> *xyz 0 1
|  7> C    0.82576911    1.23652484   -0.04025044
|  8> H    1.52101317    2.06312520   -0.08247145
|  9> C    1.30015992   -0.06294088    0.12725601
| 10> H    2.36365753   -0.24226113    0.20767420
| 11> C    0.40352312   -1.12855218    0.19824486
| 12> H    0.77375338   -2.13742677    0.32412109
| 13> C   -0.96780949   -0.89519049    0.10313994
| 14> H   -1.66520900   -1.71998342    0.16042745
| 15> C   -1.44350838    0.40448328   -0.06244130
| 16> H   -2.50751124    0.58550112   -0.12415016
| 17> C   -0.54575549    1.46876875   -0.13624741
| 18> H   -0.91422190    2.47742220   -0.26785516
| 19> N   -0.26995104    0.65773106    3.34878567
| 20> H   -0.64325843    1.55949249    3.08589270
| 21> C    1.12219564    0.58474415    3.48079901
| 22> O    1.81310596    1.57916784    3.33596495
| 23> C    1.60109576   -0.74933356    3.79890921
| 24> H    2.65814785   -0.90154950    3.93303035
| 25> C    0.72138653   -1.76371473    3.92512574
| 26> H    1.02731405   -2.77213534    4.16165010
| 27> N   -0.62385936   -1.57868282    3.75503359
| 28> H   -1.27260719   -2.34124176    3.85390276
| 29> C   -1.19830767   -0.35388179    3.45561898
| 30> O   -2.39609608   -0.20305851    3.31350679
| 31> *
| 32>
| 33> $new_job
| 34> ! ri-mp2 aug-cc-pvtz aug-cc-pvtz/c tightscf
| 35> %pal nprocs 16 end
| 36> %maxcore 3800
| 37> %base "TZ_S66by10_28_1.05_dimer"
| 38>
| 39> *xyz 0 1
| 40> C    0.82576911    1.23652484   -0.04025044
| 41> H    1.52101317    2.06312520   -0.08247145
| 42> C    1.30015992   -0.06294088    0.12725601
| 43> H    2.36365753   -0.24226113    0.20767420
| 44> C    0.40352312   -1.12855218    0.19824486
| 45> H    0.77375338   -2.13742677    0.32412109
| 46> C   -0.96780949   -0.89519049    0.10313994
| 47> H   -1.66520900   -1.71998342    0.16042745
| 48> C   -1.44350838    0.40448328   -0.06244130
| 49> H   -2.50751124    0.58550112   -0.12415016
| 50> C   -0.54575549    1.46876875   -0.13624741
| 51> H   -0.91422190    2.47742220   -0.26785516
| 52> N   -0.26995104    0.65773106    3.34878567
| 53> H   -0.64325843    1.55949249    3.08589270
| 54> C    1.12219564    0.58474415    3.48079901
| 55> O    1.81310596    1.57916784    3.33596495
| 56> C    1.60109576   -0.74933356    3.79890921
| 57> H    2.65814785   -0.90154950    3.93303035
| 58> C    0.72138653   -1.76371473    3.92512574
| 59> H    1.02731405   -2.77213534    4.16165010
| 60> N   -0.62385936   -1.57868282    3.75503359
| 61> H   -1.27260719   -2.34124176    3.85390276
| 62> C   -1.19830767   -0.35388179    3.45561898
| 63> O   -2.39609608   -0.20305851    3.31350679
| 64> *
| 65>
| 66> $new_job
| 67> ! ri-mp2 aug-cc-pvqz aug-cc-pvqz/c tightscf
| 68> %pal nprocs 16 end
| 69> %maxcore 3800
| 70> %base "QZ_S66by10_28_1.05_dimer"
| 71>
| 72> *xyz 0 1
| 73> C    0.82576911    1.23652484   -0.04025044
| 74> H    1.52101317    2.06312520   -0.08247145
| 75> C    1.30015992   -0.06294088    0.12725601
| 76> H    2.36365753   -0.24226113    0.20767420
| 77> C    0.40352312   -1.12855218    0.19824486
| 78> H    0.77375338   -2.13742677    0.32412109
| 79> C   -0.96780949   -0.89519049    0.10313994
| 80> H   -1.66520900   -1.71998342    0.16042745
| 81> C   -1.44350838    0.40448328   -0.06244130
| 82> H   -2.50751124    0.58550112   -0.12415016
| 83> C   -0.54575549    1.46876875   -0.13624741
| 84> H   -0.91422190    2.47742220   -0.26785516
| 85> N   -0.26995104    0.65773106    3.34878567
| 86> H   -0.64325843    1.55949249    3.08589270
| 87> C    1.12219564    0.58474415    3.48079901
| 88> O    1.81310596    1.57916784    3.33596495
| 89> C    1.60109576   -0.74933356    3.79890921
| 90> H    2.65814785   -0.90154950    3.93303035
| 91> C    0.72138653   -1.76371473    3.92512574
| 92> H    1.02731405   -2.77213534    4.16165010
| 93> N   -0.62385936   -1.57868282    3.75503359
| 94> H   -1.27260719   -2.34124176    3.85390276
| 95> C   -1.19830767   -0.35388179    3.45561898
| 96> O   -2.39609608   -0.20305851    3.31350679
| 97> *
| 98>
| 99>
|100>
|101>
|102>                          ****END OF INPUT****
 Total Charge           Charge          ....    0
 Multiplicity           Mult            ....    1
 Number of Electrons    NEL             ....  100
MP2 TOTAL ENERGY:     -645.333027044 Eh
FINAL SINGLE POINT ENERGY      -645.333027044042
MP2 TOTAL ENERGY:     -645.883563781 Eh
FINAL SINGLE POINT ENERGY      -645.883563781274

CARTESIAN COORDINATES (ANGSTROEM)
---------------------------------
  C      0.825769    1.236525   -0.040250
  H      1.521013    2.063125   -0.082471
  C      1.300160   -0.062941    0.127256
  H      2.363658   -0.242261    0.207674
  C      0.403523   -1.128552    0.198245
  H      0.773753   -2.137427    0.324121
  C     -0.967809   -0.895190    0.103140
  H     -1.665209   -1.719983    0.160427
  C     -1.443508    0.404483   -0.062441
  H     -2.507511    0.585501   -0.124150
  C     -0.545755    1.468769   -0.136247
  H     -0.914222    2.477422   -0.267855
  N     -0.269951    0.657731    3.348786
  H     -0.643258    1.559492    3.085893
  C      1.122196    0.584744    3.480799
  O      1.813106    1.579168    3.335965
  C      1.601096   -0.749334    3.798909
  H      2.658148   -0.901549    3.933030
  C      0.721387   -1.763715    3.925126
  H      1.027314   -2.772135    4.161650
  N     -0.623859   -1.578683    3.755034
  H     -1.272607   -2.341242    3.853903
  C     -1.198308   -0.353882    3.455619
  O     -2.396096   -0.203059    3.313507

 Multiplicity           Mult            ....    1
 Number of Electrons    NEL             ....  100
 Basis Dimension        Dim             .... 1580

ORBITAL ENERGIES
----------------

  NO   OCC          E(Eh)            E(eV)
   0   2.0000     -20.537166      -558.8447
   1   2.0000     -20.531853      -558.7001
   2   2.0000     -15.635670      -425.4682
   3   2.0000     -15.616406      -424.9440
   4   2.0000     -11.410456      -310.4943
   5   2.0000     -11.372744      -309.4681
   6   2.0000     -11.333238      -308.3931
   7   2.0000     -11.248141      -306.0775
   8   2.0000     -11.236668      -305.7653
   9   2.0000     -11.234394      -305.7034
  10   2.0000     -11.233824      -305.6879
  11   2.0000     -11.233215      -305.6713
  12   2.0000     -11.232678      -305.6567
  13   2.0000     -11.231918      -305.6360
  14   2.0000      -1.428416       -38.8692
  15   2.0000      -1.390380       -37.8342
  16   2.0000      -1.306155       -35.5423
  17   2.0000      -1.238209       -33.6934
  18   2.0000      -1.150539       -31.3078
  19   2.0000      -1.081498       -29.4291
  20   2.0000      -1.015145       -27.6235
  21   2.0000      -1.014456       -27.6048
  22   2.0000      -0.926593       -25.2139
  23   2.0000      -0.894668       -24.3451
  24   2.0000      -0.824333       -22.4312
  25   2.0000      -0.823708       -22.4142
  26   2.0000      -0.800619       -21.7860
  27   2.0000      -0.758479       -20.6393
  28   2.0000      -0.709776       -19.3140
  29   2.0000      -0.707875       -19.2622
  30   2.0000      -0.671384       -18.2693
  31   2.0000      -0.662704       -18.0331
  32   2.0000      -0.646684       -17.5972
  33   2.0000      -0.643944       -17.5226
  34   2.0000      -0.619058       -16.8454
  35   2.0000      -0.608914       -16.5694
  36   2.0000      -0.595569       -16.2062
  37   2.0000      -0.588489       -16.0136
  38   2.0000      -0.587654       -15.9909
  39   2.0000      -0.564804       -15.3691
  40   2.0000      -0.520628       -14.1670
  41   2.0000      -0.501731       -13.6528
  42   2.0000      -0.494852       -13.4656
  43   2.0000      -0.494605       -13.4589
  44   2.0000      -0.476870       -12.9763
  45   2.0000      -0.443104       -12.0575
  46   2.0000      -0.429799       -11.6954
  47   2.0000      -0.363508        -9.8916
  48   2.0000      -0.338467        -9.2102
  49   2.0000      -0.335954        -9.1418
  50   0.0000       0.012527         0.3409
  51   0.0000       0.028154         0.7661
  52   0.0000       0.030941         0.8419
  53   0.0000       0.032306         0.8791
  54   0.0000       0.039820         1.0836

MULLIKEN ATOMIC CHARGES
-----------------------
   0 C :   -0.244278
   1 H :    0.314589
   2 C :   -0.331755
   3 H :    0.272231
   4 C :   -0.256042
   5 H :    0.334074
   6 C :   -0.350524
   7 H :    0.287654
   8 C :   -0.233317
   9 H :    0.297074
  10 C :   -0.383943
  11 H :    0.346563
  12 N :   -0.798511
  13 H :    0.111150
  14 C :    1.358515
  15 O :   -0.918971
  16 C :   -0.395235
  17 H :    0.244825
  18 C :   -0.185719
  19 H :    0.407822
  20 N :   -0.698633
  21 H :    0.063996
  22 C :    1.657115
  23 O :   -0.898679
Sum of atomic charges:    0.0000000

LOEWDIN ATOMIC CHARGES
----------------------
   0 C :    0.322571
   1 H :   -0.316665
   2 C :    0.313816
   3 H :   -0.316729
   4 C :    0.314673
   5 H :   -0.320364
   6 C :    0.312850
   7 H :   -0.319041
   8 C :    0.321716
   9 H :   -0.317613
  10 C :    0.329827
  11 H :   -0.320928
  12 N :    0.777973
  13 H :   -0.518634
  14 C :   -0.889138
  15 O :    0.698474
  16 C :    0.326136
  17 H :   -0.349264
  18 C :    0.229903
  19 H :   -0.295209
  20 N :    0.813608
  21 H :   -0.489616
  22 C :   -1.013993
  23 O :    0.705645

  Mayer bond orders larger than 0.100000
B(  0-C ,  1-H ) :   1.0318 B(  0-C ,  2-C ) :   1.2159 B(  0-C ,  6-C ) :   0.1789
B(  0-C , 10-C ) :   1.2295 B(  2-C ,  3-H ) :   1.0744 B(  2-C ,  4-C ) :   1.1685
B(  2-C ,  8-C ) :   0.1753 B(  4-C ,  5-H ) :   0.9820 B(  4-C ,  6-C ) :   1.2207
B(  4-C , 10-C ) :   0.1770 B(  6-C ,  7-H ) :   1.0638 B(  6-C ,  8-C ) :   1.1791
B(  8-C ,  9-H ) :   1.0620 B(  8-C , 10-C ) :   1.2556 B( 10-C , 11-H ) :   1.0007
B( 12-N , 13-H ) :   1.1698 B( 12-N , 14-C ) :   0.9691 B( 12-N , 15-O ) :   0.2311
B( 12-N , 22-C ) :   1.0658 B( 12-N , 23-O ) :   0.2438 B( 14-C , 15-O ) :   0.8412
B( 14-C , 16-C ) :   1.0796 B( 15-O , 16-C ) :   0.2244 B( 16-C , 17-H ) :   1.0491
B( 16-C , 18-C ) :   1.5388 B( 18-C , 19-H ) :   0.9442 B( 18-C , 20-N ) :   0.8715
B( 20-N , 21-H ) :   1.2199 B( 20-N , 22-C ) :   1.0105 B( 20-N , 23-O ) :   0.2220
B( 22-C , 23-O ) :   0.8446

MP2 TOTAL ENERGY:     -646.062543244 Eh
FINAL SINGLE POINT ENERGY      -646.062543244213

DIPOLE MOMENT
-------------
                                X             Y             Z
Electronic contribution:     -0.96373       0.95557       5.64432
Nuclear contribution   :      1.17775      -2.73300      -5.35029
                        -----------------------------------------
Total Dipole Moment    :      0.21402      -1.77744       0.29404
                        -----------------------------------------
Magnitude (a.u.)       :      1.81426
Magnitude (Debye)      :      4.61148

Rotational constants in cm-1:     0.031853     0.021272     0.017915
Rotational constants in MHz :   954.928978   637.710552   537.067142

                             ****ORCA TERMINATED NORMALLY****
TOTAL RUN TIME: 0 days 2 hours 3 minutes 56 seconds 287 msec
