                         Program Version 5.0.4 -  RELEASE  -
|  1> ! ri-mp2 aug-cc-pvdz aug-cc-pvdz/c tightscf
|  2> %pal nprocs 16 end
|  3> %maxcore 3800
|  4> %base "DZ_S66by10_31_0.9_dimer"
|  5> %scf STABPerform true end
|  6>
|  7> *xyz 0 1
|  8> N   -0.05087365   -0.98008127    0.03396219
|  9> H   -0.05322205   -1.99069374    0.04982167
| 10> C   -1.30881316   -0.36187638    0.00402596
| 11> O   -2.32722000   -1.03255492   -0.00582886
| 12> C   -1.23681849    1.08804829   -0.01222440
| 13> H   -2.15273897    1.65146044   -0.05477443
| 14> C   -0.03519433    1.69783584    0.03370483
| 15> H    0.07036636    2.77247575    0.03188224
| 16> N    1.13452913    0.99028251    0.09184461
| 17> H    2.02372032    1.45677218    0.15569277
| 18> C    1.19318599   -0.39183287    0.11577512
| 19> O    2.23639797   -1.01118826    0.19418562
| 20> C    0.71839221    0.01536198    3.11401153
| 21> H    1.23550995   -0.85562592    2.73678494
| 22> H    1.32400322    0.80235602    3.54132586
| 23> C   -0.61038429    0.11595243    3.06476460
| 24> H   -1.22238717   -0.67152716    2.64786388
| 25> H   -1.12220928    0.98702202    3.44876437
| 26> *
| 27>
| 28> $new_job
| 29> ! ri-mp2 aug-cc-pvtz aug-cc-pvtz/c tightscf
| 30> %pal nprocs 16 end
| 31> %maxcore 3800
| 32> %base "TZ_S66by10_31_0.9_dimer"
| 33>
| 34> *xyz 0 1
| 35> N   -0.05087365   -0.98008127    0.03396219
| 36> H   -0.05322205   -1.99069374    0.04982167
| 37> C   -1.30881316   -0.36187638    0.00402596
| 38> O   -2.32722000   -1.03255492   -0.00582886
| 39> C   -1.23681849    1.08804829   -0.01222440
| 40> H   -2.15273897    1.65146044   -0.05477443
| 41> C   -0.03519433    1.69783584    0.03370483
| 42> H    0.07036636    2.77247575    0.03188224
| 43> N    1.13452913    0.99028251    0.09184461
| 44> H    2.02372032    1.45677218    0.15569277
| 45> C    1.19318599   -0.39183287    0.11577512
| 46> O    2.23639797   -1.01118826    0.19418562
| 47> C    0.71839221    0.01536198    3.11401153
| 48> H    1.23550995   -0.85562592    2.73678494
| 49> H    1.32400322    0.80235602    3.54132586
| 50> C   -0.61038429    0.11595243    3.06476460
| 51> H   -1.22238717   -0.67152716    2.64786388
| 52> H   -1.12220928    0.98702202    3.44876437
| 53> *
| 54>
| 55> $new_job
| 56> ! ri-mp2 aug-cc-pvqz aug-cc-pvqz/c tightscf
| 57> %pal nprocs 16 end
| 58> %maxcore 3800
| 59> %base "QZ_S66by10_31_0.9_dimer"
| 60>
| 61> *xyz 0 1
| 62> N   -0.05087365   -0.98008127    0.03396219
| 63> H   -0.05322205   -1.99069374    0.04982167
| 64> C   -1.30881316   -0.36187638    0.00402596
| 65> O   -2.32722000   -1.03255492   -0.00582886
| 66> C   -1.23681849    1.08804829   -0.01222440
| 67> H   -2.15273897    1.65146044   -0.05477443
| 68> C   -0.03519433    1.69783584    0.03370483
| 69> H    0.07036636    2.77247575    0.03188224
| 70> N    1.13452913    0.99028251    0.09184461
| 71> H    2.02372032    1.45677218    0.15569277
| 72> C    1.19318599   -0.39183287    0.11577512
| 73> O    2.23639797   -1.01118826    0.19418562
| 74> C    0.71839221    0.01536198    3.11401153
| 75> H    1.23550995   -0.85562592    2.73678494
| 76> H    1.32400322    0.80235602    3.54132586
| 77> C   -0.61038429    0.11595243    3.06476460
| 78> H   -1.22238717   -0.67152716    2.64786388
| 79> H   -1.12220928    0.98702202    3.44876437
| 80> *
| 81>
| 82>
| 83>
| 84>
| 85>                          ****END OF INPUT****
 Total Charge           Charge          ....    0
 Multiplicity           Mult            ....    1
 Number of Electrons    NEL             ....   74
MP2 TOTAL ENERGY:     -492.114902122 Eh
FINAL SINGLE POINT ENERGY      -492.114902121938
MP2 TOTAL ENERGY:     -492.537126117 Eh
FINAL SINGLE POINT ENERGY      -492.537126117350

CARTESIAN COORDINATES (ANGSTROEM)
---------------------------------
  N     -0.050874   -0.980081    0.033962
  H     -0.053222   -1.990694    0.049822
  C     -1.308813   -0.361876    0.004026
  O     -2.327220   -1.032555   -0.005829
  C     -1.236818    1.088048   -0.012224
  H     -2.152739    1.651460   -0.054774
  C     -0.035194    1.697836    0.033705
  H      0.070366    2.772476    0.031882
  N      1.134529    0.990283    0.091845
  H      2.023720    1.456772    0.155693
  C      1.193186   -0.391833    0.115775
  O      2.236398   -1.011188    0.194186
  C      0.718392    0.015362    3.114012
  H      1.235510   -0.855626    2.736785
  H      1.324003    0.802356    3.541326
  C     -0.610384    0.115952    3.064765
  H     -1.222387   -0.671527    2.647864
  H     -1.122209    0.987022    3.448764

 Multiplicity           Mult            ....    1
 Number of Electrons    NEL             ....   74
 Basis Dimension        Dim             .... 1168

ORBITAL ENERGIES
----------------

  NO   OCC          E(Eh)            E(eV)
   0   2.0000     -20.542952      -559.0021
   1   2.0000     -20.538156      -558.8716
   2   2.0000     -15.639295      -425.5669
   3   2.0000     -15.622491      -425.1096
   4   2.0000     -11.415943      -310.6436
   5   2.0000     -11.378224      -309.6172
   6   2.0000     -11.336044      -308.4694
   7   2.0000     -11.250826      -306.1505
   8   2.0000     -11.232650      -305.6560
   9   2.0000     -11.230412      -305.5951
  10   2.0000      -1.434400       -39.0320
  11   2.0000      -1.396764       -38.0079
  12   2.0000      -1.310809       -35.6689
  13   2.0000      -1.243594       -33.8399
  14   2.0000      -1.085449       -29.5366
  15   2.0000      -1.039605       -28.2891
  16   2.0000      -0.931188       -25.3389
  17   2.0000      -0.899604       -24.4795
  18   2.0000      -0.804904       -21.9025
  19   2.0000      -0.798825       -21.7371
  20   2.0000      -0.763226       -20.7684
  21   2.0000      -0.712161       -19.3789
  22   2.0000      -0.676415       -18.4062
  23   2.0000      -0.675170       -18.3723
  24   2.0000      -0.651527       -17.7289
  25   2.0000      -0.643883       -17.5209
  26   2.0000      -0.613410       -16.6917
  27   2.0000      -0.599976       -16.3262
  28   2.0000      -0.591314       -16.0905
  29   2.0000      -0.571094       -15.5403
  30   2.0000      -0.525697       -14.3049
  31   2.0000      -0.508962       -13.8496
  32   2.0000      -0.482912       -13.1407
  33   2.0000      -0.448796       -12.2124
  34   2.0000      -0.437491       -11.9047
  35   2.0000      -0.383305       -10.4303
  36   2.0000      -0.364245        -9.9116
  37   0.0000       0.012593         0.3427
  38   0.0000       0.028635         0.7792
  39   0.0000       0.032931         0.8961
  40   0.0000       0.036135         0.9833
  41   0.0000       0.044843         1.2203

MULLIKEN ATOMIC CHARGES
-----------------------
   0 N :   -0.667149
   1 H :    0.059638
   2 C :    1.391974
   3 O :   -0.910328
   4 C :   -0.504336
   5 H :    0.231956
   6 C :   -0.104199
   7 H :    0.414040
   8 N :   -0.631646
   9 H :    0.066689
  10 C :    1.578420
  11 O :   -0.886868
  12 C :   -0.736373
  13 H :    0.362605
  14 H :    0.374504
  15 C :   -0.789359
  16 H :    0.394162
  17 H :    0.356273
Sum of atomic charges:   -0.0000000

LOEWDIN ATOMIC CHARGES
----------------------
   0 N :    0.774677
   1 H :   -0.508715
   2 C :   -0.905495
   3 O :    0.698104
   4 C :    0.317326
   5 H :   -0.345563
   6 C :    0.223758
   7 H :   -0.291113
   8 N :    0.808658
   9 H :   -0.484594
  10 C :   -1.040753
  11 O :    0.709785
  12 C :    0.745347
  13 H :   -0.381726
  14 H :   -0.345620
  15 C :    0.744506
  16 H :   -0.375864
  17 H :   -0.342718

  Mayer bond orders larger than 0.100000
B(  0-N ,  1-H ) :   1.1982 B(  0-N ,  2-C ) :   0.9587 B(  0-N ,  3-O ) :   0.2215
B(  0-N , 10-C ) :   1.0893 B(  0-N , 11-O ) :   0.2214 B(  2-C ,  3-O ) :   0.8898
B(  2-C ,  4-C ) :   1.0927 B(  3-O ,  4-C ) :   0.2530 B(  4-C ,  5-H ) :   1.0675
B(  4-C ,  6-C ) :   1.4568 B(  6-C ,  7-H ) :   0.9356 B(  6-C ,  8-N ) :   0.9241
B(  8-N ,  9-H ) :   1.1877 B(  8-N , 10-C ) :   1.0471 B(  8-N , 11-O ) :   0.2253
B( 10-C , 11-O ) :   0.9220 B( 12-C , 13-H ) :   0.8332 B( 12-C , 14-H ) :   0.8678
B( 12-C , 15-C ) :   1.9848 B( 15-C , 16-H ) :   0.8163 B( 15-C , 17-H ) :   0.8882

MP2 TOTAL ENERGY:     -492.674659753 Eh
FINAL SINGLE POINT ENERGY      -492.674659752560

DIPOLE MOMENT
-------------
                                X             Y             Z
Electronic contribution:      0.32913      -2.08513      -6.73236
Nuclear contribution   :      0.18422       3.99372       6.75837
                        -----------------------------------------
Total Dipole Moment    :      0.51336       1.90859       0.02601
                        -----------------------------------------
Magnitude (a.u.)       :      1.97660
Magnitude (Debye)      :      5.02411

Rotational constants in cm-1:     0.050310     0.041839     0.035549
Rotational constants in MHz :  1508.262512  1254.313544  1065.740278

                             ****ORCA TERMINATED NORMALLY****
TOTAL RUN TIME: 0 days 4 hours 3 minutes 1 seconds 350 msec
