                         Program Version 5.0.4 -  RELEASE  -
|  1> ! ri-mp2 aug-cc-pvdz aug-cc-pvdz/c tightscf
|  2> %pal nprocs 16 end
|  3> %maxcore 3800
|  4> %base "DZ_S66by10_18_1.05_dimer"
|  5>
|  6> *xyz 0 1
|  7> O   -0.55283102   -0.10169749   -0.00049879
|  8> H   -0.87175963    0.80179220    0.00014440
|  9> H    0.41265950   -0.00183225   -0.00025181
| 10> N    2.50539336    0.10375555    0.00017568
| 11> C    3.20130000    0.06978476    1.14492353
| 12> H    2.61662745    0.09339570    2.05579155
| 13> C    4.59032359    0.00460233    1.19491959
| 14> H    5.09622997   -0.02025183    2.14924871
| 15> C    5.30148674   -0.02852347    0.00000844
| 16> H    6.38132669   -0.08029702   -0.00007198
| 17> C    4.59017844    0.00453567   -1.19479285
| 18> H    5.09597539   -0.02033735   -2.14919145
| 19> C    3.20114842    0.06973066   -1.14464659
| 20> H    2.61637954    0.09333132   -2.05543915
| 21> *
| 22>
| 23> $new_job
| 24> ! ri-mp2 aug-cc-pvtz aug-cc-pvtz/c tightscf
| 25> %pal nprocs 16 end
| 26> %maxcore 3800
| 27> %base "TZ_S66by10_18_1.05_dimer"
| 28>
| 29> *xyz 0 1
| 30> O   -0.55283102   -0.10169749   -0.00049879
| 31> H   -0.87175963    0.80179220    0.00014440
| 32> H    0.41265950   -0.00183225   -0.00025181
| 33> N    2.50539336    0.10375555    0.00017568
| 34> C    3.20130000    0.06978476    1.14492353
| 35> H    2.61662745    0.09339570    2.05579155
| 36> C    4.59032359    0.00460233    1.19491959
| 37> H    5.09622997   -0.02025183    2.14924871
| 38> C    5.30148674   -0.02852347    0.00000844
| 39> H    6.38132669   -0.08029702   -0.00007198
| 40> C    4.59017844    0.00453567   -1.19479285
| 41> H    5.09597539   -0.02033735   -2.14919145
| 42> C    3.20114842    0.06973066   -1.14464659
| 43> H    2.61637954    0.09333132   -2.05543915
| 44> *
| 45>
| 46> $new_job
| 47> ! ri-mp2 aug-cc-pvqz aug-cc-pvqz/c tightscf
| 48> %pal nprocs 16 end
| 49> %maxcore 3800
| 50> %base "QZ_S66by10_18_1.05_dimer"
| 51>
| 52> *xyz 0 1
| 53> O   -0.55283102   -0.10169749   -0.00049879
| 54> H   -0.87175963    0.80179220    0.00014440
| 55> H    0.41265950   -0.00183225   -0.00025181
| 56> N    2.50539336    0.10375555    0.00017568
| 57> C    3.20130000    0.06978476    1.14492353
| 58> H    2.61662745    0.09339570    2.05579155
| 59> C    4.59032359    0.00460233    1.19491959
| 60> H    5.09622997   -0.02025183    2.14924871
| 61> C    5.30148674   -0.02852347    0.00000844
| 62> H    6.38132669   -0.08029702   -0.00007198
| 63> C    4.59017844    0.00453567   -1.19479285
| 64> H    5.09597539   -0.02033735   -2.14919145
| 65> C    3.20114842    0.06973066   -1.14464659
| 66> H    2.61637954    0.09333132   -2.05543915
| 67> *
| 68>
| 69>
| 70>
| 71>
| 72>                          ****END OF INPUT****
 Total Charge           Charge          ....    0
 Multiplicity           Mult            ....    1
 Number of Electrons    NEL             ....   52
MP2 TOTAL ENERGY:     -323.835177696 Eh
FINAL SINGLE POINT ENERGY      -323.835177695561
MP2 TOTAL ENERGY:     -324.117693757 Eh
FINAL SINGLE POINT ENERGY      -324.117693757070

CARTESIAN COORDINATES (ANGSTROEM)
---------------------------------
  O     -0.552831   -0.101697   -0.000499
  H     -0.871760    0.801792    0.000144
  H      0.412659   -0.001832   -0.000252
  N      2.505393    0.103756    0.000176
  C      3.201300    0.069785    1.144924
  H      2.616627    0.093396    2.055792
  C      4.590324    0.004602    1.194920
  H      5.096230   -0.020252    2.149249
  C      5.301487   -0.028523    0.000008
  H      6.381327   -0.080297   -0.000072
  C      4.590178    0.004536   -1.194793
  H      5.095975   -0.020337   -2.149191
  C      3.201148    0.069731   -1.144647
  H      2.616380    0.093331   -2.055439

 Multiplicity           Mult            ....    1
 Number of Electrons    NEL             ....   52
 Basis Dimension        Dim             ....  882

ORBITAL ENERGIES
----------------

  NO   OCC          E(Eh)            E(eV)
   0   2.0000     -20.526502      -558.5545
   1   2.0000     -15.580287      -423.9612
   2   2.0000     -11.286937      -307.1332
   3   2.0000     -11.286919      -307.1327
   4   2.0000     -11.270393      -306.6830
   5   2.0000     -11.251484      -306.1685
   6   2.0000     -11.251433      -306.1671
   7   2.0000      -1.313633       -35.7458
   8   2.0000      -1.270795       -34.5801
   9   2.0000      -1.101105       -29.9626
  10   2.0000      -1.045877       -28.4598
  11   2.0000      -0.870982       -23.7006
  12   2.0000      -0.868664       -23.6376
  13   2.0000      -0.735379       -20.0107
  14   2.0000      -0.678483       -18.4625
  15   2.0000      -0.673287       -18.3211
  16   2.0000      -0.664705       -18.0875
  17   2.0000      -0.610484       -16.6121
  18   2.0000      -0.590719       -16.0743
  19   2.0000      -0.555078       -15.1044
  20   2.0000      -0.550989       -14.9932
  21   2.0000      -0.531999       -14.4764
  22   2.0000      -0.473846       -12.8940
  23   2.0000      -0.436728       -11.8840
  24   2.0000      -0.397199       -10.8083
  25   2.0000      -0.359156        -9.7731
  26   0.0000       0.019594         0.5332
  27   0.0000       0.026721         0.7271
  28   0.0000       0.030721         0.8359
  29   0.0000       0.041926         1.1409
  30   0.0000       0.043339         1.1793

MULLIKEN ATOMIC CHARGES
-----------------------
   0 O :   -0.647967
   1 H :    0.308434
   2 H :    0.280247
   3 N :   -0.530566
   4 C :   -0.304529
   5 H :    0.406065
   6 C :   -0.189773
   7 H :    0.317873
   8 C :   -0.210736
   9 H :    0.341225
  10 C :   -0.189758
  11 H :    0.317881
  12 C :   -0.304462
  13 H :    0.406066
Sum of atomic charges:    0.0000000

LOEWDIN ATOMIC CHARGES
----------------------
   0 O :    1.600784
   1 H :   -0.801390
   2 H :   -0.959864
   3 N :    0.602687
   4 C :    0.103993
   5 H :   -0.343730
   6 C :    0.337165
   7 H :   -0.329074
   8 C :    0.333786
   9 H :   -0.312716
  10 C :    0.337159
  11 H :   -0.329062
  12 C :    0.103999
  13 H :   -0.343736

  Mayer bond orders larger than 0.100000
B(  0-O ,  1-H ) :   0.9380 B(  0-O ,  2-H ) :   0.9254 B(  3-N ,  4-C ) :   1.3836
B(  3-N , 12-C ) :   1.3835 B(  4-C ,  5-H ) :   0.9187 B(  4-C ,  6-C ) :   1.2171
B(  4-C , 10-C ) :   0.1102 B(  6-C ,  7-H ) :   0.9841 B(  6-C ,  8-C ) :   1.1859
B(  6-C , 10-C ) :  -0.1138 B(  6-C , 12-C ) :   0.1102 B(  8-C ,  9-H ) :   0.9697
B(  8-C , 10-C ) :   1.1860 B( 10-C , 11-H ) :   0.9841 B( 10-C , 12-C ) :   1.2171
B( 12-C , 13-H ) :   0.9187

MP2 TOTAL ENERGY:     -324.208948810 Eh
FINAL SINGLE POINT ENERGY      -324.208948809706

DIPOLE MOMENT
-------------
                                X             Y             Z
Electronic contribution:      1.91804      -0.07829       0.00030
Nuclear contribution   :     -0.22166       0.66606       0.00023
                        -----------------------------------------
Total Dipole Moment    :      1.69638       0.58777       0.00053
                        -----------------------------------------
Magnitude (a.u.)       :      1.79532
Magnitude (Debye)      :      4.56334

Rotational constants in cm-1:     0.199088     0.045100     0.036942
Rotational constants in MHz :  5968.508591  1352.070780  1107.501201

                             ****ORCA TERMINATED NORMALLY****
TOTAL RUN TIME: 0 days 0 hours 15 minutes 53 seconds 357 msec
