                         Program Version 5.0.4 -  RELEASE  -
|  1> ! ri-mp2 aug-cc-pvdz aug-cc-pvdz/c tightscf
|  2> %pal nprocs 16 end
|  3> %maxcore 3800
|  4> %base "DZ_S66by10_20_1.1_dimer"
|  5> %scf STABPerform true end
|  6>
|  7> *xyz 0 1
|  8> C   -1.06170920    1.29714057    0.29206000
|  9> O   -0.35816112    2.27045861    0.53181267
| 10> O   -0.58930352    0.09491776    0.00378881
| 11> H    0.40443566    0.12772262    0.01841184
| 12> C   -2.55842780    1.34254982    0.29625732
| 13> H   -2.89599798    2.34746400    0.51831634
| 14> H   -2.93288928    1.02239045   -0.67299555
| 15> H   -2.93721196    0.64491043    1.03955708
| 16> C    2.96881603    1.10921341    0.27255720
| 17> O    2.26519766    0.13589892    0.03276959
| 18> O    2.49638969    2.31164880    0.56033567
| 19> H    1.50260115    2.27875057    0.54593516
| 20> C    4.46552848    1.06331066    0.27059280
| 21> H    4.80310804    0.06199147    0.03306731
| 22> H    4.84702702    1.77366360   -0.45887610
| 23> H    4.83704479    1.36600518    1.24664816
| 24> *
| 25>
| 26> $new_job
| 27> ! ri-mp2 aug-cc-pvtz aug-cc-pvtz/c tightscf
| 28> %pal nprocs 16 end
| 29> %maxcore 3800
| 30> %base "TZ_S66by10_20_1.1_dimer"
| 31>
| 32> *xyz 0 1
| 33> C   -1.06170920    1.29714057    0.29206000
| 34> O   -0.35816112    2.27045861    0.53181267
| 35> O   -0.58930352    0.09491776    0.00378881
| 36> H    0.40443566    0.12772262    0.01841184
| 37> C   -2.55842780    1.34254982    0.29625732
| 38> H   -2.89599798    2.34746400    0.51831634
| 39> H   -2.93288928    1.02239045   -0.67299555
| 40> H   -2.93721196    0.64491043    1.03955708
| 41> C    2.96881603    1.10921341    0.27255720
| 42> O    2.26519766    0.13589892    0.03276959
| 43> O    2.49638969    2.31164880    0.56033567
| 44> H    1.50260115    2.27875057    0.54593516
| 45> C    4.46552848    1.06331066    0.27059280
| 46> H    4.80310804    0.06199147    0.03306731
| 47> H    4.84702702    1.77366360   -0.45887610
| 48> H    4.83704479    1.36600518    1.24664816
| 49> *
| 50>
| 51> $new_job
| 52> ! ri-mp2 aug-cc-pvqz aug-cc-pvqz/c tightscf
| 53> %pal nprocs 16 end
| 54> %maxcore 3800
| 55> %base "QZ_S66by10_20_1.1_dimer"
| 56>
| 57> *xyz 0 1
| 58> C   -1.06170920    1.29714057    0.29206000
| 59> O   -0.35816112    2.27045861    0.53181267
| 60> O   -0.58930352    0.09491776    0.00378881
| 61> H    0.40443566    0.12772262    0.01841184
| 62> C   -2.55842780    1.34254982    0.29625732
| 63> H   -2.89599798    2.34746400    0.51831634
| 64> H   -2.93288928    1.02239045   -0.67299555
| 65> H   -2.93721196    0.64491043    1.03955708
| 66> C    2.96881603    1.10921341    0.27255720
| 67> O    2.26519766    0.13589892    0.03276959
| 68> O    2.49638969    2.31164880    0.56033567
| 69> H    1.50260115    2.27875057    0.54593516
| 70> C    4.46552848    1.06331066    0.27059280
| 71> H    4.80310804    0.06199147    0.03306731
| 72> H    4.84702702    1.77366360   -0.45887610
| 73> H    4.83704479    1.36600518    1.24664816
| 74> *
| 75>
| 76>
| 77>
| 78>
| 79>                          ****END OF INPUT****
 Total Charge           Charge          ....    0
 Multiplicity           Mult            ....    1
 Number of Electrons    NEL             ....   64
MP2 TOTAL ENERGY:     -457.072891232 Eh
FINAL SINGLE POINT ENERGY      -457.072891231672
MP2 TOTAL ENERGY:     -457.470587072 Eh
FINAL SINGLE POINT ENERGY      -457.470587072013

CARTESIAN COORDINATES (ANGSTROEM)
---------------------------------
  C     -1.061709    1.297141    0.292060
  O     -0.358161    2.270459    0.531813
  O     -0.589304    0.094918    0.003789
  H      0.404436    0.127723    0.018412
  C     -2.558428    1.342550    0.296257
  H     -2.895998    2.347464    0.518316
  H     -2.932889    1.022390   -0.672996
  H     -2.937212    0.644910    1.039557
  C      2.968816    1.109213    0.272557
  O      2.265198    0.135899    0.032770
  O      2.496390    2.311649    0.560336
  H      1.502601    2.278751    0.545935
  C      4.465528    1.063311    0.270593
  H      4.803108    0.061991    0.033067
  H      4.847027    1.773664   -0.458876
  H      4.837045    1.366005    1.246648

 Multiplicity           Mult            ....    1
 Number of Electrons    NEL             ....   64
 Basis Dimension        Dim             .... 1008

ORBITAL ENERGIES
----------------

  NO   OCC          E(Eh)            E(eV)
   0   2.0000     -20.603276      -560.6436
   1   2.0000     -20.603270      -560.6435
   2   2.0000     -20.553193      -559.2808
   3   2.0000     -20.553177      -559.2804
   4   2.0000     -11.394498      -310.0600
   5   2.0000     -11.394478      -310.0595
   6   2.0000     -11.243003      -305.9377
   7   2.0000     -11.242998      -305.9375
   8   2.0000      -1.469201       -39.9790
   9   2.0000      -1.461759       -39.7765
  10   2.0000      -1.364473       -37.1292
  11   2.0000      -1.356208       -36.9043
  12   2.0000      -1.032162       -28.0865
  13   2.0000      -1.026855       -27.9422
  14   2.0000      -0.834273       -22.7017
  15   2.0000      -0.819040       -22.2872
  16   2.0000      -0.734045       -19.9744
  17   2.0000      -0.697564       -18.9817
  18   2.0000      -0.687483       -18.7074
  19   2.0000      -0.677881       -18.4461
  20   2.0000      -0.655398       -17.8343
  21   2.0000      -0.651113       -17.7177
  22   2.0000      -0.587482       -15.9862
  23   2.0000      -0.582031       -15.8379
  24   2.0000      -0.575087       -15.6489
  25   2.0000      -0.562096       -15.2954
  26   2.0000      -0.562028       -15.2936
  27   2.0000      -0.559529       -15.2256
  28   2.0000      -0.489705       -13.3256
  29   2.0000      -0.482583       -13.1318
  30   2.0000      -0.471671       -12.8348
  31   2.0000      -0.455563       -12.3965
  32   0.0000       0.025504         0.6940
  33   0.0000       0.027976         0.7613
  34   0.0000       0.039295         1.0693
  35   0.0000       0.040904         1.1130
  36   0.0000       0.045777         1.2457

MULLIKEN ATOMIC CHARGES
-----------------------
   0 C :    0.918267
   1 O :   -0.696362
   2 O :   -0.679852
   3 H :    0.301887
   4 C :   -0.760117
   5 H :    0.327797
   6 H :    0.292400
   7 H :    0.295981
   8 C :    0.918246
   9 O :   -0.696328
  10 O :   -0.679883
  11 H :    0.301916
  12 C :   -0.760307
  13 H :    0.327926
  14 H :    0.294511
  15 H :    0.293918
Sum of atomic charges:    0.0000000

LOEWDIN ATOMIC CHARGES
----------------------
   0 C :   -0.974290
   1 O :    0.803141
   2 O :    1.261228
   3 H :   -1.036153
   4 C :    0.875435
   5 H :   -0.323986
   6 H :   -0.303132
   7 H :   -0.302256
   8 C :   -0.974159
   9 O :    0.803110
  10 O :    1.261154
  11 H :   -1.036107
  12 C :    0.875511
  13 H :   -0.324031
  14 H :   -0.302709
  15 H :   -0.302756

  Mayer bond orders larger than 0.100000
B(  0-C ,  1-O ) :   1.5239 B(  0-C ,  2-O ) :   0.9736 B(  0-C ,  4-C ) :   0.7521
B(  2-O ,  3-H ) :   0.8846 B(  4-C ,  5-H ) :   0.9648 B(  4-C ,  6-H ) :   0.9369
B(  4-C ,  7-H ) :   0.9282 B(  8-C ,  9-O ) :   1.5239 B(  8-C , 10-O ) :   0.9736
B(  8-C , 12-C ) :   0.7521 B( 10-O , 11-H ) :   0.8846 B( 12-C , 13-H ) :   0.9647
B( 12-C , 14-H ) :   0.9319 B( 12-C , 15-H ) :   0.9332

MP2 TOTAL ENERGY:     -457.600393983 Eh
FINAL SINGLE POINT ENERGY      -457.600393983092

DIPOLE MOMENT
-------------
                                X             Y             Z
Electronic contribution:      0.00031       0.00156      -0.00736
Nuclear contribution   :     -0.00018      -0.00204       0.00898
                        -----------------------------------------
Total Dipole Moment    :      0.00014      -0.00048       0.00162
                        -----------------------------------------
Magnitude (a.u.)       :      0.00169
Magnitude (Debye)      :      0.00430

Rotational constants in cm-1:     0.187943     0.027201     0.023971
Rotational constants in MHz :  5634.376849   815.457318   718.638572

                             ****ORCA TERMINATED NORMALLY****
TOTAL RUN TIME: 0 days 1 hours 30 minutes 38 seconds 893 msec
