                         Program Version 5.0.4 -  RELEASE  -
|  1> ! ri-mp2 aug-cc-pvdz aug-cc-pvdz/c tightscf
|  2> %pal nprocs 16 end
|  3> %maxcore 3800
|  4> %base "DZ_S66by10_38_0.7_dimer"
|  5> %scf STABPerform true end
|  6>
|  7> *xyz 0 1
|  8> C    0.95688019   -0.89184563    1.14195000
|  9> H    1.50456597   -1.27835762    0.28342019
| 10> H    1.42138447   -1.31477793    2.03102546
| 11> C    0.99094943    0.65850830    1.14550384
| 12> H    1.51059446    1.02309646    0.25994788
| 13> H    1.51625823    1.05981813    2.01053703
| 14> C   -0.47945194    1.10231879    1.10387910
| 15> H   -0.61626861    2.06487722    0.61356737
| 16> H   -0.87474223    1.18907144    2.11806960
| 17> C   -1.18210650   -0.05279656    0.39334575
| 18> H   -0.94888216   -0.02683030   -0.67380459
| 19> H   -2.26566452   -0.03356474    0.50127403
| 20> C   -0.53065958   -1.27488954    1.03930959
| 21> H   -0.69039061   -2.19702093    0.48299221
| 22> H   -0.95084939   -1.41541197    2.03674782
| 23> C   -1.15117806   -0.42249929    4.17966450
| 24> H   -1.48431256   -0.18580068    3.16708013
| 25> H   -1.95596646   -0.96559776    4.67265100
| 26> C    0.16242839   -1.21804421    4.13190330
| 27> H    0.21237333   -1.87578690    3.26576948
| 28> H    0.24271601   -1.84940184    5.01628859
| 29> C    1.29174361   -0.15533838    4.13249939
| 30> H    1.91300857   -0.21601723    3.24062577
| 31> H    1.94915311   -0.30522142    4.98790456
| 32> C    0.58157024    1.20633037    4.24036622
| 33> H    0.40170707    1.61482215    3.24436710
| 34> H    1.16195420    1.94073387    4.79633949
| 35> C   -0.76048222    0.87185793    4.89017808
| 36> H   -1.50015078    1.66436970    4.78529678
| 37> H   -0.62044229    0.68021788    5.95672704
| 38> *
| 39>
| 40> $new_job
| 41> ! ri-mp2 aug-cc-pvtz aug-cc-pvtz/c tightscf
| 42> %pal nprocs 16 end
| 43> %maxcore 3800
| 44> %base "TZ_S66by10_38_0.7_dimer"
| 45>
| 46> *xyz 0 1
| 47> C    0.95688019   -0.89184563    1.14195000
| 48> H    1.50456597   -1.27835762    0.28342019
| 49> H    1.42138447   -1.31477793    2.03102546
| 50> C    0.99094943    0.65850830    1.14550384
| 51> H    1.51059446    1.02309646    0.25994788
| 52> H    1.51625823    1.05981813    2.01053703
| 53> C   -0.47945194    1.10231879    1.10387910
| 54> H   -0.61626861    2.06487722    0.61356737
| 55> H   -0.87474223    1.18907144    2.11806960
| 56> C   -1.18210650   -0.05279656    0.39334575
| 57> H   -0.94888216   -0.02683030   -0.67380459
| 58> H   -2.26566452   -0.03356474    0.50127403
| 59> C   -0.53065958   -1.27488954    1.03930959
| 60> H   -0.69039061   -2.19702093    0.48299221
| 61> H   -0.95084939   -1.41541197    2.03674782
| 62> C   -1.15117806   -0.42249929    4.17966450
| 63> H   -1.48431256   -0.18580068    3.16708013
| 64> H   -1.95596646   -0.96559776    4.67265100
| 65> C    0.16242839   -1.21804421    4.13190330
| 66> H    0.21237333   -1.87578690    3.26576948
| 67> H    0.24271601   -1.84940184    5.01628859
| 68> C    1.29174361   -0.15533838    4.13249939
| 69> H    1.91300857   -0.21601723    3.24062577
| 70> H    1.94915311   -0.30522142    4.98790456
| 71> C    0.58157024    1.20633037    4.24036622
| 72> H    0.40170707    1.61482215    3.24436710
| 73> H    1.16195420    1.94073387    4.79633949
| 74> C   -0.76048222    0.87185793    4.89017808
| 75> H   -1.50015078    1.66436970    4.78529678
| 76> H   -0.62044229    0.68021788    5.95672704
| 77> *
| 78>
| 79> $new_job
| 80> ! ri-mp2 aug-cc-pvqz aug-cc-pvqz/c tightscf
| 81> %pal nprocs 16 end
| 82> %maxcore 3800
| 83> %base "QZ_S66by10_38_0.7_dimer"
| 84>
| 85> *xyz 0 1
| 86> C    0.95688019   -0.89184563    1.14195000
| 87> H    1.50456597   -1.27835762    0.28342019
| 88> H    1.42138447   -1.31477793    2.03102546
| 89> C    0.99094943    0.65850830    1.14550384
| 90> H    1.51059446    1.02309646    0.25994788
| 91> H    1.51625823    1.05981813    2.01053703
| 92> C   -0.47945194    1.10231879    1.10387910
| 93> H   -0.61626861    2.06487722    0.61356737
| 94> H   -0.87474223    1.18907144    2.11806960
| 95> C   -1.18210650   -0.05279656    0.39334575
| 96> H   -0.94888216   -0.02683030   -0.67380459
| 97> H   -2.26566452   -0.03356474    0.50127403
| 98> C   -0.53065958   -1.27488954    1.03930959
| 99> H   -0.69039061   -2.19702093    0.48299221
|100> H   -0.95084939   -1.41541197    2.03674782
|101> C   -1.15117806   -0.42249929    4.17966450
|102> H   -1.48431256   -0.18580068    3.16708013
|103> H   -1.95596646   -0.96559776    4.67265100
|104> C    0.16242839   -1.21804421    4.13190330
|105> H    0.21237333   -1.87578690    3.26576948
|106> H    0.24271601   -1.84940184    5.01628859
|107> C    1.29174361   -0.15533838    4.13249939
|108> H    1.91300857   -0.21601723    3.24062577
|109> H    1.94915311   -0.30522142    4.98790456
|110> C    0.58157024    1.20633037    4.24036622
|111> H    0.40170707    1.61482215    3.24436710
|112> H    1.16195420    1.94073387    4.79633949
|113> C   -0.76048222    0.87185793    4.89017808
|114> H   -1.50015078    1.66436970    4.78529678
|115> H   -0.62044229    0.68021788    5.95672704
|116> *
|117>
|118>
|119>
|120>
|121>                          ****END OF INPUT****
 Total Charge           Charge          ....    0
 Multiplicity           Mult            ....    1
 Number of Electrons    NEL             ....   80
MP2 TOTAL ENERGY:     -391.825338289 Eh
FINAL SINGLE POINT ENERGY      -391.825338288728
MP2 TOTAL ENERGY:     -392.202417900 Eh
FINAL SINGLE POINT ENERGY      -392.202417899864

CARTESIAN COORDINATES (ANGSTROEM)
---------------------------------
  C      0.956880   -0.891846    1.141950
  H      1.504566   -1.278358    0.283420
  H      1.421384   -1.314778    2.031025
  C      0.990949    0.658508    1.145504
  H      1.510594    1.023096    0.259948
  H      1.516258    1.059818    2.010537
  C     -0.479452    1.102319    1.103879
  H     -0.616269    2.064877    0.613567
  H     -0.874742    1.189071    2.118070
  C     -1.182106   -0.052797    0.393346
  H     -0.948882   -0.026830   -0.673805
  H     -2.265665   -0.033565    0.501274
  C     -0.530660   -1.274890    1.039310
  H     -0.690391   -2.197021    0.482992
  H     -0.950849   -1.415412    2.036748
  C     -1.151178   -0.422499    4.179665
  H     -1.484313   -0.185801    3.167080
  H     -1.955966   -0.965598    4.672651
  C      0.162428   -1.218044    4.131903
  H      0.212373   -1.875787    3.265769
  H      0.242716   -1.849402    5.016289
  C      1.291744   -0.155338    4.132499
  H      1.913009   -0.216017    3.240626
  H      1.949153   -0.305221    4.987905
  C      0.581570    1.206330    4.240366
  H      0.401707    1.614822    3.244367
  H      1.161954    1.940734    4.796339
  C     -0.760482    0.871858    4.890178
  H     -1.500151    1.664370    4.785297
  H     -0.620442    0.680218    5.956727

 Multiplicity           Mult            ....    1
 Number of Electrons    NEL             ....   80
 Basis Dimension        Dim             .... 1720

ORBITAL ENERGIES
----------------

  NO   OCC          E(Eh)            E(eV)
   0   2.0000     -11.208503      -304.9989
   1   2.0000     -11.208501      -304.9988
   2   2.0000     -11.206980      -304.9574
   3   2.0000     -11.206976      -304.9573
   4   2.0000     -11.205743      -304.9238
   5   2.0000     -11.205736      -304.9236
   6   2.0000     -11.204750      -304.8967
   7   2.0000     -11.204742      -304.8965
   8   2.0000     -11.203379      -304.8594
   9   2.0000     -11.203375      -304.8593
  10   2.0000      -1.126928       -30.6653
  11   2.0000      -1.108865       -30.1737
  12   2.0000      -0.970998       -26.4222
  13   2.0000      -0.968760       -26.3613
  14   2.0000      -0.947127       -25.7726
  15   2.0000      -0.946968       -25.7683
  16   2.0000      -0.794638       -21.6232
  17   2.0000      -0.776959       -21.1421
  18   2.0000      -0.768488       -20.9116
  19   2.0000      -0.761044       -20.7091
  20   2.0000      -0.689603       -18.7651
  21   2.0000      -0.650001       -17.6874
  22   2.0000      -0.643181       -17.5019
  23   2.0000      -0.615575       -16.7506
  24   2.0000      -0.608199       -16.5499
  25   2.0000      -0.594547       -16.1785
  26   2.0000      -0.541738       -14.7415
  27   2.0000      -0.535931       -14.5834
  28   2.0000      -0.487706       -13.2711
  29   2.0000      -0.482244       -13.1225
  30   2.0000      -0.481265       -13.0959
  31   2.0000      -0.469847       -12.7852
  32   2.0000      -0.468800       -12.7567
  33   2.0000      -0.465358       -12.6630
  34   2.0000      -0.462505       -12.5854
  35   2.0000      -0.459940       -12.5156
  36   2.0000      -0.454935       -12.3794
  37   2.0000      -0.450180       -12.2500
  38   2.0000      -0.443917       -12.0796
  39   2.0000      -0.426365       -11.6020
  40   0.0000       0.023206         0.6315
  41   0.0000       0.028434         0.7737
  42   0.0000       0.029052         0.7906
  43   0.0000       0.029418         0.8005
  44   0.0000       0.040350         1.0980

MULLIKEN ATOMIC CHARGES
-----------------------
   0 C :   -0.530591
   1 H :    0.223027
   2 H :    0.332045
   3 C :   -0.555968
   4 H :    0.180363
   5 H :    0.436748
   6 C :   -0.469288
   7 H :    0.251014
   8 H :    0.326070
   9 C :   -0.678688
  10 H :    0.182667
  11 H :    0.263185
  12 C :   -0.499198
  13 H :    0.256545
  14 H :    0.281996
  15 C :   -0.469495
  16 H :    0.326138
  17 H :    0.251020
  18 C :   -0.556383
  19 H :    0.436711
  20 H :    0.180414
  21 C :   -0.529650
  22 H :    0.331865
  23 H :    0.223196
  24 C :   -0.499727
  25 H :    0.282194
  26 H :    0.256436
  27 C :   -0.678639
  28 H :    0.263344
  29 H :    0.182650
Sum of atomic charges:    0.0000000

LOEWDIN ATOMIC CHARGES
----------------------
   0 C :    0.608464
   1 H :   -0.236513
   2 H :   -0.376373
   3 C :    0.606059
   4 H :   -0.237206
   5 H :   -0.366495
   6 C :    0.578355
   7 H :   -0.224460
   8 H :   -0.367596
   9 C :    0.576733
  10 H :   -0.255362
  11 H :   -0.242776
  12 C :    0.576841
  13 H :   -0.226077
  14 H :   -0.413686
  15 C :    0.578376
  16 H :   -0.367649
  17 H :   -0.224466
  18 C :    0.606058
  19 H :   -0.366250
  20 H :   -0.237230
  21 C :    0.608490
  22 H :   -0.376584
  23 H :   -0.236520
  24 C :    0.576904
  25 H :   -0.413506
  26 H :   -0.226144
  27 C :    0.576740
  28 H :   -0.242777
  29 H :   -0.255351

  Mayer bond orders larger than 0.100000
B(  0-C ,  1-H ) :   1.0159 B(  0-C ,  2-H ) :   0.9006 B(  0-C ,  3-C ) :   0.9179
B(  0-C ,  9-C ) :  -0.1093 B(  0-C , 12-C ) :   0.8406 B(  3-C ,  4-H ) :   1.0743
B(  3-C ,  5-H ) :   0.7926 B(  3-C ,  6-C ) :   0.8307 B(  6-C ,  7-H ) :   1.0212
B(  6-C ,  8-H ) :   0.9012 B(  6-C ,  9-C ) :   0.9008 B(  9-C , 10-H ) :   1.0410
B(  9-C , 11-H ) :   0.9431 B(  9-C , 12-C ) :   0.9263 B( 12-C , 13-H ) :   0.9996
B( 12-C , 14-H ) :   0.8642 B( 15-C , 16-H ) :   0.9013 B( 15-C , 17-H ) :   1.0210
B( 15-C , 18-C ) :   0.8306 B( 15-C , 27-C ) :   0.9009 B( 18-C , 19-H ) :   0.7924
B( 18-C , 20-H ) :   1.0742 B( 18-C , 21-C ) :   0.9183 B( 21-C , 22-H ) :   0.9004
B( 21-C , 23-H ) :   1.0158 B( 21-C , 24-C ) :   0.8405 B( 21-C , 27-C ) :  -0.1094
B( 24-C , 25-H ) :   0.8640 B( 24-C , 26-H ) :   0.9996 B( 24-C , 27-C ) :   0.9262
B( 27-C , 28-H ) :   0.9429 B( 27-C , 29-H ) :   1.0411

MP2 TOTAL ENERGY:     -392.315275972 Eh
FINAL SINGLE POINT ENERGY      -392.315275971669

DIPOLE MOMENT
-------------
                                X             Y             Z
Electronic contribution:     -0.13244       0.05880       0.00039
Nuclear contribution   :      0.13388      -0.05944      -0.00030
                        -----------------------------------------
Total Dipole Moment    :      0.00145      -0.00064       0.00009
                        -----------------------------------------
Magnitude (a.u.)       :      0.00158
Magnitude (Debye)      :      0.00403

Rotational constants in cm-1:     0.065649     0.030515     0.030422
Rotational constants in MHz :  1968.114940   914.821068   912.041484

                             ****ORCA TERMINATED NORMALLY****
TOTAL RUN TIME: 0 days 23 hours 3 minutes 30 seconds 868 msec
