                         Program Version 5.0.4 -  RELEASE  -
|  1> ! ri-mp2 aug-cc-pvdz aug-cc-pvdz/c tightscf
|  2> %pal nprocs 16 end
|  3> %maxcore 3800
|  4> %base "DZ_S66by10_49_0.9_dimer"
|  5>
|  6> *xyz 0 1
|  7> C    0.84507720    1.05791869    0.69945490
|  8> H    1.50640601    1.90322178    0.83338235
|  9> C    1.37550931   -0.21745534    0.51116093
| 10> H    2.44718367   -0.36147258    0.50285232
| 11> C    0.52406810   -1.30704432    0.33319233
| 12> H    0.93572726   -2.29602641    0.18492305
| 13> C   -0.85771573   -1.12146341    0.34638409
| 14> H   -1.51838119   -1.96645805    0.20836325
| 15> C   -1.38804570    0.15363438    0.53761349
| 16> H   -2.45971752    0.29741587    0.55003229
| 17> C   -0.53661315    1.24342221    0.71273882
| 18> H   -0.94892427    2.23280628    0.85736635
| 19> N    0.02759078    0.42414875    6.41968828
| 20> C    0.18227461    1.36211036    5.47481140
| 21> H    0.32404543    2.37463636    5.83271312
| 22> C    0.16806534    1.09482059    4.10831196
| 23> H    0.29830540    1.89584639    3.39442655
| 24> C   -0.01627297   -0.21680909    3.68302153
| 25> H   -0.03283943   -0.45992776    2.62967360
| 26> C   -0.17812190   -1.20184343    4.65188062
| 27> H   -0.32466492   -2.23705439    4.37710910
| 28> C   -0.14891943   -0.83451033    5.99497013
| 29> H   -0.27251556   -1.58202430    6.76907112
| 30> *
| 31>
| 32> $new_job
| 33> ! ri-mp2 aug-cc-pvtz aug-cc-pvtz/c tightscf
| 34> %pal nprocs 16 end
| 35> %maxcore 3800
| 36> %base "TZ_S66by10_49_0.9_dimer"
| 37>
| 38> *xyz 0 1
| 39> C    0.84507720    1.05791869    0.69945490
| 40> H    1.50640601    1.90322178    0.83338235
| 41> C    1.37550931   -0.21745534    0.51116093
| 42> H    2.44718367   -0.36147258    0.50285232
| 43> C    0.52406810   -1.30704432    0.33319233
| 44> H    0.93572726   -2.29602641    0.18492305
| 45> C   -0.85771573   -1.12146341    0.34638409
| 46> H   -1.51838119   -1.96645805    0.20836325
| 47> C   -1.38804570    0.15363438    0.53761349
| 48> H   -2.45971752    0.29741587    0.55003229
| 49> C   -0.53661315    1.24342221    0.71273882
| 50> H   -0.94892427    2.23280628    0.85736635
| 51> N    0.02759078    0.42414875    6.41968828
| 52> C    0.18227461    1.36211036    5.47481140
| 53> H    0.32404543    2.37463636    5.83271312
| 54> C    0.16806534    1.09482059    4.10831196
| 55> H    0.29830540    1.89584639    3.39442655
| 56> C   -0.01627297   -0.21680909    3.68302153
| 57> H   -0.03283943   -0.45992776    2.62967360
| 58> C   -0.17812190   -1.20184343    4.65188062
| 59> H   -0.32466492   -2.23705439    4.37710910
| 60> C   -0.14891943   -0.83451033    5.99497013
| 61> H   -0.27251556   -1.58202430    6.76907112
| 62> *
| 63>
| 64> $new_job
| 65> ! ri-mp2 aug-cc-pvqz aug-cc-pvqz/c tightscf
| 66> %pal nprocs 16 end
| 67> %maxcore 3800
| 68> %base "QZ_S66by10_49_0.9_dimer"
| 69>
| 70> *xyz 0 1
| 71> C    0.84507720    1.05791869    0.69945490
| 72> H    1.50640601    1.90322178    0.83338235
| 73> C    1.37550931   -0.21745534    0.51116093
| 74> H    2.44718367   -0.36147258    0.50285232
| 75> C    0.52406810   -1.30704432    0.33319233
| 76> H    0.93572726   -2.29602641    0.18492305
| 77> C   -0.85771573   -1.12146341    0.34638409
| 78> H   -1.51838119   -1.96645805    0.20836325
| 79> C   -1.38804570    0.15363438    0.53761349
| 80> H   -2.45971752    0.29741587    0.55003229
| 81> C   -0.53661315    1.24342221    0.71273882
| 82> H   -0.94892427    2.23280628    0.85736635
| 83> N    0.02759078    0.42414875    6.41968828
| 84> C    0.18227461    1.36211036    5.47481140
| 85> H    0.32404543    2.37463636    5.83271312
| 86> C    0.16806534    1.09482059    4.10831196
| 87> H    0.29830540    1.89584639    3.39442655
| 88> C   -0.01627297   -0.21680909    3.68302153
| 89> H   -0.03283943   -0.45992776    2.62967360
| 90> C   -0.17812190   -1.20184343    4.65188062
| 91> H   -0.32466492   -2.23705439    4.37710910
| 92> C   -0.14891943   -0.83451033    5.99497013
| 93> H   -0.27251556   -1.58202430    6.76907112
| 94> *
| 95>
| 96>
| 97>
| 98>
| 99>                          ****END OF INPUT****
 Total Charge           Charge          ....    0
 Multiplicity           Mult            ....    1
 Number of Electrons    NEL             ....   84
MP2 TOTAL ENERGY:     -479.112232316 Eh
FINAL SINGLE POINT ENERGY      -479.112232316002
MP2 TOTAL ENERGY:     -479.529907524 Eh
FINAL SINGLE POINT ENERGY      -479.529907523524

CARTESIAN COORDINATES (ANGSTROEM)
---------------------------------
  C      0.845077    1.057919    0.699455
  H      1.506406    1.903222    0.833382
  C      1.375509   -0.217455    0.511161
  H      2.447184   -0.361473    0.502852
  C      0.524068   -1.307044    0.333192
  H      0.935727   -2.296026    0.184923
  C     -0.857716   -1.121463    0.346384
  H     -1.518381   -1.966458    0.208363
  C     -1.388046    0.153634    0.537613
  H     -2.459718    0.297416    0.550032
  C     -0.536613    1.243422    0.712739
  H     -0.948924    2.232806    0.857366
  N      0.027591    0.424149    6.419688
  C      0.182275    1.362110    5.474811
  H      0.324045    2.374636    5.832713
  C      0.168065    1.094821    4.108312
  H      0.298305    1.895846    3.394427
  C     -0.016273   -0.216809    3.683022
  H     -0.032839   -0.459928    2.629674
  C     -0.178122   -1.201843    4.651881
  H     -0.324665   -2.237054    4.377109
  C     -0.148919   -0.834510    5.994970
  H     -0.272516   -1.582024    6.769071

 Multiplicity           Mult            ....    1
 Number of Electrons    NEL             ....   84
 Basis Dimension        Dim             .... 1466

ORBITAL ENERGIES
----------------

  NO   OCC          E(Eh)            E(eV)
   0   2.0000     -15.554881      -423.2698
   1   2.0000     -11.264981      -306.5357
   2   2.0000     -11.264788      -306.5305
   3   2.0000     -11.246713      -306.0386
   4   2.0000     -11.246131      -306.0228
   5   2.0000     -11.246110      -306.0222
   6   2.0000     -11.244895      -305.9891
   7   2.0000     -11.244869      -305.9884
   8   2.0000     -11.244258      -305.9718
   9   2.0000     -11.242515      -305.9244
  10   2.0000     -11.229619      -305.5735
  11   2.0000     -11.228543      -305.5442
  12   2.0000      -1.246395       -33.9161
  13   2.0000      -1.163854       -31.6701
  14   2.0000      -1.077517       -29.3207
  15   2.0000      -1.027629       -27.9632
  16   2.0000      -1.026810       -27.9409
  17   2.0000      -1.022720       -27.8296
  18   2.0000      -0.848345       -23.0846
  19   2.0000      -0.845600       -23.0099
  20   2.0000      -0.835859       -22.7449
  21   2.0000      -0.835650       -22.7392
  22   2.0000      -0.722473       -19.6595
  23   2.0000      -0.712470       -19.3873
  24   2.0000      -0.655421       -17.8349
  25   2.0000      -0.649835       -17.6829
  26   2.0000      -0.644430       -17.5358
  27   2.0000      -0.630824       -17.1656
  28   2.0000      -0.600364       -16.3367
  29   2.0000      -0.599786       -16.3210
  30   2.0000      -0.588402       -16.0112
  31   2.0000      -0.575835       -15.6693
  32   2.0000      -0.531674       -14.4676
  33   2.0000      -0.509287       -13.8584
  34   2.0000      -0.506569       -13.7845
  35   2.0000      -0.506323       -13.7777
  36   2.0000      -0.500828       -13.6282
  37   2.0000      -0.410406       -11.1677
  38   2.0000      -0.376513       -10.2454
  39   2.0000      -0.350798        -9.5457
  40   2.0000      -0.346992        -9.4421
  41   2.0000      -0.338105        -9.2003
  42   0.0000       0.019989         0.5439
  43   0.0000       0.024829         0.6756
  44   0.0000       0.027902         0.7593
  45   0.0000       0.033604         0.9144
  46   0.0000       0.038170         1.0386

MULLIKEN ATOMIC CHARGES
-----------------------
   0 C :   -0.297976
   1 H :    0.315860
   2 C :   -0.406615
   3 H :    0.270988
   4 C :   -0.258578
   5 H :    0.288873
   6 C :   -0.267918
   7 H :    0.287582
   8 C :   -0.394183
   9 H :    0.273587
  10 C :   -0.312263
  11 H :    0.308107
  12 N :   -0.743191
  13 C :   -0.104992
  14 H :    0.482994
  15 C :   -0.616829
  16 H :    0.291735
  17 C :   -0.204055
  18 H :    1.261435
  19 C :   -0.699603
  20 H :    0.213233
  21 C :   -0.189252
  22 H :    0.501062
Sum of atomic charges:   -0.0000000

LOEWDIN ATOMIC CHARGES
----------------------
   0 C :    0.317074
   1 H :   -0.309528
   2 C :    0.337767
   3 H :   -0.311662
   4 C :    0.336220
   5 H :   -0.314143
   6 C :    0.336146
   7 H :   -0.314131
   8 C :    0.337615
   9 H :   -0.311603
  10 C :    0.317142
  11 H :   -0.309393
  12 N :    0.586023
  13 C :    0.079244
  14 H :   -0.356884
  15 C :    0.338031
  16 H :   -0.348211
  17 C :    0.317976
  18 H :   -0.464913
  19 C :    0.351784
  20 H :   -0.326038
  21 C :    0.069858
  22 H :   -0.358374

  Mayer bond orders larger than 0.100000
B(  0-C ,  1-H ) :   1.0284 B(  0-C ,  2-C ) :   1.2469 B(  0-C ,  6-C ) :   0.1206
B(  0-C , 10-C ) :   1.1744 B(  2-C ,  3-H ) :   1.0869 B(  2-C ,  4-C ) :   1.2683
B(  2-C ,  8-C ) :   0.2436 B(  4-C ,  5-H ) :   1.0920 B(  4-C ,  6-C ) :   1.1022
B(  4-C , 10-C ) :   0.1216 B(  6-C ,  7-H ) :   1.0940 B(  6-C ,  8-C ) :   1.2632
B(  8-C ,  9-H ) :   1.0813 B(  8-C , 10-C ) :   1.2489 B( 10-C , 11-H ) :   1.0356
B( 12-N , 13-C ) :   1.1557 B( 12-N , 14-H ) :  -0.1233 B( 12-N , 15-C ) :   0.1100
B( 12-N , 19-C ) :   0.1140 B( 12-N , 21-C ) :   1.1963 B( 12-N , 22-H ) :  -0.1346
B( 13-C , 14-H ) :   0.8786 B( 13-C , 15-C ) :   1.2922 B( 13-C , 17-C ) :  -0.2998
B( 13-C , 19-C ) :   0.2070 B( 14-H , 15-C ) :  -0.1451 B( 15-C , 16-H ) :   0.9945
B( 15-C , 17-C ) :   1.1457 B( 15-C , 18-H ) :  -0.2754 B( 17-C , 19-C ) :   1.0345
B( 17-C , 21-C ) :  -0.3564 B( 18-H , 19-C ) :  -0.2066 B( 19-C , 20-H ) :   1.0832
B( 19-C , 21-C ) :   1.4201 B( 19-C , 22-H ) :  -0.1398 B( 21-C , 22-H ) :   0.8518

MP2 TOTAL ENERGY:     -479.662331113 Eh
FINAL SINGLE POINT ENERGY      -479.662331113242

DIPOLE MOMENT
-------------
                                X             Y             Z
Electronic contribution:      0.02214       0.35484       3.22258
Nuclear contribution   :     -0.04058      -0.57149      -4.41805
                        -----------------------------------------
Total Dipole Moment    :     -0.01845      -0.21665      -1.19547
                        -----------------------------------------
Magnitude (a.u.)       :      1.21509
Magnitude (Debye)      :      3.08850

Rotational constants in cm-1:     0.065537     0.017049     0.015772
Rotational constants in MHz :  1964.761119   511.113960   472.830543

                             ****ORCA TERMINATED NORMALLY****
TOTAL RUN TIME: 0 days 1 hours 35 minutes 42 seconds 461 msec
