                         Program Version 5.0.4 -  RELEASE  -
|  1> ! ri-mp2 aug-cc-pvdz aug-cc-pvdz/c tightscf
|  2> %pal nprocs 16 end
|  3> %maxcore 3800
|  4> %base "DZ_S66by10_38_1.25_dimer"
|  5> %scf STABPerform true end
|  6>
|  7> *xyz 0 1
|  8> C    0.95688019   -0.89184563    1.14195000
|  9> H    1.50456597   -1.27835762    0.28342019
| 10> H    1.42138447   -1.31477793    2.03102546
| 11> C    0.99094943    0.65850830    1.14550384
| 12> H    1.51059446    1.02309646    0.25994788
| 13> H    1.51625823    1.05981813    2.01053703
| 14> C   -0.47945194    1.10231879    1.10387910
| 15> H   -0.61626861    2.06487722    0.61356737
| 16> H   -0.87474223    1.18907144    2.11806960
| 17> C   -1.18210650   -0.05279656    0.39334575
| 18> H   -0.94888216   -0.02683030   -0.67380459
| 19> H   -2.26566452   -0.03356474    0.50127403
| 20> C   -0.53065958   -1.27488954    1.03930959
| 21> H   -0.69039061   -2.19702093    0.48299221
| 22> H   -0.95084939   -1.41541197    2.03674782
| 23> C   -1.11557397   -0.35092947    5.80526233
| 24> H   -1.44870847   -0.11423086    4.79267797
| 25> H   -1.92036237   -0.89402793    6.29824883
| 26> C    0.19803248   -1.14647439    5.75750113
| 27> H    0.24797742   -1.80421707    4.89136731
| 28> H    0.27832010   -1.77783202    6.64188642
| 29> C    1.32734770   -0.08376856    5.75809722
| 30> H    1.94861266   -0.14444741    4.86622361
| 31> H    1.98475720   -0.23365160    6.61350239
| 32> C    0.61717433    1.27790019    5.86596406
| 33> H    0.43731116    1.68639198    4.86996493
| 34> H    1.19755829    2.01230369    6.42193733
| 35> C   -0.72487813    0.94342775    6.51577592
| 36> H   -1.46454669    1.73593952    6.41089462
| 37> H   -0.58483820    0.75178770    7.58232488
| 38> *
| 39>
| 40> $new_job
| 41> ! ri-mp2 aug-cc-pvtz aug-cc-pvtz/c tightscf
| 42> %pal nprocs 16 end
| 43> %maxcore 3800
| 44> %base "TZ_S66by10_38_1.25_dimer"
| 45>
| 46> *xyz 0 1
| 47> C    0.95688019   -0.89184563    1.14195000
| 48> H    1.50456597   -1.27835762    0.28342019
| 49> H    1.42138447   -1.31477793    2.03102546
| 50> C    0.99094943    0.65850830    1.14550384
| 51> H    1.51059446    1.02309646    0.25994788
| 52> H    1.51625823    1.05981813    2.01053703
| 53> C   -0.47945194    1.10231879    1.10387910
| 54> H   -0.61626861    2.06487722    0.61356737
| 55> H   -0.87474223    1.18907144    2.11806960
| 56> C   -1.18210650   -0.05279656    0.39334575
| 57> H   -0.94888216   -0.02683030   -0.67380459
| 58> H   -2.26566452   -0.03356474    0.50127403
| 59> C   -0.53065958   -1.27488954    1.03930959
| 60> H   -0.69039061   -2.19702093    0.48299221
| 61> H   -0.95084939   -1.41541197    2.03674782
| 62> C   -1.11557397   -0.35092947    5.80526233
| 63> H   -1.44870847   -0.11423086    4.79267797
| 64> H   -1.92036237   -0.89402793    6.29824883
| 65> C    0.19803248   -1.14647439    5.75750113
| 66> H    0.24797742   -1.80421707    4.89136731
| 67> H    0.27832010   -1.77783202    6.64188642
| 68> C    1.32734770   -0.08376856    5.75809722
| 69> H    1.94861266   -0.14444741    4.86622361
| 70> H    1.98475720   -0.23365160    6.61350239
| 71> C    0.61717433    1.27790019    5.86596406
| 72> H    0.43731116    1.68639198    4.86996493
| 73> H    1.19755829    2.01230369    6.42193733
| 74> C   -0.72487813    0.94342775    6.51577592
| 75> H   -1.46454669    1.73593952    6.41089462
| 76> H   -0.58483820    0.75178770    7.58232488
| 77> *
| 78>
| 79> $new_job
| 80> ! ri-mp2 aug-cc-pvqz aug-cc-pvqz/c tightscf
| 81> %pal nprocs 16 end
| 82> %maxcore 3800
| 83> %base "QZ_S66by10_38_1.25_dimer"
| 84>
| 85> *xyz 0 1
| 86> C    0.95688019   -0.89184563    1.14195000
| 87> H    1.50456597   -1.27835762    0.28342019
| 88> H    1.42138447   -1.31477793    2.03102546
| 89> C    0.99094943    0.65850830    1.14550384
| 90> H    1.51059446    1.02309646    0.25994788
| 91> H    1.51625823    1.05981813    2.01053703
| 92> C   -0.47945194    1.10231879    1.10387910
| 93> H   -0.61626861    2.06487722    0.61356737
| 94> H   -0.87474223    1.18907144    2.11806960
| 95> C   -1.18210650   -0.05279656    0.39334575
| 96> H   -0.94888216   -0.02683030   -0.67380459
| 97> H   -2.26566452   -0.03356474    0.50127403
| 98> C   -0.53065958   -1.27488954    1.03930959
| 99> H   -0.69039061   -2.19702093    0.48299221
|100> H   -0.95084939   -1.41541197    2.03674782
|101> C   -1.11557397   -0.35092947    5.80526233
|102> H   -1.44870847   -0.11423086    4.79267797
|103> H   -1.92036237   -0.89402793    6.29824883
|104> C    0.19803248   -1.14647439    5.75750113
|105> H    0.24797742   -1.80421707    4.89136731
|106> H    0.27832010   -1.77783202    6.64188642
|107> C    1.32734770   -0.08376856    5.75809722
|108> H    1.94861266   -0.14444741    4.86622361
|109> H    1.98475720   -0.23365160    6.61350239
|110> C    0.61717433    1.27790019    5.86596406
|111> H    0.43731116    1.68639198    4.86996493
|112> H    1.19755829    2.01230369    6.42193733
|113> C   -0.72487813    0.94342775    6.51577592
|114> H   -1.46454669    1.73593952    6.41089462
|115> H   -0.58483820    0.75178770    7.58232488
|116> *
|117>
|118>
|119>
|120>
|121>                          ****END OF INPUT****
 Total Charge           Charge          ....    0
 Multiplicity           Mult            ....    1
 Number of Electrons    NEL             ....   80
MP2 TOTAL ENERGY:     -391.848103038 Eh
FINAL SINGLE POINT ENERGY      -391.848103037746
MP2 TOTAL ENERGY:     -392.225299219 Eh
FINAL SINGLE POINT ENERGY      -392.225299219035

CARTESIAN COORDINATES (ANGSTROEM)
---------------------------------
  C      0.956880   -0.891846    1.141950
  H      1.504566   -1.278358    0.283420
  H      1.421384   -1.314778    2.031025
  C      0.990949    0.658508    1.145504
  H      1.510594    1.023096    0.259948
  H      1.516258    1.059818    2.010537
  C     -0.479452    1.102319    1.103879
  H     -0.616269    2.064877    0.613567
  H     -0.874742    1.189071    2.118070
  C     -1.182106   -0.052797    0.393346
  H     -0.948882   -0.026830   -0.673805
  H     -2.265665   -0.033565    0.501274
  C     -0.530660   -1.274890    1.039310
  H     -0.690391   -2.197021    0.482992
  H     -0.950849   -1.415412    2.036748
  C     -1.115574   -0.350929    5.805262
  H     -1.448708   -0.114231    4.792678
  H     -1.920362   -0.894028    6.298249
  C      0.198032   -1.146474    5.757501
  H      0.247977   -1.804217    4.891367
  H      0.278320   -1.777832    6.641886
  C      1.327348   -0.083769    5.758097
  H      1.948613   -0.144447    4.866224
  H      1.984757   -0.233652    6.613502
  C      0.617174    1.277900    5.865964
  H      0.437311    1.686392    4.869965
  H      1.197558    2.012304    6.421937
  C     -0.724878    0.943428    6.515776
  H     -1.464547    1.735940    6.410895
  H     -0.584838    0.751788    7.582325

 Multiplicity           Mult            ....    1
 Number of Electrons    NEL             ....   80
 Basis Dimension        Dim             .... 1720

ORBITAL ENERGIES
----------------

  NO   OCC          E(Eh)            E(eV)
   0   2.0000     -11.209990      -305.0393
   1   2.0000     -11.209987      -305.0392
   2   2.0000     -11.209600      -305.0287
   3   2.0000     -11.209595      -305.0286
   4   2.0000     -11.209548      -305.0273
   5   2.0000     -11.209546      -305.0273
   6   2.0000     -11.208975      -305.0117
   7   2.0000     -11.208972      -305.0116
   8   2.0000     -11.208787      -305.0066
   9   2.0000     -11.208785      -305.0065
  10   2.0000      -1.116957       -30.3939
  11   2.0000      -1.116478       -30.3809
  12   2.0000      -0.957471       -26.0541
  13   2.0000      -0.956970       -26.0405
  14   2.0000      -0.956502       -26.0277
  15   2.0000      -0.955994       -26.0139
  16   2.0000      -0.778213       -21.1763
  17   2.0000      -0.776875       -21.1398
  18   2.0000      -0.767807       -20.8931
  19   2.0000      -0.767796       -20.8928
  20   2.0000      -0.653078       -17.7712
  21   2.0000      -0.648510       -17.6469
  22   2.0000      -0.645937       -17.5768
  23   2.0000      -0.644374       -17.5343
  24   2.0000      -0.572333       -15.5740
  25   2.0000      -0.571482       -15.5508
  26   2.0000      -0.568661       -15.4741
  27   2.0000      -0.566483       -15.4148
  28   2.0000      -0.476446       -12.9648
  29   2.0000      -0.476000       -12.9526
  30   2.0000      -0.475723       -12.9451
  31   2.0000      -0.474272       -12.9056
  32   2.0000      -0.464321       -12.6348
  33   2.0000      -0.464263       -12.6332
  34   2.0000      -0.463878       -12.6228
  35   2.0000      -0.460049       -12.5186
  36   2.0000      -0.459720       -12.5096
  37   2.0000      -0.458263       -12.4700
  38   2.0000      -0.449688       -12.2366
  39   2.0000      -0.449521       -12.2321
  40   0.0000       0.024372         0.6632
  41   0.0000       0.028452         0.7742
  42   0.0000       0.029612         0.8058
  43   0.0000       0.030904         0.8409
  44   0.0000       0.038793         1.0556

MULLIKEN ATOMIC CHARGES
-----------------------
   0 C :   -0.626814
   1 H :    0.306471
   2 H :    0.328614
   3 C :   -0.654321
   4 H :    0.297878
   5 H :    0.368654
   6 C :   -0.723449
   7 H :    0.352579
   8 H :    0.348358
   9 C :   -0.551392
  10 H :    0.232921
  11 H :    0.359864
  12 C :   -0.694134
  13 H :    0.333782
  14 H :    0.320993
  15 C :   -0.723510
  16 H :    0.348534
  17 H :    0.352702
  18 C :   -0.654338
  19 H :    0.368346
  20 H :    0.297905
  21 C :   -0.626512
  22 H :    0.328367
  23 H :    0.306580
  24 C :   -0.694066
  25 H :    0.320915
  26 H :    0.333895
  27 C :   -0.551598
  28 H :    0.359761
  29 H :    0.233016
Sum of atomic charges:    0.0000000

LOEWDIN ATOMIC CHARGES
----------------------
   0 C :    0.545382
   1 H :   -0.269536
   2 H :   -0.270569
   3 C :    0.542400
   4 H :   -0.269977
   5 H :   -0.268655
   6 C :    0.521830
   7 H :   -0.255472
   8 H :   -0.274938
   9 C :    0.523351
  10 H :   -0.262145
  11 H :   -0.254982
  12 C :    0.525238
  13 H :   -0.256562
  14 H :   -0.275363
  15 C :    0.521836
  16 H :   -0.274928
  17 H :   -0.255493
  18 C :    0.542388
  19 H :   -0.268649
  20 H :   -0.269966
  21 C :    0.545413
  22 H :   -0.270612
  23 H :   -0.269559
  24 C :    0.525299
  25 H :   -0.275317
  26 H :   -0.256624
  27 C :    0.523352
  28 H :   -0.255000
  29 H :   -0.262140

  Mayer bond orders larger than 0.100000
B(  0-C ,  1-H ) :   0.9107 B(  0-C ,  2-H ) :   0.8570 B(  0-C ,  3-C ) :   0.9854
B(  0-C ,  9-C ) :  -0.1034 B(  0-C , 12-C ) :   0.9880 B(  3-C ,  4-H ) :   0.9292
B(  3-C ,  5-H ) :   0.8078 B(  3-C ,  6-C ) :   0.9951 B(  3-C ,  9-C ) :  -0.1084
B(  6-C ,  7-H ) :   0.8450 B(  6-C ,  8-H ) :   0.8200 B(  6-C ,  9-C ) :   1.0260
B(  9-C , 10-H ) :   0.9417 B(  9-C , 11-H ) :   0.7913 B(  9-C , 12-C ) :   1.0151
B( 12-C , 13-H ) :   0.8701 B( 12-C , 14-H ) :   0.8367 B( 15-C , 16-H ) :   0.8198
B( 15-C , 17-H ) :   0.8449 B( 15-C , 18-C ) :   0.9949 B( 15-C , 27-C ) :   1.0258
B( 18-C , 19-H ) :   0.8081 B( 18-C , 20-H ) :   0.9291 B( 18-C , 21-C ) :   0.9854
B( 18-C , 27-C ) :  -0.1083 B( 21-C , 22-H ) :   0.8572 B( 21-C , 23-H ) :   0.9106
B( 21-C , 24-C ) :   0.9879 B( 21-C , 27-C ) :  -0.1033 B( 24-C , 25-H ) :   0.8366
B( 24-C , 26-H ) :   0.8700 B( 24-C , 27-C ) :   1.0150 B( 27-C , 28-H ) :   0.7915
B( 27-C , 29-H ) :   0.9418

MP2 TOTAL ENERGY:     -392.338912813 Eh
FINAL SINGLE POINT ENERGY      -392.338912813356

DIPOLE MOMENT
-------------
                                X             Y             Z
Electronic contribution:     -0.14353       0.06373       0.00033
Nuclear contribution   :      0.13388      -0.05944      -0.00030
                        -----------------------------------------
Total Dipole Moment    :     -0.00965       0.00429       0.00003
                        -----------------------------------------
Magnitude (a.u.)       :      0.01056
Magnitude (Debye)      :      0.02683

Rotational constants in cm-1:     0.065495     0.016406     0.016369
Rotational constants in MHz :  1963.483514   491.831909   490.738567

                             ****ORCA TERMINATED NORMALLY****
TOTAL RUN TIME: 0 days 12 hours 58 minutes 56 seconds 176 msec
