                         Program Version 5.0.4 -  RELEASE  -
|  1> ! ri-mp2 aug-cc-pvdz aug-cc-pvdz/c tightscf
|  2> %pal nprocs 16 end
|  3> %maxcore 3800
|  4> %base "DZ_S66by10_34_0.9_dimer"
|  5> %scf STABPerform true end
|  6>
|  7> *xyz 0 1
|  8> C   -2.53330865   -0.29487907    0.71314876
|  9> H   -2.56362682   -0.97708181   -0.13642264
| 10> H   -2.56697835   -0.89587590    1.62173177
| 11> H   -3.43442611    0.31595713    0.68410447
| 12> C   -1.27188487    0.55765547    0.67435468
| 13> H   -1.27102630    1.25656571    1.51431940
| 14> H   -1.26663255    1.16789581   -0.23182653
| 15> C   -0.00013504   -0.27841822    0.71960315
| 16> H   -0.00015938   -0.88722952    1.62863709
| 17> H   -0.00036543   -0.98071418   -0.11940439
| 18> C    1.27189476    0.55738219    0.67406108
| 19> H    1.27097175    1.25663331    1.51370541
| 20> H    1.26663649    1.16718250   -0.23238692
| 21> C    2.53340376   -0.29494176    0.71328015
| 22> H    2.56391919   -0.97777410   -0.13577836
| 23> H    3.43430956    0.31625432    0.68359945
| 24> H    2.56755821   -0.89520887    1.62232865
| 25> C    2.53355821    0.30072189    4.23327779
| 26> H    2.56814270    0.90052858    3.32395224
| 27> H    2.56406152    0.98392846    5.08202261
| 28> H    3.43423890   -0.31077542    4.26348672
| 29> C    1.27173201   -0.55116539    4.27258204
| 30> H    1.26628830   -1.16089310    5.17907900
| 31> H    1.27060150   -1.25051913    3.43300098
| 32> C   -0.00004298    0.28493371    4.22696560
| 33> H   -0.00019791    0.98724369    5.06595007
| 34> H    0.00003392    0.89371013    3.31789596
| 35> C   -1.27180382   -0.55120826    4.27223714
| 36> H   -1.26642158   -1.16131771    5.17848724
| 37> H   -1.27069748   -1.25023116    3.43237348
| 38> C   -2.53352305    0.30083804    4.23325943
| 39> H   -2.56771635    0.90137171    3.32438267
| 40> H   -3.43432503   -0.31046031    4.26277261
| 41> H   -2.56406258    0.98342429    5.08252082
| 42> *
| 43>
| 44> $new_job
| 45> ! ri-mp2 aug-cc-pvtz aug-cc-pvtz/c tightscf
| 46> %pal nprocs 16 end
| 47> %maxcore 3800
| 48> %base "TZ_S66by10_34_0.9_dimer"
| 49>
| 50> *xyz 0 1
| 51> C   -2.53330865   -0.29487907    0.71314876
| 52> H   -2.56362682   -0.97708181   -0.13642264
| 53> H   -2.56697835   -0.89587590    1.62173177
| 54> H   -3.43442611    0.31595713    0.68410447
| 55> C   -1.27188487    0.55765547    0.67435468
| 56> H   -1.27102630    1.25656571    1.51431940
| 57> H   -1.26663255    1.16789581   -0.23182653
| 58> C   -0.00013504   -0.27841822    0.71960315
| 59> H   -0.00015938   -0.88722952    1.62863709
| 60> H   -0.00036543   -0.98071418   -0.11940439
| 61> C    1.27189476    0.55738219    0.67406108
| 62> H    1.27097175    1.25663331    1.51370541
| 63> H    1.26663649    1.16718250   -0.23238692
| 64> C    2.53340376   -0.29494176    0.71328015
| 65> H    2.56391919   -0.97777410   -0.13577836
| 66> H    3.43430956    0.31625432    0.68359945
| 67> H    2.56755821   -0.89520887    1.62232865
| 68> C    2.53355821    0.30072189    4.23327779
| 69> H    2.56814270    0.90052858    3.32395224
| 70> H    2.56406152    0.98392846    5.08202261
| 71> H    3.43423890   -0.31077542    4.26348672
| 72> C    1.27173201   -0.55116539    4.27258204
| 73> H    1.26628830   -1.16089310    5.17907900
| 74> H    1.27060150   -1.25051913    3.43300098
| 75> C   -0.00004298    0.28493371    4.22696560
| 76> H   -0.00019791    0.98724369    5.06595007
| 77> H    0.00003392    0.89371013    3.31789596
| 78> C   -1.27180382   -0.55120826    4.27223714
| 79> H   -1.26642158   -1.16131771    5.17848724
| 80> H   -1.27069748   -1.25023116    3.43237348
| 81> C   -2.53352305    0.30083804    4.23325943
| 82> H   -2.56771635    0.90137171    3.32438267
| 83> H   -3.43432503   -0.31046031    4.26277261
| 84> H   -2.56406258    0.98342429    5.08252082
| 85> *
| 86>
| 87> $new_job
| 88> ! ri-mp2 aug-cc-pvqz aug-cc-pvqz/c tightscf
| 89> %pal nprocs 16 end
| 90> %maxcore 3800
| 91> %base "QZ_S66by10_34_0.9_dimer"
| 92>
| 93> *xyz 0 1
| 94> C   -2.53330865   -0.29487907    0.71314876
| 95> H   -2.56362682   -0.97708181   -0.13642264
| 96> H   -2.56697835   -0.89587590    1.62173177
| 97> H   -3.43442611    0.31595713    0.68410447
| 98> C   -1.27188487    0.55765547    0.67435468
| 99> H   -1.27102630    1.25656571    1.51431940
|100> H   -1.26663255    1.16789581   -0.23182653
|101> C   -0.00013504   -0.27841822    0.71960315
|102> H   -0.00015938   -0.88722952    1.62863709
|103> H   -0.00036543   -0.98071418   -0.11940439
|104> C    1.27189476    0.55738219    0.67406108
|105> H    1.27097175    1.25663331    1.51370541
|106> H    1.26663649    1.16718250   -0.23238692
|107> C    2.53340376   -0.29494176    0.71328015
|108> H    2.56391919   -0.97777410   -0.13577836
|109> H    3.43430956    0.31625432    0.68359945
|110> H    2.56755821   -0.89520887    1.62232865
|111> C    2.53355821    0.30072189    4.23327779
|112> H    2.56814270    0.90052858    3.32395224
|113> H    2.56406152    0.98392846    5.08202261
|114> H    3.43423890   -0.31077542    4.26348672
|115> C    1.27173201   -0.55116539    4.27258204
|116> H    1.26628830   -1.16089310    5.17907900
|117> H    1.27060150   -1.25051913    3.43300098
|118> C   -0.00004298    0.28493371    4.22696560
|119> H   -0.00019791    0.98724369    5.06595007
|120> H    0.00003392    0.89371013    3.31789596
|121> C   -1.27180382   -0.55120826    4.27223714
|122> H   -1.26642158   -1.16131771    5.17848724
|123> H   -1.27069748   -1.25023116    3.43237348
|124> C   -2.53352305    0.30083804    4.23325943
|125> H   -2.56771635    0.90137171    3.32438267
|126> H   -3.43432503   -0.31046031    4.26277261
|127> H   -2.56406258    0.98342429    5.08252082
|128> *
|129>
|130>
|131>
|132>
|133>                          ****END OF INPUT****
 Total Charge           Charge          ....    0
 Multiplicity           Mult            ....    1
 Number of Electrons    NEL             ....   84
MP2 TOTAL ENERGY:     -394.235817804 Eh
FINAL SINGLE POINT ENERGY      -394.235817803797
MP2 TOTAL ENERGY:     -394.627706288 Eh
FINAL SINGLE POINT ENERGY      -394.627706288169

CARTESIAN COORDINATES (ANGSTROEM)
---------------------------------
  C     -2.533309   -0.294879    0.713149
  H     -2.563627   -0.977082   -0.136423
  H     -2.566978   -0.895876    1.621732
  H     -3.434426    0.315957    0.684104
  C     -1.271885    0.557655    0.674355
  H     -1.271026    1.256566    1.514319
  H     -1.266633    1.167896   -0.231827
  C     -0.000135   -0.278418    0.719603
  H     -0.000159   -0.887230    1.628637
  H     -0.000365   -0.980714   -0.119404
  C      1.271895    0.557382    0.674061
  H      1.270972    1.256633    1.513705
  H      1.266636    1.167183   -0.232387
  C      2.533404   -0.294942    0.713280
  H      2.563919   -0.977774   -0.135778
  H      3.434310    0.316254    0.683599
  H      2.567558   -0.895209    1.622329
  C      2.533558    0.300722    4.233278
  H      2.568143    0.900529    3.323952
  H      2.564062    0.983928    5.082023
  H      3.434239   -0.310775    4.263487
  C      1.271732   -0.551165    4.272582
  H      1.266288   -1.160893    5.179079
  H      1.270601   -1.250519    3.433001
  C     -0.000043    0.284934    4.226966
  H     -0.000198    0.987244    5.065950
  H      0.000034    0.893710    3.317896
  C     -1.271804   -0.551208    4.272237
  H     -1.266422   -1.161318    5.178487
  H     -1.270697   -1.250231    3.432373
  C     -2.533523    0.300838    4.233259
  H     -2.567716    0.901372    3.324383
  H     -3.434325   -0.310460    4.262773
  H     -2.564063    0.983424    5.082521

 Multiplicity           Mult            ....    1
 Number of Electrons    NEL             ....   84
 Basis Dimension        Dim             .... 1904

ORBITAL ENERGIES
----------------

  NO   OCC          E(Eh)            E(eV)
   0   2.0000     -11.211631      -305.0840
   1   2.0000     -11.211630      -305.0840
   2   2.0000     -11.211574      -305.0825
   3   2.0000     -11.211573      -305.0824
   4   2.0000     -11.208654      -305.0030
   5   2.0000     -11.208654      -305.0030
   6   2.0000     -11.205410      -304.9147
   7   2.0000     -11.205406      -304.9146
   8   2.0000     -11.205405      -304.9146
   9   2.0000     -11.205404      -304.9145
  10   2.0000      -1.086417       -29.5629
  11   2.0000      -1.077533       -29.3212
  12   2.0000      -1.020008       -27.7558
  13   2.0000      -1.011817       -27.5329
  14   2.0000      -0.923420       -25.1275
  15   2.0000      -0.915359       -24.9082
  16   2.0000      -0.820643       -22.3308
  17   2.0000      -0.820299       -22.3215
  18   2.0000      -0.791509       -21.5381
  19   2.0000      -0.781085       -21.2544
  20   2.0000      -0.669992       -18.2314
  21   2.0000      -0.627597       -17.0778
  22   2.0000      -0.611754       -16.6467
  23   2.0000      -0.602293       -16.3892
  24   2.0000      -0.596348       -16.2274
  25   2.0000      -0.576346       -15.6832
  26   2.0000      -0.557364       -15.1666
  27   2.0000      -0.552940       -15.0463
  28   2.0000      -0.547853       -14.9078
  29   2.0000      -0.546897       -14.8818
  30   2.0000      -0.539766       -14.6878
  31   2.0000      -0.513661       -13.9774
  32   2.0000      -0.496124       -13.5002
  33   2.0000      -0.493514       -13.4292
  34   2.0000      -0.480683       -13.0801
  35   2.0000      -0.474817       -12.9204
  36   2.0000      -0.473156       -12.8752
  37   2.0000      -0.468833       -12.7576
  38   2.0000      -0.454697       -12.3729
  39   2.0000      -0.448398       -12.2015
  40   2.0000      -0.445880       -12.1330
  41   2.0000      -0.444917       -12.1068
  42   0.0000       0.025298         0.6884
  43   0.0000       0.027916         0.7596
  44   0.0000       0.028708         0.7812
  45   0.0000       0.029000         0.7891
  46   0.0000       0.038982         1.0608

MULLIKEN ATOMIC CHARGES
-----------------------
   0 C :   -1.092709
   1 H :    0.220262
   2 H :    0.293952
   3 H :    0.187392
   4 C :   -0.478889
   5 H :    0.357667
   6 H :    0.247981
   7 C :   -0.074687
   8 H :    0.309745
   9 H :    0.293872
  10 C :   -0.479128
  11 H :    0.357820
  12 H :    0.247794
  13 C :   -1.092660
  14 H :    0.220230
  15 H :    0.187326
  16 H :    0.294041
  17 C :   -1.092711
  18 H :    0.294111
  19 H :    0.220277
  20 H :    0.187167
  21 C :   -0.478602
  22 H :    0.247727
  23 H :    0.357853
  24 C :   -0.075610
  25 H :    0.293915
  26 H :    0.309969
  27 C :   -0.478498
  28 H :    0.247864
  29 H :    0.357805
  30 C :   -1.092720
  31 H :    0.294026
  32 H :    0.187197
  33 H :    0.220221
Sum of atomic charges:   -0.0000000

LOEWDIN ATOMIC CHARGES
----------------------
   0 C :    0.935592
   1 H :   -0.274063
   2 H :   -0.320059
   3 H :   -0.269136
   4 C :    0.521567
   5 H :   -0.299623
   6 H :   -0.260295
   7 C :    0.509095
   8 H :   -0.321832
   9 H :   -0.255206
  10 C :    0.521636
  11 H :   -0.299611
  12 H :   -0.260359
  13 C :    0.935585
  14 H :   -0.274037
  15 H :   -0.269130
  16 H :   -0.320102
  17 C :    0.935627
  18 H :   -0.320149
  19 H :   -0.274054
  20 H :   -0.269129
  21 C :    0.521573
  22 H :   -0.260368
  23 H :   -0.299591
  24 C :    0.509145
  25 H :   -0.255191
  26 H :   -0.321783
  27 C :    0.521553
  28 H :   -0.260340
  29 H :   -0.299655
  30 C :    0.935622
  31 H :   -0.320081
  32 H :   -0.269152
  33 H :   -0.274050

  Mayer bond orders larger than 0.100000
B(  0-C ,  1-H ) :   1.0641 B(  0-C ,  2-H ) :   0.8604 B(  0-C ,  3-H ) :   1.0910
B(  0-C ,  4-C ) :   0.9236 B(  0-C ,  7-C ) :  -0.1472 B(  3-H ,  4-C ) :  -0.1268
B(  4-C ,  5-H ) :   0.8048 B(  4-C ,  6-H ) :   0.9553 B(  4-C ,  7-C ) :   0.8012
B(  7-C ,  8-H ) :   0.9042 B(  7-C ,  9-H ) :   0.9333 B(  7-C , 10-C ) :   0.8014
B(  7-C , 13-C ) :  -0.1471 B( 10-C , 11-H ) :   0.8048 B( 10-C , 12-H ) :   0.9553
B( 10-C , 13-C ) :   0.9234 B( 10-C , 15-H ) :  -0.1269 B( 13-C , 14-H ) :   1.0641
B( 13-C , 15-H ) :   1.0911 B( 13-C , 16-H ) :   0.8603 B( 17-C , 18-H ) :   0.8602
B( 17-C , 19-H ) :   1.0641 B( 17-C , 20-H ) :   1.0914 B( 17-C , 21-C ) :   0.9228
B( 17-C , 24-C ) :  -0.1467 B( 20-H , 21-C ) :  -0.1271 B( 21-C , 22-H ) :   0.9554
B( 21-C , 23-H ) :   0.8048 B( 21-C , 24-C ) :   0.8016 B( 24-C , 25-H ) :   0.9333
B( 24-C , 26-H ) :   0.9039 B( 24-C , 27-C ) :   0.8016 B( 24-C , 30-C ) :  -0.1469
B( 27-C , 28-H ) :   0.9554 B( 27-C , 29-H ) :   0.8048 B( 27-C , 30-C ) :   0.9229
B( 27-C , 32-H ) :  -0.1271 B( 30-C , 31-H ) :   0.8604 B( 30-C , 32-H ) :   1.0914
B( 30-C , 33-H ) :   1.0642

MP2 TOTAL ENERGY:     -394.743214410 Eh
FINAL SINGLE POINT ENERGY      -394.743214409672

DIPOLE MOMENT
-------------
                                X             Y             Z
Electronic contribution:     -0.00031       0.00124       0.00008
Nuclear contribution   :      0.00030      -0.00124      -0.00009
                        -----------------------------------------
Total Dipole Moment    :     -0.00001      -0.00000      -0.00001
                        -----------------------------------------
Magnitude (a.u.)       :      0.00001
Magnitude (Debye)      :      0.00003

Rotational constants in cm-1:     0.032828     0.031031     0.017385
Rotational constants in MHz :   984.156099   930.300067   521.187800

                             ****ORCA TERMINATED NORMALLY****
TOTAL RUN TIME: 0 days 18 hours 47 minutes 6 seconds 334 msec
