                         Program Version 5.0.4 -  RELEASE  -
|  1> ! ri-mp2 aug-cc-pvdz aug-cc-pvdz/c tightscf
|  2> %pal nprocs 16 end
|  3> %maxcore 3800
|  4> %base "DZ_S66by10_54_0.7_dimer"
|  5>
|  6> *xyz 0 1
|  7> C    0.78014717   -0.60991473   -1.20755689
|  8> H    0.89619160   -1.13763959   -2.14414463
|  9> C    0.47794275    0.75099363   -1.20789541
| 10> H    0.35696423    1.27816780   -2.14405407
| 11> C    0.32728928    1.43186787   -0.00000000
| 12> H    0.09146503    2.48713922    0.00000000
| 13> C    0.47794275    0.75099363    1.20789541
| 14> H    0.35696423    1.27816780    2.14405407
| 15> C    0.78014717   -0.60991473    1.20755689
| 16> H    0.89619160   -1.13763959    2.14414463
| 17> C    0.93164831   -1.28998134    0.00000000
| 18> H    1.16848573   -2.34521369   -0.00000000
| 19> O   -1.92611873   -0.17747723    0.00000000
| 20> H   -1.76131473   -1.12219876    0.00000000
| 21> H   -1.03881778    0.19411309    0.00000000
| 22> *
| 23>
| 24> $new_job
| 25> ! ri-mp2 aug-cc-pvtz aug-cc-pvtz/c tightscf
| 26> %pal nprocs 16 end
| 27> %maxcore 3800
| 28> %base "TZ_S66by10_54_0.7_dimer"
| 29>
| 30> *xyz 0 1
| 31> C    0.78014717   -0.60991473   -1.20755689
| 32> H    0.89619160   -1.13763959   -2.14414463
| 33> C    0.47794275    0.75099363   -1.20789541
| 34> H    0.35696423    1.27816780   -2.14405407
| 35> C    0.32728928    1.43186787   -0.00000000
| 36> H    0.09146503    2.48713922    0.00000000
| 37> C    0.47794275    0.75099363    1.20789541
| 38> H    0.35696423    1.27816780    2.14405407
| 39> C    0.78014717   -0.60991473    1.20755689
| 40> H    0.89619160   -1.13763959    2.14414463
| 41> C    0.93164831   -1.28998134    0.00000000
| 42> H    1.16848573   -2.34521369   -0.00000000
| 43> O   -1.92611873   -0.17747723    0.00000000
| 44> H   -1.76131473   -1.12219876    0.00000000
| 45> H   -1.03881778    0.19411309    0.00000000
| 46> *
| 47>
| 48> $new_job
| 49> ! ri-mp2 aug-cc-pvqz aug-cc-pvqz/c tightscf
| 50> %pal nprocs 16 end
| 51> %maxcore 3800
| 52> %base "QZ_S66by10_54_0.7_dimer"
| 53>
| 54> *xyz 0 1
| 55> C    0.78014717   -0.60991473   -1.20755689
| 56> H    0.89619160   -1.13763959   -2.14414463
| 57> C    0.47794275    0.75099363   -1.20789541
| 58> H    0.35696423    1.27816780   -2.14405407
| 59> C    0.32728928    1.43186787   -0.00000000
| 60> H    0.09146503    2.48713922    0.00000000
| 61> C    0.47794275    0.75099363    1.20789541
| 62> H    0.35696423    1.27816780    2.14405407
| 63> C    0.78014717   -0.60991473    1.20755689
| 64> H    0.89619160   -1.13763959    2.14414463
| 65> C    0.93164831   -1.28998134    0.00000000
| 66> H    1.16848573   -2.34521369   -0.00000000
| 67> O   -1.92611873   -0.17747723    0.00000000
| 68> H   -1.76131473   -1.12219876    0.00000000
| 69> H   -1.03881778    0.19411309    0.00000000
| 70> *
| 71>
| 72>
| 73>
| 74>
| 75>                          ****END OF INPUT****
 Total Charge           Charge          ....    0
 Multiplicity           Mult            ....    1
 Number of Electrons    NEL             ....   52
MP2 TOTAL ENERGY:     -307.788977482 Eh
FINAL SINGLE POINT ENERGY      -307.788977481705
MP2 TOTAL ENERGY:     -308.062700032 Eh
FINAL SINGLE POINT ENERGY      -308.062700031854

CARTESIAN COORDINATES (ANGSTROEM)
---------------------------------
  C      0.780147   -0.609915   -1.207557
  H      0.896192   -1.137640   -2.144145
  C      0.477943    0.750994   -1.207895
  H      0.356964    1.278168   -2.144054
  C      0.327289    1.431868   -0.000000
  H      0.091465    2.487139    0.000000
  C      0.477943    0.750994    1.207895
  H      0.356964    1.278168    2.144054
  C      0.780147   -0.609915    1.207557
  H      0.896192   -1.137640    2.144145
  C      0.931648   -1.289981    0.000000
  H      1.168486   -2.345214   -0.000000
  O     -1.926119   -0.177477    0.000000
  H     -1.761315   -1.122199    0.000000
  H     -1.038818    0.194113    0.000000

 Multiplicity           Mult            ....    1
 Number of Electrons    NEL             ....   52
 Basis Dimension        Dim             ....  928

ORBITAL ENERGIES
----------------

  NO   OCC          E(Eh)            E(eV)
   0   2.0000     -20.514208      -558.2200
   1   2.0000     -11.249356      -306.1105
   2   2.0000     -11.248526      -306.0880
   3   2.0000     -11.248417      -306.0850
   4   2.0000     -11.246989      -306.0461
   5   2.0000     -11.246860      -306.0426
   6   2.0000     -11.246012      -306.0195
   7   2.0000      -1.316563       -35.8255
   8   2.0000      -1.168890       -31.8071
   9   2.0000      -1.032909       -28.1069
  10   2.0000      -1.030671       -28.0460
  11   2.0000      -0.838680       -22.8216
  12   2.0000      -0.838504       -22.8168
  13   2.0000      -0.729285       -19.8449
  14   2.0000      -0.684635       -18.6299
  15   2.0000      -0.656990       -17.8776
  16   2.0000      -0.633573       -17.2404
  17   2.0000      -0.603212       -16.4142
  18   2.0000      -0.603204       -16.4140
  19   2.0000      -0.570852       -15.5337
  20   2.0000      -0.508918       -13.8484
  21   2.0000      -0.508802       -13.8452
  22   2.0000      -0.488236       -13.2856
  23   2.0000      -0.476121       -12.9559
  24   2.0000      -0.355262        -9.6672
  25   2.0000      -0.347817        -9.4646
  26   0.0000       0.022938         0.6242
  27   0.0000       0.028873         0.7857
  28   0.0000       0.028886         0.7860
  29   0.0000       0.040924         1.1136
  30   0.0000       0.041075         1.1177

MULLIKEN ATOMIC CHARGES
-----------------------
   0 C :   -0.360541
   1 H :    0.304202
   2 C :   -0.416336
   3 H :    0.295592
   4 C :   -0.247149
   5 H :    0.349741
   6 C :   -0.416336
   7 H :    0.295592
   8 C :   -0.360541
   9 H :    0.304202
  10 C :   -0.287142
  11 H :    0.257533
  12 O :   -0.804178
  13 H :    0.308456
  14 H :    0.776906
Sum of atomic charges:    0.0000000

LOEWDIN ATOMIC CHARGES
----------------------
   0 C :    0.352397
   1 H :   -0.307069
   2 C :    0.350138
   3 H :   -0.293431
   4 C :    0.341422
   5 H :   -0.284934
   6 C :    0.350138
   7 H :   -0.293431
   8 C :    0.352397
   9 H :   -0.307069
  10 C :    0.346021
  11 H :   -0.311217
  12 O :    1.694902
  13 H :   -0.762844
  14 H :   -1.227421

  Mayer bond orders larger than 0.100000
B(  0-C ,  1-H ) :   1.0583 B(  0-C ,  2-C ) :   1.2273 B(  0-C ,  6-C ) :   0.1146
B(  0-C , 10-C ) :   1.2088 B(  2-C ,  3-H ) :   1.0755 B(  2-C ,  4-C ) :   1.2275
B(  2-C ,  8-C ) :   0.1146 B(  4-C ,  5-H ) :   1.0059 B(  4-C ,  6-C ) :   1.2275
B(  4-C , 10-C ) :   0.1282 B(  4-C , 14-H ) :  -0.1043 B(  6-C ,  7-H ) :   1.0755
B(  6-C ,  8-C ) :   1.2273 B(  8-C ,  9-H ) :   1.0583 B(  8-C , 10-C ) :   1.2088
B( 10-C , 11-H ) :   1.1032 B( 12-O , 13-H ) :   0.9790 B( 12-O , 14-H ) :   0.5745

MP2 TOTAL ENERGY:     -308.149882060 Eh
FINAL SINGLE POINT ENERGY      -308.149882059567

DIPOLE MOMENT
-------------
                                X             Y             Z
Electronic contribution:      1.22746       0.32893      -0.00000
Nuclear contribution   :     -0.33472      -0.61298      -0.00000
                        -----------------------------------------
Total Dipole Moment    :      0.89274      -0.28405      -0.00000
                        -----------------------------------------
Magnitude (a.u.)       :      0.93684
Magnitude (Debye)      :      2.38126

Rotational constants in cm-1:     0.098944     0.092265     0.088931
Rotational constants in MHz :  2966.251932  2766.029220  2666.085223

                             ****ORCA TERMINATED NORMALLY****
TOTAL RUN TIME: 0 days 0 hours 18 minutes 6 seconds 340 msec
