                         Program Version 5.0.4 -  RELEASE  -
|  1> ! ri-mp2 aug-cc-pvdz aug-cc-pvdz/c tightscf
|  2> %pal nprocs 16 end
|  3> %maxcore 3800
|  4> %base "DZ_S66by10_16_2.0_dimer"
|  5> %scf STABPerform true end
|  6>
|  7> *xyz 0 1
|  8> C   -0.72430464   -0.70493582    2.28386786
|  9> H    0.33531828   -0.62994325    2.05318235
| 10> H   -0.95169666   -1.71198961    2.62565146
| 11> H   -0.96962784   -0.02207955    3.09376537
| 12> C   -1.61493501   -0.38742925    1.10406897
| 13> O   -2.83732387   -0.41502209    1.19413277
| 14> N   -0.95342037   -0.07640442   -0.04081980
| 15> H    0.05380860   -0.07556651   -0.03664022
| 16> C   -1.65812397    0.25009358   -1.25855306
| 17> H   -2.72037197    0.17694444   -1.04665270
| 18> H   -1.43030493    1.26296263   -1.58809384
| 19> H   -1.40562611   -0.44433518   -2.05858358
| 20> O    4.20856871   -0.04077156   -0.27679770
| 21> H    4.77354599   -0.75373018   -0.58199711
| 22> H    4.78832033    0.72342200   -0.25289921
| 23> *
| 24>
| 25> $new_job
| 26> ! ri-mp2 aug-cc-pvtz aug-cc-pvtz/c tightscf
| 27> %pal nprocs 16 end
| 28> %maxcore 3800
| 29> %base "TZ_S66by10_16_2.0_dimer"
| 30>
| 31> *xyz 0 1
| 32> C   -0.72430464   -0.70493582    2.28386786
| 33> H    0.33531828   -0.62994325    2.05318235
| 34> H   -0.95169666   -1.71198961    2.62565146
| 35> H   -0.96962784   -0.02207955    3.09376537
| 36> C   -1.61493501   -0.38742925    1.10406897
| 37> O   -2.83732387   -0.41502209    1.19413277
| 38> N   -0.95342037   -0.07640442   -0.04081980
| 39> H    0.05380860   -0.07556651   -0.03664022
| 40> C   -1.65812397    0.25009358   -1.25855306
| 41> H   -2.72037197    0.17694444   -1.04665270
| 42> H   -1.43030493    1.26296263   -1.58809384
| 43> H   -1.40562611   -0.44433518   -2.05858358
| 44> O    4.20856871   -0.04077156   -0.27679770
| 45> H    4.77354599   -0.75373018   -0.58199711
| 46> H    4.78832033    0.72342200   -0.25289921
| 47> *
| 48>
| 49> $new_job
| 50> ! ri-mp2 aug-cc-pvqz aug-cc-pvqz/c tightscf
| 51> %pal nprocs 16 end
| 52> %maxcore 3800
| 53> %base "QZ_S66by10_16_2.0_dimer"
| 54>
| 55> *xyz 0 1
| 56> C   -0.72430464   -0.70493582    2.28386786
| 57> H    0.33531828   -0.62994325    2.05318235
| 58> H   -0.95169666   -1.71198961    2.62565146
| 59> H   -0.96962784   -0.02207955    3.09376537
| 60> C   -1.61493501   -0.38742925    1.10406897
| 61> O   -2.83732387   -0.41502209    1.19413277
| 62> N   -0.95342037   -0.07640442   -0.04081980
| 63> H    0.05380860   -0.07556651   -0.03664022
| 64> C   -1.65812397    0.25009358   -1.25855306
| 65> H   -2.72037197    0.17694444   -1.04665270
| 66> H   -1.43030493    1.26296263   -1.58809384
| 67> H   -1.40562611   -0.44433518   -2.05858358
| 68> O    4.20856871   -0.04077156   -0.27679770
| 69> H    4.77354599   -0.75373018   -0.58199711
| 70> H    4.78832033    0.72342200   -0.25289921
| 71> *
| 72>
| 73>
| 74>
| 75>
| 76>                          ****END OF INPUT****
 Total Charge           Charge          ....    0
 Multiplicity           Mult            ....    1
 Number of Electrons    NEL             ....   50
MP2 TOTAL ENERGY:     -324.109179975 Eh
FINAL SINGLE POINT ENERGY      -324.109179975080
MP2 TOTAL ENERGY:     -324.401179247 Eh
FINAL SINGLE POINT ENERGY      -324.401179246643

CARTESIAN COORDINATES (ANGSTROEM)
---------------------------------
  C     -0.724305   -0.704936    2.283868
  H      0.335318   -0.629943    2.053182
  H     -0.951697   -1.711990    2.625651
  H     -0.969628   -0.022080    3.093765
  C     -1.614935   -0.387429    1.104069
  O     -2.837324   -0.415022    1.194133
  N     -0.953420   -0.076404   -0.040820
  H      0.053809   -0.075567   -0.036640
  C     -1.658124    0.250094   -1.258553
  H     -2.720372    0.176944   -1.046653
  H     -1.430305    1.262963   -1.588094
  H     -1.405626   -0.444335   -2.058584
  O      4.208569   -0.040772   -0.276798
  H      4.773546   -0.753730   -0.581997
  H      4.788320    0.723422   -0.252899

 Multiplicity           Mult            ....    1
 Number of Electrons    NEL             ....   50
 Basis Dimension        Dim             ....  894

ORBITAL ENERGIES
----------------

  NO   OCC          E(Eh)            E(eV)
   0   2.0000     -20.577249      -559.9354
   1   2.0000     -20.501751      -557.8810
   2   2.0000     -15.578847      -423.9220
   3   2.0000     -11.340111      -308.5801
   4   2.0000     -11.249030      -306.1017
   5   2.0000     -11.226786      -305.4964
   6   2.0000      -1.365904       -37.1681
   7   2.0000      -1.363993       -37.1161
   8   2.0000      -1.224385       -33.3172
   9   2.0000      -1.011803       -27.5326
  10   2.0000      -0.925557       -25.1857
  11   2.0000      -0.783702       -21.3256
  12   2.0000      -0.727770       -19.8036
  13   2.0000      -0.683886       -18.6095
  14   2.0000      -0.646549       -17.5935
  15   2.0000      -0.627246       -17.0682
  16   2.0000      -0.598202       -16.2779
  17   2.0000      -0.580882       -15.8066
  18   2.0000      -0.573624       -15.6091
  19   2.0000      -0.548518       -14.9259
  20   2.0000      -0.538522       -14.6539
  21   2.0000      -0.522637       -14.2217
  22   2.0000      -0.497986       -13.5509
  23   2.0000      -0.414090       -11.2680
  24   2.0000      -0.385730       -10.4963
  25   0.0000       0.016503         0.4491
  26   0.0000       0.032999         0.8979
  27   0.0000       0.033754         0.9185
  28   0.0000       0.035465         0.9650
  29   0.0000       0.047967         1.3053

MULLIKEN ATOMIC CHARGES
-----------------------
   0 C :   -0.775753
   1 H :    0.256328
   2 H :    0.277347
   3 H :    0.276432
   4 C :    0.876620
   5 O :   -0.838532
   6 N :   -0.487719
   7 H :    0.305536
   8 C :   -0.740816
   9 H :    0.311206
  10 H :    0.270344
  11 H :    0.268707
  12 O :   -0.604632
  13 H :    0.302465
  14 H :    0.302467
Sum of atomic charges:    0.0000000

LOEWDIN ATOMIC CHARGES
----------------------
   0 C :    0.888791
   1 H :   -0.318098
   2 H :   -0.299433
   3 H :   -0.300074
   4 C :   -0.836404
   5 O :    0.696808
   6 N :    0.824929
   7 H :   -0.501012
   8 C :    0.782840
   9 H :   -0.367791
  10 H :   -0.286043
  11 H :   -0.286465
  12 O :    1.600126
  13 H :   -0.799115
  14 H :   -0.799057

  Mayer bond orders larger than 0.100000
B(  0-C ,  1-H ) :   0.9807 B(  0-C ,  2-H ) :   0.9389 B(  0-C ,  3-H ) :   0.9427
B(  0-C ,  4-C ) :   0.9065 B(  0-C ,  5-O ) :   0.1046 B(  4-C ,  5-O ) :   1.2809
B(  4-C ,  6-N ) :   1.1594 B(  5-O ,  6-N ) :   0.1552 B(  6-N ,  7-H ) :   0.9642
B(  6-N ,  8-C ) :   0.8141 B(  8-C ,  9-H ) :   0.9260 B(  8-C , 10-H ) :   0.9575
B(  8-C , 11-H ) :   0.9590 B( 12-O , 13-H ) :   0.9648 B( 12-O , 14-H ) :   0.9647

MP2 TOTAL ENERGY:     -324.495374245 Eh
FINAL SINGLE POINT ENERGY      -324.495374244684

DIPOLE MOMENT
-------------
                                X             Y             Z
Electronic contribution:     -3.36453      -0.31521       1.19902
Nuclear contribution   :      5.77266       0.46762      -1.81519
                        -----------------------------------------
Total Dipole Moment    :      2.40814       0.15241      -0.61617
                        -----------------------------------------
Magnitude (a.u.)       :      2.49038
Magnitude (Debye)      :      6.33005

Rotational constants in cm-1:     0.129439     0.030222     0.024811
Rotational constants in MHz :  3880.490678   906.041405   743.801834

                             ****ORCA TERMINATED NORMALLY****
TOTAL RUN TIME: 0 days 0 hours 51 minutes 57 seconds 45 msec
