                         Program Version 5.0.4 -  RELEASE  -
|  1> ! ri-mp2 aug-cc-pvdz aug-cc-pvdz/c tightscf
|  2> %pal nprocs 16 end
|  3> %maxcore 3800
|  4> %base "DZ_S66by10_2_0.7_dimer"
|  5> %scf STABPerform true end
|  6>
|  7> *xyz 0 1
|  8> O   -0.52532979   -0.05097108   -0.31451686
|  9> H   -0.94200663    0.74790163    0.01125282
| 10> H    0.40369652    0.05978598   -0.07356837
| 11> O    1.77364811    0.04955567    0.03057915
| 12> H    2.14163094   -0.52252173    0.70810748
| 13> C    2.23865318   -0.42207425   -1.23157996
| 14> H    1.80783609    0.22901944   -1.98469399
| 15> H    3.32461687   -0.37128139   -1.30589189
| 16> H    1.91031057   -1.44194375   -1.43066059
| 17> *
| 18>
| 19> $new_job
| 20> ! ri-mp2 aug-cc-pvtz aug-cc-pvtz/c tightscf
| 21> %pal nprocs 16 end
| 22> %maxcore 3800
| 23> %base "TZ_S66by10_2_0.7_dimer"
| 24>
| 25> *xyz 0 1
| 26> O   -0.52532979   -0.05097108   -0.31451686
| 27> H   -0.94200663    0.74790163    0.01125282
| 28> H    0.40369652    0.05978598   -0.07356837
| 29> O    1.77364811    0.04955567    0.03057915
| 30> H    2.14163094   -0.52252173    0.70810748
| 31> C    2.23865318   -0.42207425   -1.23157996
| 32> H    1.80783609    0.22901944   -1.98469399
| 33> H    3.32461687   -0.37128139   -1.30589189
| 34> H    1.91031057   -1.44194375   -1.43066059
| 35> *
| 36>
| 37> $new_job
| 38> ! ri-mp2 aug-cc-pvqz aug-cc-pvqz/c tightscf
| 39> %pal nprocs 16 end
| 40> %maxcore 3800
| 41> %base "QZ_S66by10_2_0.7_dimer"
| 42>
| 43> *xyz 0 1
| 44> O   -0.52532979   -0.05097108   -0.31451686
| 45> H   -0.94200663    0.74790163    0.01125282
| 46> H    0.40369652    0.05978598   -0.07356837
| 47> O    1.77364811    0.04955567    0.03057915
| 48> H    2.14163094   -0.52252173    0.70810748
| 49> C    2.23865318   -0.42207425   -1.23157996
| 50> H    1.80783609    0.22901944   -1.98469399
| 51> H    3.32461687   -0.37128139   -1.30589189
| 52> H    1.91031057   -1.44194375   -1.43066059
| 53> *
| 54>
| 55>
| 56>
| 57>
| 58>                          ****END OF INPUT****
 Total Charge           Charge          ....    0
 Multiplicity           Mult            ....    1
 Number of Electrons    NEL             ....   28
MP2 TOTAL ENERGY:     -191.674923909 Eh
FINAL SINGLE POINT ENERGY      -191.674923909238
MP2 TOTAL ENERGY:     -191.851456029 Eh
FINAL SINGLE POINT ENERGY      -191.851456028544

CARTESIAN COORDINATES (ANGSTROEM)
---------------------------------
  O     -0.525330   -0.050971   -0.314517
  H     -0.942007    0.747902    0.011253
  H      0.403697    0.059786   -0.073568
  O      1.773648    0.049556    0.030579
  H      2.141631   -0.522522    0.708107
  C      2.238653   -0.422074   -1.231580
  H      1.807836    0.229019   -1.984694
  H      3.324617   -0.371281   -1.305892
  H      1.910311   -1.441944   -1.430661

 Multiplicity           Mult            ....    1
 Number of Electrons    NEL             ....   28
 Basis Dimension        Dim             ....  516

ORBITAL ENERGIES
----------------

  NO   OCC          E(Eh)            E(eV)
   0   2.0000     -20.592987      -560.3637
   1   2.0000     -20.493703      -557.6620
   2   2.0000     -11.288168      -307.1667
   3   2.0000      -1.411148       -38.3993
   4   2.0000      -1.293132       -35.1879
   5   2.0000      -0.951733       -25.8980
   6   2.0000      -0.757178       -20.6039
   7   2.0000      -0.696310       -18.9475
   8   2.0000      -0.636028       -17.3072
   9   2.0000      -0.605556       -16.4780
  10   2.0000      -0.555341       -15.1116
  11   2.0000      -0.516037       -14.0421
  12   2.0000      -0.471351       -12.8261
  13   2.0000      -0.451435       -12.2842
  14   0.0000       0.020828         0.5668
  15   0.0000       0.035681         0.9709
  16   0.0000       0.040234         1.0948
  17   0.0000       0.043399         1.1809
  18   0.0000       0.058014         1.5786

MULLIKEN ATOMIC CHARGES
-----------------------
   0 O :   -0.710746
   1 H :    0.295937
   2 H :    0.258845
   3 O :   -0.562964
   4 H :    0.340540
   5 C :   -0.562903
   6 H :    0.298327
   7 H :    0.374620
   8 H :    0.268344
Sum of atomic charges:    0.0000000

LOEWDIN ATOMIC CHARGES
----------------------
   0 O :    1.614488
   1 H :   -0.770622
   2 H :   -1.405532
   3 O :    1.397444
   4 H :   -0.646518
   5 C :    0.697652
   6 H :   -0.307848
   7 H :   -0.295433
   8 H :   -0.283632

  Mayer bond orders larger than 0.100000
B(  0-O ,  1-H ) :   0.9579 B(  0-O ,  2-H ) :   0.9369 B(  2-H ,  3-O ) :   0.1368
B(  3-O ,  4-H ) :   0.8690 B(  3-O ,  5-C ) :   0.8456 B(  5-C ,  6-H ) :   0.9097
B(  5-C ,  7-H ) :   0.8452 B(  5-C ,  8-H ) :   0.9246

MP2 TOTAL ENERGY:     -191.908348924 Eh
FINAL SINGLE POINT ENERGY      -191.908348924113

DIPOLE MOMENT
-------------
                                X             Y             Z
Electronic contribution:     -0.57532       0.46667       1.38586
Nuclear contribution   :      1.84754      -0.49509      -1.17757
                        -----------------------------------------
Total Dipole Moment    :      1.27222      -0.02841       0.20828
                        -----------------------------------------
Magnitude (a.u.)       :      1.28947
Magnitude (Debye)      :      3.27757

Rotational constants in cm-1:     0.936697     0.202757     0.175250
Rotational constants in MHz : 28081.455726  6078.499668  5253.851270

                             ****ORCA TERMINATED NORMALLY****
TOTAL RUN TIME: 0 days 0 hours 11 minutes 51 seconds 260 msec
