                         Program Version 5.0.4 -  RELEASE  -
|  1> ! ri-mp2 aug-cc-pvdz aug-cc-pvdz/c tightscf
|  2> %pal nprocs 16 end
|  3> %maxcore 3800
|  4> %base "DZ_S66by10_12_0.7_dimer"
|  5> %scf STABPerform true end
|  6>
|  7> *xyz 0 1
|  8> N   -0.53346397   -0.27959351    0.10699576
|  9> H   -0.62915138   -1.24842455    0.38284867
| 10> H   -1.12260363   -0.16615944   -0.70776410
| 11> C   -1.01690943    0.58848610    1.18737346
| 12> H   -0.91275967    1.62555174    0.87952116
| 13> H   -2.05473726    0.41508213    1.47850360
| 14> H   -0.38502338    0.44880090    2.06061419
| 15> O    1.57575112    0.71689882    0.23156303
| 16> H    0.75823371    0.22062633    0.05841013
| 17> H    2.15765256    0.45840095   -0.48418306
| 18> *
| 19>
| 20> $new_job
| 21> ! ri-mp2 aug-cc-pvtz aug-cc-pvtz/c tightscf
| 22> %pal nprocs 16 end
| 23> %maxcore 3800
| 24> %base "TZ_S66by10_12_0.7_dimer"
| 25>
| 26> *xyz 0 1
| 27> N   -0.53346397   -0.27959351    0.10699576
| 28> H   -0.62915138   -1.24842455    0.38284867
| 29> H   -1.12260363   -0.16615944   -0.70776410
| 30> C   -1.01690943    0.58848610    1.18737346
| 31> H   -0.91275967    1.62555174    0.87952116
| 32> H   -2.05473726    0.41508213    1.47850360
| 33> H   -0.38502338    0.44880090    2.06061419
| 34> O    1.57575112    0.71689882    0.23156303
| 35> H    0.75823371    0.22062633    0.05841013
| 36> H    2.15765256    0.45840095   -0.48418306
| 37> *
| 38>
| 39> $new_job
| 40> ! ri-mp2 aug-cc-pvqz aug-cc-pvqz/c tightscf
| 41> %pal nprocs 16 end
| 42> %maxcore 3800
| 43> %base "QZ_S66by10_12_0.7_dimer"
| 44>
| 45> *xyz 0 1
| 46> N   -0.53346397   -0.27959351    0.10699576
| 47> H   -0.62915138   -1.24842455    0.38284867
| 48> H   -1.12260363   -0.16615944   -0.70776410
| 49> C   -1.01690943    0.58848610    1.18737346
| 50> H   -0.91275967    1.62555174    0.87952116
| 51> H   -2.05473726    0.41508213    1.47850360
| 52> H   -0.38502338    0.44880090    2.06061419
| 53> O    1.57575112    0.71689882    0.23156303
| 54> H    0.75823371    0.22062633    0.05841013
| 55> H    2.15765256    0.45840095   -0.48418306
| 56> *
| 57>
| 58>
| 59>
| 60>
| 61>                          ****END OF INPUT****
 Total Charge           Charge          ....    0
 Multiplicity           Mult            ....    1
 Number of Electrons    NEL             ....   28
MP2 TOTAL ENERGY:     -171.827092982 Eh
FINAL SINGLE POINT ENERGY      -171.827092981771
MP2 TOTAL ENERGY:     -171.989683330 Eh
FINAL SINGLE POINT ENERGY      -171.989683330016

CARTESIAN COORDINATES (ANGSTROEM)
---------------------------------
  N     -0.533464   -0.279594    0.106996
  H     -0.629151   -1.248425    0.382849
  H     -1.122604   -0.166159   -0.707764
  C     -1.016909    0.588486    1.187373
  H     -0.912760    1.625552    0.879521
  H     -2.054737    0.415082    1.478504
  H     -0.385023    0.448801    2.060614
  O      1.575751    0.716899    0.231563
  H      0.758234    0.220626    0.058410
  H      2.157653    0.458401   -0.484183

 Multiplicity           Mult            ....    1
 Number of Electrons    NEL             ....   28
 Basis Dimension        Dim             ....  562

ORBITAL ENERGIES
----------------

  NO   OCC          E(Eh)            E(eV)
   0   2.0000     -20.478595      -557.2509
   1   2.0000     -15.568340      -423.6361
   2   2.0000     -11.252841      -306.2054
   3   2.0000      -1.292859       -35.1805
   4   2.0000      -1.205204       -32.7953
   5   2.0000      -0.917757       -24.9734
   6   2.0000      -0.711206       -19.3529
   7   2.0000      -0.694988       -18.9116
   8   2.0000      -0.603871       -16.4322
   9   2.0000      -0.568970       -15.4825
  10   2.0000      -0.539375       -14.6771
  11   2.0000      -0.534928       -14.5561
  12   2.0000      -0.439378       -11.9561
  13   2.0000      -0.410504       -11.1704
  14   0.0000       0.019639         0.5344
  15   0.0000       0.034291         0.9331
  16   0.0000       0.037133         1.0104
  17   0.0000       0.041924         1.1408
  18   0.0000       0.056584         1.5397

MULLIKEN ATOMIC CHARGES
-----------------------
   0 N :   -0.186639
   1 H :    0.162494
   2 H :    0.155034
   3 C :   -0.812327
   4 H :    0.272284
   5 H :    0.364719
   6 H :    0.275564
   7 O :   -0.768243
   8 H :    0.288917
   9 H :    0.248196
Sum of atomic charges:    0.0000000

LOEWDIN ATOMIC CHARGES
----------------------
   0 N :    1.296520
   1 H :   -0.406368
   2 H :   -0.406825
   3 C :    0.828766
   4 H :   -0.283368
   5 H :   -0.271022
   6 H :   -0.284286
   7 O :    1.624346
   8 H :   -1.336556
   9 H :   -0.761207

  Mayer bond orders larger than 0.100000
B(  0-N ,  1-H ) :   1.0071 B(  0-N ,  2-H ) :   1.0135 B(  0-N ,  3-C ) :   1.0052
B(  0-N ,  8-H ) :   0.2039 B(  3-C ,  4-H ) :   0.9367 B(  3-C ,  5-H ) :   0.8456
B(  3-C ,  6-H ) :   0.9353 B(  7-O ,  8-H ) :   0.7810 B(  7-O ,  9-H ) :   1.0325

MP2 TOTAL ENERGY:     -172.041245135 Eh
FINAL SINGLE POINT ENERGY      -172.041245134611

DIPOLE MOMENT
-------------
                                X             Y             Z
Electronic contribution:      1.26132      -0.23712      -0.73442
Nuclear contribution   :     -2.47816      -0.54562       0.33590
                        -----------------------------------------
Total Dipole Moment    :     -1.21685      -0.78274      -0.39851
                        -----------------------------------------
Magnitude (a.u.)       :      1.50074
Magnitude (Debye)      :      3.81457

Rotational constants in cm-1:     0.766185     0.218809     0.180680
Rotational constants in MHz : 22969.661547  6559.738144  5416.660657

                             ****ORCA TERMINATED NORMALLY****
TOTAL RUN TIME: 0 days 0 hours 15 minutes 59 seconds 902 msec
