                         Program Version 5.0.4 -  RELEASE  -
|  1> ! ri-mp2 aug-cc-pvdz aug-cc-pvdz/c tightscf
|  2> %pal nprocs 16 end
|  3> %maxcore 3800
|  4> %base "DZ_S66by10_40_1.25_dimer"
|  5>
|  6> *xyz 0 1
|  7> C    0.31195353    0.56102334    0.49669886
|  8> H    0.74213608    1.55336911    0.48156571
|  9> C    1.14218235   -0.55807461    0.53606185
| 10> H    2.21651131   -0.43425014    0.55235015
| 11> C    0.58780415   -1.83668704    0.55414435
| 12> H    1.23191239   -2.70484153    0.58522179
| 13> C   -0.79665772   -1.99637562    0.53296300
| 14> H   -1.22677442   -2.98844427    0.54863708
| 15> C   -1.62689297   -0.87747365    0.49416828
| 16> H   -2.70112211   -1.00134997    0.47981498
| 17> C   -1.07266525    0.40120590    0.47597397
| 18> H   -1.71697357    1.26940117    0.44591995
| 19> C    0.13849425    0.48058743    5.62668550
| 20> C    1.58474293    0.65937479    5.17172401
| 21> H    2.00059965    1.59265267    5.55514699
| 22> H    2.20814225   -0.16124084    5.53057788
| 23> H    1.64535206    0.67876608    4.08278980
| 24> C    0.08410288    0.44921629    7.15155082
| 25> H   -0.94168715    0.32179587    7.50063859
| 26> H    0.67950878   -0.37647057    7.54410455
| 27> H    0.47239736    1.37710092    7.57445640
| 28> C   -0.41088579   -0.82890454    5.06638948
| 29> H   -1.44575939   -0.97917958    5.37906107
| 30> H    0.17557079   -1.67787830    5.42220075
| 31> H   -0.38210595   -0.82935732    3.97607524
| 32> C   -0.70287853    1.64515912    5.11048003
| 33> H   -0.68133758    1.68118951    4.02048146
| 34> H   -1.74266768    1.54138955    5.42496251
| 35> H   -0.32722594    2.59585359    5.49258694
| 36> *
| 37>
| 38> $new_job
| 39> ! ri-mp2 aug-cc-pvtz aug-cc-pvtz/c tightscf
| 40> %pal nprocs 16 end
| 41> %maxcore 3800
| 42> %base "TZ_S66by10_40_1.25_dimer"
| 43>
| 44> *xyz 0 1
| 45> C    0.31195353    0.56102334    0.49669886
| 46> H    0.74213608    1.55336911    0.48156571
| 47> C    1.14218235   -0.55807461    0.53606185
| 48> H    2.21651131   -0.43425014    0.55235015
| 49> C    0.58780415   -1.83668704    0.55414435
| 50> H    1.23191239   -2.70484153    0.58522179
| 51> C   -0.79665772   -1.99637562    0.53296300
| 52> H   -1.22677442   -2.98844427    0.54863708
| 53> C   -1.62689297   -0.87747365    0.49416828
| 54> H   -2.70112211   -1.00134997    0.47981498
| 55> C   -1.07266525    0.40120590    0.47597397
| 56> H   -1.71697357    1.26940117    0.44591995
| 57> C    0.13849425    0.48058743    5.62668550
| 58> C    1.58474293    0.65937479    5.17172401
| 59> H    2.00059965    1.59265267    5.55514699
| 60> H    2.20814225   -0.16124084    5.53057788
| 61> H    1.64535206    0.67876608    4.08278980
| 62> C    0.08410288    0.44921629    7.15155082
| 63> H   -0.94168715    0.32179587    7.50063859
| 64> H    0.67950878   -0.37647057    7.54410455
| 65> H    0.47239736    1.37710092    7.57445640
| 66> C   -0.41088579   -0.82890454    5.06638948
| 67> H   -1.44575939   -0.97917958    5.37906107
| 68> H    0.17557079   -1.67787830    5.42220075
| 69> H   -0.38210595   -0.82935732    3.97607524
| 70> C   -0.70287853    1.64515912    5.11048003
| 71> H   -0.68133758    1.68118951    4.02048146
| 72> H   -1.74266768    1.54138955    5.42496251
| 73> H   -0.32722594    2.59585359    5.49258694
| 74> *
| 75>
| 76> $new_job
| 77> ! ri-mp2 aug-cc-pvqz aug-cc-pvqz/c tightscf
| 78> %pal nprocs 16 end
| 79> %maxcore 3800
| 80> %base "QZ_S66by10_40_1.25_dimer"
| 81>
| 82> *xyz 0 1
| 83> C    0.31195353    0.56102334    0.49669886
| 84> H    0.74213608    1.55336911    0.48156571
| 85> C    1.14218235   -0.55807461    0.53606185
| 86> H    2.21651131   -0.43425014    0.55235015
| 87> C    0.58780415   -1.83668704    0.55414435
| 88> H    1.23191239   -2.70484153    0.58522179
| 89> C   -0.79665772   -1.99637562    0.53296300
| 90> H   -1.22677442   -2.98844427    0.54863708
| 91> C   -1.62689297   -0.87747365    0.49416828
| 92> H   -2.70112211   -1.00134997    0.47981498
| 93> C   -1.07266525    0.40120590    0.47597397
| 94> H   -1.71697357    1.26940117    0.44591995
| 95> C    0.13849425    0.48058743    5.62668550
| 96> C    1.58474293    0.65937479    5.17172401
| 97> H    2.00059965    1.59265267    5.55514699
| 98> H    2.20814225   -0.16124084    5.53057788
| 99> H    1.64535206    0.67876608    4.08278980
|100> C    0.08410288    0.44921629    7.15155082
|101> H   -0.94168715    0.32179587    7.50063859
|102> H    0.67950878   -0.37647057    7.54410455
|103> H    0.47239736    1.37710092    7.57445640
|104> C   -0.41088579   -0.82890454    5.06638948
|105> H   -1.44575939   -0.97917958    5.37906107
|106> H    0.17557079   -1.67787830    5.42220075
|107> H   -0.38210595   -0.82935732    3.97607524
|108> C   -0.70287853    1.64515912    5.11048003
|109> H   -0.68133758    1.68118951    4.02048146
|110> H   -1.74266768    1.54138955    5.42496251
|111> H   -0.32722594    2.59585359    5.49258694
|112> *
|113>
|114>
|115>
|116>
|117>                          ****END OF INPUT****
 Total Charge           Charge          ....    0
 Multiplicity           Mult            ....    1
 Number of Electrons    NEL             ....   84
MP2 TOTAL ENERGY:     -428.665577467 Eh
FINAL SINGLE POINT ENERGY      -428.665577466973
MP2 TOTAL ENERGY:     -429.066800959 Eh
FINAL SINGLE POINT ENERGY      -429.066800958932

CARTESIAN COORDINATES (ANGSTROEM)
---------------------------------
  C      0.311954    0.561023    0.496699
  H      0.742136    1.553369    0.481566
  C      1.142182   -0.558075    0.536062
  H      2.216511   -0.434250    0.552350
  C      0.587804   -1.836687    0.554144
  H      1.231912   -2.704842    0.585222
  C     -0.796658   -1.996376    0.532963
  H     -1.226774   -2.988444    0.548637
  C     -1.626893   -0.877474    0.494168
  H     -2.701122   -1.001350    0.479815
  C     -1.072665    0.401206    0.475974
  H     -1.716974    1.269401    0.445920
  C      0.138494    0.480587    5.626685
  C      1.584743    0.659375    5.171724
  H      2.000600    1.592653    5.555147
  H      2.208142   -0.161241    5.530578
  H      1.645352    0.678766    4.082790
  C      0.084103    0.449216    7.151551
  H     -0.941687    0.321796    7.500639
  H      0.679509   -0.376471    7.544105
  H      0.472397    1.377101    7.574456
  C     -0.410886   -0.828905    5.066389
  H     -1.445759   -0.979180    5.379061
  H      0.175571   -1.677878    5.422201
  H     -0.382106   -0.829357    3.976075
  C     -0.702879    1.645159    5.110480
  H     -0.681338    1.681190    4.020481
  H     -1.742668    1.541390    5.424963
  H     -0.327226    2.595854    5.492587

 Multiplicity           Mult            ....    1
 Number of Electrons    NEL             ....   84
 Basis Dimension        Dim             .... 1708

ORBITAL ENERGIES
----------------

  NO   OCC          E(Eh)            E(eV)
   0   2.0000     -11.236588      -305.7631
   1   2.0000     -11.236000      -305.7471
   2   2.0000     -11.235994      -305.7469
   3   2.0000     -11.234770      -305.7136
   4   2.0000     -11.234743      -305.7129
   5   2.0000     -11.234135      -305.6963
   6   2.0000     -11.220726      -305.3315
   7   2.0000     -11.200872      -304.7912
   8   2.0000     -11.200017      -304.7680
   9   2.0000     -11.199997      -304.7674
  10   2.0000     -11.197736      -304.7059
  11   2.0000      -1.151536       -31.3349
  12   2.0000      -1.101398       -29.9706
  13   2.0000      -1.015956       -27.6456
  14   2.0000      -1.015922       -27.6446
  15   2.0000      -0.924628       -25.1604
  16   2.0000      -0.923960       -25.1422
  17   2.0000      -0.922476       -25.1019
  18   2.0000      -0.825408       -22.4605
  19   2.0000      -0.825360       -22.4592
  20   2.0000      -0.724789       -19.7225
  21   2.0000      -0.711095       -19.3499
  22   2.0000      -0.645462       -17.5639
  23   2.0000      -0.620580       -16.8868
  24   2.0000      -0.607418       -16.5287
  25   2.0000      -0.607034       -16.5182
  26   2.0000      -0.606900       -16.5146
  27   2.0000      -0.589504       -16.0412
  28   2.0000      -0.589466       -16.0402
  29   2.0000      -0.548465       -14.9245
  30   2.0000      -0.548107       -14.9147
  31   2.0000      -0.506265       -13.7762
  32   2.0000      -0.505178       -13.7466
  33   2.0000      -0.504313       -13.7230
  34   2.0000      -0.502430       -13.6718
  35   2.0000      -0.496342       -13.5061
  36   2.0000      -0.496313       -13.5054
  37   2.0000      -0.447593       -12.1796
  38   2.0000      -0.447570       -12.1790
  39   2.0000      -0.447238       -12.1700
  40   2.0000      -0.338464        -9.2101
  41   2.0000      -0.338457        -9.2099
  42   0.0000       0.022854         0.6219
  43   0.0000       0.028127         0.7654
  44   0.0000       0.028423         0.7734
  45   0.0000       0.031454         0.8559
  46   0.0000       0.039736         1.0813

MULLIKEN ATOMIC CHARGES
-----------------------
   0 C :   -0.324036
   1 H :    0.313302
   2 C :   -0.350662
   3 H :    0.297927
   4 C :   -0.292990
   5 H :    0.322745
   6 C :   -0.297691
   7 H :    0.330839
   8 C :   -0.292639
   9 H :    0.322495
  10 C :   -0.350391
  11 H :    0.298525
  12 C :    1.569512
  13 C :   -1.241683
  14 H :    0.244453
  15 H :    0.219663
  16 H :    0.391826
  17 C :   -1.098491
  18 H :    0.227885
  19 H :    0.227977
  20 H :    0.240243
  21 C :   -1.372821
  22 H :    0.239208
  23 H :    0.239529
  24 H :    0.521127
  25 C :   -1.241961
  26 H :    0.392193
  27 H :    0.219661
  28 H :    0.244253
Sum of atomic charges:   -0.0000000

LOEWDIN ATOMIC CHARGES
----------------------
   0 C :    0.322569
   1 H :   -0.325285
   2 C :    0.324642
   3 H :   -0.325412
   4 C :    0.326988
   5 H :   -0.325524
   6 C :    0.327067
   7 H :   -0.325580
   8 C :    0.327019
   9 H :   -0.325532
  10 C :    0.324621
  11 H :   -0.325406
  12 C :   -0.334439
  13 C :    0.899886
  14 H :   -0.270236
  15 H :   -0.270411
  16 H :   -0.275856
  17 C :    0.900512
  18 H :   -0.271977
  19 H :   -0.271951
  20 H :   -0.271647
  21 C :    0.899600
  22 H :   -0.268863
  23 H :   -0.268855
  24 H :   -0.279303
  25 C :    0.899865
  26 H :   -0.275855
  27 H :   -0.270388
  28 H :   -0.270248

  Mayer bond orders larger than 0.100000
B(  0-C ,  1-H ) :   1.0054 B(  0-C ,  2-C ) :   1.2524 B(  0-C ,  6-C ) :   0.1688
B(  0-C , 10-C ) :   1.2525 B(  2-C ,  3-H ) :   1.0341 B(  2-C ,  4-C ) :   1.2344
B(  2-C ,  8-C ) :   0.1547 B(  4-C ,  5-H ) :   1.0163 B(  4-C ,  6-C ) :   1.2331
B(  4-C , 10-C ) :   0.1547 B(  6-C ,  7-H ) :   1.0053 B(  6-C ,  8-C ) :   1.2333
B(  8-C ,  9-H ) :   1.0164 B(  8-C , 10-C ) :   1.2338 B( 10-C , 11-H ) :   1.0334
B( 12-C , 13-C ) :   0.4305 B( 12-C , 17-C ) :   0.2517 B( 12-C , 18-H ) :  -0.1278
B( 12-C , 19-H ) :  -0.1279 B( 12-C , 20-H ) :  -0.1256 B( 12-C , 21-C ) :   0.4590
B( 12-C , 24-H ) :  -0.1185 B( 12-C , 25-C ) :   0.4308 B( 13-C , 14-H ) :   1.0485
B( 13-C , 15-H ) :   1.0487 B( 13-C , 16-H ) :   0.8788 B( 13-C , 17-C ) :   0.1425
B( 13-C , 21-C ) :   0.1506 B( 13-C , 25-C ) :   0.1308 B( 17-C , 18-H ) :   1.0563
B( 17-C , 19-H ) :   1.0564 B( 17-C , 20-H ) :   1.0534 B( 17-C , 21-C ) :   0.1390
B( 17-C , 25-C ) :   0.1424 B( 21-C , 22-H ) :   1.0349 B( 21-C , 23-H ) :   1.0345
B( 21-C , 24-H ) :   0.7886 B( 21-C , 25-C ) :   0.1508 B( 25-C , 26-H ) :   0.8784
B( 25-C , 27-H ) :   1.0487 B( 25-C , 28-H ) :   1.0486

MP2 TOTAL ENERGY:     -429.189653727 Eh
FINAL SINGLE POINT ENERGY      -429.189653726596

DIPOLE MOMENT
-------------
                                X             Y             Z
Electronic contribution:     -1.20953      -3.80314     -16.18388
Nuclear contribution   :      1.19714       3.76907      16.09740
                        -----------------------------------------
Total Dipole Moment    :     -0.01239      -0.03407      -0.08648
                        -----------------------------------------
Magnitude (a.u.)       :      0.09377
Magnitude (Debye)      :      0.23834

Rotational constants in cm-1:     0.059224     0.013595     0.013541
Rotational constants in MHz :  1775.499223   407.570761   405.958173

                             ****ORCA TERMINATED NORMALLY****
TOTAL RUN TIME: 0 days 2 hours 7 minutes 6 seconds 736 msec
