                         Program Version 5.0.4 -  RELEASE  -
|  1> ! ri-mp2 aug-cc-pvdz aug-cc-pvdz/c tightscf
|  2> %pal nprocs 16 end
|  3> %maxcore 3800
|  4> %base "DZ_S66by10_13_2.0_dimer"
|  5> %scf STABPerform true end
|  6>
|  7> *xyz 0 1
|  8> C   -0.84931672   -0.33949876    2.49171664
|  9> H    0.18434396   -0.01104732    2.41618542
| 10> H   -0.88249791   -1.34205140    2.91270310
| 11> H   -1.39080263    0.31687828    3.16842897
| 12> C   -1.56403192   -0.35332311    1.15947545
| 13> O   -2.74952638   -0.65153776    1.05676087
| 14> N   -0.80165352   -0.02735461    0.08834167
| 15> H    0.16118756    0.24036035    0.21871364
| 16> C   -1.38534986   -0.00235149   -1.23413683
| 17> H   -1.89161720   -0.94280123   -1.44009631
| 18> H   -2.11997230    0.79621180   -1.33087952
| 19> H   -0.59464593    0.14957065   -1.96312772
| 20> O    4.16262115    0.26396748    0.69463244
| 21> H    4.88347596    0.89126710    0.78504725
| 22> C    4.68170531   -1.04139818    0.92851423
| 23> H    3.84913381   -1.73018587    0.82293766
| 24> H    5.44784407   -1.31039092    0.20163345
| 25> H    5.08980235   -1.14284738    1.93414872
| 26> *
| 27>
| 28> $new_job
| 29> ! ri-mp2 aug-cc-pvtz aug-cc-pvtz/c tightscf
| 30> %pal nprocs 16 end
| 31> %maxcore 3800
| 32> %base "TZ_S66by10_13_2.0_dimer"
| 33>
| 34> *xyz 0 1
| 35> C   -0.84931672   -0.33949876    2.49171664
| 36> H    0.18434396   -0.01104732    2.41618542
| 37> H   -0.88249791   -1.34205140    2.91270310
| 38> H   -1.39080263    0.31687828    3.16842897
| 39> C   -1.56403192   -0.35332311    1.15947545
| 40> O   -2.74952638   -0.65153776    1.05676087
| 41> N   -0.80165352   -0.02735461    0.08834167
| 42> H    0.16118756    0.24036035    0.21871364
| 43> C   -1.38534986   -0.00235149   -1.23413683
| 44> H   -1.89161720   -0.94280123   -1.44009631
| 45> H   -2.11997230    0.79621180   -1.33087952
| 46> H   -0.59464593    0.14957065   -1.96312772
| 47> O    4.16262115    0.26396748    0.69463244
| 48> H    4.88347596    0.89126710    0.78504725
| 49> C    4.68170531   -1.04139818    0.92851423
| 50> H    3.84913381   -1.73018587    0.82293766
| 51> H    5.44784407   -1.31039092    0.20163345
| 52> H    5.08980235   -1.14284738    1.93414872
| 53> *
| 54>
| 55> $new_job
| 56> ! ri-mp2 aug-cc-pvqz aug-cc-pvqz/c tightscf
| 57> %pal nprocs 16 end
| 58> %maxcore 3800
| 59> %base "QZ_S66by10_13_2.0_dimer"
| 60>
| 61> *xyz 0 1
| 62> C   -0.84931672   -0.33949876    2.49171664
| 63> H    0.18434396   -0.01104732    2.41618542
| 64> H   -0.88249791   -1.34205140    2.91270310
| 65> H   -1.39080263    0.31687828    3.16842897
| 66> C   -1.56403192   -0.35332311    1.15947545
| 67> O   -2.74952638   -0.65153776    1.05676087
| 68> N   -0.80165352   -0.02735461    0.08834167
| 69> H    0.16118756    0.24036035    0.21871364
| 70> C   -1.38534986   -0.00235149   -1.23413683
| 71> H   -1.89161720   -0.94280123   -1.44009631
| 72> H   -2.11997230    0.79621180   -1.33087952
| 73> H   -0.59464593    0.14957065   -1.96312772
| 74> O    4.16262115    0.26396748    0.69463244
| 75> H    4.88347596    0.89126710    0.78504725
| 76> C    4.68170531   -1.04139818    0.92851423
| 77> H    3.84913381   -1.73018587    0.82293766
| 78> H    5.44784407   -1.31039092    0.20163345
| 79> H    5.08980235   -1.14284738    1.93414872
| 80> *
| 81>
| 82>
| 83>
| 84>
| 85>                          ****END OF INPUT****
 Total Charge           Charge          ....    0
 Multiplicity           Mult            ....    1
 Number of Electrons    NEL             ....   58
MP2 TOTAL ENERGY:     -363.270660612 Eh
FINAL SINGLE POINT ENERGY      -363.270660611851
MP2 TOTAL ENERGY:     -363.601765643 Eh
FINAL SINGLE POINT ENERGY      -363.601765642837

CARTESIAN COORDINATES (ANGSTROEM)
---------------------------------
  C     -0.849317   -0.339499    2.491717
  H      0.184344   -0.011047    2.416185
  H     -0.882498   -1.342051    2.912703
  H     -1.390803    0.316878    3.168429
  C     -1.564032   -0.353323    1.159475
  O     -2.749526   -0.651538    1.056761
  N     -0.801654   -0.027355    0.088342
  H      0.161188    0.240360    0.218714
  C     -1.385350   -0.002351   -1.234137
  H     -1.891617   -0.942801   -1.440096
  H     -2.119972    0.796212   -1.330880
  H     -0.594646    0.149571   -1.963128
  O      4.162621    0.263967    0.694632
  H      4.883476    0.891267    0.785047
  C      4.681705   -1.041398    0.928514
  H      3.849134   -1.730186    0.822938
  H      5.447844   -1.310391    0.201633
  H      5.089802   -1.142847    1.934149

 Multiplicity           Mult            ....    1
 Number of Electrons    NEL             ....   58
 Basis Dimension        Dim             .... 1066

ORBITAL ENERGIES
----------------

  NO   OCC          E(Eh)            E(eV)
   0   2.0000     -20.568074      -559.6857
   1   2.0000     -20.502784      -557.9091
   2   2.0000     -15.578931      -423.9243
   3   2.0000     -11.338487      -308.5359
   4   2.0000     -11.279687      -306.9359
   5   2.0000     -11.251479      -306.1683
   6   2.0000     -11.227702      -305.5213
   7   2.0000      -1.367504       -37.2117
   8   2.0000      -1.366507       -37.1845
   9   2.0000      -1.224048       -33.3080
  10   2.0000      -1.012081       -27.5401
  11   2.0000      -0.936957       -25.4959
  12   2.0000      -0.926401       -25.2087
  13   2.0000      -0.785205       -21.3665
  14   2.0000      -0.702064       -19.1041
  15   2.0000      -0.683531       -18.5998
  16   2.0000      -0.646188       -17.5837
  17   2.0000      -0.631534       -17.1849
  18   2.0000      -0.628616       -17.1055
  19   2.0000      -0.603932       -16.4338
  20   2.0000      -0.578434       -15.7400
  21   2.0000      -0.573505       -15.6059
  22   2.0000      -0.552638       -15.0380
  23   2.0000      -0.542340       -14.7578
  24   2.0000      -0.516428       -14.0527
  25   2.0000      -0.493692       -13.4340
  26   2.0000      -0.463880       -12.6228
  27   2.0000      -0.414689       -11.2843
  28   2.0000      -0.387174       -10.5355
  29   0.0000       0.018449         0.5020
  30   0.0000       0.030225         0.8225
  31   0.0000       0.030869         0.8400
  32   0.0000       0.032928         0.8960
  33   0.0000       0.043079         1.1722

MULLIKEN ATOMIC CHARGES
-----------------------
   0 C :   -0.809101
   1 H :    0.283453
   2 H :    0.256758
   3 H :    0.271806
   4 C :    0.911616
   5 O :   -0.842811
   6 N :   -0.552530
   7 H :    0.310659
   8 C :   -0.806782
   9 H :    0.309778
  10 H :    0.310114
  11 H :    0.356313
  12 O :   -0.737872
  13 H :    0.366619
  14 C :   -0.466334
  15 H :    0.294399
  16 H :    0.280089
  17 H :    0.263826
Sum of atomic charges:   -0.0000000

LOEWDIN ATOMIC CHARGES
----------------------
   0 C :    0.890987
   1 H :   -0.317952
   2 H :   -0.298753
   3 H :   -0.301428
   4 C :   -0.853852
   5 O :    0.690028
   6 N :    0.812733
   7 H :   -0.497599
   8 C :    0.766349
   9 H :   -0.305759
  10 H :   -0.288718
  11 H :   -0.298053
  12 O :    1.224060
  13 H :   -0.815038
  14 C :    0.580524
  15 H :   -0.345351
  16 H :   -0.320933
  17 H :   -0.321247

  Mayer bond orders larger than 0.100000
B(  0-C ,  1-H ) :   0.9425 B(  0-C ,  2-H ) :   0.9529 B(  0-C ,  3-H ) :   0.9556
B(  0-C ,  4-C ) :   0.9072 B(  0-C ,  5-O ) :   0.1113 B(  4-C ,  5-O ) :   1.2429
B(  4-C ,  6-N ) :   1.1704 B(  5-O ,  6-N ) :   0.2074 B(  6-N ,  7-H ) :   0.9373
B(  6-N ,  8-C ) :   0.8076 B(  8-C ,  9-H ) :   0.9353 B(  8-C , 10-H ) :   0.9272
B(  8-C , 11-H ) :   0.8990 B( 12-O , 13-H ) :   0.8761 B( 12-O , 14-C ) :   0.8220
B( 14-C , 15-H ) :   0.8972 B( 14-C , 16-H ) :   0.9133 B( 14-C , 17-H ) :   0.9216

MP2 TOTAL ENERGY:     -363.707025453 Eh
FINAL SINGLE POINT ENERGY      -363.707025453412

DIPOLE MOMENT
-------------
                                X             Y             Z
Electronic contribution:     -6.19359       1.01348       0.28927
Nuclear contribution   :      8.53556      -0.73004      -0.33190
                        -----------------------------------------
Total Dipole Moment    :      2.34197       0.28344      -0.04263
                        -----------------------------------------
Magnitude (a.u.)       :      2.35944
Magnitude (Debye)      :      5.99723

Rotational constants in cm-1:     0.112309     0.019868     0.017650
Rotational constants in MHz :  3366.947858   595.628523   529.119818

                             ****ORCA TERMINATED NORMALLY****
TOTAL RUN TIME: 0 days 1 hours 27 minutes 58 seconds 360 msec
