                         Program Version 5.0.4 -  RELEASE  -
|  1> ! ri-mp2 aug-cc-pvdz aug-cc-pvdz/c tightscf
|  2> %pal nprocs 16 end
|  3> %maxcore 3800
|  4> %base "DZ_S66by10_30_0.9_dimer"
|  5>
|  6> *xyz 0 1
|  7> C    0.83551718    1.11516693    0.02140131
|  8> H    1.48432398    1.98060858    0.01953430
|  9> C    1.38327497   -0.16614721    0.02376531
| 10> H    2.45714902   -0.29520468    0.02277108
| 11> C    0.54755466   -1.28131632    0.02168563
| 12> H    0.97293610   -2.27580453    0.01977853
| 13> C   -0.83552313   -1.11516159    0.02139907
| 14> H   -1.48433419   -1.98060639    0.01953009
| 15> C   -1.38328358    0.16615413    0.02375775
| 16> H   -2.45715618    0.29520906    0.02275707
| 17> C   -0.54756577    1.28132347    0.02168025
| 18> H   -0.97294284    2.27580548    0.01976873
| 19> C    0.65577980   -0.11679020    3.10699204
| 20> H    1.04724058   -1.12390903    3.10252377
| 21> H    1.37085359    0.69327377    3.10249045
| 22> C   -0.65577672    0.11679243    3.10700093
| 23> H   -1.37084866   -0.69327209    3.10250484
| 24> H   -1.04723982    1.12391132    3.10254273
| 25> *
| 26>
| 27> $new_job
| 28> ! ri-mp2 aug-cc-pvtz aug-cc-pvtz/c tightscf
| 29> %pal nprocs 16 end
| 30> %maxcore 3800
| 31> %base "TZ_S66by10_30_0.9_dimer"
| 32>
| 33> *xyz 0 1
| 34> C    0.83551718    1.11516693    0.02140131
| 35> H    1.48432398    1.98060858    0.01953430
| 36> C    1.38327497   -0.16614721    0.02376531
| 37> H    2.45714902   -0.29520468    0.02277108
| 38> C    0.54755466   -1.28131632    0.02168563
| 39> H    0.97293610   -2.27580453    0.01977853
| 40> C   -0.83552313   -1.11516159    0.02139907
| 41> H   -1.48433419   -1.98060639    0.01953009
| 42> C   -1.38328358    0.16615413    0.02375775
| 43> H   -2.45715618    0.29520906    0.02275707
| 44> C   -0.54756577    1.28132347    0.02168025
| 45> H   -0.97294284    2.27580548    0.01976873
| 46> C    0.65577980   -0.11679020    3.10699204
| 47> H    1.04724058   -1.12390903    3.10252377
| 48> H    1.37085359    0.69327377    3.10249045
| 49> C   -0.65577672    0.11679243    3.10700093
| 50> H   -1.37084866   -0.69327209    3.10250484
| 51> H   -1.04723982    1.12391132    3.10254273
| 52> *
| 53>
| 54> $new_job
| 55> ! ri-mp2 aug-cc-pvqz aug-cc-pvqz/c tightscf
| 56> %pal nprocs 16 end
| 57> %maxcore 3800
| 58> %base "QZ_S66by10_30_0.9_dimer"
| 59>
| 60> *xyz 0 1
| 61> C    0.83551718    1.11516693    0.02140131
| 62> H    1.48432398    1.98060858    0.01953430
| 63> C    1.38327497   -0.16614721    0.02376531
| 64> H    2.45714902   -0.29520468    0.02277108
| 65> C    0.54755466   -1.28131632    0.02168563
| 66> H    0.97293610   -2.27580453    0.01977853
| 67> C   -0.83552313   -1.11516159    0.02139907
| 68> H   -1.48433419   -1.98060639    0.01953009
| 69> C   -1.38328358    0.16615413    0.02375775
| 70> H   -2.45715618    0.29520906    0.02275707
| 71> C   -0.54756577    1.28132347    0.02168025
| 72> H   -0.97294284    2.27580548    0.01976873
| 73> C    0.65577980   -0.11679020    3.10699204
| 74> H    1.04724058   -1.12390903    3.10252377
| 75> H    1.37085359    0.69327377    3.10249045
| 76> C   -0.65577672    0.11679243    3.10700093
| 77> H   -1.37084866   -0.69327209    3.10250484
| 78> H   -1.04723982    1.12391132    3.10254273
| 79> *
| 80>
| 81>
| 82>
| 83>
| 84>                          ****END OF INPUT****
 Total Charge           Charge          ....    0
 Multiplicity           Mult            ....    1
 Number of Electrons    NEL             ....   58
MP2 TOTAL ENERGY:     -309.872579577 Eh
FINAL SINGLE POINT ENERGY      -309.872579576701
MP2 TOTAL ENERGY:     -310.153425807 Eh
FINAL SINGLE POINT ENERGY      -310.153425807223

CARTESIAN COORDINATES (ANGSTROEM)
---------------------------------
  C      0.835517    1.115167    0.021401
  H      1.484324    1.980609    0.019534
  C      1.383275   -0.166147    0.023765
  H      2.457149   -0.295205    0.022771
  C      0.547555   -1.281316    0.021686
  H      0.972936   -2.275805    0.019779
  C     -0.835523   -1.115162    0.021399
  H     -1.484334   -1.980606    0.019530
  C     -1.383284    0.166154    0.023758
  H     -2.457156    0.295209    0.022757
  C     -0.547566    1.281323    0.021680
  H     -0.972943    2.275805    0.019769
  C      0.655780   -0.116790    3.106992
  H      1.047241   -1.123909    3.102524
  H      1.370854    0.693274    3.102490
  C     -0.655777    0.116792    3.107001
  H     -1.370849   -0.693272    3.102505
  H     -1.047240    1.123911    3.102543

 Multiplicity           Mult            ....    1
 Number of Electrons    NEL             ....   58
 Basis Dimension        Dim             .... 1100

ORBITAL ENERGIES
----------------

  NO   OCC          E(Eh)            E(eV)
   0   2.0000     -11.233001      -305.6655
   1   2.0000     -11.232688      -305.6570
   2   2.0000     -11.232020      -305.6388
   3   2.0000     -11.231261      -305.6181
   4   2.0000     -11.230761      -305.6045
   5   2.0000     -11.230372      -305.5940
   6   2.0000     -11.213906      -305.1459
   7   2.0000     -11.212176      -305.0988
   8   2.0000      -1.148590       -31.2547
   9   2.0000      -1.020059       -27.7572
  10   2.0000      -1.013151       -27.5692
  11   2.0000      -1.012818       -27.5602
  12   2.0000      -0.822617       -22.3845
  13   2.0000      -0.822554       -22.3828
  14   2.0000      -0.780551       -21.2399
  15   2.0000      -0.708349       -19.2751
  16   2.0000      -0.642961       -17.4958
  17   2.0000      -0.631889       -17.1946
  18   2.0000      -0.617461       -16.8020
  19   2.0000      -0.586712       -15.9653
  20   2.0000      -0.586464       -15.9585
  21   2.0000      -0.574317       -15.6280
  22   2.0000      -0.505775       -13.7628
  23   2.0000      -0.495851       -13.4928
  24   2.0000      -0.493569       -13.4307
  25   2.0000      -0.493416       -13.4265
  26   2.0000      -0.355200        -9.6655
  27   2.0000      -0.335632        -9.1330
  28   2.0000      -0.335109        -9.1188
  29   0.0000       0.026073         0.7095
  30   0.0000       0.028892         0.7862
  31   0.0000       0.029404         0.8001
  32   0.0000       0.041252         1.1225
  33   0.0000       0.041501         1.1293

MULLIKEN ATOMIC CHARGES
-----------------------
   0 C :   -0.266775
   1 H :    0.313572
   2 C :   -0.350154
   3 H :    0.272674
   4 C :   -0.294186
   5 H :    0.320756
   6 C :   -0.266785
   7 H :    0.313567
   8 C :   -0.350146
   9 H :    0.272678
  10 C :   -0.294199
  11 H :    0.320765
  12 C :   -0.744992
  13 H :    0.380366
  14 H :    0.368746
  15 C :   -0.745000
  16 H :    0.368746
  17 H :    0.380366
Sum of atomic charges:   -0.0000000

LOEWDIN ATOMIC CHARGES
----------------------
   0 C :    0.313409
   1 H :   -0.317596
   2 C :    0.304248
   3 H :   -0.316038
   4 C :    0.312064
   5 H :   -0.317527
   6 C :    0.313405
   7 H :   -0.317591
   8 C :    0.304251
   9 H :   -0.316040
  10 C :    0.312071
  11 H :   -0.317535
  12 C :    0.724122
  13 H :   -0.351367
  14 H :   -0.351315
  15 C :    0.724123
  16 H :   -0.351317
  17 H :   -0.351366

  Mayer bond orders larger than 0.100000
B(  0-C ,  1-H ) :   1.0385 B(  0-C ,  2-C ) :   1.2378 B(  0-C ,  6-C ) :   0.1698
B(  0-C , 10-C ) :   1.2365 B(  2-C ,  3-H ) :   1.0763 B(  2-C ,  4-C ) :   1.2387
B(  2-C ,  8-C ) :   0.1510 B(  4-C ,  5-H ) :   1.0310 B(  4-C ,  6-C ) :   1.2365
B(  4-C , 10-C ) :   0.1517 B(  6-C ,  7-H ) :   1.0385 B(  6-C ,  8-C ) :   1.2378
B(  8-C ,  9-H ) :   1.0763 B(  8-C , 10-C ) :   1.2387 B( 10-C , 11-H ) :   1.0310
B( 12-C , 13-H ) :   0.8425 B( 12-C , 14-H ) :   0.8565 B( 12-C , 15-C ) :   1.9509
B( 15-C , 16-H ) :   0.8565 B( 15-C , 17-H ) :   0.8425

MP2 TOTAL ENERGY:     -310.241104046 Eh
FINAL SINGLE POINT ENERGY      -310.241104046371

DIPOLE MOMENT
-------------
                                X             Y             Z
Electronic contribution:     -0.00001       0.00002      -4.00205
Nuclear contribution   :      0.00001      -0.00001       3.90553
                        -----------------------------------------
Total Dipole Moment    :     -0.00000       0.00000      -0.09652
                        -----------------------------------------
Magnitude (a.u.)       :      0.09652
Magnitude (Debye)      :      0.24533

Rotational constants in cm-1:     0.085514     0.058477     0.055905
Rotational constants in MHz :  2563.643555  1753.091802  1676.000970

                             ****ORCA TERMINATED NORMALLY****
TOTAL RUN TIME: 0 days 0 hours 36 minutes 19 seconds 997 msec
