                         Program Version 5.0.4 -  RELEASE  -
|  1> ! ri-mp2 aug-cc-pvdz aug-cc-pvdz/c tightscf
|  2> %pal nprocs 16 end
|  3> %maxcore 3800
|  4> %base "DZ_S66by10_30_1.1_dimer"
|  5>
|  6> *xyz 0 1
|  7> C    0.83551718    1.11516693    0.02140131
|  8> H    1.48432398    1.98060858    0.01953430
|  9> C    1.38327497   -0.16614721    0.02376531
| 10> H    2.45714902   -0.29520468    0.02277108
| 11> C    0.54755466   -1.28131632    0.02168563
| 12> H    0.97293610   -2.27580453    0.01977853
| 13> C   -0.83552313   -1.11516159    0.02139907
| 14> H   -1.48433419   -1.98060639    0.01953009
| 15> C   -1.38328358    0.16615413    0.02375775
| 16> H   -2.45715618    0.29520906    0.02275707
| 17> C   -0.54756577    1.28132347    0.02168025
| 18> H   -0.97294284    2.27580548    0.01976873
| 19> C    0.65578112   -0.11679066    3.80955554
| 20> H    1.04724190   -1.12390949    3.80508727
| 21> H    1.37085491    0.69327332    3.80505395
| 22> C   -0.65577540    0.11679197    3.80956443
| 23> H   -1.37084734   -0.69327255    3.80506834
| 24> H   -1.04723850    1.12391087    3.80510623
| 25> *
| 26>
| 27> $new_job
| 28> ! ri-mp2 aug-cc-pvtz aug-cc-pvtz/c tightscf
| 29> %pal nprocs 16 end
| 30> %maxcore 3800
| 31> %base "TZ_S66by10_30_1.1_dimer"
| 32>
| 33> *xyz 0 1
| 34> C    0.83551718    1.11516693    0.02140131
| 35> H    1.48432398    1.98060858    0.01953430
| 36> C    1.38327497   -0.16614721    0.02376531
| 37> H    2.45714902   -0.29520468    0.02277108
| 38> C    0.54755466   -1.28131632    0.02168563
| 39> H    0.97293610   -2.27580453    0.01977853
| 40> C   -0.83552313   -1.11516159    0.02139907
| 41> H   -1.48433419   -1.98060639    0.01953009
| 42> C   -1.38328358    0.16615413    0.02375775
| 43> H   -2.45715618    0.29520906    0.02275707
| 44> C   -0.54756577    1.28132347    0.02168025
| 45> H   -0.97294284    2.27580548    0.01976873
| 46> C    0.65578112   -0.11679066    3.80955554
| 47> H    1.04724190   -1.12390949    3.80508727
| 48> H    1.37085491    0.69327332    3.80505395
| 49> C   -0.65577540    0.11679197    3.80956443
| 50> H   -1.37084734   -0.69327255    3.80506834
| 51> H   -1.04723850    1.12391087    3.80510623
| 52> *
| 53>
| 54> $new_job
| 55> ! ri-mp2 aug-cc-pvqz aug-cc-pvqz/c tightscf
| 56> %pal nprocs 16 end
| 57> %maxcore 3800
| 58> %base "QZ_S66by10_30_1.1_dimer"
| 59>
| 60> *xyz 0 1
| 61> C    0.83551718    1.11516693    0.02140131
| 62> H    1.48432398    1.98060858    0.01953430
| 63> C    1.38327497   -0.16614721    0.02376531
| 64> H    2.45714902   -0.29520468    0.02277108
| 65> C    0.54755466   -1.28131632    0.02168563
| 66> H    0.97293610   -2.27580453    0.01977853
| 67> C   -0.83552313   -1.11516159    0.02139907
| 68> H   -1.48433419   -1.98060639    0.01953009
| 69> C   -1.38328358    0.16615413    0.02375775
| 70> H   -2.45715618    0.29520906    0.02275707
| 71> C   -0.54756577    1.28132347    0.02168025
| 72> H   -0.97294284    2.27580548    0.01976873
| 73> C    0.65578112   -0.11679066    3.80955554
| 74> H    1.04724190   -1.12390949    3.80508727
| 75> H    1.37085491    0.69327332    3.80505395
| 76> C   -0.65577540    0.11679197    3.80956443
| 77> H   -1.37084734   -0.69327255    3.80506834
| 78> H   -1.04723850    1.12391087    3.80510623
| 79> *
| 80>
| 81>
| 82>
| 83>
| 84>                          ****END OF INPUT****
 Total Charge           Charge          ....    0
 Multiplicity           Mult            ....    1
 Number of Electrons    NEL             ....   58
MP2 TOTAL ENERGY:     -309.870769615 Eh
FINAL SINGLE POINT ENERGY      -309.870769615368
MP2 TOTAL ENERGY:     -310.152728246 Eh
FINAL SINGLE POINT ENERGY      -310.152728245793

CARTESIAN COORDINATES (ANGSTROEM)
---------------------------------
  C      0.835517    1.115167    0.021401
  H      1.484324    1.980609    0.019534
  C      1.383275   -0.166147    0.023765
  H      2.457149   -0.295205    0.022771
  C      0.547555   -1.281316    0.021686
  H      0.972936   -2.275805    0.019779
  C     -0.835523   -1.115162    0.021399
  H     -1.484334   -1.980606    0.019530
  C     -1.383284    0.166154    0.023758
  H     -2.457156    0.295209    0.022757
  C     -0.547566    1.281323    0.021680
  H     -0.972943    2.275805    0.019769
  C      0.655781   -0.116791    3.809556
  H      1.047242   -1.123909    3.805087
  H      1.370855    0.693273    3.805054
  C     -0.655775    0.116792    3.809564
  H     -1.370847   -0.693273    3.805068
  H     -1.047238    1.123911    3.805106

 Multiplicity           Mult            ....    1
 Number of Electrons    NEL             ....   58
 Basis Dimension        Dim             .... 1100

ORBITAL ENERGIES
----------------

  NO   OCC          E(Eh)            E(eV)
   0   2.0000     -11.232879      -305.6622
   1   2.0000     -11.232356      -305.6479
   2   2.0000     -11.232239      -305.6448
   3   2.0000     -11.231103      -305.6139
   4   2.0000     -11.230988      -305.6107
   5   2.0000     -11.230433      -305.5956
   6   2.0000     -11.220491      -305.3251
   7   2.0000     -11.218763      -305.2781
   8   2.0000      -1.147906       -31.2361
   9   2.0000      -1.025018       -27.8922
  10   2.0000      -1.012460       -27.5504
  11   2.0000      -1.012344       -27.5473
  12   2.0000      -0.822065       -22.3695
  13   2.0000      -0.821953       -22.3665
  14   2.0000      -0.784607       -21.3502
  15   2.0000      -0.707800       -19.2602
  16   2.0000      -0.642241       -17.4763
  17   2.0000      -0.636083       -17.3087
  18   2.0000      -0.617204       -16.7950
  19   2.0000      -0.586183       -15.9509
  20   2.0000      -0.586085       -15.9482
  21   2.0000      -0.578893       -15.7525
  22   2.0000      -0.501046       -13.6342
  23   2.0000      -0.500106       -13.6086
  24   2.0000      -0.493097       -13.4179
  25   2.0000      -0.492959       -13.4141
  26   2.0000      -0.366341        -9.9686
  27   2.0000      -0.334658        -9.1065
  28   2.0000      -0.334592        -9.1047
  29   0.0000       0.026060         0.7091
  30   0.0000       0.028967         0.7882
  31   0.0000       0.029422         0.8006
  32   0.0000       0.040831         1.1111
  33   0.0000       0.041320         1.1244

MULLIKEN ATOMIC CHARGES
-----------------------
   0 C :   -0.322955
   1 H :    0.322337
   2 C :   -0.295495
   3 H :    0.308701
   4 C :   -0.336725
   5 H :    0.321218
   6 C :   -0.322963
   7 H :    0.322333
   8 C :   -0.295490
   9 H :    0.308704
  10 C :   -0.336727
  11 H :    0.321227
  12 C :   -0.874098
  13 H :    0.443211
  14 H :    0.433805
  15 C :   -0.874100
  16 H :    0.433809
  17 H :    0.443208
Sum of atomic charges:    0.0000000

LOEWDIN ATOMIC CHARGES
----------------------
   0 C :    0.319953
   1 H :   -0.324441
   2 C :    0.318039
   3 H :   -0.324192
   4 C :    0.319740
   5 H :   -0.324415
   6 C :    0.319949
   7 H :   -0.324435
   8 C :    0.318041
   9 H :   -0.324193
  10 C :    0.319747
  11 H :   -0.324423
  12 C :    0.744263
  13 H :   -0.364461
  14 H :   -0.364486
  15 C :    0.744264
  16 H :   -0.364488
  17 H :   -0.364460

  Mayer bond orders larger than 0.100000
B(  0-C ,  1-H ) :   1.0207 B(  0-C ,  2-C ) :   1.2434 B(  0-C ,  6-C ) :   0.1476
B(  0-C , 10-C ) :   1.2279 B(  2-C ,  3-H ) :   1.0337 B(  2-C ,  4-C ) :   1.2309
B(  2-C ,  8-C ) :   0.1849 B(  4-C ,  5-H ) :   1.0218 B(  4-C ,  6-C ) :   1.2279
B(  4-C , 10-C ) :   0.1326 B(  6-C ,  7-H ) :   1.0207 B(  6-C ,  8-C ) :   1.2434
B(  8-C ,  9-H ) :   1.0337 B(  8-C , 10-C ) :   1.2309 B( 10-C , 11-H ) :   1.0218
B( 12-C , 13-H ) :   0.7892 B( 12-C , 14-H ) :   0.8038 B( 12-C , 15-C ) :   2.0238
B( 15-C , 16-H ) :   0.8038 B( 15-C , 17-H ) :   0.7892

MP2 TOTAL ENERGY:     -310.240730661 Eh
FINAL SINGLE POINT ENERGY      -310.240730660787

DIPOLE MOMENT
-------------
                                X             Y             Z
Electronic contribution:     -0.00001       0.00002      -4.84560
Nuclear contribution   :      0.00001      -0.00001       4.80035
                        -----------------------------------------
Total Dipole Moment    :     -0.00000       0.00000      -0.04524
                        -----------------------------------------
Magnitude (a.u.)       :      0.04524
Magnitude (Debye)      :      0.11500

Rotational constants in cm-1:     0.085514     0.043457     0.042020
Rotational constants in MHz :  2563.643555  1302.797471  1259.736826

                             ****ORCA TERMINATED NORMALLY****
TOTAL RUN TIME: 0 days 0 hours 33 minutes 51 seconds 842 msec
