                         Program Version 5.0.4 -  RELEASE  -
|  1> ! ri-mp2 aug-cc-pvdz aug-cc-pvdz/c tightscf
|  2> %pal nprocs 16 end
|  3> %maxcore 3800
|  4> %base "DZ_S66by10_20_0.9_dimer"
|  5> %scf STABPerform true end
|  6>
|  7> *xyz 0 1
|  8> C   -1.06170920    1.29714057    0.29206000
|  9> O   -0.35816112    2.27045861    0.53181267
| 10> O   -0.58930352    0.09491776    0.00378881
| 11> H    0.40443566    0.12772262    0.01841184
| 12> C   -2.55842780    1.34254982    0.29625732
| 13> H   -2.89599798    2.34746400    0.51831634
| 14> H   -2.93288928    1.02239045   -0.67299555
| 15> H   -2.93721196    0.64491043    1.03955708
| 16> C    2.63051391    1.10771638    0.26996822
| 17> O    1.92689555    0.13440189    0.03018062
| 18> O    2.15808758    2.31015177    0.55774669
| 19> H    1.16429904    2.27725353    0.54334619
| 20> C    4.12722636    1.06181363    0.26800383
| 21> H    4.46480592    0.06049444    0.03047833
| 22> H    4.50872491    1.77216657   -0.46146507
| 23> H    4.49874267    1.36450815    1.24405919
| 24> *
| 25>
| 26> $new_job
| 27> ! ri-mp2 aug-cc-pvtz aug-cc-pvtz/c tightscf
| 28> %pal nprocs 16 end
| 29> %maxcore 3800
| 30> %base "TZ_S66by10_20_0.9_dimer"
| 31>
| 32> *xyz 0 1
| 33> C   -1.06170920    1.29714057    0.29206000
| 34> O   -0.35816112    2.27045861    0.53181267
| 35> O   -0.58930352    0.09491776    0.00378881
| 36> H    0.40443566    0.12772262    0.01841184
| 37> C   -2.55842780    1.34254982    0.29625732
| 38> H   -2.89599798    2.34746400    0.51831634
| 39> H   -2.93288928    1.02239045   -0.67299555
| 40> H   -2.93721196    0.64491043    1.03955708
| 41> C    2.63051391    1.10771638    0.26996822
| 42> O    1.92689555    0.13440189    0.03018062
| 43> O    2.15808758    2.31015177    0.55774669
| 44> H    1.16429904    2.27725353    0.54334619
| 45> C    4.12722636    1.06181363    0.26800383
| 46> H    4.46480592    0.06049444    0.03047833
| 47> H    4.50872491    1.77216657   -0.46146507
| 48> H    4.49874267    1.36450815    1.24405919
| 49> *
| 50>
| 51> $new_job
| 52> ! ri-mp2 aug-cc-pvqz aug-cc-pvqz/c tightscf
| 53> %pal nprocs 16 end
| 54> %maxcore 3800
| 55> %base "QZ_S66by10_20_0.9_dimer"
| 56>
| 57> *xyz 0 1
| 58> C   -1.06170920    1.29714057    0.29206000
| 59> O   -0.35816112    2.27045861    0.53181267
| 60> O   -0.58930352    0.09491776    0.00378881
| 61> H    0.40443566    0.12772262    0.01841184
| 62> C   -2.55842780    1.34254982    0.29625732
| 63> H   -2.89599798    2.34746400    0.51831634
| 64> H   -2.93288928    1.02239045   -0.67299555
| 65> H   -2.93721196    0.64491043    1.03955708
| 66> C    2.63051391    1.10771638    0.26996822
| 67> O    1.92689555    0.13440189    0.03018062
| 68> O    2.15808758    2.31015177    0.55774669
| 69> H    1.16429904    2.27725353    0.54334619
| 70> C    4.12722636    1.06181363    0.26800383
| 71> H    4.46480592    0.06049444    0.03047833
| 72> H    4.50872491    1.77216657   -0.46146507
| 73> H    4.49874267    1.36450815    1.24405919
| 74> *
| 75>
| 76>
| 77>
| 78>
| 79>                          ****END OF INPUT****
 Total Charge           Charge          ....    0
 Multiplicity           Mult            ....    1
 Number of Electrons    NEL             ....   64
MP2 TOTAL ENERGY:     -457.071806477 Eh
FINAL SINGLE POINT ENERGY      -457.071806477104
MP2 TOTAL ENERGY:     -457.470629239 Eh
FINAL SINGLE POINT ENERGY      -457.470629239278

CARTESIAN COORDINATES (ANGSTROEM)
---------------------------------
  C     -1.061709    1.297141    0.292060
  O     -0.358161    2.270459    0.531813
  O     -0.589304    0.094918    0.003789
  H      0.404436    0.127723    0.018412
  C     -2.558428    1.342550    0.296257
  H     -2.895998    2.347464    0.518316
  H     -2.932889    1.022390   -0.672996
  H     -2.937212    0.644910    1.039557
  C      2.630514    1.107716    0.269968
  O      1.926896    0.134402    0.030181
  O      2.158088    2.310152    0.557747
  H      1.164299    2.277254    0.543346
  C      4.127226    1.061814    0.268004
  H      4.464806    0.060494    0.030478
  H      4.508725    1.772167   -0.461465
  H      4.498743    1.364508    1.244059

 Multiplicity           Mult            ....    1
 Number of Electrons    NEL             ....   64
 Basis Dimension        Dim             .... 1008

ORBITAL ENERGIES
----------------

  NO   OCC          E(Eh)            E(eV)
   0   2.0000     -20.587528      -560.2151
   1   2.0000     -20.587521      -560.2149
   2   2.0000     -20.557386      -559.3949
   3   2.0000     -20.557372      -559.3945
   4   2.0000     -11.396952      -310.1268
   5   2.0000     -11.396933      -310.1263
   6   2.0000     -11.242644      -305.9279
   7   2.0000     -11.242638      -305.9277
   8   2.0000      -1.474224       -40.1157
   9   2.0000      -1.454561       -39.5806
  10   2.0000      -1.374914       -37.4133
  11   2.0000      -1.352696       -36.8087
  12   2.0000      -1.036308       -28.1994
  13   2.0000      -1.024651       -27.8822
  14   2.0000      -0.845020       -22.9942
  15   2.0000      -0.814921       -22.1751
  16   2.0000      -0.758308       -20.6346
  17   2.0000      -0.697079       -18.9685
  18   2.0000      -0.682998       -18.5853
  19   2.0000      -0.673249       -18.3200
  20   2.0000      -0.656471       -17.8635
  21   2.0000      -0.647427       -17.6174
  22   2.0000      -0.592670       -16.1274
  23   2.0000      -0.582334       -15.8461
  24   2.0000      -0.573151       -15.5962
  25   2.0000      -0.561569       -15.2811
  26   2.0000      -0.555829       -15.1249
  27   2.0000      -0.555331       -15.1113
  28   2.0000      -0.496857       -13.5202
  29   2.0000      -0.480363       -13.0713
  30   2.0000      -0.475485       -12.9386
  31   2.0000      -0.454853       -12.3772
  32   0.0000       0.025463         0.6929
  33   0.0000       0.027427         0.7463
  34   0.0000       0.039263         1.0684
  35   0.0000       0.040760         1.1091
  36   0.0000       0.046374         1.2619

MULLIKEN ATOMIC CHARGES
-----------------------
   0 C :    0.913420
   1 O :   -0.637636
   2 O :   -0.672476
   3 H :    0.240162
   4 C :   -0.753352
   5 H :    0.327829
   6 H :    0.289599
   7 H :    0.292442
   8 C :    0.913440
   9 O :   -0.637597
  10 O :   -0.672494
  11 H :    0.240181
  12 C :   -0.753549
  13 H :    0.327978
  14 H :    0.291262
  15 H :    0.290792
Sum of atomic charges:   -0.0000000

LOEWDIN ATOMIC CHARGES
----------------------
   0 C :   -0.881267
   1 O :    0.927507
   2 O :    1.272596
   3 H :   -1.281600
   4 C :    0.888007
   5 H :   -0.322298
   6 H :   -0.301932
   7 H :   -0.301034
   8 C :   -0.881133
   9 O :    0.927483
  10 O :    1.272524
  11 H :   -1.281549
  12 C :    0.888081
  13 H :   -0.322343
  14 H :   -0.301497
  15 H :   -0.301546

  Mayer bond orders larger than 0.100000
B(  0-C ,  1-O ) :   1.5086 B(  0-C ,  2-O ) :   0.9835 B(  0-C ,  4-C ) :   0.7260
B(  1-O , 11-H ) :   0.1008 B(  2-O ,  3-H ) :   0.9036 B(  3-H ,  9-O ) :   0.1008
B(  4-C ,  5-H ) :   0.9673 B(  4-C ,  6-H ) :   0.9425 B(  4-C ,  7-H ) :   0.9343
B(  8-C ,  9-O ) :   1.5086 B(  8-C , 10-O ) :   0.9836 B(  8-C , 12-C ) :   0.7260
B( 10-O , 11-H ) :   0.9037 B( 12-C , 13-H ) :   0.9672 B( 12-C , 14-H ) :   0.9379
B( 12-C , 15-H ) :   0.9390

MP2 TOTAL ENERGY:     -457.600472177 Eh
FINAL SINGLE POINT ENERGY      -457.600472176924

DIPOLE MOMENT
-------------
                                X             Y             Z
Electronic contribution:      0.00029       0.00155      -0.00734
Nuclear contribution   :     -0.00018      -0.00204       0.00898
                        -----------------------------------------
Total Dipole Moment    :      0.00011      -0.00049       0.00164
                        -----------------------------------------
Magnitude (a.u.)       :      0.00172
Magnitude (Debye)      :      0.00436

Rotational constants in cm-1:     0.187957     0.031272     0.027078
Rotational constants in MHz :  5634.818189   937.496872   811.773531

                             ****ORCA TERMINATED NORMALLY****
TOTAL RUN TIME: 0 days 1 hours 40 minutes 41 seconds 287 msec
