                         Program Version 5.0.4 -  RELEASE  -
|  1> ! ri-mp2 aug-cc-pvdz aug-cc-pvdz/c tightscf
|  2> %pal nprocs 16 end
|  3> %maxcore 3800
|  4> %base "DZ_S66by10_43_1.0_dimer"
|  5> %scf STABPerform true end
|  6>
|  7> *xyz 0 1
|  8> N    0.62608128   -0.85091265    0.80591569
|  9> H    0.40918989   -1.81150056    1.03440142
| 10> C   -0.43245619   -0.08733581    0.29466376
| 11> O   -1.53077162   -0.58840313    0.12359257
| 12> C   -0.06687462    1.29127521    0.01963739
| 13> H   -0.80974352    1.95181039   -0.39283965
| 14> C    1.18354208    1.71793501    0.29053321
| 15> H    1.50185022    2.73387064    0.10983284
| 16> N    2.13412979    0.88660160    0.81908177
| 17> H    3.05533594    1.22390137    1.04342778
| 18> C    1.90278319   -0.44317844    1.12831175
| 19> O    2.74380631   -1.16392354    1.62858730
| 20> C   -0.63859211   -0.03060008    4.77358591
| 21> C   -1.95533830    0.71068872    4.98845882
| 22> H   -2.66240970    0.09248253    5.54332116
| 23> H   -1.79583874    1.63087326    5.55264383
| 24> H   -2.41304807    0.97218574    4.03330516
| 25> C   -0.02315550   -0.38403801    6.12486335
| 26> H    0.92000668   -0.91641131    5.99408152
| 27> H    0.17386546    0.51570373    6.70966550
| 28> H   -0.69444952   -1.02177501    6.70160010
| 29> C    0.32653216    0.86287774    3.99779682
| 30> H    1.27510264    0.35028303    3.82744282
| 31> H    0.53182236    1.78101419    4.55122319
| 32> H   -0.09586323    1.14136435    3.03033238
| 33> C   -0.89990931   -1.31063448    3.98322102
| 34> H   -1.36364771   -1.08880077    3.02059638
| 35> H    0.03266699   -1.84903340    3.80358434
| 36> H   -1.57041711   -1.97244844    4.53340594
| 37> *
| 38>
| 39> $new_job
| 40> ! ri-mp2 aug-cc-pvtz aug-cc-pvtz/c tightscf
| 41> %pal nprocs 16 end
| 42> %maxcore 3800
| 43> %base "TZ_S66by10_43_1.0_dimer"
| 44>
| 45> *xyz 0 1
| 46> N    0.62608128   -0.85091265    0.80591569
| 47> H    0.40918989   -1.81150056    1.03440142
| 48> C   -0.43245619   -0.08733581    0.29466376
| 49> O   -1.53077162   -0.58840313    0.12359257
| 50> C   -0.06687462    1.29127521    0.01963739
| 51> H   -0.80974352    1.95181039   -0.39283965
| 52> C    1.18354208    1.71793501    0.29053321
| 53> H    1.50185022    2.73387064    0.10983284
| 54> N    2.13412979    0.88660160    0.81908177
| 55> H    3.05533594    1.22390137    1.04342778
| 56> C    1.90278319   -0.44317844    1.12831175
| 57> O    2.74380631   -1.16392354    1.62858730
| 58> C   -0.63859211   -0.03060008    4.77358591
| 59> C   -1.95533830    0.71068872    4.98845882
| 60> H   -2.66240970    0.09248253    5.54332116
| 61> H   -1.79583874    1.63087326    5.55264383
| 62> H   -2.41304807    0.97218574    4.03330516
| 63> C   -0.02315550   -0.38403801    6.12486335
| 64> H    0.92000668   -0.91641131    5.99408152
| 65> H    0.17386546    0.51570373    6.70966550
| 66> H   -0.69444952   -1.02177501    6.70160010
| 67> C    0.32653216    0.86287774    3.99779682
| 68> H    1.27510264    0.35028303    3.82744282
| 69> H    0.53182236    1.78101419    4.55122319
| 70> H   -0.09586323    1.14136435    3.03033238
| 71> C   -0.89990931   -1.31063448    3.98322102
| 72> H   -1.36364771   -1.08880077    3.02059638
| 73> H    0.03266699   -1.84903340    3.80358434
| 74> H   -1.57041711   -1.97244844    4.53340594
| 75> *
| 76>
| 77> $new_job
| 78> ! ri-mp2 aug-cc-pvqz aug-cc-pvqz/c tightscf
| 79> %pal nprocs 16 end
| 80> %maxcore 3800
| 81> %base "QZ_S66by10_43_1.0_dimer"
| 82>
| 83> *xyz 0 1
| 84> N    0.62608128   -0.85091265    0.80591569
| 85> H    0.40918989   -1.81150056    1.03440142
| 86> C   -0.43245619   -0.08733581    0.29466376
| 87> O   -1.53077162   -0.58840313    0.12359257
| 88> C   -0.06687462    1.29127521    0.01963739
| 89> H   -0.80974352    1.95181039   -0.39283965
| 90> C    1.18354208    1.71793501    0.29053321
| 91> H    1.50185022    2.73387064    0.10983284
| 92> N    2.13412979    0.88660160    0.81908177
| 93> H    3.05533594    1.22390137    1.04342778
| 94> C    1.90278319   -0.44317844    1.12831175
| 95> O    2.74380631   -1.16392354    1.62858730
| 96> C   -0.63859211   -0.03060008    4.77358591
| 97> C   -1.95533830    0.71068872    4.98845882
| 98> H   -2.66240970    0.09248253    5.54332116
| 99> H   -1.79583874    1.63087326    5.55264383
|100> H   -2.41304807    0.97218574    4.03330516
|101> C   -0.02315550   -0.38403801    6.12486335
|102> H    0.92000668   -0.91641131    5.99408152
|103> H    0.17386546    0.51570373    6.70966550
|104> H   -0.69444952   -1.02177501    6.70160010
|105> C    0.32653216    0.86287774    3.99779682
|106> H    1.27510264    0.35028303    3.82744282
|107> H    0.53182236    1.78101419    4.55122319
|108> H   -0.09586323    1.14136435    3.03033238
|109> C   -0.89990931   -1.31063448    3.98322102
|110> H   -1.36364771   -1.08880077    3.02059638
|111> H    0.03266699   -1.84903340    3.80358434
|112> H   -1.57041711   -1.97244844    4.53340594
|113> *
|114>
|115>
|116>
|117>
|118>                          ****END OF INPUT****
 Total Charge           Charge          ....    0
 Multiplicity           Mult            ....    1
 Number of Electrons    NEL             ....  100
MP2 TOTAL ENERGY:     -610.910569576 Eh
FINAL SINGLE POINT ENERGY      -610.910569576262
MP2 TOTAL ENERGY:     -611.451846478 Eh
FINAL SINGLE POINT ENERGY      -611.451846478372

CARTESIAN COORDINATES (ANGSTROEM)
---------------------------------
  N      0.626081   -0.850913    0.805916
  H      0.409190   -1.811501    1.034401
  C     -0.432456   -0.087336    0.294664
  O     -1.530772   -0.588403    0.123593
  C     -0.066875    1.291275    0.019637
  H     -0.809744    1.951810   -0.392840
  C      1.183542    1.717935    0.290533
  H      1.501850    2.733871    0.109833
  N      2.134130    0.886602    0.819082
  H      3.055336    1.223901    1.043428
  C      1.902783   -0.443178    1.128312
  O      2.743806   -1.163924    1.628587
  C     -0.638592   -0.030600    4.773586
  C     -1.955338    0.710689    4.988459
  H     -2.662410    0.092483    5.543321
  H     -1.795839    1.630873    5.552644
  H     -2.413048    0.972186    4.033305
  C     -0.023155   -0.384038    6.124863
  H      0.920007   -0.916411    5.994082
  H      0.173865    0.515704    6.709665
  H     -0.694450   -1.021775    6.701600
  C      0.326532    0.862878    3.997797
  H      1.275103    0.350283    3.827443
  H      0.531822    1.781014    4.551223
  H     -0.095863    1.141364    3.030332
  C     -0.899909   -1.310634    3.983221
  H     -1.363648   -1.088801    3.020596
  H      0.032667   -1.849033    3.803584
  H     -1.570417   -1.972448    4.533406

 Multiplicity           Mult            ....    1
 Number of Electrons    NEL             ....  100
 Basis Dimension        Dim             .... 1776

ORBITAL ENERGIES
----------------

  NO   OCC          E(Eh)            E(eV)
   0   2.0000     -20.544992      -559.0576
   1   2.0000     -20.539836      -558.9174
   2   2.0000     -15.642217      -425.6464
   3   2.0000     -15.624614      -425.1674
   4   2.0000     -11.417785      -310.6937
   5   2.0000     -11.380112      -309.6686
   6   2.0000     -11.339864      -308.5734
   7   2.0000     -11.254208      -306.2426
   8   2.0000     -11.225369      -305.4578
   9   2.0000     -11.207866      -304.9815
  10   2.0000     -11.203280      -304.8567
  11   2.0000     -11.203221      -304.8551
  12   2.0000     -11.201596      -304.8109
  13   2.0000      -1.436122       -39.0789
  14   2.0000      -1.398246       -38.0482
  15   2.0000      -1.313245       -35.7352
  16   2.0000      -1.245609       -33.8947
  17   2.0000      -1.106033       -30.0967
  18   2.0000      -1.088321       -29.6147
  19   2.0000      -0.934070       -25.4173
  20   2.0000      -0.930967       -25.3329
  21   2.0000      -0.927589       -25.2410
  22   2.0000      -0.926679       -25.2162
  23   2.0000      -0.901690       -24.5362
  24   2.0000      -0.807190       -21.9648
  25   2.0000      -0.765455       -20.8291
  26   2.0000      -0.730471       -19.8771
  27   2.0000      -0.714462       -19.4415
  28   2.0000      -0.678202       -18.4548
  29   2.0000      -0.670029       -18.2324
  30   2.0000      -0.653459       -17.7815
  31   2.0000      -0.615743       -16.7552
  32   2.0000      -0.613154       -16.6848
  33   2.0000      -0.611876       -16.6500
  34   2.0000      -0.611371       -16.6363
  35   2.0000      -0.602144       -16.3852
  36   2.0000      -0.571564       -15.5531
  37   2.0000      -0.554024       -15.0758
  38   2.0000      -0.552004       -15.0208
  39   2.0000      -0.527259       -14.3474
  40   2.0000      -0.509898       -13.8750
  41   2.0000      -0.509085       -13.8529
  42   2.0000      -0.507807       -13.8181
  43   2.0000      -0.484520       -13.1845
  44   2.0000      -0.452959       -12.3256
  45   2.0000      -0.452582       -12.3154
  46   2.0000      -0.451643       -12.2898
  47   2.0000      -0.449204       -12.2235
  48   2.0000      -0.437359       -11.9011
  49   2.0000      -0.369399       -10.0519
  50   0.0000       0.011794         0.3209
  51   0.0000       0.028168         0.7665
  52   0.0000       0.028499         0.7755
  53   0.0000       0.032844         0.8937
  54   0.0000       0.039934         1.0867

MULLIKEN ATOMIC CHARGES
-----------------------
   0 N :   -0.722910
   1 H :    0.087405
   2 C :    1.386434
   3 O :   -0.926256
   4 C :   -0.520453
   5 H :    0.260348
   6 C :   -0.153384
   7 H :    0.409786
   8 N :   -0.737953
   9 H :    0.095081
  10 C :    1.827417
  11 O :   -0.925173
  12 C :    1.824271
  13 C :   -1.172165
  14 H :    0.220321
  15 H :    0.217604
  16 H :    0.239336
  17 C :   -1.135604
  18 H :    0.210461
  19 H :    0.225177
  20 H :    0.233815
  21 C :   -1.342133
  22 H :    0.272738
  23 H :    0.261021
  24 H :    0.326362
  25 C :   -1.303592
  26 H :    0.401745
  27 H :    0.271250
  28 H :    0.169051
Sum of atomic charges:   -0.0000000

LOEWDIN ATOMIC CHARGES
----------------------
   0 N :    0.775227
   1 H :   -0.523497
   2 C :   -0.877281
   3 O :    0.698488
   4 C :    0.331123
   5 H :   -0.349254
   6 C :    0.232369
   7 H :   -0.293196
   8 N :    0.813940
   9 H :   -0.486811
  10 C :   -1.012092
  11 O :    0.705422
  12 C :   -0.319788
  13 C :    0.907378
  14 H :   -0.269521
  15 H :   -0.270543
  16 H :   -0.269424
  17 C :    0.906585
  18 H :   -0.268872
  19 H :   -0.270931
  20 H :   -0.270701
  21 C :    0.890064
  22 H :   -0.285388
  23 H :   -0.260392
  24 H :   -0.300340
  25 C :    0.898562
  26 H :   -0.294558
  27 H :   -0.272522
  28 H :   -0.264047

  Mayer bond orders larger than 0.100000
B(  0-N ,  1-H ) :   1.1639 B(  0-N ,  2-C ) :   0.9483 B(  0-N ,  3-O ) :   0.1993
B(  0-N , 10-C ) :   0.9591 B(  0-N , 11-O ) :   0.2561 B(  2-C ,  3-O ) :   0.8424
B(  2-C ,  4-C ) :   1.0845 B(  3-O ,  4-C ) :   0.2452 B(  4-C ,  5-H ) :   1.0352
B(  4-C ,  6-C ) :   1.5890 B(  6-C ,  7-H ) :   0.9477 B(  6-C ,  8-N ) :   0.8659
B(  8-N ,  9-H ) :   1.1763 B(  8-N , 10-C ) :   1.0090 B(  8-N , 11-O ) :   0.2366
B( 10-C , 11-O ) :   0.7922 B( 12-C , 13-C ) :   0.2402 B( 12-C , 14-H ) :  -0.1237
B( 12-C , 15-H ) :  -0.1148 B( 12-C , 16-H ) :  -0.1550 B( 12-C , 17-C ) :   0.1941
B( 12-C , 18-H ) :  -0.1750 B( 12-C , 19-H ) :  -0.1331 B( 12-C , 20-H ) :  -0.1298
B( 12-C , 21-C ) :   0.5716 B( 12-C , 24-H ) :  -0.1156 B( 12-C , 25-C ) :   0.3508
B( 12-C , 27-H ) :  -0.1035 B( 13-C , 14-H ) :   1.0699 B( 13-C , 15-H ) :   1.0593
B( 13-C , 16-H ) :   1.0671 B( 13-C , 17-C ) :   0.1629 B( 13-C , 21-C ) :   0.1179
B( 13-C , 25-C ) :   0.1314 B( 17-C , 18-H ) :   1.0997 B( 17-C , 19-H ) :   1.0568
B( 17-C , 20-H ) :   1.0584 B( 17-C , 21-C ) :   0.1137 B( 17-C , 25-C ) :   0.1356
B( 21-C , 22-H ) :   0.9208 B( 21-C , 23-H ) :   1.0265 B( 21-C , 24-H ) :   0.9168
B( 21-C , 25-C ) :   0.1796 B( 25-C , 26-H ) :   0.8581 B( 25-C , 27-H ) :   0.9684
B( 25-C , 28-H ) :   1.1659

MP2 TOTAL ENERGY:     -611.624179611 Eh
FINAL SINGLE POINT ENERGY      -611.624179611404

DIPOLE MOMENT
-------------
                                X             Y             Z
Electronic contribution:      7.96983      -1.43445     -21.55103
Nuclear contribution   :     -7.11888       3.13572      21.34045
                        -----------------------------------------
Total Dipole Moment    :      0.85094       1.70127      -0.21059
                        -----------------------------------------
Magnitude (a.u.)       :      1.91384
Magnitude (Debye)      :      4.86459

Rotational constants in cm-1:     0.035120     0.015582     0.013876
Rotational constants in MHz :  1052.883781   467.128428   416.000411

                             ****ORCA TERMINATED NORMALLY****
TOTAL RUN TIME: 0 days 15 hours 23 minutes 42 seconds 516 msec
