                         Program Version 5.0.4 -  RELEASE  -
|  1> ! ri-mp2 aug-cc-pvdz aug-cc-pvdz/c tightscf
|  2> %pal nprocs 16 end
|  3> %maxcore 3800
|  4> %base "DZ_S66by10_32_0.95_dimer"
|  5> %scf STABPerform true end
|  6>
|  7> *xyz 0 1
|  8> N   -0.05545357   -0.94799090    0.01001028
|  9> H   -0.05731609   -1.95771330    0.05505287
| 10> C   -1.31395971   -0.33514498   -0.06458622
| 11> O   -2.32889664   -1.00790087   -0.12310273
| 12> C   -1.24835877    1.11605191   -0.06650860
| 13> H   -2.16434937    1.67533298   -0.14710244
| 14> C   -0.05308010    1.73142748    0.03419541
| 15> H    0.04811054    2.80642986    0.04341968
| 16> N    1.11592628    1.02759107    0.13516893
| 17> H    1.99665515    1.49727976    0.26162029
| 18> C    1.17534700   -0.35380470    0.17616616
| 19> O    2.21463146   -0.96646542    0.33517250
| 20> C    0.70032947   -0.17335017    3.13569750
| 21> H    1.69614774   -0.52733602    3.02147877
| 22> C   -0.44427462    0.21310751    3.24188935
| 23> H   -1.44915717    0.54180786    3.34225351
| 24> *
| 25>
| 26> $new_job
| 27> ! ri-mp2 aug-cc-pvtz aug-cc-pvtz/c tightscf
| 28> %pal nprocs 16 end
| 29> %maxcore 3800
| 30> %base "TZ_S66by10_32_0.95_dimer"
| 31>
| 32> *xyz 0 1
| 33> N   -0.05545357   -0.94799090    0.01001028
| 34> H   -0.05731609   -1.95771330    0.05505287
| 35> C   -1.31395971   -0.33514498   -0.06458622
| 36> O   -2.32889664   -1.00790087   -0.12310273
| 37> C   -1.24835877    1.11605191   -0.06650860
| 38> H   -2.16434937    1.67533298   -0.14710244
| 39> C   -0.05308010    1.73142748    0.03419541
| 40> H    0.04811054    2.80642986    0.04341968
| 41> N    1.11592628    1.02759107    0.13516893
| 42> H    1.99665515    1.49727976    0.26162029
| 43> C    1.17534700   -0.35380470    0.17616616
| 44> O    2.21463146   -0.96646542    0.33517250
| 45> C    0.70032947   -0.17335017    3.13569750
| 46> H    1.69614774   -0.52733602    3.02147877
| 47> C   -0.44427462    0.21310751    3.24188935
| 48> H   -1.44915717    0.54180786    3.34225351
| 49> *
| 50>
| 51> $new_job
| 52> ! ri-mp2 aug-cc-pvqz aug-cc-pvqz/c tightscf
| 53> %pal nprocs 16 end
| 54> %maxcore 3800
| 55> %base "QZ_S66by10_32_0.95_dimer"
| 56>
| 57> *xyz 0 1
| 58> N   -0.05545357   -0.94799090    0.01001028
| 59> H   -0.05731609   -1.95771330    0.05505287
| 60> C   -1.31395971   -0.33514498   -0.06458622
| 61> O   -2.32889664   -1.00790087   -0.12310273
| 62> C   -1.24835877    1.11605191   -0.06650860
| 63> H   -2.16434937    1.67533298   -0.14710244
| 64> C   -0.05308010    1.73142748    0.03419541
| 65> H    0.04811054    2.80642986    0.04341968
| 66> N    1.11592628    1.02759107    0.13516893
| 67> H    1.99665515    1.49727976    0.26162029
| 68> C    1.17534700   -0.35380470    0.17616616
| 69> O    2.21463146   -0.96646542    0.33517250
| 70> C    0.70032947   -0.17335017    3.13569750
| 71> H    1.69614774   -0.52733602    3.02147877
| 72> C   -0.44427462    0.21310751    3.24188935
| 73> H   -1.44915717    0.54180786    3.34225351
| 74> *
| 75>
| 76>
| 77>
| 78>
| 79>                          ****END OF INPUT****
 Total Charge           Charge          ....    0
 Multiplicity           Mult            ....    1
 Number of Electrons    NEL             ....   72
MP2 TOTAL ENERGY:     -490.878901783 Eh
FINAL SINGLE POINT ENERGY      -490.878901783177
MP2 TOTAL ENERGY:     -491.297360709 Eh
FINAL SINGLE POINT ENERGY      -491.297360709138

CARTESIAN COORDINATES (ANGSTROEM)
---------------------------------
  N     -0.055454   -0.947991    0.010010
  H     -0.057316   -1.957713    0.055053
  C     -1.313960   -0.335145   -0.064586
  O     -2.328897   -1.007901   -0.123103
  C     -1.248359    1.116052   -0.066509
  H     -2.164349    1.675333   -0.147102
  C     -0.053080    1.731427    0.034195
  H      0.048111    2.806430    0.043420
  N      1.115926    1.027591    0.135169
  H      1.996655    1.497280    0.261620
  C      1.175347   -0.353805    0.176166
  O      2.214631   -0.966465    0.335172
  C      0.700329   -0.173350    3.135698
  H      1.696148   -0.527336    3.021479
  C     -0.444275    0.213108    3.241889
  H     -1.449157    0.541808    3.342254

 Multiplicity           Mult            ....    1
 Number of Electrons    NEL             ....   72
 Basis Dimension        Dim             .... 1076

ORBITAL ENERGIES
----------------

  NO   OCC          E(Eh)            E(eV)
   0   2.0000     -20.543538      -559.0181
   1   2.0000     -20.536759      -558.8336
   2   2.0000     -15.638929      -425.5569
   3   2.0000     -15.620863      -425.0653
   4   2.0000     -11.415970      -310.6443
   5   2.0000     -11.376837      -309.5795
   6   2.0000     -11.336334      -308.4773
   7   2.0000     -11.251164      -306.1597
   8   2.0000     -11.248910      -306.0984
   9   2.0000     -11.245177      -305.9968
  10   2.0000      -1.434283       -39.0288
  11   2.0000      -1.395296       -37.9679
  12   2.0000      -1.310635       -35.6642
  13   2.0000      -1.242587       -33.8125
  14   2.0000      -1.085219       -29.5303
  15   2.0000      -1.033701       -28.1284
  16   2.0000      -0.930606       -25.3231
  17   2.0000      -0.898618       -24.4526
  18   2.0000      -0.804374       -21.8881
  19   2.0000      -0.773784       -21.0557
  20   2.0000      -0.762746       -20.7554
  21   2.0000      -0.711512       -19.3612
  22   2.0000      -0.687225       -18.7003
  23   2.0000      -0.675866       -18.3913
  24   2.0000      -0.665181       -18.1005
  25   2.0000      -0.651489       -17.7279
  26   2.0000      -0.612867       -16.6770
  27   2.0000      -0.599518       -16.3137
  28   2.0000      -0.568485       -15.4693
  29   2.0000      -0.524643       -14.2763
  30   2.0000      -0.483218       -13.1490
  31   2.0000      -0.447772       -12.1845
  32   2.0000      -0.437071       -11.8933
  33   2.0000      -0.414178       -11.2704
  34   2.0000      -0.412717       -11.2306
  35   2.0000      -0.366524        -9.9736
  36   0.0000       0.013570         0.3693
  37   0.0000       0.027261         0.7418
  38   0.0000       0.034246         0.9319
  39   0.0000       0.037485         1.0200
  40   0.0000       0.043493         1.1835

MULLIKEN ATOMIC CHARGES
-----------------------
   0 N :   -0.690287
   1 H :    0.084393
   2 C :    1.269857
   3 O :   -0.864535
   4 C :   -0.508995
   5 H :    0.258049
   6 C :   -0.118619
   7 H :    0.431295
   8 N :   -0.619293
   9 H :    0.082804
  10 C :    1.573429
  11 O :   -0.866005
  12 C :   -0.531088
  13 H :    0.537190
  14 C :   -0.567377
  15 H :    0.529183
Sum of atomic charges:   -0.0000000

LOEWDIN ATOMIC CHARGES
----------------------
   0 N :    0.769488
   1 H :   -0.513944
   2 C :   -0.888503
   3 O :    0.687696
   4 C :    0.313549
   5 H :   -0.351152
   6 C :    0.218712
   7 H :   -0.293075
   8 N :    0.801668
   9 H :   -0.487295
  10 C :   -1.058908
  11 O :    0.701400
  12 C :    0.488109
  13 H :   -0.454831
  14 C :    0.511030
  15 H :   -0.443942

  Mayer bond orders larger than 0.100000
B(  0-N ,  1-H ) :   1.1710 B(  0-N ,  2-C ) :   0.9943 B(  0-N ,  3-O ) :   0.2126
B(  0-N , 10-C ) :   1.0189 B(  0-N , 11-O ) :   0.2103 B(  2-C ,  3-O ) :   0.9607
B(  2-C ,  4-C ) :   1.1320 B(  3-O ,  4-C ) :   0.2632 B(  4-C ,  5-H ) :   1.0425
B(  4-C ,  6-C ) :   1.4804 B(  6-C ,  7-H ) :   0.9057 B(  6-C ,  8-N ) :   0.9047
B(  8-N ,  9-H ) :   1.1676 B(  8-N , 10-C ) :   1.0936 B(  8-N , 11-O ) :   0.1980
B( 10-C , 11-O ) :   1.0078 B( 12-C , 13-H ) :   0.7219 B( 12-C , 14-C ) :   2.5640
B( 14-C , 15-H ) :   0.7412

MP2 TOTAL ENERGY:     -491.433689942 Eh
FINAL SINGLE POINT ENERGY      -491.433689942245

DIPOLE MOMENT
-------------
                                X             Y             Z
Electronic contribution:      0.38600      -1.89085      -2.43701
Nuclear contribution   :      0.11606       3.75758       2.49588
                        -----------------------------------------
Total Dipole Moment    :      0.50207       1.86673       0.05887
                        -----------------------------------------
Magnitude (a.u.)       :      1.93397
Magnitude (Debye)      :      4.91576

Rotational constants in cm-1:     0.052133     0.041266     0.035836
Rotational constants in MHz :  1562.909462  1237.126493  1074.336610

                             ****ORCA TERMINATED NORMALLY****
TOTAL RUN TIME: 0 days 3 hours 3 minutes 14 seconds 685 msec
