                         Program Version 5.0.4 -  RELEASE  -
|  1> ! ri-mp2 aug-cc-pvdz aug-cc-pvdz/c tightscf
|  2> %pal nprocs 16 end
|  3> %maxcore 3800
|  4> %base "DZ_S66by10_30_1.25_dimer"
|  5>
|  6> *xyz 0 1
|  7> C    0.83551718    1.11516693    0.02140131
|  8> H    1.48432398    1.98060858    0.01953430
|  9> C    1.38327497   -0.16614721    0.02376531
| 10> H    2.45714902   -0.29520468    0.02277108
| 11> C    0.54755466   -1.28131632    0.02168563
| 12> H    0.97293610   -2.27580453    0.01977853
| 13> C   -0.83552313   -1.11516159    0.02139907
| 14> H   -1.48433419   -1.98060639    0.01953009
| 15> C   -1.38328358    0.16615413    0.02375775
| 16> H   -2.45715618    0.29520906    0.02275707
| 17> C   -0.54756577    1.28132347    0.02168025
| 18> H   -0.97294284    2.27580548    0.01976873
| 19> C    0.65578211   -0.11679100    4.33474928
| 20> H    1.04724288   -1.12390982    4.33028101
| 21> H    1.37085589    0.69327298    4.33024769
| 22> C   -0.65577441    0.11679163    4.33475817
| 23> H   -1.37084636   -0.69327288    4.33026208
| 24> H   -1.04723752    1.12391053    4.33029997
| 25> *
| 26>
| 27> $new_job
| 28> ! ri-mp2 aug-cc-pvtz aug-cc-pvtz/c tightscf
| 29> %pal nprocs 16 end
| 30> %maxcore 3800
| 31> %base "TZ_S66by10_30_1.25_dimer"
| 32>
| 33> *xyz 0 1
| 34> C    0.83551718    1.11516693    0.02140131
| 35> H    1.48432398    1.98060858    0.01953430
| 36> C    1.38327497   -0.16614721    0.02376531
| 37> H    2.45714902   -0.29520468    0.02277108
| 38> C    0.54755466   -1.28131632    0.02168563
| 39> H    0.97293610   -2.27580453    0.01977853
| 40> C   -0.83552313   -1.11516159    0.02139907
| 41> H   -1.48433419   -1.98060639    0.01953009
| 42> C   -1.38328358    0.16615413    0.02375775
| 43> H   -2.45715618    0.29520906    0.02275707
| 44> C   -0.54756577    1.28132347    0.02168025
| 45> H   -0.97294284    2.27580548    0.01976873
| 46> C    0.65578211   -0.11679100    4.33474928
| 47> H    1.04724288   -1.12390982    4.33028101
| 48> H    1.37085589    0.69327298    4.33024769
| 49> C   -0.65577441    0.11679163    4.33475817
| 50> H   -1.37084636   -0.69327288    4.33026208
| 51> H   -1.04723752    1.12391053    4.33029997
| 52> *
| 53>
| 54> $new_job
| 55> ! ri-mp2 aug-cc-pvqz aug-cc-pvqz/c tightscf
| 56> %pal nprocs 16 end
| 57> %maxcore 3800
| 58> %base "QZ_S66by10_30_1.25_dimer"
| 59>
| 60> *xyz 0 1
| 61> C    0.83551718    1.11516693    0.02140131
| 62> H    1.48432398    1.98060858    0.01953430
| 63> C    1.38327497   -0.16614721    0.02376531
| 64> H    2.45714902   -0.29520468    0.02277108
| 65> C    0.54755466   -1.28131632    0.02168563
| 66> H    0.97293610   -2.27580453    0.01977853
| 67> C   -0.83552313   -1.11516159    0.02139907
| 68> H   -1.48433419   -1.98060639    0.01953009
| 69> C   -1.38328358    0.16615413    0.02375775
| 70> H   -2.45715618    0.29520906    0.02275707
| 71> C   -0.54756577    1.28132347    0.02168025
| 72> H   -0.97294284    2.27580548    0.01976873
| 73> C    0.65578211   -0.11679100    4.33474928
| 74> H    1.04724288   -1.12390982    4.33028101
| 75> H    1.37085589    0.69327298    4.33024769
| 76> C   -0.65577441    0.11679163    4.33475817
| 77> H   -1.37084636   -0.69327288    4.33026208
| 78> H   -1.04723752    1.12391053    4.33029997
| 79> *
| 80>
| 81>
| 82>
| 83>
| 84>                          ****END OF INPUT****
 Total Charge           Charge          ....    0
 Multiplicity           Mult            ....    1
 Number of Electrons    NEL             ....   58
MP2 TOTAL ENERGY:     -309.868875324 Eh
FINAL SINGLE POINT ENERGY      -309.868875323957
MP2 TOTAL ENERGY:     -310.151054039 Eh
FINAL SINGLE POINT ENERGY      -310.151054039087

CARTESIAN COORDINATES (ANGSTROEM)
---------------------------------
  C      0.835517    1.115167    0.021401
  H      1.484324    1.980609    0.019534
  C      1.383275   -0.166147    0.023765
  H      2.457149   -0.295205    0.022771
  C      0.547555   -1.281316    0.021686
  H      0.972936   -2.275805    0.019779
  C     -0.835523   -1.115162    0.021399
  H     -1.484334   -1.980606    0.019530
  C     -1.383284    0.166154    0.023758
  H     -2.457156    0.295209    0.022757
  C     -0.547566    1.281323    0.021680
  H     -0.972943    2.275805    0.019769
  C      0.655782   -0.116791    4.334749
  H      1.047243   -1.123910    4.330281
  H      1.370856    0.693273    4.330248
  C     -0.655774    0.116792    4.334758
  H     -1.370846   -0.693273    4.330262
  H     -1.047238    1.123911    4.330300

 Multiplicity           Mult            ....    1
 Number of Electrons    NEL             ....   58
 Basis Dimension        Dim             .... 1100

ORBITAL ENERGIES
----------------

  NO   OCC          E(Eh)            E(eV)
   0   2.0000     -11.233081      -305.6677
   1   2.0000     -11.232528      -305.6526
   2   2.0000     -11.232476      -305.6512
   3   2.0000     -11.231280      -305.6187
   4   2.0000     -11.231226      -305.6172
   5   2.0000     -11.230641      -305.6013
   6   2.0000     -11.223053      -305.3948
   7   2.0000     -11.221325      -305.3478
   8   2.0000      -1.148130       -31.2422
   9   2.0000      -1.027405       -27.9571
  10   2.0000      -1.012656       -27.5558
  11   2.0000      -1.012486       -27.5511
  12   2.0000      -0.822180       -22.3727
  13   2.0000      -0.822062       -22.3694
  14   2.0000      -0.786731       -21.4081
  15   2.0000      -0.707920       -19.2635
  16   2.0000      -0.642260       -17.4768
  17   2.0000      -0.638275       -17.3684
  18   2.0000      -0.617375       -16.7996
  19   2.0000      -0.586332       -15.9549
  20   2.0000      -0.586188       -15.9510
  21   2.0000      -0.581138       -15.8136
  22   2.0000      -0.502197       -13.6655
  23   2.0000      -0.500548       -13.6206
  24   2.0000      -0.493196       -13.4205
  25   2.0000      -0.493062       -13.4169
  26   2.0000      -0.369624       -10.0580
  27   2.0000      -0.334829        -9.1112
  28   2.0000      -0.334685        -9.1072
  29   0.0000       0.025883         0.7043
  30   0.0000       0.028929         0.7872
  31   0.0000       0.029339         0.7983
  32   0.0000       0.039962         1.0874
  33   0.0000       0.041318         1.1243

MULLIKEN ATOMIC CHARGES
-----------------------
   0 C :   -0.341509
   1 H :    0.338009
   2 C :   -0.317748
   3 H :    0.323135
   4 C :   -0.338495
   5 H :    0.335193
   6 C :   -0.341501
   7 H :    0.338008
   8 C :   -0.317746
   9 H :    0.323134
  10 C :   -0.338498
  11 H :    0.335211
  12 C :   -0.927432
  13 H :    0.466285
  14 H :    0.462551
  15 C :   -0.927431
  16 H :    0.462550
  17 H :    0.466285
Sum of atomic charges:   -0.0000000

LOEWDIN ATOMIC CHARGES
----------------------
   0 C :    0.323520
   1 H :   -0.326294
   2 C :    0.323290
   3 H :   -0.326301
   4 C :    0.323505
   5 H :   -0.326285
   6 C :    0.323516
   7 H :   -0.326288
   8 C :    0.323292
   9 H :   -0.326303
  10 C :    0.323512
  11 H :   -0.326293
  12 C :    0.749445
  13 H :   -0.370423
  14 H :   -0.370458
  15 C :    0.749445
  16 H :   -0.370459
  17 H :   -0.370422

  Mayer bond orders larger than 0.100000
B(  0-C ,  1-H ) :   0.9960 B(  0-C ,  2-C ) :   1.2305 B(  0-C ,  6-C ) :   0.1351
B(  0-C , 10-C ) :   1.2412 B(  2-C ,  3-H ) :   1.0204 B(  2-C ,  4-C ) :   1.2236
B(  2-C ,  8-C ) :   0.1406 B(  4-C ,  5-H ) :   0.9991 B(  4-C ,  6-C ) :   1.2412
B(  4-C , 10-C ) :   0.1327 B(  6-C ,  7-H ) :   0.9960 B(  6-C ,  8-C ) :   1.2305
B(  8-C ,  9-H ) :   1.0204 B(  8-C , 10-C ) :   1.2236 B( 10-C , 11-H ) :   0.9991
B( 12-C , 13-H ) :   0.7679 B( 12-C , 14-H ) :   0.7737 B( 12-C , 15-C ) :   2.0385
B( 15-C , 16-H ) :   0.7737 B( 15-C , 17-H ) :   0.7679

MP2 TOTAL ENERGY:     -310.239238295 Eh
FINAL SINGLE POINT ENERGY      -310.239238294916

DIPOLE MOMENT
-------------
                                X             Y             Z
Electronic contribution:     -0.00001       0.00002      -5.49682
Nuclear contribution   :      0.00001      -0.00001       5.46927
                        -----------------------------------------
Total Dipole Moment    :     -0.00000       0.00000      -0.02756
                        -----------------------------------------
Magnitude (a.u.)       :      0.02756
Magnitude (Debye)      :      0.07004

Rotational constants in cm-1:     0.085514     0.035437     0.034476
Rotational constants in MHz :  2563.643555  1062.362604  1033.553514

                             ****ORCA TERMINATED NORMALLY****
TOTAL RUN TIME: 0 days 0 hours 25 minutes 39 seconds 937 msec
