                         Program Version 5.0.4 -  RELEASE  -
|  1> ! ri-mp2 aug-cc-pvdz aug-cc-pvdz/c tightscf
|  2> %pal nprocs 16 end
|  3> %maxcore 3800
|  4> %base "DZ_S66by10_48_0.7_dimer"
|  5>
|  6> *xyz 0 1
|  7> N    1.32276272   -0.01037598    1.01918373
|  8> C    0.65128601   -1.14899203    0.79680119
|  9> H    1.20041842   -2.06552808    0.97367282
| 10> C   -0.67268130   -1.19471172    0.36665693
| 11> H   -1.15719362   -2.14732141    0.20646407
| 12> C   -1.34719675    0.00313399    0.15214401
| 13> H   -2.37535653    0.00840542   -0.18229302
| 14> C   -0.66455797    1.19409062    0.37900199
| 15> H   -1.14262633    2.15155765    0.22872051
| 16> C    0.65889576    1.13497854    0.80885987
| 17> H    1.21410272    2.04591045    0.99543831
| 18> N    0.70462467    0.00634756    5.91955723
| 19> C    1.57529268    0.00073477    4.90014420
| 20> H    2.62314926    0.00198330    5.17444699
| 21> C    1.20190695   -0.00633299    3.55831613
| 22> H    1.94936761   -0.01049701    2.77721648
| 23> C   -0.15414161   -0.00774705    3.24590066
| 24> H   -0.48387029   -0.01320253    2.21561922
| 25> C   -1.07224487   -0.00203197    4.29107028
| 26> H   -2.13669491   -0.00288136    4.10233449
| 27> C   -0.59664107    0.00488569    5.60002913
| 28> H   -1.28882473    0.00946882    6.43322033
| 29> *
| 30>
| 31> $new_job
| 32> ! ri-mp2 aug-cc-pvtz aug-cc-pvtz/c tightscf
| 33> %pal nprocs 16 end
| 34> %maxcore 3800
| 35> %base "TZ_S66by10_48_0.7_dimer"
| 36>
| 37> *xyz 0 1
| 38> N    1.32276272   -0.01037598    1.01918373
| 39> C    0.65128601   -1.14899203    0.79680119
| 40> H    1.20041842   -2.06552808    0.97367282
| 41> C   -0.67268130   -1.19471172    0.36665693
| 42> H   -1.15719362   -2.14732141    0.20646407
| 43> C   -1.34719675    0.00313399    0.15214401
| 44> H   -2.37535653    0.00840542   -0.18229302
| 45> C   -0.66455797    1.19409062    0.37900199
| 46> H   -1.14262633    2.15155765    0.22872051
| 47> C    0.65889576    1.13497854    0.80885987
| 48> H    1.21410272    2.04591045    0.99543831
| 49> N    0.70462467    0.00634756    5.91955723
| 50> C    1.57529268    0.00073477    4.90014420
| 51> H    2.62314926    0.00198330    5.17444699
| 52> C    1.20190695   -0.00633299    3.55831613
| 53> H    1.94936761   -0.01049701    2.77721648
| 54> C   -0.15414161   -0.00774705    3.24590066
| 55> H   -0.48387029   -0.01320253    2.21561922
| 56> C   -1.07224487   -0.00203197    4.29107028
| 57> H   -2.13669491   -0.00288136    4.10233449
| 58> C   -0.59664107    0.00488569    5.60002913
| 59> H   -1.28882473    0.00946882    6.43322033
| 60> *
| 61>
| 62> $new_job
| 63> ! ri-mp2 aug-cc-pvqz aug-cc-pvqz/c tightscf
| 64> %pal nprocs 16 end
| 65> %maxcore 3800
| 66> %base "QZ_S66by10_48_0.7_dimer"
| 67>
| 68> *xyz 0 1
| 69> N    1.32276272   -0.01037598    1.01918373
| 70> C    0.65128601   -1.14899203    0.79680119
| 71> H    1.20041842   -2.06552808    0.97367282
| 72> C   -0.67268130   -1.19471172    0.36665693
| 73> H   -1.15719362   -2.14732141    0.20646407
| 74> C   -1.34719675    0.00313399    0.15214401
| 75> H   -2.37535653    0.00840542   -0.18229302
| 76> C   -0.66455797    1.19409062    0.37900199
| 77> H   -1.14262633    2.15155765    0.22872051
| 78> C    0.65889576    1.13497854    0.80885987
| 79> H    1.21410272    2.04591045    0.99543831
| 80> N    0.70462467    0.00634756    5.91955723
| 81> C    1.57529268    0.00073477    4.90014420
| 82> H    2.62314926    0.00198330    5.17444699
| 83> C    1.20190695   -0.00633299    3.55831613
| 84> H    1.94936761   -0.01049701    2.77721648
| 85> C   -0.15414161   -0.00774705    3.24590066
| 86> H   -0.48387029   -0.01320253    2.21561922
| 87> C   -1.07224487   -0.00203197    4.29107028
| 88> H   -2.13669491   -0.00288136    4.10233449
| 89> C   -0.59664107    0.00488569    5.60002913
| 90> H   -1.28882473    0.00946882    6.43322033
| 91> *
| 92>
| 93>
| 94>
| 95>
| 96>                          ****END OF INPUT****
 Total Charge           Charge          ....    0
 Multiplicity           Mult            ....    1
 Number of Electrons    NEL             ....   84
MP2 TOTAL ENERGY:     -495.109091163 Eh
FINAL SINGLE POINT ENERGY      -495.109091163316
MP2 TOTAL ENERGY:     -495.536495089 Eh
FINAL SINGLE POINT ENERGY      -495.536495088559

CARTESIAN COORDINATES (ANGSTROEM)
---------------------------------
  N      1.322763   -0.010376    1.019184
  C      0.651286   -1.148992    0.796801
  H      1.200418   -2.065528    0.973673
  C     -0.672681   -1.194712    0.366657
  H     -1.157194   -2.147321    0.206464
  C     -1.347197    0.003134    0.152144
  H     -2.375357    0.008405   -0.182293
  C     -0.664558    1.194091    0.379002
  H     -1.142626    2.151558    0.228721
  C      0.658896    1.134979    0.808860
  H      1.214103    2.045910    0.995438
  N      0.704625    0.006348    5.919557
  C      1.575293    0.000735    4.900144
  H      2.623149    0.001983    5.174447
  C      1.201907   -0.006333    3.558316
  H      1.949368   -0.010497    2.777216
  C     -0.154142   -0.007747    3.245901
  H     -0.483870   -0.013203    2.215619
  C     -1.072245   -0.002032    4.291070
  H     -2.136695   -0.002881    4.102334
  C     -0.596641    0.004886    5.600029
  H     -1.288825    0.009469    6.433220

 Multiplicity           Mult            ....    1
 Number of Electrons    NEL             ....   84
 Basis Dimension        Dim             .... 1420

ORBITAL ENERGIES
----------------

  NO   OCC          E(Eh)            E(eV)
   0   2.0000     -15.575391      -423.8279
   1   2.0000     -15.548057      -423.0841
   2   2.0000     -11.288274      -307.1695
   3   2.0000     -11.288222      -307.1681
   4   2.0000     -11.272232      -306.7330
   5   2.0000     -11.259218      -306.3789
   6   2.0000     -11.255910      -306.2889
   7   2.0000     -11.255403      -306.2751
   8   2.0000     -11.255321      -306.2729
   9   2.0000     -11.233109      -305.6684
  10   2.0000     -11.224062      -305.4223
  11   2.0000     -11.210450      -305.0518
  12   2.0000      -1.279637       -34.8207
  13   2.0000      -1.239287       -33.7227
  14   2.0000      -1.107866       -30.1466
  15   2.0000      -1.071734       -29.1634
  16   2.0000      -1.050311       -28.5804
  17   2.0000      -1.015755       -27.6401
  18   2.0000      -0.875930       -23.8353
  19   2.0000      -0.871695       -23.7200
  20   2.0000      -0.845573       -23.0092
  21   2.0000      -0.839683       -22.8489
  22   2.0000      -0.741255       -20.1706
  23   2.0000      -0.716187       -19.4884
  24   2.0000      -0.675806       -18.3896
  25   2.0000      -0.669366       -18.2144
  26   2.0000      -0.646934       -17.6040
  27   2.0000      -0.641733       -17.4625
  28   2.0000      -0.613991       -16.7075
  29   2.0000      -0.597607       -16.2617
  30   2.0000      -0.596333       -16.2270
  31   2.0000      -0.573784       -15.6135
  32   2.0000      -0.534430       -14.5426
  33   2.0000      -0.525831       -14.3086
  34   2.0000      -0.505953       -13.7677
  35   2.0000      -0.500561       -13.6210
  36   2.0000      -0.432791       -11.7768
  37   2.0000      -0.411889       -11.2081
  38   2.0000      -0.389020       -10.5858
  39   2.0000      -0.387150       -10.5349
  40   2.0000      -0.346230        -9.4214
  41   2.0000      -0.329833        -8.9752
  42   0.0000       0.016680         0.4539
  43   0.0000       0.025969         0.7067
  44   0.0000       0.028075         0.7640
  45   0.0000       0.031464         0.8562
  46   0.0000       0.038946         1.0598

MULLIKEN ATOMIC CHARGES
-----------------------
   0 N :   -0.698110
   1 C :   -0.028137
   2 H :    0.438851
   3 C :   -0.505714
   4 H :    0.237137
   5 C :   -0.238406
   6 H :    0.330078
   7 C :   -0.511535
   8 H :    0.235984
   9 C :   -0.017307
  10 H :    0.440856
  11 N :   -0.797893
  12 C :   -0.206769
  13 H :    0.454132
  14 C :   -0.665201
  15 H :    0.255493
  16 C :    0.210197
  17 H :    1.476423
  18 C :   -0.869344
  19 H :    0.206974
  20 C :   -0.204669
  21 H :    0.456961
Sum of atomic charges:   -0.0000000

LOEWDIN ATOMIC CHARGES
----------------------
   0 N :    0.599567
   1 C :    0.111504
   2 H :   -0.304295
   3 C :    0.367482
   4 H :   -0.304153
   5 C :    0.364844
   6 H :   -0.295356
   7 C :    0.367395
   8 H :   -0.304029
   9 C :    0.110072
  10 H :   -0.303955
  11 N :    0.586554
  12 C :    0.104131
  13 H :   -0.353907
  14 C :    0.328840
  15 H :   -0.499066
  16 C :    0.294800
  17 H :   -0.632267
  18 C :    0.373920
  19 H :   -0.323229
  20 C :    0.071172
  21 H :   -0.360027

  Mayer bond orders larger than 0.100000
B(  0-N ,  1-C ) :   1.1434 B(  0-N ,  2-H ) :  -0.1864 B(  0-N ,  9-C ) :   1.1384
B(  0-N , 10-H ) :  -0.1863 B(  0-N , 17-H ) :  -0.1952 B(  1-C ,  2-H ) :   0.9157
B(  1-C ,  3-C ) :   1.2555 B(  1-C ,  7-C ) :   0.1148 B(  1-C , 17-H ) :  -0.1262
B(  3-C ,  4-H ) :   1.1037 B(  3-C ,  5-C ) :   1.3019 B(  3-C ,  9-C ) :   0.1135
B(  3-C , 17-H ) :  -0.1984 B(  5-C ,  6-H ) :   1.0079 B(  5-C ,  7-C ) :   1.3033
B(  5-C , 17-H ) :  -0.2742 B(  7-C ,  8-H ) :   1.1041 B(  7-C ,  9-C ) :   1.2546
B(  7-C , 17-H ) :  -0.1939 B(  9-C , 10-H ) :   0.9134 B(  9-C , 17-H ) :  -0.1199
B( 11-N , 12-C ) :   1.0747 B( 11-N , 13-H ) :  -0.1378 B( 11-N , 14-C ) :   0.1154
B( 11-N , 16-C ) :  -0.1070 B( 11-N , 18-C ) :   0.1112 B( 11-N , 20-C ) :   1.1181
B( 11-N , 21-H ) :  -0.1493 B( 12-C , 13-H ) :   0.9366 B( 12-C , 14-C ) :   1.2427
B( 12-C , 16-C ) :  -0.3872 B( 12-C , 18-C ) :   0.1899 B( 12-C , 20-C ) :   0.1168
B( 13-H , 14-C ) :  -0.1652 B( 14-C , 15-H ) :   1.0360 B( 14-C , 16-C ) :   1.1553
B( 14-C , 17-H ) :  -0.3808 B( 16-C , 18-C ) :   0.7594 B( 16-C , 20-C ) :  -0.4730
B( 17-H , 18-C ) :  -0.1897 B( 18-C , 19-H ) :   1.1084 B( 18-C , 20-C ) :   1.4604
B( 18-C , 21-H ) :  -0.1625 B( 20-C , 21-H ) :   0.9295

MP2 TOTAL ENERGY:     -495.672255319 Eh
FINAL SINGLE POINT ENERGY      -495.672255319258

DIPOLE MOMENT
-------------
                                X             Y             Z
Electronic contribution:      1.74536       0.00009       1.20621
Nuclear contribution   :     -2.77843      -0.00040      -2.78172
                        -----------------------------------------
Total Dipole Moment    :     -1.03308      -0.00032      -1.57550
                        -----------------------------------------
Magnitude (a.u.)       :      1.88400
Magnitude (Debye)      :      4.78875

Rotational constants in cm-1:     0.070232     0.020538     0.018857
Rotational constants in MHz :  2105.514959   615.711889   565.322961

                             ****ORCA TERMINATED NORMALLY****
TOTAL RUN TIME: 0 days 1 hours 30 minutes 29 seconds 35 msec
