                         Program Version 5.0.4 -  RELEASE  -
|  1> ! ri-mp2 aug-cc-pvdz aug-cc-pvdz/c tightscf
|  2> %pal nprocs 16 end
|  3> %maxcore 3800
|  4> %base "DZ_S66by10_34_1.25_dimer"
|  5> %scf STABPerform true end
|  6>
|  7> *xyz 0 1
|  8> C   -2.53330865   -0.29487907    0.71314876
|  9> H   -2.56362682   -0.97708181   -0.13642264
| 10> H   -2.56697835   -0.89587590    1.62173177
| 11> H   -3.43442611    0.31595713    0.68410447
| 12> C   -1.27188487    0.55765547    0.67435468
| 13> H   -1.27102630    1.25656571    1.51431940
| 14> H   -1.26663255    1.16789581   -0.23182653
| 15> C   -0.00013504   -0.27841822    0.71960315
| 16> H   -0.00015938   -0.88722952    1.62863709
| 17> H   -0.00036543   -0.98071418   -0.11940439
| 18> C    1.27189476    0.55738219    0.67406108
| 19> H    1.27097175    1.25663331    1.51370541
| 20> H    1.26663649    1.16718250   -0.23238692
| 21> C    2.53340376   -0.29494176    0.71328015
| 22> H    2.56391919   -0.97777410   -0.13577836
| 23> H    3.43430956    0.31625432    0.68359945
| 24> H    2.56755821   -0.89520887    1.62232865
| 25> C    2.53355495    0.28027097    5.23714797
| 26> H    2.56813944    0.88007767    4.32782242
| 27> H    2.56405826    0.96347755    6.08589279
| 28> H    3.43423564   -0.33122634    5.26735691
| 29> C    1.27172875   -0.57161630    5.27645222
| 30> H    1.26628504   -1.18134401    6.18294918
| 31> H    1.27059824   -1.27097005    4.43687116
| 32> C   -0.00004624    0.26448280    5.23083578
| 33> H   -0.00020117    0.96679278    6.06982026
| 34> H    0.00003065    0.87325922    4.32176615
| 35> C   -1.27180708   -0.57165918    5.27610732
| 36> H   -1.26642484   -1.18176863    6.18235742
| 37> H   -1.27070074   -1.27068207    4.43624367
| 38> C   -2.53352631    0.28038713    5.23712961
| 39> H   -2.56771961    0.88092080    4.32825286
| 40> H   -3.43432829   -0.33091123    5.26664280
| 41> H   -2.56406584    0.96297337    6.08639101
| 42> *
| 43>
| 44> $new_job
| 45> ! ri-mp2 aug-cc-pvtz aug-cc-pvtz/c tightscf
| 46> %pal nprocs 16 end
| 47> %maxcore 3800
| 48> %base "TZ_S66by10_34_1.25_dimer"
| 49>
| 50> *xyz 0 1
| 51> C   -2.53330865   -0.29487907    0.71314876
| 52> H   -2.56362682   -0.97708181   -0.13642264
| 53> H   -2.56697835   -0.89587590    1.62173177
| 54> H   -3.43442611    0.31595713    0.68410447
| 55> C   -1.27188487    0.55765547    0.67435468
| 56> H   -1.27102630    1.25656571    1.51431940
| 57> H   -1.26663255    1.16789581   -0.23182653
| 58> C   -0.00013504   -0.27841822    0.71960315
| 59> H   -0.00015938   -0.88722952    1.62863709
| 60> H   -0.00036543   -0.98071418   -0.11940439
| 61> C    1.27189476    0.55738219    0.67406108
| 62> H    1.27097175    1.25663331    1.51370541
| 63> H    1.26663649    1.16718250   -0.23238692
| 64> C    2.53340376   -0.29494176    0.71328015
| 65> H    2.56391919   -0.97777410   -0.13577836
| 66> H    3.43430956    0.31625432    0.68359945
| 67> H    2.56755821   -0.89520887    1.62232865
| 68> C    2.53355495    0.28027097    5.23714797
| 69> H    2.56813944    0.88007767    4.32782242
| 70> H    2.56405826    0.96347755    6.08589279
| 71> H    3.43423564   -0.33122634    5.26735691
| 72> C    1.27172875   -0.57161630    5.27645222
| 73> H    1.26628504   -1.18134401    6.18294918
| 74> H    1.27059824   -1.27097005    4.43687116
| 75> C   -0.00004624    0.26448280    5.23083578
| 76> H   -0.00020117    0.96679278    6.06982026
| 77> H    0.00003065    0.87325922    4.32176615
| 78> C   -1.27180708   -0.57165918    5.27610732
| 79> H   -1.26642484   -1.18176863    6.18235742
| 80> H   -1.27070074   -1.27068207    4.43624367
| 81> C   -2.53352631    0.28038713    5.23712961
| 82> H   -2.56771961    0.88092080    4.32825286
| 83> H   -3.43432829   -0.33091123    5.26664280
| 84> H   -2.56406584    0.96297337    6.08639101
| 85> *
| 86>
| 87> $new_job
| 88> ! ri-mp2 aug-cc-pvqz aug-cc-pvqz/c tightscf
| 89> %pal nprocs 16 end
| 90> %maxcore 3800
| 91> %base "QZ_S66by10_34_1.25_dimer"
| 92>
| 93> *xyz 0 1
| 94> C   -2.53330865   -0.29487907    0.71314876
| 95> H   -2.56362682   -0.97708181   -0.13642264
| 96> H   -2.56697835   -0.89587590    1.62173177
| 97> H   -3.43442611    0.31595713    0.68410447
| 98> C   -1.27188487    0.55765547    0.67435468
| 99> H   -1.27102630    1.25656571    1.51431940
|100> H   -1.26663255    1.16789581   -0.23182653
|101> C   -0.00013504   -0.27841822    0.71960315
|102> H   -0.00015938   -0.88722952    1.62863709
|103> H   -0.00036543   -0.98071418   -0.11940439
|104> C    1.27189476    0.55738219    0.67406108
|105> H    1.27097175    1.25663331    1.51370541
|106> H    1.26663649    1.16718250   -0.23238692
|107> C    2.53340376   -0.29494176    0.71328015
|108> H    2.56391919   -0.97777410   -0.13577836
|109> H    3.43430956    0.31625432    0.68359945
|110> H    2.56755821   -0.89520887    1.62232865
|111> C    2.53355495    0.28027097    5.23714797
|112> H    2.56813944    0.88007767    4.32782242
|113> H    2.56405826    0.96347755    6.08589279
|114> H    3.43423564   -0.33122634    5.26735691
|115> C    1.27172875   -0.57161630    5.27645222
|116> H    1.26628504   -1.18134401    6.18294918
|117> H    1.27059824   -1.27097005    4.43687116
|118> C   -0.00004624    0.26448280    5.23083578
|119> H   -0.00020117    0.96679278    6.06982026
|120> H    0.00003065    0.87325922    4.32176615
|121> C   -1.27180708   -0.57165918    5.27610732
|122> H   -1.26642484   -1.18176863    6.18235742
|123> H   -1.27070074   -1.27068207    4.43624367
|124> C   -2.53352631    0.28038713    5.23712961
|125> H   -2.56771961    0.88092080    4.32825286
|126> H   -3.43432829   -0.33091123    5.26664280
|127> H   -2.56406584    0.96297337    6.08639101
|128> *
|129>
|130>
|131>
|132>
|133>                          ****END OF INPUT****
 Total Charge           Charge          ....    0
 Multiplicity           Mult            ....    1
 Number of Electrons    NEL             ....   84
MP2 TOTAL ENERGY:     -394.231544886 Eh
FINAL SINGLE POINT ENERGY      -394.231544885651
MP2 TOTAL ENERGY:     -394.624981928 Eh
FINAL SINGLE POINT ENERGY      -394.624981927698

CARTESIAN COORDINATES (ANGSTROEM)
---------------------------------
  C     -2.533309   -0.294879    0.713149
  H     -2.563627   -0.977082   -0.136423
  H     -2.566978   -0.895876    1.621732
  H     -3.434426    0.315957    0.684104
  C     -1.271885    0.557655    0.674355
  H     -1.271026    1.256566    1.514319
  H     -1.266633    1.167896   -0.231827
  C     -0.000135   -0.278418    0.719603
  H     -0.000159   -0.887230    1.628637
  H     -0.000365   -0.980714   -0.119404
  C      1.271895    0.557382    0.674061
  H      1.270972    1.256633    1.513705
  H      1.266636    1.167183   -0.232387
  C      2.533404   -0.294942    0.713280
  H      2.563919   -0.977774   -0.135778
  H      3.434310    0.316254    0.683599
  H      2.567558   -0.895209    1.622329
  C      2.533555    0.280271    5.237148
  H      2.568139    0.880078    4.327822
  H      2.564058    0.963478    6.085893
  H      3.434236   -0.331226    5.267357
  C      1.271729   -0.571616    5.276452
  H      1.266285   -1.181344    6.182949
  H      1.270598   -1.270970    4.436871
  C     -0.000046    0.264483    5.230836
  H     -0.000201    0.966793    6.069820
  H      0.000031    0.873259    4.321766
  C     -1.271807   -0.571659    5.276107
  H     -1.266425   -1.181769    6.182357
  H     -1.270701   -1.270682    4.436244
  C     -2.533526    0.280387    5.237130
  H     -2.567720    0.880921    4.328253
  H     -3.434328   -0.330911    5.266643
  H     -2.564066    0.962973    6.086391

 Multiplicity           Mult            ....    1
 Number of Electrons    NEL             ....   84
 Basis Dimension        Dim             .... 1904

ORBITAL ENERGIES
----------------

  NO   OCC          E(Eh)            E(eV)
   0   2.0000     -11.212205      -305.0996
   1   2.0000     -11.212203      -305.0996
   2   2.0000     -11.212131      -305.0976
   3   2.0000     -11.212130      -305.0976
   4   2.0000     -11.209783      -305.0337
   5   2.0000     -11.209781      -305.0337
   6   2.0000     -11.206431      -304.9425
   7   2.0000     -11.206428      -304.9424
   8   2.0000     -11.206426      -304.9424
   9   2.0000     -11.206425      -304.9423
  10   2.0000      -1.082155       -29.4469
  11   2.0000      -1.081194       -29.4208
  12   2.0000      -1.016182       -27.6517
  13   2.0000      -1.015285       -27.6273
  14   2.0000      -0.919813       -25.0294
  15   2.0000      -0.918926       -25.0052
  16   2.0000      -0.820331       -22.3224
  17   2.0000      -0.820312       -22.3218
  18   2.0000      -0.786396       -21.3989
  19   2.0000      -0.784972       -21.3602
  20   2.0000      -0.652301       -17.7500
  21   2.0000      -0.644116       -17.5273
  22   2.0000      -0.599464       -16.3123
  23   2.0000      -0.598585       -16.2883
  24   2.0000      -0.597100       -16.2479
  25   2.0000      -0.590202       -16.0602
  26   2.0000      -0.554739       -15.0952
  27   2.0000      -0.554336       -15.0843
  28   2.0000      -0.548024       -14.9125
  29   2.0000      -0.547894       -14.9089
  30   2.0000      -0.529007       -14.3950
  31   2.0000      -0.523998       -14.2587
  32   2.0000      -0.495736       -13.4897
  33   2.0000      -0.494593       -13.4586
  34   2.0000      -0.477510       -12.9937
  35   2.0000      -0.475895       -12.9498
  36   2.0000      -0.464514       -12.6401
  37   2.0000      -0.463315       -12.6075
  38   2.0000      -0.460531       -12.5317
  39   2.0000      -0.456818       -12.4307
  40   2.0000      -0.447613       -12.1802
  41   2.0000      -0.447332       -12.1725
  42   0.0000       0.025874         0.7041
  43   0.0000       0.027722         0.7544
  44   0.0000       0.029108         0.7921
  45   0.0000       0.029833         0.8118
  46   0.0000       0.038020         1.0346

MULLIKEN ATOMIC CHARGES
-----------------------
   0 C :   -1.066300
   1 H :    0.300625
   2 H :    0.305758
   3 H :    0.238712
   4 C :   -0.512484
   5 H :    0.258814
   6 H :    0.314460
   7 C :   -0.281144
   8 H :    0.326443
   9 H :    0.275774
  10 C :   -0.512703
  11 H :    0.258993
  12 H :    0.314384
  13 C :   -1.066341
  14 H :    0.300573
  15 H :    0.238561
  16 H :    0.305890
  17 C :   -1.066163
  18 H :    0.305948
  19 H :    0.300434
  20 H :    0.238499
  21 C :   -0.512461
  22 H :    0.314238
  23 H :    0.258936
  24 C :   -0.281442
  25 H :    0.275888
  26 H :    0.326542
  27 C :   -0.512343
  28 H :    0.314335
  29 H :    0.258828
  30 C :   -1.066119
  31 H :    0.305838
  32 H :    0.238553
  33 H :    0.300473
Sum of atomic charges:    0.0000000

LOEWDIN ATOMIC CHARGES
----------------------
   0 C :    0.927317
   1 H :   -0.283829
   2 H :   -0.289962
   3 H :   -0.281151
   4 C :    0.502011
   5 H :   -0.277421
   6 H :   -0.270105
   7 C :    0.489430
   8 H :   -0.276545
   9 H :   -0.266589
  10 C :    0.502077
  11 H :   -0.277477
  12 H :   -0.270159
  13 C :    0.927313
  14 H :   -0.283810
  15 H :   -0.281155
  16 H :   -0.289947
  17 C :    0.927350
  18 H :   -0.289951
  19 H :   -0.283829
  20 H :   -0.281159
  21 C :    0.502013
  22 H :   -0.270166
  23 H :   -0.277466
  24 C :    0.489482
  25 H :   -0.266575
  26 H :   -0.276492
  27 C :    0.501993
  28 H :   -0.270149
  29 H :   -0.277456
  30 C :    0.927338
  31 H :   -0.289939
  32 H :   -0.281172
  33 H :   -0.283819

  Mayer bond orders larger than 0.100000
B(  0-C ,  1-H ) :   0.9378 B(  0-C ,  2-H ) :   0.8621 B(  0-C ,  3-H ) :   1.0521
B(  0-C ,  4-C ) :   1.0104 B(  4-C ,  5-H ) :   0.8709 B(  4-C ,  6-H ) :   0.8371
B(  4-C ,  7-C ) :   0.8546 B(  7-C ,  8-H ) :   0.8132 B(  7-C ,  9-H ) :   0.9033
B(  7-C , 10-C ) :   0.8545 B( 10-C , 11-H ) :   0.8709 B( 10-C , 12-H ) :   0.8371
B( 10-C , 13-C ) :   1.0102 B( 13-C , 14-H ) :   0.9379 B( 13-C , 15-H ) :   1.0523
B( 13-C , 16-H ) :   0.8619 B( 17-C , 18-H ) :   0.8618 B( 17-C , 19-H ) :   0.9380
B( 17-C , 20-H ) :   1.0524 B( 17-C , 21-C ) :   1.0099 B( 21-C , 22-H ) :   0.8373
B( 21-C , 23-H ) :   0.8709 B( 21-C , 24-C ) :   0.8546 B( 24-C , 25-H ) :   0.9032
B( 24-C , 26-H ) :   0.8130 B( 24-C , 27-C ) :   0.8547 B( 27-C , 28-H ) :   0.8372
B( 27-C , 29-H ) :   0.8709 B( 27-C , 30-C ) :   1.0099 B( 30-C , 31-H ) :   0.8619
B( 30-C , 32-H ) :   1.0523 B( 30-C , 33-H ) :   0.9380

MP2 TOTAL ENERGY:     -394.741170566 Eh
FINAL SINGLE POINT ENERGY      -394.741170565546

DIPOLE MOMENT
-------------
                                X             Y             Z
Electronic contribution:     -0.00030       0.00123       0.00010
Nuclear contribution   :      0.00030      -0.00124      -0.00009
                        -----------------------------------------
Total Dipole Moment    :     -0.00000      -0.00001       0.00001
                        -----------------------------------------
Magnitude (a.u.)       :      0.00001
Magnitude (Debye)      :      0.00004

Rotational constants in cm-1:     0.031031     0.020890     0.013346
Rotational constants in MHz :   930.293932   626.261320   400.101523

                             ****ORCA TERMINATED NORMALLY****
TOTAL RUN TIME: 0 days 22 hours 37 minutes 20 seconds 443 msec
