                         Program Version 5.0.4 -  RELEASE  -
|  1> ! ri-mp2 aug-cc-pvdz aug-cc-pvdz/c tightscf
|  2> %pal nprocs 16 end
|  3> %maxcore 3800
|  4> %base "DZ_S66by10_41_0.8_dimer"
|  5> %scf STABPerform true end
|  6>
|  7> *xyz 0 1
|  8> N   -0.20890478   -0.96458262    0.53476104
|  9> H   -0.22415099   -1.97310940    0.60508386
| 10> C   -1.44634208   -0.34458112    0.30665858
| 11> O   -2.46123675   -1.01079161    0.19789196
| 12> C   -1.35778219    1.10318559    0.22814378
| 13> H   -2.25657214    1.66773071    0.04984731
| 14> C   -0.16300320    1.70989257    0.38112632
| 15> H   -0.04629046    2.78244591    0.33334968
| 16> N    0.98545210    1.00082412    0.61120636
| 17> H    1.86755978    1.46692777    0.74478430
| 18> C    1.02702092   -0.37917011    0.71264723
| 19> O    2.04919670   -0.99739548    0.93725979
| 20> C    1.09488972    2.35099403    3.50360709
| 21> H    0.66404111    2.66204272    2.55082452
| 22> H    0.46065581    2.75642715    4.29185474
| 23> H    2.07776975    2.81144144    3.59672857
| 24> C    1.16790618    0.83212308    3.59312543
| 25> H    1.59828983    0.54256022    4.55441638
| 26> H    1.84249578    0.44096253    2.82800726
| 27> C   -0.19687901    0.17395643    3.43830867
| 28> H   -0.86812326    0.54283224    4.21992791
| 29> H   -0.64434987    0.48422144    2.48840844
| 30> C   -0.14059007   -1.34673012    3.49794416
| 31> H    0.28301543   -1.64916054    4.45858035
| 32> H    0.55093168   -1.70860906    2.73344174
| 33> C   -1.50987299   -1.98860333    3.31417051
| 34> H   -1.94825198   -1.71514565    2.35398501
| 35> H   -1.45293420   -3.07537172    3.35822770
| 36> H   -2.19783577   -1.66025735    4.09340356
| 37> *
| 38>
| 39> $new_job
| 40> ! ri-mp2 aug-cc-pvtz aug-cc-pvtz/c tightscf
| 41> %pal nprocs 16 end
| 42> %maxcore 3800
| 43> %base "TZ_S66by10_41_0.8_dimer"
| 44>
| 45> *xyz 0 1
| 46> N   -0.20890478   -0.96458262    0.53476104
| 47> H   -0.22415099   -1.97310940    0.60508386
| 48> C   -1.44634208   -0.34458112    0.30665858
| 49> O   -2.46123675   -1.01079161    0.19789196
| 50> C   -1.35778219    1.10318559    0.22814378
| 51> H   -2.25657214    1.66773071    0.04984731
| 52> C   -0.16300320    1.70989257    0.38112632
| 53> H   -0.04629046    2.78244591    0.33334968
| 54> N    0.98545210    1.00082412    0.61120636
| 55> H    1.86755978    1.46692777    0.74478430
| 56> C    1.02702092   -0.37917011    0.71264723
| 57> O    2.04919670   -0.99739548    0.93725979
| 58> C    1.09488972    2.35099403    3.50360709
| 59> H    0.66404111    2.66204272    2.55082452
| 60> H    0.46065581    2.75642715    4.29185474
| 61> H    2.07776975    2.81144144    3.59672857
| 62> C    1.16790618    0.83212308    3.59312543
| 63> H    1.59828983    0.54256022    4.55441638
| 64> H    1.84249578    0.44096253    2.82800726
| 65> C   -0.19687901    0.17395643    3.43830867
| 66> H   -0.86812326    0.54283224    4.21992791
| 67> H   -0.64434987    0.48422144    2.48840844
| 68> C   -0.14059007   -1.34673012    3.49794416
| 69> H    0.28301543   -1.64916054    4.45858035
| 70> H    0.55093168   -1.70860906    2.73344174
| 71> C   -1.50987299   -1.98860333    3.31417051
| 72> H   -1.94825198   -1.71514565    2.35398501
| 73> H   -1.45293420   -3.07537172    3.35822770
| 74> H   -2.19783577   -1.66025735    4.09340356
| 75> *
| 76>
| 77> $new_job
| 78> ! ri-mp2 aug-cc-pvqz aug-cc-pvqz/c tightscf
| 79> %pal nprocs 16 end
| 80> %maxcore 3800
| 81> %base "QZ_S66by10_41_0.8_dimer"
| 82>
| 83> *xyz 0 1
| 84> N   -0.20890478   -0.96458262    0.53476104
| 85> H   -0.22415099   -1.97310940    0.60508386
| 86> C   -1.44634208   -0.34458112    0.30665858
| 87> O   -2.46123675   -1.01079161    0.19789196
| 88> C   -1.35778219    1.10318559    0.22814378
| 89> H   -2.25657214    1.66773071    0.04984731
| 90> C   -0.16300320    1.70989257    0.38112632
| 91> H   -0.04629046    2.78244591    0.33334968
| 92> N    0.98545210    1.00082412    0.61120636
| 93> H    1.86755978    1.46692777    0.74478430
| 94> C    1.02702092   -0.37917011    0.71264723
| 95> O    2.04919670   -0.99739548    0.93725979
| 96> C    1.09488972    2.35099403    3.50360709
| 97> H    0.66404111    2.66204272    2.55082452
| 98> H    0.46065581    2.75642715    4.29185474
| 99> H    2.07776975    2.81144144    3.59672857
|100> C    1.16790618    0.83212308    3.59312543
|101> H    1.59828983    0.54256022    4.55441638
|102> H    1.84249578    0.44096253    2.82800726
|103> C   -0.19687901    0.17395643    3.43830867
|104> H   -0.86812326    0.54283224    4.21992791
|105> H   -0.64434987    0.48422144    2.48840844
|106> C   -0.14059007   -1.34673012    3.49794416
|107> H    0.28301543   -1.64916054    4.45858035
|108> H    0.55093168   -1.70860906    2.73344174
|109> C   -1.50987299   -1.98860333    3.31417051
|110> H   -1.94825198   -1.71514565    2.35398501
|111> H   -1.45293420   -3.07537172    3.35822770
|112> H   -2.19783577   -1.66025735    4.09340356
|113> *
|114>
|115>
|116>
|117>
|118>                          ****END OF INPUT****
 Total Charge           Charge          ....    0
 Multiplicity           Mult            ....    1
 Number of Electrons    NEL             ....  100
MP2 TOTAL ENERGY:     -610.897004834 Eh
FINAL SINGLE POINT ENERGY      -610.897004834178
MP2 TOTAL ENERGY:     -611.438493581 Eh
FINAL SINGLE POINT ENERGY      -611.438493580588

CARTESIAN COORDINATES (ANGSTROEM)
---------------------------------
  N     -0.208905   -0.964583    0.534761
  H     -0.224151   -1.973109    0.605084
  C     -1.446342   -0.344581    0.306659
  O     -2.461237   -1.010792    0.197892
  C     -1.357782    1.103186    0.228144
  H     -2.256572    1.667731    0.049847
  C     -0.163003    1.709893    0.381126
  H     -0.046290    2.782446    0.333350
  N      0.985452    1.000824    0.611206
  H      1.867560    1.466928    0.744784
  C      1.027021   -0.379170    0.712647
  O      2.049197   -0.997395    0.937260
  C      1.094890    2.350994    3.503607
  H      0.664041    2.662043    2.550825
  H      0.460656    2.756427    4.291855
  H      2.077770    2.811441    3.596729
  C      1.167906    0.832123    3.593125
  H      1.598290    0.542560    4.554416
  H      1.842496    0.440963    2.828007
  C     -0.196879    0.173956    3.438309
  H     -0.868123    0.542832    4.219928
  H     -0.644350    0.484221    2.488408
  C     -0.140590   -1.346730    3.497944
  H      0.283015   -1.649161    4.458580
  H      0.550932   -1.708609    2.733442
  C     -1.509873   -1.988603    3.314171
  H     -1.948252   -1.715146    2.353985
  H     -1.452934   -3.075372    3.358228
  H     -2.197836   -1.660257    4.093404

 Multiplicity           Mult            ....    1
 Number of Electrons    NEL             ....  100
 Basis Dimension        Dim             .... 1776

ORBITAL ENERGIES
----------------

  NO   OCC          E(Eh)            E(eV)
   0   2.0000     -20.546731      -559.1050
   1   2.0000     -20.540784      -558.9431
   2   2.0000     -15.641296      -425.6213
   3   2.0000     -15.624492      -425.1640
   4   2.0000     -11.418897      -310.7240
   5   2.0000     -11.381131      -309.6963
   6   2.0000     -11.339706      -308.5691
   7   2.0000     -11.254718      -306.2565
   8   2.0000     -11.220082      -305.3140
   9   2.0000     -11.215059      -305.1773
  10   2.0000     -11.211133      -305.0704
  11   2.0000     -11.207027      -304.9587
  12   2.0000     -11.197334      -304.6949
  13   2.0000      -1.439159       -39.1615
  14   2.0000      -1.400737       -38.1160
  15   2.0000      -1.315325       -35.7918
  16   2.0000      -1.247500       -33.9462
  17   2.0000      -1.090071       -29.6623
  18   2.0000      -1.085965       -29.5506
  19   2.0000      -1.019092       -27.7309
  20   2.0000      -0.937724       -25.5168
  21   2.0000      -0.922082       -25.0911
  22   2.0000      -0.902918       -24.5696
  23   2.0000      -0.824156       -22.4264
  24   2.0000      -0.809888       -22.0382
  25   2.0000      -0.788830       -21.4651
  26   2.0000      -0.766696       -20.8629
  27   2.0000      -0.716715       -19.5028
  28   2.0000      -0.701647       -19.0928
  29   2.0000      -0.680082       -18.5060
  30   2.0000      -0.655566       -17.8389
  31   2.0000      -0.623494       -16.9661
  32   2.0000      -0.617249       -16.7962
  33   2.0000      -0.610604       -16.6154
  34   2.0000      -0.603029       -16.4092
  35   2.0000      -0.602743       -16.4015
  36   2.0000      -0.571388       -15.5482
  37   2.0000      -0.559500       -15.2248
  38   2.0000      -0.550356       -14.9760
  39   2.0000      -0.531202       -14.4547
  40   2.0000      -0.527690       -14.3592
  41   2.0000      -0.499405       -13.5895
  42   2.0000      -0.487978       -13.2786
  43   2.0000      -0.480863       -13.0850
  44   2.0000      -0.463874       -12.6226
  45   2.0000      -0.457093       -12.4381
  46   2.0000      -0.449247       -12.2246
  47   2.0000      -0.448832       -12.2133
  48   2.0000      -0.435440       -11.8489
  49   2.0000      -0.369162       -10.0454
  50   0.0000       0.013798         0.3755
  51   0.0000       0.027440         0.7467
  52   0.0000       0.027612         0.7514
  53   0.0000       0.031740         0.8637
  54   0.0000       0.039981         1.0879

MULLIKEN ATOMIC CHARGES
-----------------------
   0 N :   -0.751339
   1 H :   -0.051302
   2 C :    1.469732
   3 O :   -0.985885
   4 C :   -0.643199
   5 H :    0.217364
   6 C :   -0.108174
   7 H :    0.318452
   8 N :   -0.651247
   9 H :    0.030253
  10 C :    2.398458
  11 O :   -1.059888
  12 C :   -0.999215
  13 H :    0.253687
  14 H :    0.211695
  15 H :    0.241188
  16 C :   -0.540762
  17 H :    0.245530
  18 H :    0.258176
  19 C :    0.158684
  20 H :    0.207045
  21 H :    0.113459
  22 C :   -0.565717
  23 H :    0.236427
  24 H :    0.270443
  25 C :   -0.972071
  26 H :    0.264168
  27 H :    0.233021
  28 H :    0.201016
Sum of atomic charges:    0.0000000

LOEWDIN ATOMIC CHARGES
----------------------
   0 N :    0.800666
   1 H :   -0.504161
   2 C :   -0.843923
   3 O :    0.739766
   4 C :    0.363586
   5 H :   -0.334628
   6 C :    0.238992
   7 H :   -0.279841
   8 N :    0.832348
   9 H :   -0.476134
  10 C :   -0.991678
  11 O :    0.780565
  12 C :    0.941319
  13 H :   -0.350369
  14 H :   -0.270418
  15 H :   -0.266410
  16 C :    0.516897
  17 H :   -0.253394
  18 H :   -0.382641
  19 C :    0.498715
  20 H :   -0.244596
  21 H :   -0.412493
  22 C :    0.515628
  23 H :   -0.255544
  24 H :   -0.370846
  25 C :    0.941167
  26 H :   -0.393899
  27 H :   -0.266926
  28 H :   -0.271749

  Mayer bond orders larger than 0.100000
B(  0-N ,  1-H ) :   1.3230 B(  0-N ,  2-C ) :   1.0038 B(  0-N ,  3-O ) :   0.1935
B(  0-N , 10-C ) :   0.8439 B(  0-N , 11-O ) :   0.3007 B(  1-H ,  2-C ) :  -0.1079
B(  1-H , 10-C ) :  -0.1251 B(  2-C ,  3-O ) :   0.5487 B(  2-C ,  4-C ) :   1.1796
B(  3-O ,  4-C ) :   0.3112 B(  4-C ,  5-H ) :   1.0856 B(  4-C ,  6-C ) :   1.5641
B(  4-C , 10-C ) :  -0.1083 B(  6-C ,  7-H ) :   1.0171 B(  6-C ,  8-N ) :   0.9039
B(  6-C ,  9-H ) :  -0.1029 B(  8-N ,  9-H ) :   1.2554 B(  8-N , 10-C ) :   0.8623
B(  8-N , 11-O ) :   0.2728 B(  9-H , 10-C ) :  -0.1044 B( 10-C , 11-O ) :   0.2703
B( 12-C , 13-H ) :   0.8840 B( 12-C , 14-H ) :   1.0369 B( 12-C , 15-H ) :   1.0525
B( 12-C , 16-C ) :   0.9796 B( 12-C , 19-C ) :  -0.1393 B( 16-C , 17-H ) :   0.9517
B( 16-C , 18-H ) :   0.9089 B( 16-C , 19-C ) :   0.7009 B( 19-C , 20-H ) :   1.0020
B( 19-C , 21-H ) :   0.9764 B( 19-C , 22-C ) :   0.6903 B( 19-C , 25-C ) :  -0.1240
B( 22-C , 23-H ) :   0.9620 B( 22-C , 24-H ) :   0.9205 B( 22-C , 25-C ) :   0.9775
B( 25-C , 26-H ) :   0.8637 B( 25-C , 27-H ) :   1.0576 B( 25-C , 28-H ) :   1.0523

MP2 TOTAL ENERGY:     -611.609842818 Eh
FINAL SINGLE POINT ENERGY      -611.609842817723

DIPOLE MOMENT
-------------
                                X             Y             Z
Electronic contribution:     -0.34304      -2.44177     -15.64867
Nuclear contribution   :      0.89278       4.22740      15.63220
                        -----------------------------------------
Total Dipole Moment    :      0.54974       1.78563      -0.01647
                        -----------------------------------------
Magnitude (a.u.)       :      1.86841
Magnitude (Debye)      :      4.74912

Rotational constants in cm-1:     0.029561     0.024638     0.019949
Rotational constants in MHz :   886.222146   738.619347   598.069280

                             ****ORCA TERMINATED NORMALLY****
TOTAL RUN TIME: 0 days 18 hours 20 minutes 14 seconds 220 msec
