                         Program Version 5.0.4 -  RELEASE  -
|  1> ! ri-mp2 aug-cc-pvdz aug-cc-pvdz/c tightscf
|  2> %pal nprocs 16 end
|  3> %maxcore 3800
|  4> %base "DZ_S66by10_5_0.9_dimer"
|  5> %scf STABPerform true end
|  6>
|  7> *xyz 0 1
|  8> O   -0.63613493   -0.02328241    0.28059932
|  9> H    0.30809737   -0.04707875    0.07646369
| 10> C   -1.15206541   -1.31128778    0.01525955
| 11> H   -2.20994502   -1.29626539    0.26395586
| 12> H   -1.05661024   -1.59267086   -1.03619061
| 13> H   -0.67483575   -2.08627276    0.62051145
| 14> O    2.04802916   -0.11571579   -0.00454230
| 15> H    2.51681847    0.49866874   -0.57420826
| 16> C    2.55686309    0.04130315    1.31717502
| 17> H    2.00329401   -0.64689328    1.94730590
| 18> H    3.61585919   -0.20913575    1.37389816
| 19> H    2.40442345    1.05199720    1.69506756
| 20> *
| 21>
| 22> $new_job
| 23> ! ri-mp2 aug-cc-pvtz aug-cc-pvtz/c tightscf
| 24> %pal nprocs 16 end
| 25> %maxcore 3800
| 26> %base "TZ_S66by10_5_0.9_dimer"
| 27>
| 28> *xyz 0 1
| 29> O   -0.63613493   -0.02328241    0.28059932
| 30> H    0.30809737   -0.04707875    0.07646369
| 31> C   -1.15206541   -1.31128778    0.01525955
| 32> H   -2.20994502   -1.29626539    0.26395586
| 33> H   -1.05661024   -1.59267086   -1.03619061
| 34> H   -0.67483575   -2.08627276    0.62051145
| 35> O    2.04802916   -0.11571579   -0.00454230
| 36> H    2.51681847    0.49866874   -0.57420826
| 37> C    2.55686309    0.04130315    1.31717502
| 38> H    2.00329401   -0.64689328    1.94730590
| 39> H    3.61585919   -0.20913575    1.37389816
| 40> H    2.40442345    1.05199720    1.69506756
| 41> *
| 42>
| 43> $new_job
| 44> ! ri-mp2 aug-cc-pvqz aug-cc-pvqz/c tightscf
| 45> %pal nprocs 16 end
| 46> %maxcore 3800
| 47> %base "QZ_S66by10_5_0.9_dimer"
| 48>
| 49> *xyz 0 1
| 50> O   -0.63613493   -0.02328241    0.28059932
| 51> H    0.30809737   -0.04707875    0.07646369
| 52> C   -1.15206541   -1.31128778    0.01525955
| 53> H   -2.20994502   -1.29626539    0.26395586
| 54> H   -1.05661024   -1.59267086   -1.03619061
| 55> H   -0.67483575   -2.08627276    0.62051145
| 56> O    2.04802916   -0.11571579   -0.00454230
| 57> H    2.51681847    0.49866874   -0.57420826
| 58> C    2.55686309    0.04130315    1.31717502
| 59> H    2.00329401   -0.64689328    1.94730590
| 60> H    3.61585919   -0.20913575    1.37389816
| 61> H    2.40442345    1.05199720    1.69506756
| 62> *
| 63>
| 64>
| 65>
| 66>
| 67>                          ****END OF INPUT****
 Total Charge           Charge          ....    0
 Multiplicity           Mult            ....    1
 Number of Electrons    NEL             ....   36
MP2 TOTAL ENERGY:     -230.852279034 Eh
FINAL SINGLE POINT ENERGY      -230.852279034472
MP2 TOTAL ENERGY:     -231.067084850 Eh
FINAL SINGLE POINT ENERGY      -231.067084849914

CARTESIAN COORDINATES (ANGSTROEM)
---------------------------------
  O     -0.636135   -0.023282    0.280599
  H      0.308097   -0.047079    0.076464
  C     -1.152065   -1.311288    0.015260
  H     -2.209945   -1.296265    0.263956
  H     -1.056610   -1.592671   -1.036191
  H     -0.674836   -2.086273    0.620511
  O      2.048029   -0.115716   -0.004542
  H      2.516818    0.498669   -0.574208
  C      2.556863    0.041303    1.317175
  H      2.003294   -0.646893    1.947306
  H      3.615859   -0.209136    1.373898
  H      2.404423    1.051997    1.695068

 Multiplicity           Mult            ....    1
 Number of Electrons    NEL             ....   36
 Basis Dimension        Dim             ....  688

ORBITAL ENERGIES
----------------

  NO   OCC          E(Eh)            E(eV)
   0   2.0000     -20.583733      -560.1118
   1   2.0000     -20.518388      -558.3337
   2   2.0000     -11.284925      -307.0784
   3   2.0000     -11.247602      -306.0628
   4   2.0000      -1.387565       -37.7576
   5   2.0000      -1.325861       -36.0785
   6   2.0000      -0.945164       -25.7192
   7   2.0000      -0.902037       -24.5457
   8   2.0000      -0.724060       -19.7027
   9   2.0000      -0.675078       -18.3698
  10   2.0000      -0.636451       -17.3187
  11   2.0000      -0.611580       -16.6419
  12   2.0000      -0.595627       -16.2078
  13   2.0000      -0.567668       -15.4470
  14   2.0000      -0.530662       -14.4400
  15   2.0000      -0.488019       -13.2797
  16   2.0000      -0.463455       -12.6113
  17   2.0000      -0.421592       -11.4721
  18   0.0000       0.021381         0.5818
  19   0.0000       0.035193         0.9577
  20   0.0000       0.037267         1.0141
  21   0.0000       0.039934         1.0867
  22   0.0000       0.052098         1.4177

MULLIKEN ATOMIC CHARGES
-----------------------
   0 O :   -0.732359
   1 H :    0.318785
   2 C :   -0.500140
   3 H :    0.350198
   4 H :    0.241307
   5 H :    0.247963
   6 O :   -0.639242
   7 H :    0.347269
   8 C :   -0.567572
   9 H :    0.300549
  10 H :    0.360324
  11 H :    0.272918
Sum of atomic charges:    0.0000000

LOEWDIN ATOMIC CHARGES
----------------------
   0 O :    1.245420
   1 H :   -1.117711
   2 C :    0.562469
   3 H :   -0.346279
   4 H :   -0.318700
   5 H :   -0.320633
   6 O :    1.310222
   7 H :   -0.726728
   8 C :    0.644404
   9 H :   -0.325348
  10 H :   -0.307120
  11 H :   -0.299998

  Mayer bond orders larger than 0.100000
B(  0-O ,  1-H ) :   0.9104 B(  0-O ,  2-C ) :   0.8617 B(  2-C ,  3-H ) :   0.8844
B(  2-C ,  4-H ) :   0.9295 B(  2-C ,  5-H ) :   0.9164 B(  6-O ,  7-H ) :   0.8800
B(  6-O ,  8-C ) :   0.8547 B(  8-C ,  9-H ) :   0.8976 B(  8-C , 10-H ) :   0.8634
B(  8-C , 11-H ) :   0.9149

MP2 TOTAL ENERGY:     -231.135041681 Eh
FINAL SINGLE POINT ENERGY      -231.135041681346

DIPOLE MOMENT
-------------
                                X             Y             Z
Electronic contribution:      0.18167       1.47458      -1.16135
Nuclear contribution   :      1.04240      -1.49422       1.18232
                        -----------------------------------------
Total Dipole Moment    :      1.22407      -0.01964       0.02097
                        -----------------------------------------
Magnitude (a.u.)       :      1.22441
Magnitude (Debye)      :      3.11220

Rotational constants in cm-1:     0.549721     0.084109     0.082782
Rotational constants in MHz : 16480.206252  2521.521352  2481.734016

                             ****ORCA TERMINATED NORMALLY****
TOTAL RUN TIME: 0 days 0 hours 35 minutes 36 seconds 316 msec
