                         Program Version 5.0.4 -  RELEASE  -
|  1> ! ri-mp2 aug-cc-pvdz aug-cc-pvdz/c tightscf
|  2> %pal nprocs 16 end
|  3> %maxcore 3800
|  4> %base "DZ_S66by10_7_0.95_dimer"
|  5> %scf STABPerform true end
|  6>
|  7> *xyz 0 1
|  8> O   -0.20877739   -0.21687067   -1.03240597
|  9> H    0.71112593   -0.38689175   -0.77396240
| 10> C   -1.02217337   -0.74117114   -0.00545419
| 11> H   -2.05749119   -0.53870733   -0.26859725
| 12> H   -0.90774336   -1.82182632    0.10853710
| 13> H   -0.82463111   -0.27549472    0.96464547
| 14> C    1.90901866    1.90266283    0.41005087
| 15> H    2.41541229    2.86411191    0.37518051
| 16> H    1.49847454    1.75652695    1.40792751
| 17> H    1.07937086    1.89314955   -0.29145466
| 18> C    2.82464904    0.74772401    0.09413466
| 19> O    2.40045425   -0.37218679   -0.19094688
| 20> N    4.15078596    1.00944828    0.15333402
| 21> H    4.44879841    1.91987642    0.45102121
| 22> C    5.13319199   -0.03066302   -0.06940980
| 23> H    4.77663480   -0.68160034   -0.86158676
| 24> H    6.07356123    0.42286081   -0.36792350
| 25> H    5.29270210   -0.63518992    0.82266574
| 26> *
| 27>
| 28> $new_job
| 29> ! ri-mp2 aug-cc-pvtz aug-cc-pvtz/c tightscf
| 30> %pal nprocs 16 end
| 31> %maxcore 3800
| 32> %base "TZ_S66by10_7_0.95_dimer"
| 33>
| 34> *xyz 0 1
| 35> O   -0.20877739   -0.21687067   -1.03240597
| 36> H    0.71112593   -0.38689175   -0.77396240
| 37> C   -1.02217337   -0.74117114   -0.00545419
| 38> H   -2.05749119   -0.53870733   -0.26859725
| 39> H   -0.90774336   -1.82182632    0.10853710
| 40> H   -0.82463111   -0.27549472    0.96464547
| 41> C    1.90901866    1.90266283    0.41005087
| 42> H    2.41541229    2.86411191    0.37518051
| 43> H    1.49847454    1.75652695    1.40792751
| 44> H    1.07937086    1.89314955   -0.29145466
| 45> C    2.82464904    0.74772401    0.09413466
| 46> O    2.40045425   -0.37218679   -0.19094688
| 47> N    4.15078596    1.00944828    0.15333402
| 48> H    4.44879841    1.91987642    0.45102121
| 49> C    5.13319199   -0.03066302   -0.06940980
| 50> H    4.77663480   -0.68160034   -0.86158676
| 51> H    6.07356123    0.42286081   -0.36792350
| 52> H    5.29270210   -0.63518992    0.82266574
| 53> *
| 54>
| 55> $new_job
| 56> ! ri-mp2 aug-cc-pvqz aug-cc-pvqz/c tightscf
| 57> %pal nprocs 16 end
| 58> %maxcore 3800
| 59> %base "QZ_S66by10_7_0.95_dimer"
| 60>
| 61> *xyz 0 1
| 62> O   -0.20877739   -0.21687067   -1.03240597
| 63> H    0.71112593   -0.38689175   -0.77396240
| 64> C   -1.02217337   -0.74117114   -0.00545419
| 65> H   -2.05749119   -0.53870733   -0.26859725
| 66> H   -0.90774336   -1.82182632    0.10853710
| 67> H   -0.82463111   -0.27549472    0.96464547
| 68> C    1.90901866    1.90266283    0.41005087
| 69> H    2.41541229    2.86411191    0.37518051
| 70> H    1.49847454    1.75652695    1.40792751
| 71> H    1.07937086    1.89314955   -0.29145466
| 72> C    2.82464904    0.74772401    0.09413466
| 73> O    2.40045425   -0.37218679   -0.19094688
| 74> N    4.15078596    1.00944828    0.15333402
| 75> H    4.44879841    1.91987642    0.45102121
| 76> C    5.13319199   -0.03066302   -0.06940980
| 77> H    4.77663480   -0.68160034   -0.86158676
| 78> H    6.07356123    0.42286081   -0.36792350
| 79> H    5.29270210   -0.63518992    0.82266574
| 80> *
| 81>
| 82>
| 83>
| 84>
| 85>                          ****END OF INPUT****
 Total Charge           Charge          ....    0
 Multiplicity           Mult            ....    1
 Number of Electrons    NEL             ....   58
MP2 TOTAL ENERGY:     -363.281869301 Eh
FINAL SINGLE POINT ENERGY      -363.281869301375
MP2 TOTAL ENERGY:     -363.612876776 Eh
FINAL SINGLE POINT ENERGY      -363.612876775986

CARTESIAN COORDINATES (ANGSTROEM)
---------------------------------
  O     -0.208777   -0.216871   -1.032406
  H      0.711126   -0.386892   -0.773962
  C     -1.022173   -0.741171   -0.005454
  H     -2.057491   -0.538707   -0.268597
  H     -0.907743   -1.821826    0.108537
  H     -0.824631   -0.275495    0.964645
  C      1.909019    1.902663    0.410051
  H      2.415412    2.864112    0.375181
  H      1.498475    1.756527    1.407928
  H      1.079371    1.893150   -0.291455
  C      2.824649    0.747724    0.094135
  O      2.400454   -0.372187   -0.190947
  N      4.150786    1.009448    0.153334
  H      4.448798    1.919876    0.451021
  C      5.133192   -0.030663   -0.069410
  H      4.776635   -0.681600   -0.861587
  H      6.073561    0.422861   -0.367924
  H      5.292702   -0.635190    0.822666

 Multiplicity           Mult            ....    1
 Number of Electrons    NEL             ....   58
 Basis Dimension        Dim             .... 1066

ORBITAL ENERGIES
----------------

  NO   OCC          E(Eh)            E(eV)
   0   2.0000     -20.527204      -558.5736
   1   2.0000     -20.512379      -558.1702
   2   2.0000     -15.597837      -424.4387
   3   2.0000     -11.362001      -309.1758
   4   2.0000     -11.265784      -306.5576
   5   2.0000     -11.243013      -305.9379
   6   2.0000     -11.238897      -305.8259
   7   2.0000      -1.392973       -37.9047
   8   2.0000      -1.320258       -35.9260
   9   2.0000      -1.244293       -33.8589
  10   2.0000      -1.028660       -27.9913
  11   2.0000      -0.942771       -25.6541
  12   2.0000      -0.896241       -24.3880
  13   2.0000      -0.806376       -21.9426
  14   2.0000      -0.701954       -19.1012
  15   2.0000      -0.674754       -18.3610
  16   2.0000      -0.660695       -17.9784
  17   2.0000      -0.645334       -17.5604
  18   2.0000      -0.595409       -16.2019
  19   2.0000      -0.593226       -16.1425
  20   2.0000      -0.588846       -16.0233
  21   2.0000      -0.565994       -15.4015
  22   2.0000      -0.562235       -15.2992
  23   2.0000      -0.555367       -15.1123
  24   2.0000      -0.516593       -14.0572
  25   2.0000      -0.476380       -12.9630
  26   2.0000      -0.436891       -11.8884
  27   2.0000      -0.415214       -11.2986
  28   2.0000      -0.408136       -11.1059
  29   0.0000       0.016505         0.4491
  30   0.0000       0.029083         0.7914
  31   0.0000       0.032257         0.8777
  32   0.0000       0.037941         1.0324
  33   0.0000       0.045516         1.2386

MULLIKEN ATOMIC CHARGES
-----------------------
   0 O :   -0.791094
   1 H :    0.358303
   2 C :   -0.585942
   3 H :    0.388338
   4 H :    0.264924
   5 H :    0.271814
   6 C :   -0.825742
   7 H :    0.305121
   8 H :    0.272198
   9 H :    0.312511
  10 C :    0.998906
  11 O :   -0.830521
  12 N :   -0.519111
  13 H :    0.250366
  14 C :   -0.865101
  15 H :    0.297548
  16 H :    0.393865
  17 H :    0.303617
Sum of atomic charges:    0.0000000

LOEWDIN ATOMIC CHARGES
----------------------
   0 O :    1.247492
   1 H :   -1.141571
   2 C :    0.560955
   3 H :   -0.343720
   4 H :   -0.315777
   5 H :   -0.321477
   6 C :    0.913662
   7 H :   -0.303023
   8 H :   -0.281709
   9 H :   -0.331492
  10 C :   -0.744888
  11 O :    0.838526
  12 N :    0.833376
  13 H :   -0.501225
  14 C :    0.788417
  15 H :   -0.324834
  16 H :   -0.292880
  17 H :   -0.279832

  Mayer bond orders larger than 0.100000
B(  0-O ,  1-H ) :   0.8420 B(  0-O ,  2-C ) :   0.8546 B(  2-C ,  3-H ) :   0.8574
B(  2-C ,  4-H ) :   0.9270 B(  2-C ,  5-H ) :   0.8912 B(  6-C ,  7-H ) :   0.9699
B(  6-C ,  8-H ) :   0.9066 B(  6-C ,  9-H ) :   0.9705 B(  6-C , 10-C ) :   0.8022
B( 10-C , 11-O ) :   1.2704 B( 10-C , 12-N ) :   1.1816 B( 11-O , 12-N ) :   0.1504
B( 12-N , 13-H ) :   0.9639 B( 12-N , 14-C ) :   0.8164 B( 14-C , 15-H ) :   0.9441
B( 14-C , 16-H ) :   0.8677 B( 14-C , 17-H ) :   0.9451

MP2 TOTAL ENERGY:     -363.717834728 Eh
FINAL SINGLE POINT ENERGY      -363.717834728299

DIPOLE MOMENT
-------------
                                X             Y             Z
Electronic contribution:      2.18932       0.03290      -1.50213
Nuclear contribution   :     -0.70715       1.09933       2.50514
                        -----------------------------------------
Total Dipole Moment    :      1.48217       1.13223       1.00301
                        -----------------------------------------
Magnitude (a.u.)       :      2.11774
Magnitude (Debye)      :      5.38286

Rotational constants in cm-1:     0.177534     0.034306     0.030418
Rotational constants in MHz :  5322.334501  1028.469392   911.907935

                             ****ORCA TERMINATED NORMALLY****
TOTAL RUN TIME: 0 days 1 hours 42 minutes 42 seconds 785 msec
