                         Program Version 5.0.4 -  RELEASE  -
|  1> ! ri-mp2 aug-cc-pvdz aug-cc-pvdz/c tightscf
|  2> %pal nprocs 16 end
|  3> %maxcore 3800
|  4> %base "DZ_S66by10_49_1.25_dimer"
|  5>
|  6> *xyz 0 1
|  7> C    0.84507720    1.05791869    0.69945490
|  8> H    1.50640601    1.90322178    0.83338235
|  9> C    1.37550931   -0.21745534    0.51116093
| 10> H    2.44718367   -0.36147258    0.50285232
| 11> C    0.52406810   -1.30704432    0.33319233
| 12> H    0.93572726   -2.29602641    0.18492305
| 13> C   -0.85771573   -1.12146341    0.34638409
| 14> H   -1.51838119   -1.96645805    0.20836325
| 15> C   -1.38804570    0.15363438    0.53761349
| 16> H   -2.45971752    0.29741587    0.55003229
| 17> C   -0.53661315    1.24342221    0.71273882
| 18> H   -0.94892427    2.23280628    0.85736635
| 19> N    0.01390687    0.20352837    7.50515682
| 20> C    0.16859069    1.14148997    6.56027994
| 21> H    0.31036151    2.15401598    6.91818167
| 22> C    0.15438142    0.87420021    5.19378050
| 23> H    0.28462148    1.67522601    4.47989509
| 24> C   -0.02995689   -0.43742948    4.76849007
| 25> H   -0.04652335   -0.68054814    3.71514214
| 26> C   -0.19180582   -1.42246381    5.73734916
| 27> H   -0.33834884   -2.45767478    5.46257765
| 28> C   -0.16260335   -1.05513071    7.08043867
| 29> H   -0.28619948   -1.80264468    7.85453966
| 30> *
| 31>
| 32> $new_job
| 33> ! ri-mp2 aug-cc-pvtz aug-cc-pvtz/c tightscf
| 34> %pal nprocs 16 end
| 35> %maxcore 3800
| 36> %base "TZ_S66by10_49_1.25_dimer"
| 37>
| 38> *xyz 0 1
| 39> C    0.84507720    1.05791869    0.69945490
| 40> H    1.50640601    1.90322178    0.83338235
| 41> C    1.37550931   -0.21745534    0.51116093
| 42> H    2.44718367   -0.36147258    0.50285232
| 43> C    0.52406810   -1.30704432    0.33319233
| 44> H    0.93572726   -2.29602641    0.18492305
| 45> C   -0.85771573   -1.12146341    0.34638409
| 46> H   -1.51838119   -1.96645805    0.20836325
| 47> C   -1.38804570    0.15363438    0.53761349
| 48> H   -2.45971752    0.29741587    0.55003229
| 49> C   -0.53661315    1.24342221    0.71273882
| 50> H   -0.94892427    2.23280628    0.85736635
| 51> N    0.01390687    0.20352837    7.50515682
| 52> C    0.16859069    1.14148997    6.56027994
| 53> H    0.31036151    2.15401598    6.91818167
| 54> C    0.15438142    0.87420021    5.19378050
| 55> H    0.28462148    1.67522601    4.47989509
| 56> C   -0.02995689   -0.43742948    4.76849007
| 57> H   -0.04652335   -0.68054814    3.71514214
| 58> C   -0.19180582   -1.42246381    5.73734916
| 59> H   -0.33834884   -2.45767478    5.46257765
| 60> C   -0.16260335   -1.05513071    7.08043867
| 61> H   -0.28619948   -1.80264468    7.85453966
| 62> *
| 63>
| 64> $new_job
| 65> ! ri-mp2 aug-cc-pvqz aug-cc-pvqz/c tightscf
| 66> %pal nprocs 16 end
| 67> %maxcore 3800
| 68> %base "QZ_S66by10_49_1.25_dimer"
| 69>
| 70> *xyz 0 1
| 71> C    0.84507720    1.05791869    0.69945490
| 72> H    1.50640601    1.90322178    0.83338235
| 73> C    1.37550931   -0.21745534    0.51116093
| 74> H    2.44718367   -0.36147258    0.50285232
| 75> C    0.52406810   -1.30704432    0.33319233
| 76> H    0.93572726   -2.29602641    0.18492305
| 77> C   -0.85771573   -1.12146341    0.34638409
| 78> H   -1.51838119   -1.96645805    0.20836325
| 79> C   -1.38804570    0.15363438    0.53761349
| 80> H   -2.45971752    0.29741587    0.55003229
| 81> C   -0.53661315    1.24342221    0.71273882
| 82> H   -0.94892427    2.23280628    0.85736635
| 83> N    0.01390687    0.20352837    7.50515682
| 84> C    0.16859069    1.14148997    6.56027994
| 85> H    0.31036151    2.15401598    6.91818167
| 86> C    0.15438142    0.87420021    5.19378050
| 87> H    0.28462148    1.67522601    4.47989509
| 88> C   -0.02995689   -0.43742948    4.76849007
| 89> H   -0.04652335   -0.68054814    3.71514214
| 90> C   -0.19180582   -1.42246381    5.73734916
| 91> H   -0.33834884   -2.45767478    5.46257765
| 92> C   -0.16260335   -1.05513071    7.08043867
| 93> H   -0.28619948   -1.80264468    7.85453966
| 94> *
| 95>
| 96>
| 97>
| 98>
| 99>                          ****END OF INPUT****
 Total Charge           Charge          ....    0
 Multiplicity           Mult            ....    1
 Number of Electrons    NEL             ....   84
MP2 TOTAL ENERGY:     -479.107175768 Eh
FINAL SINGLE POINT ENERGY      -479.107175768454
MP2 TOTAL ENERGY:     -479.526806415 Eh
FINAL SINGLE POINT ENERGY      -479.526806414593

CARTESIAN COORDINATES (ANGSTROEM)
---------------------------------
  C      0.845077    1.057919    0.699455
  H      1.506406    1.903222    0.833382
  C      1.375509   -0.217455    0.511161
  H      2.447184   -0.361473    0.502852
  C      0.524068   -1.307044    0.333192
  H      0.935727   -2.296026    0.184923
  C     -0.857716   -1.121463    0.346384
  H     -1.518381   -1.966458    0.208363
  C     -1.388046    0.153634    0.537613
  H     -2.459718    0.297416    0.550032
  C     -0.536613    1.243422    0.712739
  H     -0.948924    2.232806    0.857366
  N      0.013907    0.203528    7.505157
  C      0.168591    1.141490    6.560280
  H      0.310362    2.154016    6.918182
  C      0.154381    0.874200    5.193780
  H      0.284621    1.675226    4.479895
  C     -0.029957   -0.437429    4.768490
  H     -0.046523   -0.680548    3.715142
  C     -0.191806   -1.422464    5.737349
  H     -0.338349   -2.457675    5.462578
  C     -0.162603   -1.055131    7.080439
  H     -0.286199   -1.802645    7.854540

 Multiplicity           Mult            ....    1
 Number of Electrons    NEL             ....   84
 Basis Dimension        Dim             .... 1466

ORBITAL ENERGIES
----------------

  NO   OCC          E(Eh)            E(eV)
   0   2.0000     -15.560145      -423.4131
   1   2.0000     -11.269367      -306.6551
   2   2.0000     -11.269267      -306.6524
   3   2.0000     -11.252058      -306.1841
   4   2.0000     -11.243094      -305.9401
   5   2.0000     -11.242567      -305.9258
   6   2.0000     -11.242464      -305.9230
   7   2.0000     -11.241324      -305.8920
   8   2.0000     -11.241215      -305.8890
   9   2.0000     -11.240657      -305.8738
  10   2.0000     -11.235661      -305.7379
  11   2.0000     -11.235095      -305.7225
  12   2.0000      -1.251291       -34.0494
  13   2.0000      -1.158023       -31.5114
  14   2.0000      -1.083612       -29.4866
  15   2.0000      -1.028001       -27.9733
  16   2.0000      -1.022416       -27.8214
  17   2.0000      -1.022323       -27.8188
  18   2.0000      -0.853378       -23.2216
  19   2.0000      -0.850395       -23.1404
  20   2.0000      -0.831785       -22.6340
  21   2.0000      -0.831660       -22.6306
  22   2.0000      -0.717374       -19.5207
  23   2.0000      -0.716280       -19.4910
  24   2.0000      -0.655101       -17.8262
  25   2.0000      -0.651709       -17.7339
  26   2.0000      -0.648789       -17.6545
  27   2.0000      -0.626907       -17.0590
  28   2.0000      -0.595871       -16.2145
  29   2.0000      -0.595718       -16.2103
  30   2.0000      -0.592909       -16.1339
  31   2.0000      -0.571390       -15.5483
  32   2.0000      -0.536337       -14.5945
  33   2.0000      -0.514240       -13.9932
  34   2.0000      -0.510357       -13.8875
  35   2.0000      -0.502608       -13.6767
  36   2.0000      -0.502598       -13.6764
  37   2.0000      -0.415276       -11.3002
  38   2.0000      -0.378380       -10.2962
  39   2.0000      -0.345376        -9.3981
  40   2.0000      -0.345025        -9.3886
  41   2.0000      -0.342842        -9.3292
  42   0.0000       0.020455         0.5566
  43   0.0000       0.024815         0.6753
  44   0.0000       0.027993         0.7617
  45   0.0000       0.032922         0.8958
  46   0.0000       0.037725         1.0266

MULLIKEN ATOMIC CHARGES
-----------------------
   0 C :   -0.309031
   1 H :    0.301484
   2 C :   -0.328204
   3 H :    0.330385
   4 C :   -0.330835
   5 H :    0.331355
   6 C :   -0.324209
   7 H :    0.332705
   8 C :   -0.326634
   9 H :    0.327341
  10 C :   -0.305712
  11 H :    0.301394
  12 N :   -0.636655
  13 C :   -0.040457
  14 H :    0.496171
  15 C :   -0.628737
  16 H :    0.300930
  17 C :   -0.318105
  18 H :    0.702558
  19 C :   -0.492880
  20 H :    0.276806
  21 C :   -0.187274
  22 H :    0.527604
Sum of atomic charges:    0.0000000

LOEWDIN ATOMIC CHARGES
----------------------
   0 C :    0.323547
   1 H :   -0.324894
   2 C :    0.326328
   3 H :   -0.324740
   4 C :    0.326337
   5 H :   -0.325372
   6 C :    0.326432
   7 H :   -0.325345
   8 C :    0.326522
   9 H :   -0.324650
  10 C :    0.323664
  11 H :   -0.324821
  12 N :    0.586076
  13 C :    0.068743
  14 H :   -0.357894
  15 C :    0.326090
  16 H :   -0.331981
  17 C :    0.325028
  18 H :   -0.325820
  19 C :    0.330139
  20 H :   -0.331622
  21 C :    0.066176
  22 H :   -0.357943

  Mayer bond orders larger than 0.100000
B(  0-C ,  1-H ) :   1.0312 B(  0-C ,  2-C ) :   1.2219 B(  0-C ,  6-C ) :   0.1410
B(  0-C , 10-C ) :   1.2184 B(  2-C ,  3-H ) :   1.0132 B(  2-C ,  4-C ) :   1.2350
B(  2-C ,  8-C ) :   0.1511 B(  4-C ,  5-H ) :   1.0169 B(  4-C ,  6-C ) :   1.2069
B(  4-C , 10-C ) :   0.1433 B(  6-C ,  7-H ) :   1.0144 B(  6-C ,  8-C ) :   1.2324
B(  8-C ,  9-H ) :   1.0151 B(  8-C , 10-C ) :   1.2250 B( 10-C , 11-H ) :   1.0302
B( 12-N , 13-C ) :   1.2424 B( 12-N , 15-C ) :   0.1243 B( 12-N , 19-C ) :   0.1124
B( 12-N , 21-C ) :   1.2519 B( 12-N , 22-H ) :  -0.1020 B( 13-C , 14-H ) :   0.8252
B( 13-C , 15-C ) :   1.2996 B( 13-C , 17-C ) :  -0.1832 B( 13-C , 19-C ) :   0.1432
B( 14-H , 15-C ) :  -0.1440 B( 15-C , 16-H ) :   1.0099 B( 15-C , 17-C ) :   1.1495
B( 15-C , 18-H ) :  -0.1499 B( 15-C , 21-C ) :   0.1028 B( 17-C , 18-H ) :   0.5493
B( 17-C , 19-C ) :   1.1542 B( 17-C , 21-C ) :  -0.1944 B( 18-H , 19-C ) :  -0.1514
B( 19-C , 20-H ) :   1.0197 B( 19-C , 21-C ) :   1.3610 B( 19-C , 22-H ) :  -0.1145
B( 21-C , 22-H ) :   0.7828

MP2 TOTAL ENERGY:     -479.660025960 Eh
FINAL SINGLE POINT ENERGY      -479.660025960479

DIPOLE MOMENT
-------------
                                X             Y             Z
Electronic contribution:      0.01708       0.25412       3.90027
Nuclear contribution   :     -0.03376      -0.46145      -4.95946
                        -----------------------------------------
Total Dipole Moment    :     -0.01668      -0.20733      -1.05919
                        -----------------------------------------
Magnitude (a.u.)       :      1.07942
Magnitude (Debye)      :      2.74366

Rotational constants in cm-1:     0.065138     0.011870     0.011225
Rotational constants in MHz :  1952.777657   355.849680   336.516441

                             ****ORCA TERMINATED NORMALLY****
TOTAL RUN TIME: 0 days 0 hours 49 minutes 48 seconds 804 msec
