                         Program Version 5.0.4 -  RELEASE  -
|  1> ! ri-mp2 aug-cc-pvdz aug-cc-pvdz/c tightscf
|  2> %pal nprocs 16 end
|  3> %maxcore 3800
|  4> %base "DZ_S66by10_22_1.0_dimer"
|  5> %scf STABPerform true end
|  6>
|  7> *xyz 0 1
|  8> C   -1.11362611    1.32702009    0.27516705
|  9> O   -0.46708264    2.34938778    0.46153746
| 10> O   -0.57808939    0.13692049    0.04961747
| 11> H    0.41332036    0.20325661    0.05548711
| 12> C   -2.61142469    1.28618957    0.27736131
| 13> H   -3.00664872    2.27688545    0.46578983
| 14> H   -2.96425623    0.91525868   -0.68200123
| 15> H   -2.95311421    0.59179821    1.04124041
| 16> N    4.19697315    1.08816218    0.18285036
| 17> H    4.59017826    0.17277195    0.01113094
| 18> C    5.11850106    2.13627780    0.36430347
| 19> O    6.31564744    1.91798199    0.31142351
| 20> C    4.47943498    3.41574018    0.60491062
| 21> H    5.09896975    4.28266506    0.75638790
| 22> C    3.13235078    3.49573034    0.63429186
| 23> H    2.60951059    4.42417734    0.80959007
| 24> N    2.32862003    2.40504835    0.44388583
| 25> H    1.30456820    2.47499604    0.46767609
| 26> C    2.82855252    1.15482556    0.20971361
| 27> O    2.11652007    0.16532068    0.03624343
| 28> *
| 29>
| 30> $new_job
| 31> ! ri-mp2 aug-cc-pvtz aug-cc-pvtz/c tightscf
| 32> %pal nprocs 16 end
| 33> %maxcore 3800
| 34> %base "TZ_S66by10_22_1.0_dimer"
| 35>
| 36> *xyz 0 1
| 37> C   -1.11362611    1.32702009    0.27516705
| 38> O   -0.46708264    2.34938778    0.46153746
| 39> O   -0.57808939    0.13692049    0.04961747
| 40> H    0.41332036    0.20325661    0.05548711
| 41> C   -2.61142469    1.28618957    0.27736131
| 42> H   -3.00664872    2.27688545    0.46578983
| 43> H   -2.96425623    0.91525868   -0.68200123
| 44> H   -2.95311421    0.59179821    1.04124041
| 45> N    4.19697315    1.08816218    0.18285036
| 46> H    4.59017826    0.17277195    0.01113094
| 47> C    5.11850106    2.13627780    0.36430347
| 48> O    6.31564744    1.91798199    0.31142351
| 49> C    4.47943498    3.41574018    0.60491062
| 50> H    5.09896975    4.28266506    0.75638790
| 51> C    3.13235078    3.49573034    0.63429186
| 52> H    2.60951059    4.42417734    0.80959007
| 53> N    2.32862003    2.40504835    0.44388583
| 54> H    1.30456820    2.47499604    0.46767609
| 55> C    2.82855252    1.15482556    0.20971361
| 56> O    2.11652007    0.16532068    0.03624343
| 57> *
| 58>
| 59> $new_job
| 60> ! ri-mp2 aug-cc-pvqz aug-cc-pvqz/c tightscf
| 61> %pal nprocs 16 end
| 62> %maxcore 3800
| 63> %base "QZ_S66by10_22_1.0_dimer"
| 64>
| 65> *xyz 0 1
| 66> C   -1.11362611    1.32702009    0.27516705
| 67> O   -0.46708264    2.34938778    0.46153746
| 68> O   -0.57808939    0.13692049    0.04961747
| 69> H    0.41332036    0.20325661    0.05548711
| 70> C   -2.61142469    1.28618957    0.27736131
| 71> H   -3.00664872    2.27688545    0.46578983
| 72> H   -2.96425623    0.91525868   -0.68200123
| 73> H   -2.95311421    0.59179821    1.04124041
| 74> N    4.19697315    1.08816218    0.18285036
| 75> H    4.59017826    0.17277195    0.01113094
| 76> C    5.11850106    2.13627780    0.36430347
| 77> O    6.31564744    1.91798199    0.31142351
| 78> C    4.47943498    3.41574018    0.60491062
| 79> H    5.09896975    4.28266506    0.75638790
| 80> C    3.13235078    3.49573034    0.63429186
| 81> H    2.60951059    4.42417734    0.80959007
| 82> N    2.32862003    2.40504835    0.44388583
| 83> H    1.30456820    2.47499604    0.46767609
| 84> C    2.82855252    1.15482556    0.20971361
| 85> O    2.11652007    0.16532068    0.03624343
| 86> *
| 87>
| 88>
| 89>
| 90>
| 91>                          ****END OF INPUT****
 Total Charge           Charge          ....    0
 Multiplicity           Mult            ....    1
 Number of Electrons    NEL             ....   90
MP2 TOTAL ENERGY:     -642.330829140 Eh
FINAL SINGLE POINT ENERGY      -642.330829139708
MP2 TOTAL ENERGY:     -642.877294989 Eh
FINAL SINGLE POINT ENERGY      -642.877294989456

CARTESIAN COORDINATES (ANGSTROEM)
---------------------------------
  C     -1.113626    1.327020    0.275167
  O     -0.467083    2.349388    0.461537
  O     -0.578089    0.136920    0.049617
  H      0.413320    0.203257    0.055487
  C     -2.611425    1.286190    0.277361
  H     -3.006649    2.276885    0.465790
  H     -2.964256    0.915259   -0.682001
  H     -2.953114    0.591798    1.041240
  N      4.196973    1.088162    0.182850
  H      4.590178    0.172772    0.011131
  C      5.118501    2.136278    0.364303
  O      6.315647    1.917982    0.311424
  C      4.479435    3.415740    0.604911
  H      5.098970    4.282665    0.756388
  C      3.132351    3.495730    0.634292
  H      2.609511    4.424177    0.809590
  N      2.328620    2.405048    0.443886
  H      1.304568    2.474996    0.467676
  C      2.828553    1.154826    0.209714
  O      2.116520    0.165321    0.036243

 Multiplicity           Mult            ....    1
 Number of Electrons    NEL             ....   90
 Basis Dimension        Dim             .... 1328

ORBITAL ENERGIES
----------------

  NO   OCC          E(Eh)            E(eV)
   0   2.0000     -20.600512      -560.5684
   1   2.0000     -20.558361      -559.4215
   2   2.0000     -20.555718      -559.3495
   3   2.0000     -20.538989      -558.8943
   4   2.0000     -15.629474      -425.2996
   5   2.0000     -15.628957      -425.2855
   6   2.0000     -11.424824      -310.8853
   7   2.0000     -11.399547      -310.1974
   8   2.0000     -11.379652      -309.6561
   9   2.0000     -11.334140      -308.4176
  10   2.0000     -11.250766      -306.1489
  11   2.0000     -11.246447      -306.0314
  12   2.0000      -1.468261       -39.9534
  13   2.0000      -1.441348       -39.2211
  14   2.0000      -1.398818       -38.0638
  15   2.0000      -1.365943       -37.1692
  16   2.0000      -1.312208       -35.7070
  17   2.0000      -1.246246       -33.9121
  18   2.0000      -1.085448       -29.5365
  19   2.0000      -1.033167       -28.1139
  20   2.0000      -0.932533       -25.3755
  21   2.0000      -0.903621       -24.5888
  22   2.0000      -0.830159       -22.5898
  23   2.0000      -0.807781       -21.9808
  24   2.0000      -0.766793       -20.8655
  25   2.0000      -0.730836       -19.8871
  26   2.0000      -0.705145       -19.1880
  27   2.0000      -0.692947       -18.8560
  28   2.0000      -0.677005       -18.4223
  29   2.0000      -0.672451       -18.2983
  30   2.0000      -0.655697       -17.8424
  31   2.0000      -0.654815       -17.8184
  32   2.0000      -0.611960       -16.6523
  33   2.0000      -0.602995       -16.4083
  34   2.0000      -0.585233       -15.9250
  35   2.0000      -0.572595       -15.5811
  36   2.0000      -0.571474       -15.5506
  37   2.0000      -0.562669       -15.3110
  38   2.0000      -0.524780       -14.2800
  39   2.0000      -0.496459       -13.5093
  40   2.0000      -0.490996       -13.3607
  41   2.0000      -0.467243       -12.7143
  42   2.0000      -0.450953       -12.2710
  43   2.0000      -0.444954       -12.1078
  44   2.0000      -0.366208        -9.9650
  45   0.0000       0.019168         0.5216
  46   0.0000       0.025926         0.7055
  47   0.0000       0.033381         0.9083
  48   0.0000       0.038253         1.0409
  49   0.0000       0.039413         1.0725

MULLIKEN ATOMIC CHARGES
-----------------------
   0 C :    0.942841
   1 O :   -0.733360
   2 O :   -0.693765
   3 H :    0.280986
   4 C :   -0.725550
   5 H :    0.339671
   6 H :    0.294558
   7 H :    0.293601
   8 N :   -0.664325
   9 H :    0.133245
  10 C :    1.111156
  11 O :   -0.820357
  12 C :   -0.376811
  13 H :    0.292765
  14 C :   -0.307575
  15 H :    0.333215
  16 N :   -0.516626
  17 H :    0.140293
  18 C :    1.413000
  19 O :   -0.736961
Sum of atomic charges:   -0.0000000

LOEWDIN ATOMIC CHARGES
----------------------
   0 C :   -0.950608
   1 O :    0.830555
   2 O :    1.266371
   3 H :   -1.131897
   4 C :    0.878098
   5 H :   -0.324307
   6 H :   -0.302137
   7 H :   -0.302161
   8 N :    0.791066
   9 H :   -0.514732
  10 C :   -0.859173
  11 O :    0.682176
  12 C :    0.337896
  13 H :   -0.354609
  14 C :    0.250006
  15 H :   -0.292246
  16 N :    0.816676
  17 H :   -0.797828
  18 C :   -0.882846
  19 O :    0.859699

  Mayer bond orders larger than 0.100000
B(  0-C ,  1-O ) :   1.5359 B(  0-C ,  2-O ) :   0.9563 B(  0-C ,  4-C ) :   0.6763
B(  2-O ,  3-H ) :   0.8830 B(  4-C ,  5-H ) :   0.9614 B(  4-C ,  6-H ) :   0.9388
B(  4-C ,  7-H ) :   0.9398 B(  8-N ,  9-H ) :   1.1829 B(  8-N , 10-C ) :   1.0348
B(  8-N , 11-O ) :   0.1588 B(  8-N , 18-C ) :   1.0067 B(  9-H , 18-C ) :  -0.1033
B( 10-C , 11-O ) :   1.0434 B( 10-C , 12-C ) :   1.1553 B( 11-O , 12-C ) :   0.2689
B( 12-C , 13-H ) :   1.0026 B( 12-C , 14-C ) :   1.4581 B( 13-H , 14-C ) :  -0.1177
B( 14-C , 15-H ) :   0.9898 B( 14-C , 16-N ) :   0.9841 B( 16-N , 17-H ) :   1.0319
B( 16-N , 18-C ) :   1.1533 B( 16-N , 19-O ) :   0.2023 B( 18-C , 19-O ) :   1.2265

MP2 TOTAL ENERGY:     -643.056908317 Eh
FINAL SINGLE POINT ENERGY      -643.056908316995

DIPOLE MOMENT
-------------
                                X             Y             Z
Electronic contribution:      9.17965      -0.84567      -0.22824
Nuclear contribution   :    -10.78180       1.65466       0.38932
                        -----------------------------------------
Total Dipole Moment    :     -1.60216       0.80898       0.16108
                        -----------------------------------------
Magnitude (a.u.)       :      1.80203
Magnitude (Debye)      :      4.58039

Rotational constants in cm-1:     0.092996     0.013162     0.011555
Rotational constants in MHz :  2787.963343   394.583719   346.396678

                             ****ORCA TERMINATED NORMALLY****
TOTAL RUN TIME: 0 days 6 hours 6 minutes 8 seconds 722 msec
