                         Program Version 5.0.4 -  RELEASE  -
|  1> ! ri-mp2 aug-cc-pvdz aug-cc-pvdz/c tightscf
|  2> %pal nprocs 16 end
|  3> %maxcore 3800
|  4> %base "DZ_S66by10_18_0.95_dimer"
|  5>
|  6> *xyz 0 1
|  7> O   -0.55283102   -0.10169749   -0.00049879
|  8> H   -0.87175963    0.80179220    0.00014440
|  9> H    0.41265950   -0.00183225   -0.00025181
| 10> N    2.30609488    0.09370005    0.00013497
| 11> C    3.00200152    0.05972926    1.14488282
| 12> H    2.41732897    0.08334020    2.05575084
| 13> C    4.39102512   -0.00545317    1.19487888
| 14> H    4.89693150   -0.03030733    2.14920800
| 15> C    5.10218826   -0.03857897   -0.00003227
| 16> H    6.18202821   -0.09035252   -0.00011270
| 17> C    4.39087996   -0.00551983   -1.19483356
| 18> H    4.89667691   -0.03039285   -2.14923216
| 19> C    3.00184995    0.05967516   -1.14468730
| 20> H    2.41708107    0.08327582   -2.05547986
| 21> *
| 22>
| 23> $new_job
| 24> ! ri-mp2 aug-cc-pvtz aug-cc-pvtz/c tightscf
| 25> %pal nprocs 16 end
| 26> %maxcore 3800
| 27> %base "TZ_S66by10_18_0.95_dimer"
| 28>
| 29> *xyz 0 1
| 30> O   -0.55283102   -0.10169749   -0.00049879
| 31> H   -0.87175963    0.80179220    0.00014440
| 32> H    0.41265950   -0.00183225   -0.00025181
| 33> N    2.30609488    0.09370005    0.00013497
| 34> C    3.00200152    0.05972926    1.14488282
| 35> H    2.41732897    0.08334020    2.05575084
| 36> C    4.39102512   -0.00545317    1.19487888
| 37> H    4.89693150   -0.03030733    2.14920800
| 38> C    5.10218826   -0.03857897   -0.00003227
| 39> H    6.18202821   -0.09035252   -0.00011270
| 40> C    4.39087996   -0.00551983   -1.19483356
| 41> H    4.89667691   -0.03039285   -2.14923216
| 42> C    3.00184995    0.05967516   -1.14468730
| 43> H    2.41708107    0.08327582   -2.05547986
| 44> *
| 45>
| 46> $new_job
| 47> ! ri-mp2 aug-cc-pvqz aug-cc-pvqz/c tightscf
| 48> %pal nprocs 16 end
| 49> %maxcore 3800
| 50> %base "QZ_S66by10_18_0.95_dimer"
| 51>
| 52> *xyz 0 1
| 53> O   -0.55283102   -0.10169749   -0.00049879
| 54> H   -0.87175963    0.80179220    0.00014440
| 55> H    0.41265950   -0.00183225   -0.00025181
| 56> N    2.30609488    0.09370005    0.00013497
| 57> C    3.00200152    0.05972926    1.14488282
| 58> H    2.41732897    0.08334020    2.05575084
| 59> C    4.39102512   -0.00545317    1.19487888
| 60> H    4.89693150   -0.03030733    2.14920800
| 61> C    5.10218826   -0.03857897   -0.00003227
| 62> H    6.18202821   -0.09035252   -0.00011270
| 63> C    4.39087996   -0.00551983   -1.19483356
| 64> H    4.89667691   -0.03039285   -2.14923216
| 65> C    3.00184995    0.05967516   -1.14468730
| 66> H    2.41708107    0.08327582   -2.05547986
| 67> *
| 68>
| 69>
| 70>
| 71>
| 72>                          ****END OF INPUT****
 Total Charge           Charge          ....    0
 Multiplicity           Mult            ....    1
 Number of Electrons    NEL             ....   52
MP2 TOTAL ENERGY:     -323.835683797 Eh
FINAL SINGLE POINT ENERGY      -323.835683796655
MP2 TOTAL ENERGY:     -324.118239777 Eh
FINAL SINGLE POINT ENERGY      -324.118239777438

CARTESIAN COORDINATES (ANGSTROEM)
---------------------------------
  O     -0.552831   -0.101697   -0.000499
  H     -0.871760    0.801792    0.000144
  H      0.412659   -0.001832   -0.000252
  N      2.306095    0.093700    0.000135
  C      3.002002    0.059729    1.144883
  H      2.417329    0.083340    2.055751
  C      4.391025   -0.005453    1.194879
  H      4.896931   -0.030307    2.149208
  C      5.102188   -0.038579   -0.000032
  H      6.182028   -0.090353   -0.000113
  C      4.390880   -0.005520   -1.194834
  H      4.896677   -0.030393   -2.149232
  C      3.001850    0.059675   -1.144687
  H      2.417081    0.083276   -2.055480

 Multiplicity           Mult            ....    1
 Number of Electrons    NEL             ....   52
 Basis Dimension        Dim             ....  882

ORBITAL ENERGIES
----------------

  NO   OCC          E(Eh)            E(eV)
   0   2.0000     -20.516882      -558.2928
   1   2.0000     -15.582111      -424.0108
   2   2.0000     -11.288992      -307.1891
   3   2.0000     -11.288974      -307.1886
   4   2.0000     -11.272194      -306.7320
   5   2.0000     -11.253002      -306.2097
   6   2.0000     -11.252951      -306.2084
   7   2.0000      -1.306755       -35.5586
   8   2.0000      -1.273173       -34.6448
   9   2.0000      -1.103136       -30.0179
  10   2.0000      -1.047679       -28.5088
  11   2.0000      -0.873050       -23.7569
  12   2.0000      -0.870683       -23.6925
  13   2.0000      -0.738291       -20.0899
  14   2.0000      -0.675580       -18.3835
  15   2.0000      -0.675338       -18.3769
  16   2.0000      -0.665302       -18.1038
  17   2.0000      -0.612101       -16.6561
  18   2.0000      -0.592278       -16.1167
  19   2.0000      -0.557315       -15.1653
  20   2.0000      -0.544994       -14.8300
  21   2.0000      -0.533654       -14.5215
  22   2.0000      -0.466004       -12.6806
  23   2.0000      -0.437801       -11.9132
  24   2.0000      -0.399481       -10.8704
  25   2.0000      -0.360734        -9.8161
  26   0.0000       0.019172         0.5217
  27   0.0000       0.026472         0.7203
  28   0.0000       0.030867         0.8399
  29   0.0000       0.042398         1.1537
  30   0.0000       0.043434         1.1819

MULLIKEN ATOMIC CHARGES
-----------------------
   0 O :   -0.666905
   1 H :    0.307958
   2 H :    0.240177
   3 N :   -0.465378
   4 C :   -0.310327
   5 H :    0.403245
   6 C :   -0.182062
   7 H :    0.306798
   8 C :   -0.187451
   9 H :    0.336266
  10 C :   -0.182050
  11 H :    0.306806
  12 C :   -0.310304
  13 H :    0.403229
Sum of atomic charges:    0.0000000

LOEWDIN ATOMIC CHARGES
----------------------
   0 O :    1.602868
   1 H :   -0.797605
   2 H :   -1.036755
   3 N :    0.614207
   4 C :    0.121926
   5 H :   -0.338024
   6 C :    0.341257
   7 H :   -0.328500
   8 C :    0.335992
   9 H :   -0.312037
  10 C :    0.341252
  11 H :   -0.328487
  12 C :    0.121934
  13 H :   -0.338027

  Mayer bond orders larger than 0.100000
B(  0-O ,  1-H ) :   0.9362 B(  0-O ,  2-H ) :   0.9275 B(  2-H ,  3-N ) :   0.1151
B(  3-N ,  4-C ) :   1.4108 B(  3-N , 12-C ) :   1.4108 B(  4-C ,  5-H ) :   0.9246
B(  4-C ,  6-C ) :   1.2153 B(  4-C , 10-C ) :   0.1142 B(  6-C ,  7-H ) :   0.9996
B(  6-C ,  8-C ) :   1.1752 B(  6-C , 10-C ) :  -0.1157 B(  6-C , 12-C ) :   0.1142
B(  8-C ,  9-H ) :   0.9788 B(  8-C , 10-C ) :   1.1752 B( 10-C , 11-H ) :   0.9996
B( 10-C , 12-C ) :   1.2152 B( 12-C , 13-H ) :   0.9246

MP2 TOTAL ENERGY:     -324.209480917 Eh
FINAL SINGLE POINT ENERGY      -324.209480916894

DIPOLE MOMENT
-------------
                                X             Y             Z
Electronic contribution:      1.86853      -0.08855       0.00028
Nuclear contribution   :     -0.08829       0.67279       0.00026
                        -----------------------------------------
Total Dipole Moment    :      1.78024       0.58424       0.00054
                        -----------------------------------------
Magnitude (a.u.)       :      1.87366
Magnitude (Debye)      :      4.76245

Rotational constants in cm-1:     0.199135     0.048365     0.039102
Rotational constants in MHz :  5969.922788  1449.936549  1172.261000

                             ****ORCA TERMINATED NORMALLY****
TOTAL RUN TIME: 0 days 0 hours 13 minutes 33 seconds 566 msec
