                         Program Version 5.0.4 -  RELEASE  -
|  1> ! ri-mp2 aug-cc-pvdz aug-cc-pvdz/c tightscf
|  2> %pal nprocs 16 end
|  3> %maxcore 3800
|  4> %base "DZ_S66by10_50_0.7_dimer"
|  5>
|  6> *xyz 0 1
|  7> C    0.83661195    1.11485600    0.23100790
|  8> H    1.48545250    1.97968049    0.21470491
|  9> C    1.38418781   -0.16696533    0.26005688
| 10> H    2.45768419   -0.29628753    0.26605977
| 11> C    0.54747934   -1.28184652    0.28693051
| 12> H    0.97191784   -2.27597918    0.31387670
| 13> C   -0.83666710   -1.11500365    0.28456279
| 14> H   -1.48555353   -1.97956851    0.30969784
| 15> C   -1.38416274    0.16685015    0.25560540
| 16> H   -2.45764469    0.29645927    0.25854055
| 17> C   -0.54749833    1.28174826    0.22897743
| 18> H   -0.97214124    2.27600137    0.21116093
| 19> C    0.00467990    0.05144468    2.76900347
| 20> H    0.00167076    0.03388913    1.70492797
| 21> C    0.00834034    0.07102553    3.98137965
| 22> H    0.01145275    0.08819846    5.04257666
| 23> *
| 24>
| 25> $new_job
| 26> ! ri-mp2 aug-cc-pvtz aug-cc-pvtz/c tightscf
| 27> %pal nprocs 16 end
| 28> %maxcore 3800
| 29> %base "TZ_S66by10_50_0.7_dimer"
| 30>
| 31> *xyz 0 1
| 32> C    0.83661195    1.11485600    0.23100790
| 33> H    1.48545250    1.97968049    0.21470491
| 34> C    1.38418781   -0.16696533    0.26005688
| 35> H    2.45768419   -0.29628753    0.26605977
| 36> C    0.54747934   -1.28184652    0.28693051
| 37> H    0.97191784   -2.27597918    0.31387670
| 38> C   -0.83666710   -1.11500365    0.28456279
| 39> H   -1.48555353   -1.97956851    0.30969784
| 40> C   -1.38416274    0.16685015    0.25560540
| 41> H   -2.45764469    0.29645927    0.25854055
| 42> C   -0.54749833    1.28174826    0.22897743
| 43> H   -0.97214124    2.27600137    0.21116093
| 44> C    0.00467990    0.05144468    2.76900347
| 45> H    0.00167076    0.03388913    1.70492797
| 46> C    0.00834034    0.07102553    3.98137965
| 47> H    0.01145275    0.08819846    5.04257666
| 48> *
| 49>
| 50> $new_job
| 51> ! ri-mp2 aug-cc-pvqz aug-cc-pvqz/c tightscf
| 52> %pal nprocs 16 end
| 53> %maxcore 3800
| 54> %base "QZ_S66by10_50_0.7_dimer"
| 55>
| 56> *xyz 0 1
| 57> C    0.83661195    1.11485600    0.23100790
| 58> H    1.48545250    1.97968049    0.21470491
| 59> C    1.38418781   -0.16696533    0.26005688
| 60> H    2.45768419   -0.29628753    0.26605977
| 61> C    0.54747934   -1.28184652    0.28693051
| 62> H    0.97191784   -2.27597918    0.31387670
| 63> C   -0.83666710   -1.11500365    0.28456279
| 64> H   -1.48555353   -1.97956851    0.30969784
| 65> C   -1.38416274    0.16685015    0.25560540
| 66> H   -2.45764469    0.29645927    0.25854055
| 67> C   -0.54749833    1.28174826    0.22897743
| 68> H   -0.97214124    2.27600137    0.21116093
| 69> C    0.00467990    0.05144468    2.76900347
| 70> H    0.00167076    0.03388913    1.70492797
| 71> C    0.00834034    0.07102553    3.98137965
| 72> H    0.01145275    0.08819846    5.04257666
| 73> *
| 74>
| 75>
| 76>
| 77>
| 78>                          ****END OF INPUT****
 Total Charge           Charge          ....    0
 Multiplicity           Mult            ....    1
 Number of Electrons    NEL             ....   56
MP2 TOTAL ENERGY:     -308.610623547 Eh
FINAL SINGLE POINT ENERGY      -308.610623547449
MP2 TOTAL ENERGY:     -308.886932882 Eh
FINAL SINGLE POINT ENERGY      -308.886932882041

CARTESIAN COORDINATES (ANGSTROEM)
---------------------------------
  C      0.836612    1.114856    0.231008
  H      1.485452    1.979680    0.214705
  C      1.384188   -0.166965    0.260057
  H      2.457684   -0.296288    0.266060
  C      0.547479   -1.281847    0.286931
  H      0.971918   -2.275979    0.313877
  C     -0.836667   -1.115004    0.284563
  H     -1.485554   -1.979569    0.309698
  C     -1.384163    0.166850    0.255605
  H     -2.457645    0.296459    0.258541
  C     -0.547498    1.281748    0.228977
  H     -0.972141    2.276001    0.211161
  C      0.004680    0.051445    2.769003
  H      0.001671    0.033889    1.704928
  C      0.008340    0.071026    3.981380
  H      0.011453    0.088198    5.042577

 Multiplicity           Mult            ....    1
 Number of Electrons    NEL             ....   56
 Basis Dimension        Dim             .... 1008

ORBITAL ENERGIES
----------------

  NO   OCC          E(Eh)            E(eV)
   0   2.0000     -11.246893      -306.0435
   1   2.0000     -11.246314      -306.0278
   2   2.0000     -11.246310      -306.0276
   3   2.0000     -11.245066      -305.9938
   4   2.0000     -11.245063      -305.9937
   5   2.0000     -11.244452      -305.9771
   6   2.0000     -11.205966      -304.9298
   7   2.0000     -11.202089      -304.8243
   8   2.0000      -1.175423       -31.9849
   9   2.0000      -1.030468       -28.0405
  10   2.0000      -1.030460       -28.0402
  11   2.0000      -0.996332       -27.1116
  12   2.0000      -0.836662       -22.7667
  13   2.0000      -0.836645       -22.7663
  14   2.0000      -0.765155       -20.8209
  15   2.0000      -0.717417       -19.5219
  16   2.0000      -0.661872       -18.0104
  17   2.0000      -0.654834       -17.8189
  18   2.0000      -0.631721       -17.1900
  19   2.0000      -0.602750       -16.4017
  20   2.0000      -0.602736       -16.4013
  21   2.0000      -0.507093       -13.7987
  22   2.0000      -0.507065       -13.7979
  23   2.0000      -0.476107       -12.9555
  24   2.0000      -0.394358       -10.7310
  25   2.0000      -0.394353       -10.7309
  26   2.0000      -0.341230        -9.2853
  27   2.0000      -0.341225        -9.2852
  28   0.0000       0.022851         0.6218
  29   0.0000       0.029730         0.8090
  30   0.0000       0.029731         0.8090
  31   0.0000       0.032610         0.8874
  32   0.0000       0.041966         1.1420

MULLIKEN ATOMIC CHARGES
-----------------------
   0 C :   -0.363447
   1 H :    0.233013
   2 C :   -0.362070
   3 H :    0.233291
   4 C :   -0.361246
   5 H :    0.233123
   6 C :   -0.361878
   7 H :    0.233196
   8 C :   -0.363098
   9 H :    0.233189
  10 C :   -0.363779
  11 H :    0.233116
  12 C :   -0.568884
  13 H :    3.168700
  14 C :   -1.938207
  15 H :    0.114983
Sum of atomic charges:    0.0000000

LOEWDIN ATOMIC CHARGES
----------------------
   0 C :    0.346660
   1 H :   -0.292565
   2 C :    0.346337
   3 H :   -0.292511
   4 C :    0.345976
   5 H :   -0.292483
   6 C :    0.346201
   7 H :   -0.292498
   8 C :    0.346585
   9 H :   -0.292552
  10 C :    0.346758
  11 H :   -0.292584
  12 C :    0.493170
  13 H :   -0.921413
  14 C :    0.589260
  15 H :   -0.484339

  Mayer bond orders larger than 0.100000
B(  0-C ,  1-H ) :   1.1337 B(  0-C ,  2-C ) :   1.2538 B(  0-C ,  6-C ) :   0.1523
B(  0-C ,  8-C ) :   0.1007 B(  0-C , 10-C ) :   1.2554 B(  0-C , 13-H ) :  -0.4692
B(  2-C ,  3-H ) :   1.1334 B(  2-C ,  4-C ) :   1.2522 B(  2-C ,  8-C ) :   0.1523
B(  2-C , 10-C ) :   0.1004 B(  2-C , 13-H ) :  -0.4660 B(  4-C ,  5-H ) :   1.1336
B(  4-C ,  6-C ) :   1.2519 B(  4-C , 10-C ) :   0.1524 B(  4-C , 13-H ) :  -0.4632
B(  6-C ,  7-H ) :   1.1335 B(  6-C ,  8-C ) :   1.2534 B(  6-C , 10-C ) :   0.1002
B(  6-C , 13-H ) :  -0.4652 B(  8-C ,  9-H ) :   1.1336 B(  8-C , 10-C ) :   1.2551
B(  8-C , 13-H ) :  -0.4681 B( 10-C , 11-H ) :   1.1337 B( 10-C , 13-H ) :  -0.4706
B( 12-C , 13-H ) :  -1.0001 B( 12-C , 14-C ) :   1.8911 B( 12-C , 15-H ) :  -0.4009
B( 13-H , 14-C ) :  -2.3644 B( 13-H , 15-H ) :  -0.6113 B( 14-C , 15-H ) :   2.0861

MP2 TOTAL ENERGY:     -308.972380528 Eh
FINAL SINGLE POINT ENERGY      -308.972380528212

DIPOLE MOMENT
-------------
                                X             Y             Z
Electronic contribution:     -0.00059      -0.00961      -0.45167
Nuclear contribution   :     -0.00011       0.00025       0.02079
                        -----------------------------------------
Total Dipole Moment    :     -0.00070      -0.00937      -0.43087
                        -----------------------------------------
Magnitude (a.u.)       :      0.43098
Magnitude (Debye)      :      1.09546

Rotational constants in cm-1:     0.095169     0.057573     0.057572
Rotational constants in MHz :  2853.080172  1726.004652  1725.956977

                             ****ORCA TERMINATED NORMALLY****
TOTAL RUN TIME: 0 days 0 hours 31 minutes 15 seconds 576 msec
