                         Program Version 5.0.4 -  RELEASE  -
|  1> ! ri-mp2 aug-cc-pvdz aug-cc-pvdz/c tightscf
|  2> %pal nprocs 16 end
|  3> %maxcore 3800
|  4> %base "DZ_S66by10_41_1.05_dimer"
|  5> %scf STABPerform true end
|  6>
|  7> *xyz 0 1
|  8> N   -0.20890478   -0.96458262    0.53476104
|  9> H   -0.22415099   -1.97310940    0.60508386
| 10> C   -1.44634208   -0.34458112    0.30665858
| 11> O   -2.46123675   -1.01079161    0.19789196
| 12> C   -1.35778219    1.10318559    0.22814378
| 13> H   -2.25657214    1.66773071    0.04984731
| 14> C   -0.16300320    1.70989257    0.38112632
| 15> H   -0.04629046    2.78244591    0.33334968
| 16> N    0.98545210    1.00082412    0.61120636
| 17> H    1.86755978    1.46692777    0.74478430
| 18> C    1.02702092   -0.37917011    0.71264723
| 19> O    2.04919670   -0.99739548    0.93725979
| 20> C    1.15625666    2.35895793    4.23367632
| 21> H    0.72540805    2.67000663    3.28089375
| 22> H    0.52202275    2.76439105    5.02192397
| 23> H    2.13913668    2.81940534    4.32679781
| 24> C    1.22927312    0.84008698    4.32319466
| 25> H    1.65965677    0.55052412    5.28448562
| 26> H    1.90386272    0.44892643    3.55807650
| 27> C   -0.13551207    0.18192033    4.16837790
| 28> H   -0.80675633    0.55079614    4.94999714
| 29> H   -0.58298294    0.49218534    3.21847768
| 30> C   -0.07922313   -1.33876622    4.22801340
| 31> H    0.34438237   -1.64119664    5.18864959
| 32> H    0.61229861   -1.70064516    3.46351097
| 33> C   -1.44850605   -1.98063943    4.04423975
| 34> H   -1.88688505   -1.70718175    3.08405424
| 35> H   -1.39156726   -3.06740782    4.08829694
| 36> H   -2.13646883   -1.65229345    4.82347279
| 37> *
| 38>
| 39> $new_job
| 40> ! ri-mp2 aug-cc-pvtz aug-cc-pvtz/c tightscf
| 41> %pal nprocs 16 end
| 42> %maxcore 3800
| 43> %base "TZ_S66by10_41_1.05_dimer"
| 44>
| 45> *xyz 0 1
| 46> N   -0.20890478   -0.96458262    0.53476104
| 47> H   -0.22415099   -1.97310940    0.60508386
| 48> C   -1.44634208   -0.34458112    0.30665858
| 49> O   -2.46123675   -1.01079161    0.19789196
| 50> C   -1.35778219    1.10318559    0.22814378
| 51> H   -2.25657214    1.66773071    0.04984731
| 52> C   -0.16300320    1.70989257    0.38112632
| 53> H   -0.04629046    2.78244591    0.33334968
| 54> N    0.98545210    1.00082412    0.61120636
| 55> H    1.86755978    1.46692777    0.74478430
| 56> C    1.02702092   -0.37917011    0.71264723
| 57> O    2.04919670   -0.99739548    0.93725979
| 58> C    1.15625666    2.35895793    4.23367632
| 59> H    0.72540805    2.67000663    3.28089375
| 60> H    0.52202275    2.76439105    5.02192397
| 61> H    2.13913668    2.81940534    4.32679781
| 62> C    1.22927312    0.84008698    4.32319466
| 63> H    1.65965677    0.55052412    5.28448562
| 64> H    1.90386272    0.44892643    3.55807650
| 65> C   -0.13551207    0.18192033    4.16837790
| 66> H   -0.80675633    0.55079614    4.94999714
| 67> H   -0.58298294    0.49218534    3.21847768
| 68> C   -0.07922313   -1.33876622    4.22801340
| 69> H    0.34438237   -1.64119664    5.18864959
| 70> H    0.61229861   -1.70064516    3.46351097
| 71> C   -1.44850605   -1.98063943    4.04423975
| 72> H   -1.88688505   -1.70718175    3.08405424
| 73> H   -1.39156726   -3.06740782    4.08829694
| 74> H   -2.13646883   -1.65229345    4.82347279
| 75> *
| 76>
| 77> $new_job
| 78> ! ri-mp2 aug-cc-pvqz aug-cc-pvqz/c tightscf
| 79> %pal nprocs 16 end
| 80> %maxcore 3800
| 81> %base "QZ_S66by10_41_1.05_dimer"
| 82>
| 83> *xyz 0 1
| 84> N   -0.20890478   -0.96458262    0.53476104
| 85> H   -0.22415099   -1.97310940    0.60508386
| 86> C   -1.44634208   -0.34458112    0.30665858
| 87> O   -2.46123675   -1.01079161    0.19789196
| 88> C   -1.35778219    1.10318559    0.22814378
| 89> H   -2.25657214    1.66773071    0.04984731
| 90> C   -0.16300320    1.70989257    0.38112632
| 91> H   -0.04629046    2.78244591    0.33334968
| 92> N    0.98545210    1.00082412    0.61120636
| 93> H    1.86755978    1.46692777    0.74478430
| 94> C    1.02702092   -0.37917011    0.71264723
| 95> O    2.04919670   -0.99739548    0.93725979
| 96> C    1.15625666    2.35895793    4.23367632
| 97> H    0.72540805    2.67000663    3.28089375
| 98> H    0.52202275    2.76439105    5.02192397
| 99> H    2.13913668    2.81940534    4.32679781
|100> C    1.22927312    0.84008698    4.32319466
|101> H    1.65965677    0.55052412    5.28448562
|102> H    1.90386272    0.44892643    3.55807650
|103> C   -0.13551207    0.18192033    4.16837790
|104> H   -0.80675633    0.55079614    4.94999714
|105> H   -0.58298294    0.49218534    3.21847768
|106> C   -0.07922313   -1.33876622    4.22801340
|107> H    0.34438237   -1.64119664    5.18864959
|108> H    0.61229861   -1.70064516    3.46351097
|109> C   -1.44850605   -1.98063943    4.04423975
|110> H   -1.88688505   -1.70718175    3.08405424
|111> H   -1.39156726   -3.06740782    4.08829694
|112> H   -2.13646883   -1.65229345    4.82347279
|113> *
|114>
|115>
|116>
|117>
|118>                          ****END OF INPUT****
 Total Charge           Charge          ....    0
 Multiplicity           Mult            ....    1
 Number of Electrons    NEL             ....  100
MP2 TOTAL ENERGY:     -610.903503758 Eh
FINAL SINGLE POINT ENERGY      -610.903503757690
MP2 TOTAL ENERGY:     -611.445872222 Eh
FINAL SINGLE POINT ENERGY      -611.445872222316

CARTESIAN COORDINATES (ANGSTROEM)
---------------------------------
  N     -0.208905   -0.964583    0.534761
  H     -0.224151   -1.973109    0.605084
  C     -1.446342   -0.344581    0.306659
  O     -2.461237   -1.010792    0.197892
  C     -1.357782    1.103186    0.228144
  H     -2.256572    1.667731    0.049847
  C     -0.163003    1.709893    0.381126
  H     -0.046290    2.782446    0.333350
  N      0.985452    1.000824    0.611206
  H      1.867560    1.466928    0.744784
  C      1.027021   -0.379170    0.712647
  O      2.049197   -0.997395    0.937260
  C      1.156257    2.358958    4.233676
  H      0.725408    2.670007    3.280894
  H      0.522023    2.764391    5.021924
  H      2.139137    2.819405    4.326798
  C      1.229273    0.840087    4.323195
  H      1.659657    0.550524    5.284486
  H      1.903863    0.448926    3.558076
  C     -0.135512    0.181920    4.168378
  H     -0.806756    0.550796    4.949997
  H     -0.582983    0.492185    3.218478
  C     -0.079223   -1.338766    4.228013
  H      0.344382   -1.641197    5.188650
  H      0.612299   -1.700645    3.463511
  C     -1.448506   -1.980639    4.044240
  H     -1.886885   -1.707182    3.084054
  H     -1.391567   -3.067408    4.088297
  H     -2.136469   -1.652293    4.823473

 Multiplicity           Mult            ....    1
 Number of Electrons    NEL             ....  100
 Basis Dimension        Dim             .... 1776

ORBITAL ENERGIES
----------------

  NO   OCC          E(Eh)            E(eV)
   0   2.0000     -20.545971      -559.0843
   1   2.0000     -20.540387      -558.9323
   2   2.0000     -15.642920      -425.6655
   3   2.0000     -15.626287      -425.2129
   4   2.0000     -11.418958      -310.7256
   5   2.0000     -11.380888      -309.6897
   6   2.0000     -11.340312      -308.5856
   7   2.0000     -11.255017      -306.2646
   8   2.0000     -11.216802      -305.2247
   9   2.0000     -11.215786      -305.1970
  10   2.0000     -11.212851      -305.1172
  11   2.0000     -11.210042      -305.0407
  12   2.0000     -11.202457      -304.8344
  13   2.0000      -1.437111       -39.1058
  14   2.0000      -1.398955       -38.0675
  15   2.0000      -1.314130       -35.7593
  16   2.0000      -1.246507       -33.9192
  17   2.0000      -1.088974       -29.6325
  18   2.0000      -1.084179       -29.5020
  19   2.0000      -1.018040       -27.7023
  20   2.0000      -0.934483       -25.4286
  21   2.0000      -0.922233       -25.0952
  22   2.0000      -0.902483       -24.5578
  23   2.0000      -0.822880       -22.3917
  24   2.0000      -0.807969       -21.9860
  25   2.0000      -0.788047       -21.4438
  26   2.0000      -0.766223       -20.8500
  27   2.0000      -0.715437       -19.4680
  28   2.0000      -0.678923       -18.4744
  29   2.0000      -0.676928       -18.4202
  30   2.0000      -0.654384       -17.8067
  31   2.0000      -0.644314       -17.5327
  32   2.0000      -0.616224       -16.7683
  33   2.0000      -0.602832       -16.4039
  34   2.0000      -0.602265       -16.3885
  35   2.0000      -0.597601       -16.2615
  36   2.0000      -0.571682       -15.5563
  37   2.0000      -0.557695       -15.1757
  38   2.0000      -0.550764       -14.9871
  39   2.0000      -0.529690       -14.4136
  40   2.0000      -0.527566       -14.3558
  41   2.0000      -0.498039       -13.5523
  42   2.0000      -0.485751       -13.2179
  43   2.0000      -0.478727       -13.0268
  44   2.0000      -0.464787       -12.6475
  45   2.0000      -0.460817       -12.5395
  46   2.0000      -0.450765       -12.2659
  47   2.0000      -0.449383       -12.2283
  48   2.0000      -0.438242       -11.9252
  49   2.0000      -0.370078       -10.0703
  50   0.0000       0.013525         0.3680
  51   0.0000       0.027554         0.7498
  52   0.0000       0.028041         0.7630
  53   0.0000       0.031549         0.8585
  54   0.0000       0.039343         1.0706

MULLIKEN ATOMIC CHARGES
-----------------------
   0 N :   -0.759604
   1 H :    0.045703
   2 C :    1.318423
   3 O :   -0.919241
   4 C :   -0.476684
   5 H :    0.261867
   6 C :   -0.219107
   7 H :    0.372061
   8 N :   -0.659582
   9 H :    0.105766
  10 C :    1.960029
  11 O :   -0.947161
  12 C :   -1.004040
  13 H :    0.302167
  14 H :    0.237323
  15 H :    0.252836
  16 C :   -0.560310
  17 H :    0.317027
  18 H :    0.265877
  19 C :   -0.251290
  20 H :    0.299586
  21 H :    0.258205
  22 C :   -0.573666
  23 H :    0.316813
  24 H :    0.268906
  25 C :   -1.003039
  26 H :    0.307184
  27 H :    0.245162
  28 H :    0.238790
Sum of atomic charges:   -0.0000000

LOEWDIN ATOMIC CHARGES
----------------------
   0 N :    0.780987
   1 H :   -0.513673
   2 C :   -0.872410
   3 O :    0.695830
   4 C :    0.336380
   5 H :   -0.349073
   6 C :    0.227698
   7 H :   -0.292596
   8 N :    0.813614
   9 H :   -0.486690
  10 C :   -1.006586
  11 O :    0.713778
  12 C :    0.926976
  13 H :   -0.301666
  14 H :   -0.281254
  15 H :   -0.279145
  16 C :    0.505150
  17 H :   -0.265828
  18 H :   -0.291773
  19 C :    0.487512
  20 H :   -0.260341
  21 H :   -0.302055
  22 C :    0.505591
  23 H :   -0.266584
  24 H :   -0.291968
  25 C :    0.931194
  26 H :   -0.303612
  27 H :   -0.278094
  28 H :   -0.281362

  Mayer bond orders larger than 0.100000
B(  0-N ,  1-H ) :   1.2459 B(  0-N ,  2-C ) :   0.9873 B(  0-N ,  3-O ) :   0.1770
B(  0-N , 10-C ) :   0.8931 B(  0-N , 11-O ) :   0.2490 B(  2-C ,  3-O ) :   0.7826
B(  2-C ,  4-C ) :   1.1476 B(  3-O ,  4-C ) :   0.2715 B(  4-C ,  5-H ) :   1.0281
B(  4-C ,  6-C ) :   1.5516 B(  6-C ,  7-H ) :   0.9950 B(  6-C ,  8-N ) :   0.8836
B(  8-N ,  9-H ) :   1.1604 B(  8-N , 10-C ) :   0.9677 B(  8-N , 11-O ) :   0.2272
B( 10-C , 11-O ) :   0.7028 B( 12-C , 13-H ) :   0.8726 B( 12-C , 14-H ) :   0.9935
B( 12-C , 15-H ) :   1.0385 B( 12-C , 16-C ) :   1.0257 B( 12-C , 19-C ) :  -0.1180
B( 16-C , 17-H ) :   0.8599 B( 16-C , 18-H ) :   0.8765 B( 16-C , 19-C ) :   0.7880
B( 19-C , 20-H ) :   0.8772 B( 19-C , 21-H ) :   0.8547 B( 19-C , 22-C ) :   0.7845
B( 19-C , 25-C ) :  -0.1148 B( 22-C , 23-H ) :   0.8609 B( 22-C , 24-H ) :   0.8779
B( 22-C , 25-C ) :   1.0324 B( 25-C , 26-H ) :   0.8595 B( 25-C , 27-H ) :   1.0448
B( 25-C , 28-H ) :   0.9929

MP2 TOTAL ENERGY:     -611.618166128 Eh
FINAL SINGLE POINT ENERGY      -611.618166127590

DIPOLE MOMENT
-------------
                                X             Y             Z
Electronic contribution:     -0.66155      -2.48250     -19.53976
Nuclear contribution   :      1.22194       4.27011      19.54810
                        -----------------------------------------
Total Dipole Moment    :      0.56038       1.78761       0.00834
                        -----------------------------------------
Magnitude (a.u.)       :      1.87341
Magnitude (Debye)      :      4.76182

Rotational constants in cm-1:     0.027436     0.019586     0.015975
Rotational constants in MHz :   822.511480   587.162397   478.909157

                             ****ORCA TERMINATED NORMALLY****
TOTAL RUN TIME: 0 days 13 hours 37 minutes 48 seconds 196 msec
