                         Program Version 5.0.4 -  RELEASE  -
|  1> ! ri-mp2 aug-cc-pvdz aug-cc-pvdz/c tightscf
|  2> %pal nprocs 16 end
|  3> %maxcore 3800
|  4> %base "DZ_S66by10_37_0.95_dimer"
|  5> %scf STABPerform true end
|  6>
|  7> *xyz 0 1
|  8> C    0.79991408   -1.02205164    0.68773696
|  9> H    0.85355588   -1.12205101   -0.39801435
| 10> H    1.49140210   -1.74416936    1.11972040
| 11> C    1.11688700    0.42495279    1.09966205
| 12> H    1.83814230    0.89014504    0.43045256
| 13> H    1.55556959    0.43982464    2.09708356
| 14> C   -0.24455916    1.16568959    1.10297714
| 15> H   -0.25807760    2.00086313    0.40532333
| 16> H   -0.44880450    1.57699582    2.09098447
| 17> C   -1.29871418    0.10381191    0.73930899
| 18> H   -1.47356078    0.10524338   -0.33800545
| 19> H   -2.25673428    0.27804118    1.22715843
| 20> C   -0.64687993   -1.22006836    1.13630660
| 21> H   -1.12443918   -2.08762702    0.68299327
| 22> H   -0.68601864   -1.34528332    2.22022006
| 23> C    0.04607836    0.08687006    5.44748594
| 24> C   -0.05026584   -0.06521592    6.96312642
| 25> H    0.94228053   -0.08068212    7.41548364
| 26> H   -0.60919060    0.76266858    7.40156133
| 27> H   -0.55743053   -0.99388200    7.22847601
| 28> C    0.76013160    1.39377517    5.11186106
| 29> H    0.84165115    1.52727430    4.03217919
| 30> H    0.21665922    2.24846360    5.51736244
| 31> H    1.76773615    1.40442558    5.53009406
| 32> C   -1.35893345    0.10669470    4.85016642
| 33> H   -1.32200186    0.22388464    3.76631745
| 34> H   -1.94123298    0.93411826    5.25851234
| 35> H   -1.88883651   -0.82109214    5.07149571
| 36> C    0.83397818   -1.08661485    4.87014777
| 37> H    0.33875786   -2.03360559    5.09039092
| 38> H    0.92882135   -0.99943209    3.78701299
| 39> H    1.83869626   -1.12401949    5.29389622
| 40> *
| 41>
| 42> $new_job
| 43> ! ri-mp2 aug-cc-pvtz aug-cc-pvtz/c tightscf
| 44> %pal nprocs 16 end
| 45> %maxcore 3800
| 46> %base "TZ_S66by10_37_0.95_dimer"
| 47>
| 48> *xyz 0 1
| 49> C    0.79991408   -1.02205164    0.68773696
| 50> H    0.85355588   -1.12205101   -0.39801435
| 51> H    1.49140210   -1.74416936    1.11972040
| 52> C    1.11688700    0.42495279    1.09966205
| 53> H    1.83814230    0.89014504    0.43045256
| 54> H    1.55556959    0.43982464    2.09708356
| 55> C   -0.24455916    1.16568959    1.10297714
| 56> H   -0.25807760    2.00086313    0.40532333
| 57> H   -0.44880450    1.57699582    2.09098447
| 58> C   -1.29871418    0.10381191    0.73930899
| 59> H   -1.47356078    0.10524338   -0.33800545
| 60> H   -2.25673428    0.27804118    1.22715843
| 61> C   -0.64687993   -1.22006836    1.13630660
| 62> H   -1.12443918   -2.08762702    0.68299327
| 63> H   -0.68601864   -1.34528332    2.22022006
| 64> C    0.04607836    0.08687006    5.44748594
| 65> C   -0.05026584   -0.06521592    6.96312642
| 66> H    0.94228053   -0.08068212    7.41548364
| 67> H   -0.60919060    0.76266858    7.40156133
| 68> H   -0.55743053   -0.99388200    7.22847601
| 69> C    0.76013160    1.39377517    5.11186106
| 70> H    0.84165115    1.52727430    4.03217919
| 71> H    0.21665922    2.24846360    5.51736244
| 72> H    1.76773615    1.40442558    5.53009406
| 73> C   -1.35893345    0.10669470    4.85016642
| 74> H   -1.32200186    0.22388464    3.76631745
| 75> H   -1.94123298    0.93411826    5.25851234
| 76> H   -1.88883651   -0.82109214    5.07149571
| 77> C    0.83397818   -1.08661485    4.87014777
| 78> H    0.33875786   -2.03360559    5.09039092
| 79> H    0.92882135   -0.99943209    3.78701299
| 80> H    1.83869626   -1.12401949    5.29389622
| 81> *
| 82>
| 83> $new_job
| 84> ! ri-mp2 aug-cc-pvqz aug-cc-pvqz/c tightscf
| 85> %pal nprocs 16 end
| 86> %maxcore 3800
| 87> %base "QZ_S66by10_37_0.95_dimer"
| 88>
| 89> *xyz 0 1
| 90> C    0.79991408   -1.02205164    0.68773696
| 91> H    0.85355588   -1.12205101   -0.39801435
| 92> H    1.49140210   -1.74416936    1.11972040
| 93> C    1.11688700    0.42495279    1.09966205
| 94> H    1.83814230    0.89014504    0.43045256
| 95> H    1.55556959    0.43982464    2.09708356
| 96> C   -0.24455916    1.16568959    1.10297714
| 97> H   -0.25807760    2.00086313    0.40532333
| 98> H   -0.44880450    1.57699582    2.09098447
| 99> C   -1.29871418    0.10381191    0.73930899
|100> H   -1.47356078    0.10524338   -0.33800545
|101> H   -2.25673428    0.27804118    1.22715843
|102> C   -0.64687993   -1.22006836    1.13630660
|103> H   -1.12443918   -2.08762702    0.68299327
|104> H   -0.68601864   -1.34528332    2.22022006
|105> C    0.04607836    0.08687006    5.44748594
|106> C   -0.05026584   -0.06521592    6.96312642
|107> H    0.94228053   -0.08068212    7.41548364
|108> H   -0.60919060    0.76266858    7.40156133
|109> H   -0.55743053   -0.99388200    7.22847601
|110> C    0.76013160    1.39377517    5.11186106
|111> H    0.84165115    1.52727430    4.03217919
|112> H    0.21665922    2.24846360    5.51736244
|113> H    1.76773615    1.40442558    5.53009406
|114> C   -1.35893345    0.10669470    4.85016642
|115> H   -1.32200186    0.22388464    3.76631745
|116> H   -1.94123298    0.93411826    5.25851234
|117> H   -1.88883651   -0.82109214    5.07149571
|118> C    0.83397818   -1.08661485    4.87014777
|119> H    0.33875786   -2.03360559    5.09039092
|120> H    0.92882135   -0.99943209    3.78701299
|121> H    1.83869626   -1.12401949    5.29389622
|122> *
|123>
|124>
|125>
|126>
|127>                          ****END OF INPUT****
 Total Charge           Charge          ....    0
 Multiplicity           Mult            ....    1
 Number of Electrons    NEL             ....   82
MP2 TOTAL ENERGY:     -393.051499313 Eh
FINAL SINGLE POINT ENERGY      -393.051499313296
MP2 TOTAL ENERGY:     -393.434391502 Eh
FINAL SINGLE POINT ENERGY      -393.434391501549

CARTESIAN COORDINATES (ANGSTROEM)
---------------------------------
  C      0.799914   -1.022052    0.687737
  H      0.853556   -1.122051   -0.398014
  H      1.491402   -1.744169    1.119720
  C      1.116887    0.424953    1.099662
  H      1.838142    0.890145    0.430453
  H      1.555570    0.439825    2.097084
  C     -0.244559    1.165690    1.102977
  H     -0.258078    2.000863    0.405323
  H     -0.448804    1.576996    2.090984
  C     -1.298714    0.103812    0.739309
  H     -1.473561    0.105243   -0.338005
  H     -2.256734    0.278041    1.227158
  C     -0.646880   -1.220068    1.136307
  H     -1.124439   -2.087627    0.682993
  H     -0.686019   -1.345283    2.220220
  C      0.046078    0.086870    5.447486
  C     -0.050266   -0.065216    6.963126
  H      0.942281   -0.080682    7.415484
  H     -0.609191    0.762669    7.401561
  H     -0.557431   -0.993882    7.228476
  C      0.760132    1.393775    5.111861
  H      0.841651    1.527274    4.032179
  H      0.216659    2.248464    5.517362
  H      1.767736    1.404426    5.530094
  C     -1.358933    0.106695    4.850166
  H     -1.322002    0.223885    3.766317
  H     -1.941233    0.934118    5.258512
  H     -1.888837   -0.821092    5.071496
  C      0.833978   -1.086615    4.870148
  H      0.338758   -2.033606    5.090391
  H      0.928821   -0.999432    3.787013
  H      1.838696   -1.124019    5.293896

 Multiplicity           Mult            ....    1
 Number of Electrons    NEL             ....   82
 Basis Dimension        Dim             .... 1812

ORBITAL ENERGIES
----------------

  NO   OCC          E(Eh)            E(eV)
   0   2.0000     -11.225899      -305.4722
   1   2.0000     -11.209879      -305.0363
   2   2.0000     -11.209551      -305.0274
   3   2.0000     -11.209274      -305.0198
   4   2.0000     -11.208916      -305.0101
   5   2.0000     -11.207846      -304.9810
   6   2.0000     -11.204406      -304.8874
   7   2.0000     -11.204379      -304.8866
   8   2.0000     -11.204345      -304.8857
   9   2.0000     -11.204284      -304.8841
  10   2.0000      -1.116744       -30.3881
  11   2.0000      -1.106363       -30.1057
  12   2.0000      -0.957635       -26.0586
  13   2.0000      -0.957159       -26.0456
  14   2.0000      -0.929313       -25.2879
  15   2.0000      -0.928926       -25.2774
  16   2.0000      -0.928798       -25.2739
  17   2.0000      -0.777799       -21.1650
  18   2.0000      -0.768480       -20.9114
  19   2.0000      -0.730615       -19.8811
  20   2.0000      -0.653841       -17.7919
  21   2.0000      -0.645348       -17.5608
  22   2.0000      -0.612906       -16.6780
  23   2.0000      -0.612471       -16.6662
  24   2.0000      -0.609924       -16.5969
  25   2.0000      -0.575293       -15.6545
  26   2.0000      -0.572262       -15.5720
  27   2.0000      -0.551727       -15.0133
  28   2.0000      -0.550416       -14.9776
  29   2.0000      -0.509790       -13.8721
  30   2.0000      -0.509619       -13.8674
  31   2.0000      -0.509389       -13.8612
  32   2.0000      -0.476043       -12.9538
  33   2.0000      -0.475580       -12.9412
  34   2.0000      -0.464905       -12.6507
  35   2.0000      -0.464646       -12.6437
  36   2.0000      -0.460328       -12.5261
  37   2.0000      -0.453292       -12.3347
  38   2.0000      -0.452586       -12.3155
  39   2.0000      -0.449527       -12.2323
  40   2.0000      -0.445776       -12.1302
  41   0.0000       0.022722         0.6183
  42   0.0000       0.028293         0.7699
  43   0.0000       0.029316         0.7977
  44   0.0000       0.029505         0.8029
  45   0.0000       0.039590         1.0773

MULLIKEN ATOMIC CHARGES
-----------------------
   0 C :   -0.659142
   1 H :    0.260464
   2 H :    0.260893
   3 C :   -0.611047
   4 H :    0.318978
   5 H :    0.348123
   6 C :   -0.573253
   7 H :    0.309087
   8 H :    0.341211
   9 C :   -0.664824
  10 H :    0.257664
  11 H :    0.261842
  12 C :   -0.551365
  13 H :    0.326534
  14 H :    0.368644
  15 C :    2.032143
  16 C :   -1.151046
  17 H :    0.229058
  18 H :    0.228254
  19 H :    0.208942
  20 C :   -1.326562
  21 H :    0.456571
  22 H :    0.173668
  23 H :    0.173741
  24 C :   -1.286669
  25 H :    0.414945
  26 H :    0.143429
  27 H :    0.216008
  28 C :   -1.280439
  29 H :    0.215236
  30 H :    0.419994
  31 H :    0.138916
Sum of atomic charges:   -0.0000000

LOEWDIN ATOMIC CHARGES
----------------------
   0 C :    0.537624
   1 H :   -0.264455
   2 H :   -0.254696
   3 C :    0.552082
   4 H :   -0.256287
   5 H :   -0.301371
   6 C :    0.554308
   7 H :   -0.257579
   8 H :   -0.299657
   9 C :    0.538586
  10 H :   -0.265119
  11 H :   -0.256223
  12 C :    0.523437
  13 H :   -0.246781
  14 H :   -0.307787
  15 C :   -0.312579
  16 C :    0.905546
  17 H :   -0.271044
  18 H :   -0.271006
  19 H :   -0.270460
  20 C :    0.911155
  21 H :   -0.305469
  22 H :   -0.263462
  23 H :   -0.263440
  24 C :    0.910061
  25 H :   -0.318059
  26 H :   -0.260925
  27 H :   -0.259856
  28 C :    0.910482
  29 H :   -0.260077
  30 H :   -0.315741
  31 H :   -0.261209

  Mayer bond orders larger than 0.100000
B(  0-C ,  1-H ) :   0.9568 B(  0-C ,  2-H ) :   0.9090 B(  0-C ,  3-C ) :   0.9437
B(  0-C , 12-C ) :   0.8980 B(  3-C ,  4-H ) :   0.9307 B(  3-C ,  5-H ) :   0.8478
B(  3-C ,  6-C ) :   0.8716 B(  6-C ,  7-H ) :   0.9369 B(  6-C ,  8-H ) :   0.8545
B(  6-C ,  9-C ) :   0.9509 B(  9-C , 10-H ) :   0.9662 B(  9-C , 11-H ) :   0.9091
B(  9-C , 12-C ) :   0.8767 B( 12-C , 13-H ) :   0.8877 B( 12-C , 14-H ) :   0.8032
B( 15-C , 17-H ) :  -0.1795 B( 15-C , 18-H ) :  -0.1799 B( 15-C , 19-H ) :  -0.2034
B( 15-C , 20-C ) :   0.3451 B( 15-C , 24-C ) :   0.3388 B( 15-C , 25-H ) :  -0.1017
B( 15-C , 28-C ) :   0.3184 B( 16-C , 17-H ) :   1.0872 B( 16-C , 18-H ) :   1.0874
B( 16-C , 19-H ) :   1.1106 B( 16-C , 20-C ) :   0.1794 B( 16-C , 24-C ) :   0.1767
B( 16-C , 28-C ) :   0.1760 B( 20-C , 21-H ) :   0.7964 B( 20-C , 22-H ) :   1.1257
B( 20-C , 23-H ) :   1.1265 B( 20-C , 24-C ) :   0.1656 B( 20-C , 28-C ) :   0.1645
B( 24-C , 25-H ) :   0.8829 B( 24-C , 26-H ) :   1.1595 B( 24-C , 27-H ) :   1.0693
B( 24-C , 28-C ) :   0.1456 B( 28-C , 29-H ) :   1.0734 B( 28-C , 30-H ) :   0.8801
B( 28-C , 31-H ) :   1.1710

MP2 TOTAL ENERGY:     -393.548683372 Eh
FINAL SINGLE POINT ENERGY      -393.548683371877

DIPOLE MOMENT
-------------
                                X             Y             Z
Electronic contribution:     -0.11377      -0.23306      -3.59437
Nuclear contribution   :      0.11099       0.22717       3.57282
                        -----------------------------------------
Total Dipole Moment    :     -0.00278      -0.00589      -0.02155
                        -----------------------------------------
Magnitude (a.u.)       :      0.02251
Magnitude (Debye)      :      0.05722

Rotational constants in cm-1:     0.068753     0.018523     0.018502
Rotational constants in MHz :  2061.166960   555.292417   554.668796

                             ****ORCA TERMINATED NORMALLY****
TOTAL RUN TIME: 0 days 20 hours 38 minutes 27 seconds 207 msec
