                         Program Version 5.0.4 -  RELEASE  -
|  1> ! ri-mp2 aug-cc-pvdz aug-cc-pvdz/c tightscf
|  2> %pal nprocs 16 end
|  3> %maxcore 3800
|  4> %base "DZ_S66by10_43_0.9_dimer"
|  5> %scf STABPerform true end
|  6>
|  7> *xyz 0 1
|  8> N    0.62608128   -0.85091265    0.80591569
|  9> H    0.40918989   -1.81150056    1.03440142
| 10> C   -0.43245619   -0.08733581    0.29466376
| 11> O   -1.53077162   -0.58840313    0.12359257
| 12> C   -0.06687462    1.29127521    0.01963739
| 13> H   -0.80974352    1.95181039   -0.39283965
| 14> C    1.18354208    1.71793501    0.29053321
| 15> H    1.50185022    2.73387064    0.10983284
| 16> N    2.13412979    0.88660160    0.81908177
| 17> H    3.05533594    1.22390137    1.04342778
| 18> C    1.90278319   -0.44317844    1.12831175
| 19> O    2.74380631   -1.16392354    1.62858730
| 20> C   -0.53267162   -0.02432506    4.47697299
| 21> C   -1.84941780    0.71696374    4.69184590
| 22> H   -2.55648920    0.09875756    5.24670824
| 23> H   -1.68991824    1.63714829    5.25603091
| 24> H   -2.30712758    0.97846076    3.73669224
| 25> C    0.08276500   -0.37776298    5.82825044
| 26> H    1.02592717   -0.91013629    5.69746860
| 27> H    0.27978595    0.52197876    6.41305258
| 28> H   -0.58852902   -1.01549999    6.40498718
| 29> C    0.43245266    0.86915276    3.70118390
| 30> H    1.38102314    0.35655806    3.53082990
| 31> H    0.63774286    1.78728921    4.25461027
| 32> H    0.01005727    1.14763937    2.73371946
| 33> C   -0.79398881   -1.30435945    3.68660810
| 34> H   -1.25772721   -1.08252575    2.72398346
| 35> H    0.13858749   -1.84275837    3.50697142
| 36> H   -1.46449662   -1.96617341    4.23679302
| 37> *
| 38>
| 39> $new_job
| 40> ! ri-mp2 aug-cc-pvtz aug-cc-pvtz/c tightscf
| 41> %pal nprocs 16 end
| 42> %maxcore 3800
| 43> %base "TZ_S66by10_43_0.9_dimer"
| 44>
| 45> *xyz 0 1
| 46> N    0.62608128   -0.85091265    0.80591569
| 47> H    0.40918989   -1.81150056    1.03440142
| 48> C   -0.43245619   -0.08733581    0.29466376
| 49> O   -1.53077162   -0.58840313    0.12359257
| 50> C   -0.06687462    1.29127521    0.01963739
| 51> H   -0.80974352    1.95181039   -0.39283965
| 52> C    1.18354208    1.71793501    0.29053321
| 53> H    1.50185022    2.73387064    0.10983284
| 54> N    2.13412979    0.88660160    0.81908177
| 55> H    3.05533594    1.22390137    1.04342778
| 56> C    1.90278319   -0.44317844    1.12831175
| 57> O    2.74380631   -1.16392354    1.62858730
| 58> C   -0.53267162   -0.02432506    4.47697299
| 59> C   -1.84941780    0.71696374    4.69184590
| 60> H   -2.55648920    0.09875756    5.24670824
| 61> H   -1.68991824    1.63714829    5.25603091
| 62> H   -2.30712758    0.97846076    3.73669224
| 63> C    0.08276500   -0.37776298    5.82825044
| 64> H    1.02592717   -0.91013629    5.69746860
| 65> H    0.27978595    0.52197876    6.41305258
| 66> H   -0.58852902   -1.01549999    6.40498718
| 67> C    0.43245266    0.86915276    3.70118390
| 68> H    1.38102314    0.35655806    3.53082990
| 69> H    0.63774286    1.78728921    4.25461027
| 70> H    0.01005727    1.14763937    2.73371946
| 71> C   -0.79398881   -1.30435945    3.68660810
| 72> H   -1.25772721   -1.08252575    2.72398346
| 73> H    0.13858749   -1.84275837    3.50697142
| 74> H   -1.46449662   -1.96617341    4.23679302
| 75> *
| 76>
| 77> $new_job
| 78> ! ri-mp2 aug-cc-pvqz aug-cc-pvqz/c tightscf
| 79> %pal nprocs 16 end
| 80> %maxcore 3800
| 81> %base "QZ_S66by10_43_0.9_dimer"
| 82>
| 83> *xyz 0 1
| 84> N    0.62608128   -0.85091265    0.80591569
| 85> H    0.40918989   -1.81150056    1.03440142
| 86> C   -0.43245619   -0.08733581    0.29466376
| 87> O   -1.53077162   -0.58840313    0.12359257
| 88> C   -0.06687462    1.29127521    0.01963739
| 89> H   -0.80974352    1.95181039   -0.39283965
| 90> C    1.18354208    1.71793501    0.29053321
| 91> H    1.50185022    2.73387064    0.10983284
| 92> N    2.13412979    0.88660160    0.81908177
| 93> H    3.05533594    1.22390137    1.04342778
| 94> C    1.90278319   -0.44317844    1.12831175
| 95> O    2.74380631   -1.16392354    1.62858730
| 96> C   -0.53267162   -0.02432506    4.47697299
| 97> C   -1.84941780    0.71696374    4.69184590
| 98> H   -2.55648920    0.09875756    5.24670824
| 99> H   -1.68991824    1.63714829    5.25603091
|100> H   -2.30712758    0.97846076    3.73669224
|101> C    0.08276500   -0.37776298    5.82825044
|102> H    1.02592717   -0.91013629    5.69746860
|103> H    0.27978595    0.52197876    6.41305258
|104> H   -0.58852902   -1.01549999    6.40498718
|105> C    0.43245266    0.86915276    3.70118390
|106> H    1.38102314    0.35655806    3.53082990
|107> H    0.63774286    1.78728921    4.25461027
|108> H    0.01005727    1.14763937    2.73371946
|109> C   -0.79398881   -1.30435945    3.68660810
|110> H   -1.25772721   -1.08252575    2.72398346
|111> H    0.13858749   -1.84275837    3.50697142
|112> H   -1.46449662   -1.96617341    4.23679302
|113> *
|114>
|115>
|116>
|117>
|118>                          ****END OF INPUT****
 Total Charge           Charge          ....    0
 Multiplicity           Mult            ....    1
 Number of Electrons    NEL             ....  100
MP2 TOTAL ENERGY:     -610.910769154 Eh
FINAL SINGLE POINT ENERGY      -610.910769153573
MP2 TOTAL ENERGY:     -611.451533441 Eh
FINAL SINGLE POINT ENERGY      -611.451533440579

CARTESIAN COORDINATES (ANGSTROEM)
---------------------------------
  N      0.626081   -0.850913    0.805916
  H      0.409190   -1.811501    1.034401
  C     -0.432456   -0.087336    0.294664
  O     -1.530772   -0.588403    0.123593
  C     -0.066875    1.291275    0.019637
  H     -0.809744    1.951810   -0.392840
  C      1.183542    1.717935    0.290533
  H      1.501850    2.733871    0.109833
  N      2.134130    0.886602    0.819082
  H      3.055336    1.223901    1.043428
  C      1.902783   -0.443178    1.128312
  O      2.743806   -1.163924    1.628587
  C     -0.532672   -0.024325    4.476973
  C     -1.849418    0.716964    4.691846
  H     -2.556489    0.098758    5.246708
  H     -1.689918    1.637148    5.256031
  H     -2.307128    0.978461    3.736692
  C      0.082765   -0.377763    5.828250
  H      1.025927   -0.910136    5.697469
  H      0.279786    0.521979    6.413053
  H     -0.588529   -1.015500    6.404987
  C      0.432453    0.869153    3.701184
  H      1.381023    0.356558    3.530830
  H      0.637743    1.787289    4.254610
  H      0.010057    1.147639    2.733719
  C     -0.793989   -1.304359    3.686608
  H     -1.257727   -1.082526    2.723983
  H      0.138587   -1.842758    3.506971
  H     -1.464497   -1.966173    4.236793

 Multiplicity           Mult            ....    1
 Number of Electrons    NEL             ....  100
 Basis Dimension        Dim             .... 1776

ORBITAL ENERGIES
----------------

  NO   OCC          E(Eh)            E(eV)
   0   2.0000     -20.545116      -559.0610
   1   2.0000     -20.540220      -558.9278
   2   2.0000     -15.641856      -425.6365
   3   2.0000     -15.623717      -425.1430
   4   2.0000     -11.417656      -310.6902
   5   2.0000     -11.380130      -309.6691
   6   2.0000     -11.339674      -308.5682
   7   2.0000     -11.253994      -306.2368
   8   2.0000     -11.225261      -305.4549
   9   2.0000     -11.207563      -304.9733
  10   2.0000     -11.203047      -304.8504
  11   2.0000     -11.202909      -304.8467
  12   2.0000     -11.200764      -304.7883
  13   2.0000      -1.436378       -39.0858
  14   2.0000      -1.398806       -38.0635
  15   2.0000      -1.313301       -35.7367
  16   2.0000      -1.245579       -33.8939
  17   2.0000      -1.106117       -30.0990
  18   2.0000      -1.088485       -29.6192
  19   2.0000      -0.935566       -25.4580
  20   2.0000      -0.931293       -25.3418
  21   2.0000      -0.927365       -25.2349
  22   2.0000      -0.926440       -25.2097
  23   2.0000      -0.901631       -24.5346
  24   2.0000      -0.807159       -21.9639
  25   2.0000      -0.765546       -20.8316
  26   2.0000      -0.732177       -19.9235
  27   2.0000      -0.714316       -19.4375
  28   2.0000      -0.678463       -18.4619
  29   2.0000      -0.670804       -18.2535
  30   2.0000      -0.653643       -17.7865
  31   2.0000      -0.616505       -16.7759
  32   2.0000      -0.614917       -16.7328
  33   2.0000      -0.612564       -16.6687
  34   2.0000      -0.610841       -16.6218
  35   2.0000      -0.602260       -16.3883
  36   2.0000      -0.571392       -15.5484
  37   2.0000      -0.555147       -15.1063
  38   2.0000      -0.551238       -15.0000
  39   2.0000      -0.528504       -14.3813
  40   2.0000      -0.510131       -13.8814
  41   2.0000      -0.507944       -13.8219
  42   2.0000      -0.507183       -13.8011
  43   2.0000      -0.484685       -13.1889
  44   2.0000      -0.453673       -12.3451
  45   2.0000      -0.452424       -12.3111
  46   2.0000      -0.451365       -12.2823
  47   2.0000      -0.448305       -12.1990
  48   2.0000      -0.436919       -11.8892
  49   2.0000      -0.369299       -10.0491
  50   0.0000       0.011770         0.3203
  51   0.0000       0.028125         0.7653
  52   0.0000       0.028493         0.7753
  53   0.0000       0.032789         0.8922
  54   0.0000       0.040212         1.0942

MULLIKEN ATOMIC CHARGES
-----------------------
   0 N :   -0.701904
   1 H :    0.050905
   2 C :    1.487591
   3 O :   -0.949026
   4 C :   -0.579918
   5 H :    0.236690
   6 C :   -0.125156
   7 H :    0.387782
   8 N :   -0.771350
   9 H :    0.082073
  10 C :    1.944468
  11 O :   -0.954484
  12 C :    1.848983
  13 C :   -1.175007
  14 H :    0.216124
  15 H :    0.212065
  16 H :    0.240915
  17 C :   -1.132382
  18 H :    0.204856
  19 H :    0.223197
  20 H :    0.229028
  21 C :   -1.379342
  22 H :    0.284302
  23 H :    0.229072
  24 H :    0.352901
  25 C :   -1.308924
  26 H :    0.422780
  27 H :    0.291721
  28 H :    0.132040
Sum of atomic charges:    0.0000000

LOEWDIN ATOMIC CHARGES
----------------------
   0 N :    0.779391
   1 H :   -0.528946
   2 C :   -0.871543
   3 O :    0.712028
   4 C :    0.335547
   5 H :   -0.344957
   6 C :    0.234333
   7 H :   -0.289305
   8 N :    0.818371
   9 H :   -0.481310
  10 C :   -1.017108
  11 O :    0.718349
  12 C :   -0.307245
  13 C :    0.911098
  14 H :   -0.268842
  15 H :   -0.270027
  16 H :   -0.268023
  17 C :    0.909887
  18 H :   -0.267866
  19 H :   -0.270623
  20 H :   -0.270390
  21 C :    0.885989
  22 H :   -0.306356
  23 H :   -0.252089
  24 H :   -0.330364
  25 C :    0.898838
  26 H :   -0.324379
  27 H :   -0.276192
  28 H :   -0.258266

  Mayer bond orders larger than 0.100000
B(  0-N ,  1-H ) :   1.1793 B(  0-N ,  2-C ) :   0.9442 B(  0-N ,  3-O ) :   0.2112
B(  0-N , 10-C ) :   0.9577 B(  0-N , 11-O ) :   0.2750 B(  2-C ,  3-O ) :   0.7738
B(  2-C ,  4-C ) :   1.0557 B(  3-O ,  4-C ) :   0.2527 B(  4-C ,  5-H ) :   1.0583
B(  4-C ,  6-C ) :   1.6120 B(  6-C ,  7-H ) :   0.9772 B(  6-C ,  8-N ) :   0.8828
B(  8-N ,  9-H ) :   1.1904 B(  8-N , 10-C ) :   0.9330 B(  8-N , 11-O ) :   0.2403
B( 10-C , 11-O ) :   0.7214 B( 12-C , 13-C ) :   0.2465 B( 12-C , 14-H ) :  -0.1209
B( 12-C , 15-H ) :  -0.1144 B( 12-C , 16-H ) :  -0.1580 B( 12-C , 17-C ) :   0.1584
B( 12-C , 18-H ) :  -0.1916 B( 12-C , 19-H ) :  -0.1383 B( 12-C , 20-H ) :  -0.1321
B( 12-C , 21-C ) :   0.5671 B( 12-C , 24-H ) :  -0.1190 B( 12-C , 25-C ) :   0.3358
B( 12-C , 27-H ) :  -0.1074 B( 13-C , 14-H ) :   1.0732 B( 13-C , 15-H ) :   1.0667
B( 13-C , 16-H ) :   1.0724 B( 13-C , 17-C ) :   0.1635 B( 13-C , 21-C ) :   0.1187
B( 13-C , 25-C ) :   0.1196 B( 17-C , 18-H ) :   1.1191 B( 17-C , 19-H ) :   1.0609
B( 17-C , 20-H ) :   1.0635 B( 17-C , 21-C ) :   0.1174 B( 17-C , 25-C ) :   0.1327
B( 21-C , 22-H ) :   0.9155 B( 21-C , 23-H ) :   1.0467 B( 21-C , 24-H ) :   0.9133
B( 21-C , 25-C ) :   0.1754 B( 25-C , 26-H ) :   0.8383 B( 25-C , 27-H ) :   0.9516
B( 25-C , 28-H ) :   1.1994

MP2 TOTAL ENERGY:     -611.623532181 Eh
FINAL SINGLE POINT ENERGY      -611.623532181161

DIPOLE MOMENT
-------------
                                X             Y             Z
Electronic contribution:      7.39685      -1.46730     -19.96659
Nuclear contribution   :     -6.55075       3.16938      19.74950
                        -----------------------------------------
Total Dipole Moment    :      0.84610       1.70207      -0.21709
                        -----------------------------------------
Magnitude (a.u.)       :      1.91313
Magnitude (Debye)      :      4.86279

Rotational constants in cm-1:     0.035144     0.017464     0.015345
Rotational constants in MHz :  1053.594427   523.566493   460.040594

                             ****ORCA TERMINATED NORMALLY****
TOTAL RUN TIME: 0 days 14 hours 30 minutes 40 seconds 194 msec
