                         Program Version 5.0.4 -  RELEASE  -
|  1> ! ri-mp2 aug-cc-pvdz aug-cc-pvdz/c tightscf
|  2> %pal nprocs 16 end
|  3> %maxcore 3800
|  4> %base "DZ_S66by10_43_0.8_dimer"
|  5> %scf STABPerform true end
|  6>
|  7> *xyz 0 1
|  8> N    0.62608128   -0.85091265    0.80591569
|  9> H    0.40918989   -1.81150056    1.03440142
| 10> C   -0.43245619   -0.08733581    0.29466376
| 11> O   -1.53077162   -0.58840313    0.12359257
| 12> C   -0.06687462    1.29127521    0.01963739
| 13> H   -0.80974352    1.95181039   -0.39283965
| 14> C    1.18354208    1.71793501    0.29053321
| 15> H    1.50185022    2.73387064    0.10983284
| 16> N    2.13412979    0.88660160    0.81908177
| 17> H    3.05533594    1.22390137    1.04342778
| 18> C    1.90278319   -0.44317844    1.12831175
| 19> O    2.74380631   -1.16392354    1.62858730
| 20> C   -0.42675112   -0.01805003    4.18036007
| 21> C   -1.74349730    0.72323877    4.39523298
| 22> H   -2.45056871    0.10503258    4.95009532
| 23> H   -1.58399775    1.64342332    4.95941799
| 24> H   -2.20120708    0.98473579    3.44007932
| 25> C    0.18868550   -0.37148796    5.53163752
| 26> H    1.13184767   -0.90386126    5.40085568
| 27> H    0.38570645    0.52825378    6.11643966
| 28> H   -0.48260853   -1.00922496    6.10837426
| 29> C    0.53837315    0.87542779    3.40457098
| 30> H    1.48694363    0.36283308    3.23421698
| 31> H    0.74366335    1.79356424    3.95799735
| 32> H    0.11597776    1.15391440    2.43710654
| 33> C   -0.68806831   -1.29808443    3.38999518
| 34> H   -1.15180671   -1.07625072    2.42737054
| 35> H    0.24450799   -1.83648335    3.21035850
| 36> H   -1.35857612   -1.95989839    3.94018010
| 37> *
| 38>
| 39> $new_job
| 40> ! ri-mp2 aug-cc-pvtz aug-cc-pvtz/c tightscf
| 41> %pal nprocs 16 end
| 42> %maxcore 3800
| 43> %base "TZ_S66by10_43_0.8_dimer"
| 44>
| 45> *xyz 0 1
| 46> N    0.62608128   -0.85091265    0.80591569
| 47> H    0.40918989   -1.81150056    1.03440142
| 48> C   -0.43245619   -0.08733581    0.29466376
| 49> O   -1.53077162   -0.58840313    0.12359257
| 50> C   -0.06687462    1.29127521    0.01963739
| 51> H   -0.80974352    1.95181039   -0.39283965
| 52> C    1.18354208    1.71793501    0.29053321
| 53> H    1.50185022    2.73387064    0.10983284
| 54> N    2.13412979    0.88660160    0.81908177
| 55> H    3.05533594    1.22390137    1.04342778
| 56> C    1.90278319   -0.44317844    1.12831175
| 57> O    2.74380631   -1.16392354    1.62858730
| 58> C   -0.42675112   -0.01805003    4.18036007
| 59> C   -1.74349730    0.72323877    4.39523298
| 60> H   -2.45056871    0.10503258    4.95009532
| 61> H   -1.58399775    1.64342332    4.95941799
| 62> H   -2.20120708    0.98473579    3.44007932
| 63> C    0.18868550   -0.37148796    5.53163752
| 64> H    1.13184767   -0.90386126    5.40085568
| 65> H    0.38570645    0.52825378    6.11643966
| 66> H   -0.48260853   -1.00922496    6.10837426
| 67> C    0.53837315    0.87542779    3.40457098
| 68> H    1.48694363    0.36283308    3.23421698
| 69> H    0.74366335    1.79356424    3.95799735
| 70> H    0.11597776    1.15391440    2.43710654
| 71> C   -0.68806831   -1.29808443    3.38999518
| 72> H   -1.15180671   -1.07625072    2.42737054
| 73> H    0.24450799   -1.83648335    3.21035850
| 74> H   -1.35857612   -1.95989839    3.94018010
| 75> *
| 76>
| 77> $new_job
| 78> ! ri-mp2 aug-cc-pvqz aug-cc-pvqz/c tightscf
| 79> %pal nprocs 16 end
| 80> %maxcore 3800
| 81> %base "QZ_S66by10_43_0.8_dimer"
| 82>
| 83> *xyz 0 1
| 84> N    0.62608128   -0.85091265    0.80591569
| 85> H    0.40918989   -1.81150056    1.03440142
| 86> C   -0.43245619   -0.08733581    0.29466376
| 87> O   -1.53077162   -0.58840313    0.12359257
| 88> C   -0.06687462    1.29127521    0.01963739
| 89> H   -0.80974352    1.95181039   -0.39283965
| 90> C    1.18354208    1.71793501    0.29053321
| 91> H    1.50185022    2.73387064    0.10983284
| 92> N    2.13412979    0.88660160    0.81908177
| 93> H    3.05533594    1.22390137    1.04342778
| 94> C    1.90278319   -0.44317844    1.12831175
| 95> O    2.74380631   -1.16392354    1.62858730
| 96> C   -0.42675112   -0.01805003    4.18036007
| 97> C   -1.74349730    0.72323877    4.39523298
| 98> H   -2.45056871    0.10503258    4.95009532
| 99> H   -1.58399775    1.64342332    4.95941799
|100> H   -2.20120708    0.98473579    3.44007932
|101> C    0.18868550   -0.37148796    5.53163752
|102> H    1.13184767   -0.90386126    5.40085568
|103> H    0.38570645    0.52825378    6.11643966
|104> H   -0.48260853   -1.00922496    6.10837426
|105> C    0.53837315    0.87542779    3.40457098
|106> H    1.48694363    0.36283308    3.23421698
|107> H    0.74366335    1.79356424    3.95799735
|108> H    0.11597776    1.15391440    2.43710654
|109> C   -0.68806831   -1.29808443    3.38999518
|110> H   -1.15180671   -1.07625072    2.42737054
|111> H    0.24450799   -1.83648335    3.21035850
|112> H   -1.35857612   -1.95989839    3.94018010
|113> *
|114>
|115>
|116>
|117>
|118>                          ****END OF INPUT****
 Total Charge           Charge          ....    0
 Multiplicity           Mult            ....    1
 Number of Electrons    NEL             ....  100
MP2 TOTAL ENERGY:     -610.903388013 Eh
FINAL SINGLE POINT ENERGY      -610.903388012949
MP2 TOTAL ENERGY:     -611.444020045 Eh
FINAL SINGLE POINT ENERGY      -611.444020045392

CARTESIAN COORDINATES (ANGSTROEM)
---------------------------------
  N      0.626081   -0.850913    0.805916
  H      0.409190   -1.811501    1.034401
  C     -0.432456   -0.087336    0.294664
  O     -1.530772   -0.588403    0.123593
  C     -0.066875    1.291275    0.019637
  H     -0.809744    1.951810   -0.392840
  C      1.183542    1.717935    0.290533
  H      1.501850    2.733871    0.109833
  N      2.134130    0.886602    0.819082
  H      3.055336    1.223901    1.043428
  C      1.902783   -0.443178    1.128312
  O      2.743806   -1.163924    1.628587
  C     -0.426751   -0.018050    4.180360
  C     -1.743497    0.723239    4.395233
  H     -2.450569    0.105033    4.950095
  H     -1.583998    1.643423    4.959418
  H     -2.201207    0.984736    3.440079
  C      0.188686   -0.371488    5.531638
  H      1.131848   -0.903861    5.400856
  H      0.385706    0.528254    6.116440
  H     -0.482609   -1.009225    6.108374
  C      0.538373    0.875428    3.404571
  H      1.486944    0.362833    3.234217
  H      0.743663    1.793564    3.957997
  H      0.115978    1.153914    2.437107
  C     -0.688068   -1.298084    3.389995
  H     -1.151807   -1.076251    2.427371
  H      0.244508   -1.836483    3.210358
  H     -1.358576   -1.959898    3.940180

 Multiplicity           Mult            ....    1
 Number of Electrons    NEL             ....  100
 Basis Dimension        Dim             .... 1776

ORBITAL ENERGIES
----------------

  NO   OCC          E(Eh)            E(eV)
   0   2.0000     -20.545573      -559.0735
   1   2.0000     -20.541179      -558.9539
   2   2.0000     -15.641177      -425.6181
   3   2.0000     -15.622333      -425.1053
   4   2.0000     -11.417803      -310.6942
   5   2.0000     -11.380455      -309.6779
   6   2.0000     -11.339513      -308.5638
   7   2.0000     -11.253848      -306.2328
   8   2.0000     -11.224642      -305.4380
   9   2.0000     -11.205706      -304.9228
  10   2.0000     -11.202640      -304.8393
  11   2.0000     -11.202091      -304.8244
  12   2.0000     -11.198814      -304.7352
  13   2.0000      -1.437322       -39.1115
  14   2.0000      -1.400221       -38.1020
  15   2.0000      -1.313856       -35.7518
  16   2.0000      -1.246132       -33.9090
  17   2.0000      -1.105966       -30.0949
  18   2.0000      -1.089272       -29.6406
  19   2.0000      -0.939338       -25.5607
  20   2.0000      -0.931936       -25.3593
  21   2.0000      -0.926825       -25.2202
  22   2.0000      -0.925256       -25.1775
  23   2.0000      -0.901866       -24.5410
  24   2.0000      -0.807515       -21.9736
  25   2.0000      -0.766199       -20.8493
  26   2.0000      -0.735785       -20.0217
  27   2.0000      -0.714408       -19.4400
  28   2.0000      -0.679263       -18.4837
  29   2.0000      -0.672124       -18.2894
  30   2.0000      -0.654266       -17.8035
  31   2.0000      -0.621049       -16.8996
  32   2.0000      -0.616619       -16.7791
  33   2.0000      -0.613884       -16.7046
  34   2.0000      -0.608944       -16.5702
  35   2.0000      -0.602862       -16.4047
  36   2.0000      -0.570400       -15.5214
  37   2.0000      -0.557525       -15.1710
  38   2.0000      -0.549042       -14.9402
  39   2.0000      -0.530516       -14.4361
  40   2.0000      -0.510449       -13.8900
  41   2.0000      -0.505861       -13.7652
  42   2.0000      -0.504565       -13.7299
  43   2.0000      -0.485152       -13.2017
  44   2.0000      -0.454827       -12.3765
  45   2.0000      -0.451298       -12.2805
  46   2.0000      -0.450387       -12.2557
  47   2.0000      -0.446704       -12.1554
  48   2.0000      -0.435729       -11.8568
  49   2.0000      -0.369008       -10.0412
  50   0.0000       0.011676         0.3177
  51   0.0000       0.028003         0.7620
  52   0.0000       0.028531         0.7764
  53   0.0000       0.032732         0.8907
  54   0.0000       0.040484         1.1016

MULLIKEN ATOMIC CHARGES
-----------------------
   0 N :   -0.658842
   1 H :    0.000875
   2 C :    1.560735
   3 O :   -0.976203
   4 C :   -0.617249
   5 H :    0.226407
   6 C :   -0.138186
   7 H :    0.369026
   8 N :   -0.820417
   9 H :    0.047860
  10 C :    2.065803
  11 O :   -0.985411
  12 C :    1.855123
  13 C :   -1.152646
  14 H :    0.212406
  15 H :    0.209480
  16 H :    0.239218
  17 C :   -1.116286
  18 H :    0.197643
  19 H :    0.220492
  20 H :    0.224723
  21 C :   -1.359932
  22 H :    0.261388
  23 H :    0.169231
  24 H :    0.450904
  25 C :   -1.256882
  26 H :    0.385325
  27 H :    0.276473
  28 H :    0.108940
Sum of atomic charges:    0.0000000

LOEWDIN ATOMIC CHARGES
----------------------
   0 N :    0.790290
   1 H :   -0.539931
   2 C :   -0.852686
   3 O :    0.737926
   4 C :    0.345910
   5 H :   -0.337561
   6 C :    0.240207
   7 H :   -0.282445
   8 N :    0.826825
   9 H :   -0.471154
  10 C :   -1.015640
  11 O :    0.741798
  12 C :   -0.286627
  13 C :    0.916405
  14 H :   -0.267889
  15 H :   -0.269234
  16 H :   -0.266370
  17 C :    0.914541
  18 H :   -0.266448
  19 H :   -0.270247
  20 H :   -0.270048
  21 C :    0.877769
  22 H :   -0.350044
  23 H :   -0.238878
  24 H :   -0.387112
  25 C :    0.898959
  26 H :   -0.384338
  27 H :   -0.285774
  28 H :   -0.248205

  Mayer bond orders larger than 0.100000
B(  0-N ,  1-H ) :   1.1908 B(  0-N ,  2-C ) :   0.9732 B(  0-N ,  3-O ) :   0.2389
B(  0-N , 10-C ) :   1.0461 B(  0-N , 11-O ) :   0.3280 B(  1-H , 11-O ) :   0.1216
B(  2-C ,  3-O ) :   0.6760 B(  2-C ,  4-C ) :   1.0602 B(  3-O ,  4-C ) :   0.2637
B(  4-C ,  5-H ) :   1.0645 B(  4-C ,  6-C ) :   1.6345 B(  6-C ,  7-H ) :   0.9915
B(  6-C ,  8-N ) :   0.9461 B(  6-C , 24-H ) :  -0.1087 B(  8-N ,  9-H ) :   1.2335
B(  8-N , 10-C ) :   0.8605 B(  8-N , 11-O ) :   0.2715 B(  8-N , 21-C ) :   0.1222
B( 10-C , 11-O ) :   0.5481 B( 12-C , 13-C ) :   0.2873 B( 12-C , 14-H ) :  -0.1194
B( 12-C , 15-H ) :  -0.1124 B( 12-C , 16-H ) :  -0.1551 B( 12-C , 17-C ) :   0.1248
B( 12-C , 18-H ) :  -0.2016 B( 12-C , 19-H ) :  -0.1492 B( 12-C , 20-H ) :  -0.1414
B( 12-C , 21-C ) :   0.5675 B( 12-C , 24-H ) :  -0.1165 B( 12-C , 25-C ) :   0.3059
B( 12-C , 27-H ) :  -0.1130 B( 13-C , 14-H ) :   1.0777 B( 13-C , 15-H ) :   1.0714
B( 13-C , 16-H ) :   1.0758 B( 13-C , 17-C ) :   0.1622 B( 17-C , 18-H ) :   1.1366
B( 17-C , 19-H ) :   1.0720 B( 17-C , 20-H ) :   1.0744 B( 17-C , 21-C ) :   0.1016
B( 17-C , 25-C ) :   0.1166 B( 21-C , 22-H ) :   0.9564 B( 21-C , 23-H ) :   1.0911
B( 21-C , 24-H ) :   0.8965 B( 21-C , 25-C ) :   0.1655 B( 25-C , 26-H ) :   0.8796
B( 25-C , 27-H ) :   0.9771 B( 25-C , 28-H ) :   1.2068

MP2 TOTAL ENERGY:     -611.615638792 Eh
FINAL SINGLE POINT ENERGY      -611.615638792113

DIPOLE MOMENT
-------------
                                X             Y             Z
Electronic contribution:      6.82396      -1.49685     -18.39722
Nuclear contribution   :     -5.98263       3.20303      18.15854
                        -----------------------------------------
Total Dipole Moment    :      0.84134       1.70618      -0.23868
                        -----------------------------------------
Magnitude (a.u.)       :      1.91726
Magnitude (Debye)      :      4.87329

Rotational constants in cm-1:     0.035176     0.019662     0.017009
Rotational constants in MHz :  1054.541307   589.464694   509.931206

                             ****ORCA TERMINATED NORMALLY****
TOTAL RUN TIME: 0 days 14 hours 58 minutes 59 seconds 265 msec
