                         Program Version 5.0.4 -  RELEASE  -
|  1> ! ri-mp2 aug-cc-pvdz aug-cc-pvdz/c tightscf
|  2> %pal nprocs 16 end
|  3> %maxcore 3800
|  4> %base "DZ_S66by10_62_1.0_dimer"
|  5> %scf STABPerform true end
|  6>
|  7> *xyz 0 1
|  8> C   -2.58777605   -0.32310566    0.46945828
|  9> H   -2.61038910   -0.87636604   -0.46961946
| 10> H   -2.65974410   -1.05188654    1.27771411
| 11> H   -3.47603507    0.30562460    0.50896129
| 12> C   -1.30955982    0.49739424    0.58506260
| 13> H   -1.31725060    1.08326190    1.50634108
| 14> H   -1.26237673    1.21557375   -0.23677617
| 15> C   -0.05682966   -0.36826029    0.55844017
| 16> H   -0.08617526   -1.07335882    1.39587537
| 17> H   -0.05380919   -0.97684333   -0.35147393
| 18> C    1.23159606    0.44006559    0.63203246
| 19> H    1.21328340    1.05356193    1.53459305
| 20> H    1.26629733    1.13137662   -0.21310563
| 21> C    2.47257523   -0.44314441    0.61922148
| 22> H    2.52071888   -1.03526342   -0.29489695
| 23> H    3.38773437    0.14408974    0.68390871
| 24> H    2.45929703   -1.13936423    1.45861821
| 25> C    0.04357580    0.20426535    4.18299214
| 26> O    0.07048807    1.38933883    3.89115095
| 27> N    1.17615607   -0.54761229    4.28581208
| 28> H    2.04709633   -0.12503178    4.01714983
| 29> H    1.13721811   -1.53949896    4.41723501
| 30> C   -1.24664518   -0.53467213    4.44744597
| 31> H   -1.09939517   -1.49539350    4.93457033
| 32> H   -1.75287270   -0.69298107    3.49663262
| 33> H   -1.88458913    0.09256430    5.06271782
| 34> *
| 35>
| 36> $new_job
| 37> ! ri-mp2 aug-cc-pvtz aug-cc-pvtz/c tightscf
| 38> %pal nprocs 16 end
| 39> %maxcore 3800
| 40> %base "TZ_S66by10_62_1.0_dimer"
| 41>
| 42> *xyz 0 1
| 43> C   -2.58777605   -0.32310566    0.46945828
| 44> H   -2.61038910   -0.87636604   -0.46961946
| 45> H   -2.65974410   -1.05188654    1.27771411
| 46> H   -3.47603507    0.30562460    0.50896129
| 47> C   -1.30955982    0.49739424    0.58506260
| 48> H   -1.31725060    1.08326190    1.50634108
| 49> H   -1.26237673    1.21557375   -0.23677617
| 50> C   -0.05682966   -0.36826029    0.55844017
| 51> H   -0.08617526   -1.07335882    1.39587537
| 52> H   -0.05380919   -0.97684333   -0.35147393
| 53> C    1.23159606    0.44006559    0.63203246
| 54> H    1.21328340    1.05356193    1.53459305
| 55> H    1.26629733    1.13137662   -0.21310563
| 56> C    2.47257523   -0.44314441    0.61922148
| 57> H    2.52071888   -1.03526342   -0.29489695
| 58> H    3.38773437    0.14408974    0.68390871
| 59> H    2.45929703   -1.13936423    1.45861821
| 60> C    0.04357580    0.20426535    4.18299214
| 61> O    0.07048807    1.38933883    3.89115095
| 62> N    1.17615607   -0.54761229    4.28581208
| 63> H    2.04709633   -0.12503178    4.01714983
| 64> H    1.13721811   -1.53949896    4.41723501
| 65> C   -1.24664518   -0.53467213    4.44744597
| 66> H   -1.09939517   -1.49539350    4.93457033
| 67> H   -1.75287270   -0.69298107    3.49663262
| 68> H   -1.88458913    0.09256430    5.06271782
| 69> *
| 70>
| 71> $new_job
| 72> ! ri-mp2 aug-cc-pvqz aug-cc-pvqz/c tightscf
| 73> %pal nprocs 16 end
| 74> %maxcore 3800
| 75> %base "QZ_S66by10_62_1.0_dimer"
| 76>
| 77> *xyz 0 1
| 78> C   -2.58777605   -0.32310566    0.46945828
| 79> H   -2.61038910   -0.87636604   -0.46961946
| 80> H   -2.65974410   -1.05188654    1.27771411
| 81> H   -3.47603507    0.30562460    0.50896129
| 82> C   -1.30955982    0.49739424    0.58506260
| 83> H   -1.31725060    1.08326190    1.50634108
| 84> H   -1.26237673    1.21557375   -0.23677617
| 85> C   -0.05682966   -0.36826029    0.55844017
| 86> H   -0.08617526   -1.07335882    1.39587537
| 87> H   -0.05380919   -0.97684333   -0.35147393
| 88> C    1.23159606    0.44006559    0.63203246
| 89> H    1.21328340    1.05356193    1.53459305
| 90> H    1.26629733    1.13137662   -0.21310563
| 91> C    2.47257523   -0.44314441    0.61922148
| 92> H    2.52071888   -1.03526342   -0.29489695
| 93> H    3.38773437    0.14408974    0.68390871
| 94> H    2.45929703   -1.13936423    1.45861821
| 95> C    0.04357580    0.20426535    4.18299214
| 96> O    0.07048807    1.38933883    3.89115095
| 97> N    1.17615607   -0.54761229    4.28581208
| 98> H    2.04709633   -0.12503178    4.01714983
| 99> H    1.13721811   -1.53949896    4.41723501
|100> C   -1.24664518   -0.53467213    4.44744597
|101> H   -1.09939517   -1.49539350    4.93457033
|102> H   -1.75287270   -0.69298107    3.49663262
|103> H   -1.88458913    0.09256430    5.06271782
|104> *
|105>
|106>
|107>
|108>
|109>                          ****END OF INPUT****
 Total Charge           Charge          ....    0
 Multiplicity           Mult            ....    1
 Number of Electrons    NEL             ....   74
MP2 TOTAL ENERGY:     -405.790383916 Eh
FINAL SINGLE POINT ENERGY      -405.790383916490
MP2 TOTAL ENERGY:     -406.171660891 Eh
FINAL SINGLE POINT ENERGY      -406.171660890888

CARTESIAN COORDINATES (ANGSTROEM)
---------------------------------
  C     -2.587776   -0.323106    0.469458
  H     -2.610389   -0.876366   -0.469619
  H     -2.659744   -1.051887    1.277714
  H     -3.476035    0.305625    0.508961
  C     -1.309560    0.497394    0.585063
  H     -1.317251    1.083262    1.506341
  H     -1.262377    1.215574   -0.236776
  C     -0.056830   -0.368260    0.558440
  H     -0.086175   -1.073359    1.395875
  H     -0.053809   -0.976843   -0.351474
  C      1.231596    0.440066    0.632032
  H      1.213283    1.053562    1.534593
  H      1.266297    1.131377   -0.213106
  C      2.472575   -0.443144    0.619221
  H      2.520719   -1.035263   -0.294897
  H      3.387734    0.144090    0.683909
  H      2.459297   -1.139364    1.458618
  C      0.043576    0.204265    4.182992
  O      0.070488    1.389339    3.891151
  N      1.176156   -0.547612    4.285812
  H      2.047096   -0.125032    4.017150
  H      1.137218   -1.539499    4.417235
  C     -1.246645   -0.534672    4.447446
  H     -1.099395   -1.495394    4.934570
  H     -1.752873   -0.692981    3.496633
  H     -1.884589    0.092564    5.062718

 Multiplicity           Mult            ....    1
 Number of Electrons    NEL             ....   74
 Basis Dimension        Dim             .... 1502

ORBITAL ENERGIES
----------------

  NO   OCC          E(Eh)            E(eV)
   0   2.0000     -20.516533      -558.2833
   1   2.0000     -15.587030      -424.1447
   2   2.0000     -11.355150      -308.9893
   3   2.0000     -11.237786      -305.7957
   4   2.0000     -11.206547      -304.9457
   5   2.0000     -11.205847      -304.9266
   6   2.0000     -11.205074      -304.9056
   7   2.0000     -11.203927      -304.8743
   8   2.0000     -11.203421      -304.8606
   9   2.0000      -1.380590       -37.5678
  10   2.0000      -1.216045       -33.0903
  11   2.0000      -1.076827       -29.3020
  12   2.0000      -1.012449       -27.5501
  13   2.0000      -1.008002       -27.4291
  14   2.0000      -0.917034       -24.9538
  15   2.0000      -0.816320       -22.2132
  16   2.0000      -0.802747       -21.8438
  17   2.0000      -0.780523       -21.2391
  18   2.0000      -0.730527       -19.8787
  19   2.0000      -0.667966       -18.1763
  20   2.0000      -0.649139       -17.6640
  21   2.0000      -0.613663       -16.6986
  22   2.0000      -0.595494       -16.2042
  23   2.0000      -0.591113       -16.0850
  24   2.0000      -0.589254       -16.0344
  25   2.0000      -0.564461       -15.3598
  26   2.0000      -0.550966       -14.9926
  27   2.0000      -0.546437       -14.8693
  28   2.0000      -0.529515       -14.4088
  29   2.0000      -0.522598       -14.2206
  30   2.0000      -0.491442       -13.3728
  31   2.0000      -0.472346       -12.8532
  32   2.0000      -0.457699       -12.4546
  33   2.0000      -0.455646       -12.3988
  34   2.0000      -0.443039       -12.0557
  35   2.0000      -0.428027       -11.6472
  36   2.0000      -0.416859       -11.3433
  37   0.0000       0.018870         0.5135
  38   0.0000       0.027930         0.7600
  39   0.0000       0.030760         0.8370
  40   0.0000       0.033753         0.9185
  41   0.0000       0.040394         1.0992

MULLIKEN ATOMIC CHARGES
-----------------------
   0 C :   -0.990543
   1 H :    0.239042
   2 H :    0.252997
   3 H :    0.240169
   4 C :   -0.512053
   5 H :    0.288074
   6 H :    0.301575
   7 C :   -0.253738
   8 H :    0.237649
   9 H :    0.315356
  10 C :   -0.576721
  11 H :    0.303076
  12 H :    0.307308
  13 C :   -0.996589
  14 H :    0.268172
  15 H :    0.254228
  16 H :    0.262393
  17 C :    1.235378
  18 O :   -0.963863
  19 N :   -0.820712
  20 H :    0.286569
  21 H :    0.290341
  22 C :   -0.854321
  23 H :    0.276072
  24 H :    0.326068
  25 H :    0.284073
Sum of atomic charges:   -0.0000000

LOEWDIN ATOMIC CHARGES
----------------------
   0 C :    0.928490
   1 H :   -0.283349
   2 H :   -0.298168
   3 H :   -0.278769
   4 C :    0.503382
   5 H :   -0.298184
   6 H :   -0.267273
   7 C :    0.483700
   8 H :   -0.287670
   9 H :   -0.264417
  10 C :    0.500032
  11 H :   -0.313838
  12 H :   -0.266958
  13 C :    0.924020
  14 H :   -0.284068
  15 H :   -0.280758
  16 H :   -0.299502
  17 C :   -0.848968
  18 O :    0.709536
  19 N :    1.250106
  20 H :   -0.500802
  21 H :   -0.497191
  22 C :    0.893385
  23 H :   -0.302912
  24 H :   -0.321174
  25 H :   -0.298649

  Mayer bond orders larger than 0.100000
B(  0-C ,  1-H ) :   0.9868 B(  0-C ,  2-H ) :   0.9129 B(  0-C ,  3-H ) :   1.0529
B(  0-C ,  4-C ) :   0.9876 B(  0-C ,  7-C ) :  -0.1153 B(  3-H ,  4-C ) :  -0.1042
B(  4-C ,  5-H ) :   0.8540 B(  4-C ,  6-H ) :   0.8648 B(  4-C ,  7-C ) :   0.7851
B(  7-C ,  8-H ) :   0.8466 B(  7-C ,  9-H ) :   0.8808 B(  7-C , 10-C ) :   0.8354
B( 10-C , 11-H ) :   0.8516 B( 10-C , 12-H ) :   0.8492 B( 10-C , 13-C ) :   0.9981
B( 13-C , 14-H ) :   0.9488 B( 13-C , 15-H ) :   1.0380 B( 13-C , 16-H ) :   0.9258
B( 17-C , 18-O ) :   1.0920 B( 17-C , 19-N ) :   0.9774 B( 17-C , 22-C ) :   0.8947
B( 18-O , 19-N ) :   0.1314 B( 19-N , 20-H ) :   0.9177 B( 19-N , 21-H ) :   0.9239
B( 22-C , 23-H ) :   0.9963 B( 22-C , 24-H ) :   0.8007 B( 22-C , 25-H ) :   0.9725

MP2 TOTAL ENERGY:     -406.289183114 Eh
FINAL SINGLE POINT ENERGY      -406.289183113634

DIPOLE MOMENT
-------------
                                X             Y             Z
Electronic contribution:      1.94603       3.60826       8.46529
Nuclear contribution   :     -1.78111      -5.04428      -8.17497
                        -----------------------------------------
Total Dipole Moment    :      0.16491      -1.43602       0.29032
                        -----------------------------------------
Magnitude (a.u.)       :      1.47432
Magnitude (Debye)      :      3.74743

Rotational constants in cm-1:     0.046066     0.033265     0.022751
Rotational constants in MHz :  1381.026825   997.256607   682.053558

                             ****ORCA TERMINATED NORMALLY****
TOTAL RUN TIME: 0 days 8 hours 17 minutes 33 seconds 430 msec
