                         Program Version 5.0.4 -  RELEASE  -
|  1> ! ri-mp2 aug-cc-pvdz aug-cc-pvdz/c tightscf
|  2> %pal nprocs 16 end
|  3> %maxcore 3800
|  4> %base "DZ_S66by10_29_0.9_dimer"
|  5>
|  6> *xyz 0 1
|  7> N    1.21075533    0.02867578    0.32971111
|  8> C    0.61193497   -1.15844901    0.15345176
|  9> H    1.25147791   -2.02952340    0.21929295
| 10> C   -0.75131399   -1.30864956   -0.08883407
| 11> H   -1.17041577   -2.29686932   -0.21338320
| 12> C   -1.54786767   -0.16994027   -0.15646691
| 13> H   -2.61101275   -0.24595469   -0.33875574
| 14> C   -0.94362237    1.07063612    0.01982310
| 15> H   -1.51881431    1.98450028   -0.01164403
| 16> C    0.42771857    1.11610863    0.25734879
| 17> H    0.92469451    2.06805173    0.39754798
| 18> N   -0.74611269   -0.30281688    2.92822204
| 19> H   -1.64100171   -0.73468037    2.74361855
| 20> C   -0.74585781    1.09499291    3.02123304
| 21> O   -1.78574089    1.72319271    2.90638291
| 22> C    0.57363694    1.65407426    3.24879611
| 23> H    0.67495331    2.72129642    3.34466429
| 24> C    1.64351054    0.83538195    3.32031616
| 25> H    2.64738958    1.20404665    3.46874269
| 26> N    1.52544939   -0.52191131    3.20776150
| 27> H    2.33888539   -1.11409866    3.19959386
| 28> C    0.32500246   -1.16914374    2.98137980
| 29> O    0.23286521   -2.37456181    2.84780052
| 30> *
| 31>
| 32> $new_job
| 33> ! ri-mp2 aug-cc-pvtz aug-cc-pvtz/c tightscf
| 34> %pal nprocs 16 end
| 35> %maxcore 3800
| 36> %base "TZ_S66by10_29_0.9_dimer"
| 37>
| 38> *xyz 0 1
| 39> N    1.21075533    0.02867578    0.32971111
| 40> C    0.61193497   -1.15844901    0.15345176
| 41> H    1.25147791   -2.02952340    0.21929295
| 42> C   -0.75131399   -1.30864956   -0.08883407
| 43> H   -1.17041577   -2.29686932   -0.21338320
| 44> C   -1.54786767   -0.16994027   -0.15646691
| 45> H   -2.61101275   -0.24595469   -0.33875574
| 46> C   -0.94362237    1.07063612    0.01982310
| 47> H   -1.51881431    1.98450028   -0.01164403
| 48> C    0.42771857    1.11610863    0.25734879
| 49> H    0.92469451    2.06805173    0.39754798
| 50> N   -0.74611269   -0.30281688    2.92822204
| 51> H   -1.64100171   -0.73468037    2.74361855
| 52> C   -0.74585781    1.09499291    3.02123304
| 53> O   -1.78574089    1.72319271    2.90638291
| 54> C    0.57363694    1.65407426    3.24879611
| 55> H    0.67495331    2.72129642    3.34466429
| 56> C    1.64351054    0.83538195    3.32031616
| 57> H    2.64738958    1.20404665    3.46874269
| 58> N    1.52544939   -0.52191131    3.20776150
| 59> H    2.33888539   -1.11409866    3.19959386
| 60> C    0.32500246   -1.16914374    2.98137980
| 61> O    0.23286521   -2.37456181    2.84780052
| 62> *
| 63>
| 64> $new_job
| 65> ! ri-mp2 aug-cc-pvqz aug-cc-pvqz/c tightscf
| 66> %pal nprocs 16 end
| 67> %maxcore 3800
| 68> %base "QZ_S66by10_29_0.9_dimer"
| 69>
| 70> *xyz 0 1
| 71> N    1.21075533    0.02867578    0.32971111
| 72> C    0.61193497   -1.15844901    0.15345176
| 73> H    1.25147791   -2.02952340    0.21929295
| 74> C   -0.75131399   -1.30864956   -0.08883407
| 75> H   -1.17041577   -2.29686932   -0.21338320
| 76> C   -1.54786767   -0.16994027   -0.15646691
| 77> H   -2.61101275   -0.24595469   -0.33875574
| 78> C   -0.94362237    1.07063612    0.01982310
| 79> H   -1.51881431    1.98450028   -0.01164403
| 80> C    0.42771857    1.11610863    0.25734879
| 81> H    0.92469451    2.06805173    0.39754798
| 82> N   -0.74611269   -0.30281688    2.92822204
| 83> H   -1.64100171   -0.73468037    2.74361855
| 84> C   -0.74585781    1.09499291    3.02123304
| 85> O   -1.78574089    1.72319271    2.90638291
| 86> C    0.57363694    1.65407426    3.24879611
| 87> H    0.67495331    2.72129642    3.34466429
| 88> C    1.64351054    0.83538195    3.32031616
| 89> H    2.64738958    1.20404665    3.46874269
| 90> N    1.52544939   -0.52191131    3.20776150
| 91> H    2.33888539   -1.11409866    3.19959386
| 92> C    0.32500246   -1.16914374    2.98137980
| 93> O    0.23286521   -2.37456181    2.84780052
| 94> *
| 95>
| 96>
| 97>
| 98>
| 99>                          ****END OF INPUT****
 Total Charge           Charge          ....    0
 Multiplicity           Mult            ....    1
 Number of Electrons    NEL             ....  100
MP2 TOTAL ENERGY:     -661.359490526 Eh
FINAL SINGLE POINT ENERGY      -661.359490525795
MP2 TOTAL ENERGY:     -661.917116992 Eh
FINAL SINGLE POINT ENERGY      -661.917116992321

CARTESIAN COORDINATES (ANGSTROEM)
---------------------------------
  N      1.210755    0.028676    0.329711
  C      0.611935   -1.158449    0.153452
  H      1.251478   -2.029523    0.219293
  C     -0.751314   -1.308650   -0.088834
  H     -1.170416   -2.296869   -0.213383
  C     -1.547868   -0.169940   -0.156467
  H     -2.611013   -0.245955   -0.338756
  C     -0.943622    1.070636    0.019823
  H     -1.518814    1.984500   -0.011644
  C      0.427719    1.116109    0.257349
  H      0.924695    2.068052    0.397548
  N     -0.746113   -0.302817    2.928222
  H     -1.641002   -0.734680    2.743619
  C     -0.745858    1.094993    3.021233
  O     -1.785741    1.723193    2.906383
  C      0.573637    1.654074    3.248796
  H      0.674953    2.721296    3.344664
  C      1.643511    0.835382    3.320316
  H      2.647390    1.204047    3.468743
  N      1.525449   -0.521911    3.207762
  H      2.338885   -1.114099    3.199594
  C      0.325002   -1.169144    2.981380
  O      0.232865   -2.374562    2.847801

 Multiplicity           Mult            ....    1
 Number of Electrons    NEL             ....  100
 Basis Dimension        Dim             .... 1534

ORBITAL ENERGIES
----------------

  NO   OCC          E(Eh)            E(eV)
   0   2.0000     -20.537691      -558.8590
   1   2.0000     -20.532290      -558.7120
   2   2.0000     -15.631810      -425.3632
   3   2.0000     -15.616722      -424.9526
   4   2.0000     -15.567837      -423.6224
   5   2.0000     -11.410323      -310.4907
   6   2.0000     -11.373387      -309.4856
   7   2.0000     -11.330291      -308.3129
   8   2.0000     -11.274146      -306.7851
   9   2.0000     -11.273583      -306.7698
  10   2.0000     -11.256804      -306.3132
  11   2.0000     -11.244708      -305.9841
  12   2.0000     -11.239094      -305.8313
  13   2.0000     -11.237673      -305.7926
  14   2.0000      -1.429540       -38.8998
  15   2.0000      -1.391696       -37.8700
  16   2.0000      -1.305503       -35.5245
  17   2.0000      -1.259574       -34.2748
  18   2.0000      -1.238182       -33.6926
  19   2.0000      -1.089554       -29.6483
  20   2.0000      -1.080547       -29.4032
  21   2.0000      -1.034151       -28.1407
  22   2.0000      -0.925894       -25.1949
  23   2.0000      -0.894485       -24.3402
  24   2.0000      -0.859415       -23.3859
  25   2.0000      -0.856433       -23.3047
  26   2.0000      -0.799356       -21.7516
  27   2.0000      -0.757827       -20.6215
  28   2.0000      -0.723016       -19.6743
  29   2.0000      -0.706355       -19.2209
  30   2.0000      -0.671727       -18.2786
  31   2.0000      -0.670702       -18.2507
  32   2.0000      -0.660393       -17.9702
  33   2.0000      -0.652682       -17.7604
  34   2.0000      -0.646742       -17.5987
  35   2.0000      -0.608365       -16.5545
  36   2.0000      -0.598648       -16.2900
  37   2.0000      -0.594825       -16.1860
  38   2.0000      -0.578544       -15.7430
  39   2.0000      -0.568471       -15.4689
  40   2.0000      -0.534571       -14.5464
  41   2.0000      -0.522809       -14.2264
  42   2.0000      -0.516749       -14.0615
  43   2.0000      -0.478129       -13.0105
  44   2.0000      -0.444217       -12.0877
  45   2.0000      -0.432933       -11.7807
  46   2.0000      -0.423747       -11.5307
  47   2.0000      -0.385034       -10.4773
  48   2.0000      -0.363563        -9.8931
  49   2.0000      -0.341469        -9.2918
  50   0.0000       0.017300         0.4708
  51   0.0000       0.028385         0.7724
  52   0.0000       0.029584         0.8050
  53   0.0000       0.035668         0.9706
  54   0.0000       0.039555         1.0764

MULLIKEN ATOMIC CHARGES
-----------------------
   0 N :   -0.896329
   1 C :   -0.012911
   2 H :    0.509812
   3 C :   -0.269194
   4 H :    0.252331
   5 C :   -0.399161
   6 H :    0.309197
   7 C :   -0.266874
   8 H :    0.326130
   9 C :   -0.047663
  10 H :    0.478032
  11 N :   -0.769523
  12 H :    0.101141
  13 C :    1.429126
  14 O :   -1.001776
  15 C :   -0.490068
  16 H :    0.235717
  17 C :   -0.063427
  18 H :    0.371609
  19 N :   -0.733309
  20 H :    0.081002
  21 C :    1.814219
  22 O :   -0.958083
Sum of atomic charges:   -0.0000000

LOEWDIN ATOMIC CHARGES
----------------------
   0 N :    0.599099
   1 C :    0.023554
   2 H :   -0.344244
   3 C :    0.322869
   4 H :   -0.313377
   5 C :    0.332694
   6 H :   -0.300639
   7 C :    0.304009
   8 H :   -0.315624
   9 C :    0.034003
  10 H :   -0.343246
  11 N :    0.777849
  12 H :   -0.517468
  13 C :   -0.905289
  14 O :    0.711097
  15 C :    0.312793
  16 H :   -0.339606
  17 C :    0.225267
  18 H :   -0.284055
  19 N :    0.814537
  20 H :   -0.478351
  21 C :   -1.041334
  22 O :    0.725462

  Mayer bond orders larger than 0.100000
B(  0-N ,  1-C ) :   1.0946 B(  0-N ,  2-H ) :  -0.1898 B(  0-N ,  9-C ) :   1.0063
B(  0-N , 10-H ) :  -0.1668 B(  1-C ,  2-H ) :   0.8649 B(  1-C ,  3-C ) :   1.1413
B(  3-C ,  4-H ) :   1.0881 B(  3-C ,  5-C ) :   1.2865 B(  5-C ,  6-H ) :   1.0335
B(  5-C ,  7-C ) :   1.1834 B(  7-C ,  8-H ) :   1.0451 B(  7-C ,  9-C ) :   1.1417
B(  7-C , 10-H ) :  -0.1222 B(  9-C , 10-H ) :   0.8727 B( 11-N , 12-H ) :   1.2006
B( 11-N , 13-C ) :   0.9657 B( 11-N , 14-O ) :   0.2296 B( 11-N , 21-C ) :   0.9598
B( 11-N , 22-O ) :   0.2547 B( 13-C , 14-O ) :   0.6979 B( 13-C , 15-C ) :   1.0574
B( 14-O , 15-C ) :   0.2438 B( 15-C , 16-H ) :   1.0519 B( 15-C , 17-C ) :   1.5004
B( 17-C , 18-H ) :   1.0066 B( 17-C , 19-N ) :   0.9181 B( 19-N , 20-H ) :   1.1832
B( 19-N , 21-C ) :   0.9905 B( 19-N , 22-O ) :   0.2286 B( 21-C , 22-O ) :   0.7253

MP2 TOTAL ENERGY:     -662.099086056 Eh
FINAL SINGLE POINT ENERGY      -662.099086055790

DIPOLE MOMENT
-------------
                                X             Y             Z
Electronic contribution:      0.13645      -1.04377       3.38123
Nuclear contribution   :      0.87105       1.28668      -3.34820
                        -----------------------------------------
Total Dipole Moment    :      1.00749       0.24291       0.03303
                        -----------------------------------------
Magnitude (a.u.)       :      1.03689
Magnitude (Debye)      :      2.63556

Rotational constants in cm-1:     0.032324     0.026877     0.021791
Rotational constants in MHz :   969.050979   805.749402   653.270568

                             ****ORCA TERMINATED NORMALLY****
TOTAL RUN TIME: 0 days 2 hours 35 minutes 36 seconds 396 msec
