                         Program Version 5.0.4 -  RELEASE  -
|  1> ! ri-mp2 aug-cc-pvdz aug-cc-pvdz/c tightscf
|  2> %pal nprocs 16 end
|  3> %maxcore 3800
|  4> %base "DZ_S66by10_51_1.1_dimer"
|  5> %scf STABPerform true end
|  6>
|  7> *xyz 0 1
|  8> C   -0.60172996   -0.02857012    0.38493492
|  9> H   -1.66373543   -0.02852657    0.37901431
| 10> C    0.61010917   -0.02866364    0.38816379
| 11> H    1.67213544   -0.02879308    0.38796752
| 12> C   -0.00828326    0.11111746    4.44769118
| 13> H   -0.00488888    0.07738241    3.38439429
| 14> C   -0.01221968    0.14940748    5.65915656
| 15> H   -0.01548591    0.18278337    6.72006798
| 16> *
| 17>
| 18> $new_job
| 19> ! ri-mp2 aug-cc-pvtz aug-cc-pvtz/c tightscf
| 20> %pal nprocs 16 end
| 21> %maxcore 3800
| 22> %base "TZ_S66by10_51_1.1_dimer"
| 23>
| 24> *xyz 0 1
| 25> C   -0.60172996   -0.02857012    0.38493492
| 26> H   -1.66373543   -0.02852657    0.37901431
| 27> C    0.61010917   -0.02866364    0.38816379
| 28> H    1.67213544   -0.02879308    0.38796752
| 29> C   -0.00828326    0.11111746    4.44769118
| 30> H   -0.00488888    0.07738241    3.38439429
| 31> C   -0.01221968    0.14940748    5.65915656
| 32> H   -0.01548591    0.18278337    6.72006798
| 33> *
| 34>
| 35> $new_job
| 36> ! ri-mp2 aug-cc-pvqz aug-cc-pvqz/c tightscf
| 37> %pal nprocs 16 end
| 38> %maxcore 3800
| 39> %base "QZ_S66by10_51_1.1_dimer"
| 40>
| 41> *xyz 0 1
| 42> C   -0.60172996   -0.02857012    0.38493492
| 43> H   -1.66373543   -0.02852657    0.37901431
| 44> C    0.61010917   -0.02866364    0.38816379
| 45> H    1.67213544   -0.02879308    0.38796752
| 46> C   -0.00828326    0.11111746    4.44769118
| 47> H   -0.00488888    0.07738241    3.38439429
| 48> C   -0.01221968    0.14940748    5.65915656
| 49> H   -0.01548591    0.18278337    6.72006798
| 50> *
| 51>
| 52>
| 53>
| 54>
| 55>                          ****END OF INPUT****
 Total Charge           Charge          ....    0
 Multiplicity           Mult            ....    1
 Number of Electrons    NEL             ....   28
MP2 TOTAL ENERGY:     -154.187342267 Eh
FINAL SINGLE POINT ENERGY      -154.187342267077
MP2 TOTAL ENERGY:     -154.330664154 Eh
FINAL SINGLE POINT ENERGY      -154.330664153502

CARTESIAN COORDINATES (ANGSTROEM)
---------------------------------
  C     -0.601730   -0.028570    0.384935
  H     -1.663735   -0.028527    0.379014
  C      0.610109   -0.028664    0.388164
  H      1.672135   -0.028793    0.387968
  C     -0.008283    0.111117    4.447691
  H     -0.004889    0.077382    3.384394
  C     -0.012220    0.149407    5.659157
  H     -0.015486    0.182783    6.720068

 Multiplicity           Mult            ....    1
 Number of Electrons    NEL             ....   28
 Basis Dimension        Dim             ....  504

ORBITAL ENERGIES
----------------

  NO   OCC          E(Eh)            E(eV)
   0   2.0000     -11.253922      -306.2348
   1   2.0000     -11.250304      -306.1363
   2   2.0000     -11.239638      -305.8461
   3   2.0000     -11.236024      -305.7478
   4   2.0000      -1.036931       -28.2163
   5   2.0000      -1.022369       -27.8201
   6   2.0000      -0.777115       -21.1464
   7   2.0000      -0.762973       -20.7615
   8   2.0000      -0.689367       -18.7586
   9   2.0000      -0.675154       -18.3719
  10   2.0000      -0.418856       -11.3977
  11   2.0000      -0.417711       -11.3665
  12   2.0000      -0.403815       -10.9884
  13   2.0000      -0.403645       -10.9837
  14   0.0000       0.025757         0.7009
  15   0.0000       0.028761         0.7826
  16   0.0000       0.030999         0.8435
  17   0.0000       0.052650         1.4327
  18   0.0000       0.069453         1.8899

MULLIKEN ATOMIC CHARGES
-----------------------
   0 C :   -0.590511
   1 H :    0.586952
   2 C :   -0.590493
   3 H :    0.586990
   4 C :   -0.633734
   5 H :    0.737938
   6 C :   -0.696202
   7 H :    0.599060
Sum of atomic charges:   -0.0000000

LOEWDIN ATOMIC CHARGES
----------------------
   0 C :    0.485134
   1 H :   -0.469577
   2 C :    0.485156
   3 H :   -0.469577
   4 C :    0.479145
   5 H :   -0.512488
   6 C :    0.485626
   7 H :   -0.483420

  Mayer bond orders larger than 0.100000
B(  0-C ,  1-H ) :   0.6768 B(  0-C ,  2-C ) :   2.6394 B(  2-C ,  3-H ) :   0.6768
B(  4-C ,  5-H ) :   0.5159 B(  4-C ,  6-C ) :   2.6132 B(  5-H ,  6-C ) :  -0.1245
B(  6-C ,  7-H ) :   0.6515

MP2 TOTAL ENERGY:     -154.373805807 Eh
FINAL SINGLE POINT ENERGY      -154.373805807094

DIPOLE MOMENT
-------------
                                X             Y             Z
Electronic contribution:      0.00028      -0.00359      -0.10351
Nuclear contribution   :      0.00013      -0.00039      -0.00736
                        -----------------------------------------
Total Dipole Moment    :      0.00041      -0.00398      -0.11087
                        -----------------------------------------
Magnitude (a.u.)       :      0.11094
Magnitude (Debye)      :      0.28199

Rotational constants in cm-1:     1.168389     0.056506     0.053899
Rotational constants in MHz : 35027.413674  1693.997652  1615.852585

                             ****ORCA TERMINATED NORMALLY****
TOTAL RUN TIME: 0 days 0 hours 8 minutes 15 seconds 15 msec
