                         Program Version 5.0.4 -  RELEASE  -
|  1> ! ri-mp2 aug-cc-pvdz aug-cc-pvdz/c tightscf
|  2> %pal nprocs 16 end
|  3> %maxcore 3800
|  4> %base "DZ_S66by10_62_0.7_dimer"
|  5> %scf STABPerform true end
|  6>
|  7> *xyz 0 1
|  8> C   -2.58777605   -0.32310566    0.46945828
|  9> H   -2.61038910   -0.87636604   -0.46961946
| 10> H   -2.65974410   -1.05188654    1.27771411
| 11> H   -3.47603507    0.30562460    0.50896129
| 12> C   -1.30955982    0.49739424    0.58506260
| 13> H   -1.31725060    1.08326190    1.50634108
| 14> H   -1.26237673    1.21557375   -0.23677617
| 15> C   -0.05682966   -0.36826029    0.55844017
| 16> H   -0.08617526   -1.07335882    1.39587537
| 17> H   -0.05380919   -0.97684333   -0.35147393
| 18> C    1.23159606    0.44006559    0.63203246
| 19> H    1.21328340    1.05356193    1.53459305
| 20> H    1.26629733    1.13137662   -0.21310563
| 21> C    2.47257523   -0.44314441    0.61922148
| 22> H    2.52071888   -1.03526342   -0.29489695
| 23> H    3.38773437    0.14408974    0.68390871
| 24> H    2.45929703   -1.13936423    1.45861821
| 25> C    0.02681154    0.16841111    3.39453095
| 26> O    0.05372380    1.35348459    3.10268976
| 27> N    1.15939181   -0.58346654    3.49735089
| 28> H    2.03033206   -0.16088602    3.22868864
| 29> H    1.12045385   -1.57535320    3.62877382
| 30> C   -1.26340944   -0.57052638    3.65898478
| 31> H   -1.11615944   -1.53124774    4.14610914
| 32> H   -1.76963697   -0.72883531    2.70817143
| 33> H   -1.90135339    0.05671005    4.27425663
| 34> *
| 35>
| 36> $new_job
| 37> ! ri-mp2 aug-cc-pvtz aug-cc-pvtz/c tightscf
| 38> %pal nprocs 16 end
| 39> %maxcore 3800
| 40> %base "TZ_S66by10_62_0.7_dimer"
| 41>
| 42> *xyz 0 1
| 43> C   -2.58777605   -0.32310566    0.46945828
| 44> H   -2.61038910   -0.87636604   -0.46961946
| 45> H   -2.65974410   -1.05188654    1.27771411
| 46> H   -3.47603507    0.30562460    0.50896129
| 47> C   -1.30955982    0.49739424    0.58506260
| 48> H   -1.31725060    1.08326190    1.50634108
| 49> H   -1.26237673    1.21557375   -0.23677617
| 50> C   -0.05682966   -0.36826029    0.55844017
| 51> H   -0.08617526   -1.07335882    1.39587537
| 52> H   -0.05380919   -0.97684333   -0.35147393
| 53> C    1.23159606    0.44006559    0.63203246
| 54> H    1.21328340    1.05356193    1.53459305
| 55> H    1.26629733    1.13137662   -0.21310563
| 56> C    2.47257523   -0.44314441    0.61922148
| 57> H    2.52071888   -1.03526342   -0.29489695
| 58> H    3.38773437    0.14408974    0.68390871
| 59> H    2.45929703   -1.13936423    1.45861821
| 60> C    0.02681154    0.16841111    3.39453095
| 61> O    0.05372380    1.35348459    3.10268976
| 62> N    1.15939181   -0.58346654    3.49735089
| 63> H    2.03033206   -0.16088602    3.22868864
| 64> H    1.12045385   -1.57535320    3.62877382
| 65> C   -1.26340944   -0.57052638    3.65898478
| 66> H   -1.11615944   -1.53124774    4.14610914
| 67> H   -1.76963697   -0.72883531    2.70817143
| 68> H   -1.90135339    0.05671005    4.27425663
| 69> *
| 70>
| 71> $new_job
| 72> ! ri-mp2 aug-cc-pvqz aug-cc-pvqz/c tightscf
| 73> %pal nprocs 16 end
| 74> %maxcore 3800
| 75> %base "QZ_S66by10_62_0.7_dimer"
| 76>
| 77> *xyz 0 1
| 78> C   -2.58777605   -0.32310566    0.46945828
| 79> H   -2.61038910   -0.87636604   -0.46961946
| 80> H   -2.65974410   -1.05188654    1.27771411
| 81> H   -3.47603507    0.30562460    0.50896129
| 82> C   -1.30955982    0.49739424    0.58506260
| 83> H   -1.31725060    1.08326190    1.50634108
| 84> H   -1.26237673    1.21557375   -0.23677617
| 85> C   -0.05682966   -0.36826029    0.55844017
| 86> H   -0.08617526   -1.07335882    1.39587537
| 87> H   -0.05380919   -0.97684333   -0.35147393
| 88> C    1.23159606    0.44006559    0.63203246
| 89> H    1.21328340    1.05356193    1.53459305
| 90> H    1.26629733    1.13137662   -0.21310563
| 91> C    2.47257523   -0.44314441    0.61922148
| 92> H    2.52071888   -1.03526342   -0.29489695
| 93> H    3.38773437    0.14408974    0.68390871
| 94> H    2.45929703   -1.13936423    1.45861821
| 95> C    0.02681154    0.16841111    3.39453095
| 96> O    0.05372380    1.35348459    3.10268976
| 97> N    1.15939181   -0.58346654    3.49735089
| 98> H    2.03033206   -0.16088602    3.22868864
| 99> H    1.12045385   -1.57535320    3.62877382
|100> C   -1.26340944   -0.57052638    3.65898478
|101> H   -1.11615944   -1.53124774    4.14610914
|102> H   -1.76963697   -0.72883531    2.70817143
|103> H   -1.90135339    0.05671005    4.27425663
|104> *
|105>
|106>
|107>
|108>
|109>                          ****END OF INPUT****
 Total Charge           Charge          ....    0
 Multiplicity           Mult            ....    1
 Number of Electrons    NEL             ....   74
MP2 TOTAL ENERGY:     -405.774004673 Eh
FINAL SINGLE POINT ENERGY      -405.774004672817
MP2 TOTAL ENERGY:     -406.155517770 Eh
FINAL SINGLE POINT ENERGY      -406.155517770271

CARTESIAN COORDINATES (ANGSTROEM)
---------------------------------
  C     -2.587776   -0.323106    0.469458
  H     -2.610389   -0.876366   -0.469619
  H     -2.659744   -1.051887    1.277714
  H     -3.476035    0.305625    0.508961
  C     -1.309560    0.497394    0.585063
  H     -1.317251    1.083262    1.506341
  H     -1.262377    1.215574   -0.236776
  C     -0.056830   -0.368260    0.558440
  H     -0.086175   -1.073359    1.395875
  H     -0.053809   -0.976843   -0.351474
  C      1.231596    0.440066    0.632032
  H      1.213283    1.053562    1.534593
  H      1.266297    1.131377   -0.213106
  C      2.472575   -0.443144    0.619221
  H      2.520719   -1.035263   -0.294897
  H      3.387734    0.144090    0.683909
  H      2.459297   -1.139364    1.458618
  C      0.026812    0.168411    3.394531
  O      0.053724    1.353485    3.102690
  N      1.159392   -0.583467    3.497351
  H      2.030332   -0.160886    3.228689
  H      1.120454   -1.575353    3.628774
  C     -1.263409   -0.570526    3.658985
  H     -1.116159   -1.531248    4.146109
  H     -1.769637   -0.728835    2.708171
  H     -1.901353    0.056710    4.274257

 Multiplicity           Mult            ....    1
 Number of Electrons    NEL             ....   74
 Basis Dimension        Dim             .... 1502

ORBITAL ENERGIES
----------------

  NO   OCC          E(Eh)            E(eV)
   0   2.0000     -20.515814      -558.2637
   1   2.0000     -15.584139      -424.0660
   2   2.0000     -11.355269      -308.9926
   3   2.0000     -11.233268      -305.6728
   4   2.0000     -11.204645      -304.8939
   5   2.0000     -11.204642      -304.8938
   6   2.0000     -11.204010      -304.8766
   7   2.0000     -11.197466      -304.6985
   8   2.0000     -11.194571      -304.6198
   9   2.0000      -1.386134       -37.7186
  10   2.0000      -1.217584       -33.1321
  11   2.0000      -1.076348       -29.2889
  12   2.0000      -1.018284       -27.7089
  13   2.0000      -1.002183       -27.2708
  14   2.0000      -0.918253       -24.9869
  15   2.0000      -0.816636       -22.2218
  16   2.0000      -0.803649       -21.8684
  17   2.0000      -0.779741       -21.2178
  18   2.0000      -0.732551       -19.9337
  19   2.0000      -0.674355       -18.3501
  20   2.0000      -0.671250       -18.2656
  21   2.0000      -0.608253       -16.5514
  22   2.0000      -0.594856       -16.1868
  23   2.0000      -0.591300       -16.0901
  24   2.0000      -0.584363       -15.9013
  25   2.0000      -0.560340       -15.2476
  26   2.0000      -0.550401       -14.9772
  27   2.0000      -0.548834       -14.9345
  28   2.0000      -0.534814       -14.5530
  29   2.0000      -0.511951       -13.9309
  30   2.0000      -0.491632       -13.3780
  31   2.0000      -0.474303       -12.9064
  32   2.0000      -0.463296       -12.6069
  33   2.0000      -0.451699       -12.2914
  34   2.0000      -0.441266       -12.0075
  35   2.0000      -0.422449       -11.4954
  36   2.0000      -0.405475       -11.0335
  37   0.0000       0.018973         0.5163
  38   0.0000       0.027846         0.7577
  39   0.0000       0.030853         0.8395
  40   0.0000       0.033286         0.9058
  41   0.0000       0.041466         1.1283

MULLIKEN ATOMIC CHARGES
-----------------------
   0 C :   -0.989508
   1 H :    0.192476
   2 H :    0.145822
   3 H :    0.222309
   4 C :   -0.459770
   5 H :    0.296058
   6 H :    0.246411
   7 C :   -0.022421
   8 H :    0.297822
   9 H :    0.276829
  10 C :   -0.480075
  11 H :    0.251539
  12 H :    0.241834
  13 C :   -0.987124
  14 H :    0.237740
  15 H :    0.228292
  16 H :    0.199687
  17 C :    1.552889
  18 O :   -1.069609
  19 N :   -0.797350
  20 H :    0.210216
  21 H :    0.251958
  22 C :   -0.788124
  23 H :    0.206013
  24 H :    0.302313
  25 H :    0.233773
Sum of atomic charges:    0.0000000

LOEWDIN ATOMIC CHARGES
----------------------
   0 C :    0.955214
   1 H :   -0.270661
   2 H :   -0.322902
   3 H :   -0.261747
   4 C :    0.516705
   5 H :   -0.406416
   6 H :   -0.253352
   7 C :    0.494536
   8 H :   -0.354291
   9 H :   -0.250254
  10 C :    0.504148
  11 H :   -0.481164
  12 H :   -0.252962
  13 C :    0.938273
  14 H :   -0.275533
  15 H :   -0.267768
  16 H :   -0.335223
  17 C :   -0.780226
  18 O :    0.842666
  19 N :    1.285490
  20 H :   -0.523364
  21 H :   -0.461813
  22 C :    0.938194
  23 H :   -0.273613
  24 H :   -0.435148
  25 H :   -0.268788

  Mayer bond orders larger than 0.100000
B(  0-C ,  1-H ) :   1.0640 B(  0-C ,  2-H ) :   0.9878 B(  0-C ,  3-H ) :   1.0530
B(  0-C ,  4-C ) :   0.8996 B(  0-C ,  7-C ) :  -0.1442 B(  4-C ,  5-H ) :   0.9287
B(  4-C ,  6-H ) :   0.9606 B(  4-C ,  7-C ) :   0.6412 B(  7-C ,  8-H ) :   0.9493
B(  7-C ,  9-H ) :   0.9420 B(  7-C , 10-C ) :   0.7184 B(  7-C , 13-C ) :  -0.1222
B( 10-C , 11-H ) :   0.8919 B( 10-C , 12-H ) :   0.9381 B( 10-C , 13-C ) :   0.9044
B( 13-C , 14-H ) :   1.0110 B( 13-C , 15-H ) :   1.0541 B( 13-C , 16-H ) :   0.9806
B( 17-C , 18-O ) :   0.8451 B( 17-C , 19-N ) :   0.9900 B( 17-C , 22-C ) :   0.8438
B( 18-O , 19-N ) :   0.1757 B( 19-N , 20-H ) :   0.9808 B( 19-N , 21-H ) :   0.9664
B( 22-C , 23-H ) :   1.0774 B( 22-C , 24-H ) :   0.7343 B( 22-C , 25-H ) :   1.0681

MP2 TOTAL ENERGY:     -406.272755311 Eh
FINAL SINGLE POINT ENERGY      -406.272755311027

DIPOLE MOMENT
-------------
                                X             Y             Z
Electronic contribution:      1.87573       3.61247       6.52991
Nuclear contribution   :     -1.73958      -4.95545      -6.22166
                        -----------------------------------------
Total Dipole Moment    :      0.13614      -1.34298       0.30825
                        -----------------------------------------
Magnitude (a.u.)       :      1.38461
Magnitude (Debye)      :      3.51940

Rotational constants in cm-1:     0.049940     0.045679     0.029315
Rotational constants in MHz :  1497.174620  1369.418335   878.853218

                             ****ORCA TERMINATED NORMALLY****
TOTAL RUN TIME: 0 days 8 hours 12 minutes 40 seconds 420 msec
