                         Program Version 5.0.4 -  RELEASE  -
|  1> ! ri-mp2 aug-cc-pvdz aug-cc-pvdz/c tightscf
|  2> %pal nprocs 16 end
|  3> %maxcore 3800
|  4> %base "DZ_S66by10_16_0.9_dimer"
|  5> %scf STABPerform true end
|  6>
|  7> *xyz 0 1
|  8> C   -0.72430464   -0.70493582    2.28386786
|  9> H    0.33531828   -0.62994325    2.05318235
| 10> H   -0.95169666   -1.71198961    2.62565146
| 11> H   -0.96962784   -0.02207955    3.09376537
| 12> C   -1.61493501   -0.38742925    1.10406897
| 13> O   -2.83732387   -0.41502209    1.19413277
| 14> N   -0.95342037   -0.07640442   -0.04081980
| 15> H    0.05380860   -0.07556651   -0.03664022
| 16> C   -1.65812397    0.25009358   -1.25855306
| 17> H   -2.72037197    0.17694444   -1.04665270
| 18> H   -1.43030493    1.26296263   -1.58809384
| 19> H   -1.40562611   -0.44433518   -2.05858358
| 20> O    1.92343299   -0.05990893   -0.14471007
| 21> H    2.48841028   -0.77286755   -0.44990947
| 22> H    2.50318461    0.70428463   -0.12081157
| 23> *
| 24>
| 25> $new_job
| 26> ! ri-mp2 aug-cc-pvtz aug-cc-pvtz/c tightscf
| 27> %pal nprocs 16 end
| 28> %maxcore 3800
| 29> %base "TZ_S66by10_16_0.9_dimer"
| 30>
| 31> *xyz 0 1
| 32> C   -0.72430464   -0.70493582    2.28386786
| 33> H    0.33531828   -0.62994325    2.05318235
| 34> H   -0.95169666   -1.71198961    2.62565146
| 35> H   -0.96962784   -0.02207955    3.09376537
| 36> C   -1.61493501   -0.38742925    1.10406897
| 37> O   -2.83732387   -0.41502209    1.19413277
| 38> N   -0.95342037   -0.07640442   -0.04081980
| 39> H    0.05380860   -0.07556651   -0.03664022
| 40> C   -1.65812397    0.25009358   -1.25855306
| 41> H   -2.72037197    0.17694444   -1.04665270
| 42> H   -1.43030493    1.26296263   -1.58809384
| 43> H   -1.40562611   -0.44433518   -2.05858358
| 44> O    1.92343299   -0.05990893   -0.14471007
| 45> H    2.48841028   -0.77286755   -0.44990947
| 46> H    2.50318461    0.70428463   -0.12081157
| 47> *
| 48>
| 49> $new_job
| 50> ! ri-mp2 aug-cc-pvqz aug-cc-pvqz/c tightscf
| 51> %pal nprocs 16 end
| 52> %maxcore 3800
| 53> %base "QZ_S66by10_16_0.9_dimer"
| 54>
| 55> *xyz 0 1
| 56> C   -0.72430464   -0.70493582    2.28386786
| 57> H    0.33531828   -0.62994325    2.05318235
| 58> H   -0.95169666   -1.71198961    2.62565146
| 59> H   -0.96962784   -0.02207955    3.09376537
| 60> C   -1.61493501   -0.38742925    1.10406897
| 61> O   -2.83732387   -0.41502209    1.19413277
| 62> N   -0.95342037   -0.07640442   -0.04081980
| 63> H    0.05380860   -0.07556651   -0.03664022
| 64> C   -1.65812397    0.25009358   -1.25855306
| 65> H   -2.72037197    0.17694444   -1.04665270
| 66> H   -1.43030493    1.26296263   -1.58809384
| 67> H   -1.40562611   -0.44433518   -2.05858358
| 68> O    1.92343299   -0.05990893   -0.14471007
| 69> H    2.48841028   -0.77286755   -0.44990947
| 70> H    2.50318461    0.70428463   -0.12081157
| 71> *
| 72>
| 73>
| 74>
| 75>
| 76>                          ****END OF INPUT****
 Total Charge           Charge          ....    0
 Multiplicity           Mult            ....    1
 Number of Electrons    NEL             ....   50
MP2 TOTAL ENERGY:     -324.116042072 Eh
FINAL SINGLE POINT ENERGY      -324.116042072164
MP2 TOTAL ENERGY:     -324.407668742 Eh
FINAL SINGLE POINT ENERGY      -324.407668741872

CARTESIAN COORDINATES (ANGSTROEM)
---------------------------------
  C     -0.724305   -0.704936    2.283868
  H      0.335318   -0.629943    2.053182
  H     -0.951697   -1.711990    2.625651
  H     -0.969628   -0.022080    3.093765
  C     -1.614935   -0.387429    1.104069
  O     -2.837324   -0.415022    1.194133
  N     -0.953420   -0.076404   -0.040820
  H      0.053809   -0.075567   -0.036640
  C     -1.658124    0.250094   -1.258553
  H     -2.720372    0.176944   -1.046653
  H     -1.430305    1.262963   -1.588094
  H     -1.405626   -0.444335   -2.058584
  O      1.923433   -0.059909   -0.144710
  H      2.488410   -0.772868   -0.449909
  H      2.503185    0.704285   -0.120812

 Multiplicity           Mult            ....    1
 Number of Electrons    NEL             ....   50
 Basis Dimension        Dim             ....  894

ORBITAL ENERGIES
----------------

  NO   OCC          E(Eh)            E(eV)
   0   2.0000     -20.602614      -560.6256
   1   2.0000     -20.489570      -557.5495
   2   2.0000     -15.557006      -423.3276
   3   2.0000     -11.327075      -308.2254
   4   2.0000     -11.238607      -305.8180
   5   2.0000     -11.216700      -305.2219
   6   2.0000      -1.393222       -37.9115
   7   2.0000      -1.353704       -36.8362
   8   2.0000      -1.208302       -32.8796
   9   2.0000      -1.000835       -27.2341
  10   2.0000      -0.914261       -24.8783
  11   2.0000      -0.772967       -21.0335
  12   2.0000      -0.755019       -20.5451
  13   2.0000      -0.676190       -18.4001
  14   2.0000      -0.641839       -17.4653
  15   2.0000      -0.623575       -16.9683
  16   2.0000      -0.615309       -16.7434
  17   2.0000      -0.571373       -15.5479
  18   2.0000      -0.560602       -15.2547
  19   2.0000      -0.552961       -15.0468
  20   2.0000      -0.533758       -14.5243
  21   2.0000      -0.523747       -14.2519
  22   2.0000      -0.487392       -13.2626
  23   2.0000      -0.402425       -10.9505
  24   2.0000      -0.370470       -10.0810
  25   0.0000       0.009899         0.2694
  26   0.0000       0.030815         0.8385
  27   0.0000       0.033170         0.9026
  28   0.0000       0.037787         1.0282
  29   0.0000       0.051824         1.4102

MULLIKEN ATOMIC CHARGES
-----------------------
   0 C :   -0.825030
   1 H :    0.303858
   2 H :    0.268193
   3 H :    0.266576
   4 C :    0.906649
   5 O :   -0.857081
   6 N :   -0.369989
   7 H :    0.206221
   8 C :   -0.755536
   9 H :    0.298257
  10 H :    0.282132
  11 H :    0.280667
  12 O :   -0.651739
  13 H :    0.324633
  14 H :    0.322191
Sum of atomic charges:    0.0000000

LOEWDIN ATOMIC CHARGES
----------------------
   0 C :    0.885333
   1 H :   -0.335174
   2 H :   -0.300517
   3 H :   -0.301110
   4 C :   -0.833464
   5 O :    0.691554
   6 N :    0.820377
   7 H :   -0.744742
   8 C :    0.782413
   9 H :   -0.369713
  10 H :   -0.286798
  11 H :   -0.287221
  12 O :    1.704196
  13 H :   -0.712516
  14 H :   -0.712619

  Mayer bond orders larger than 0.100000
B(  0-C ,  1-H ) :   0.9549 B(  0-C ,  2-H ) :   0.9503 B(  0-C ,  3-H ) :   0.9556
B(  0-C ,  4-C ) :   0.9103 B(  0-C ,  5-O ) :   0.1142 B(  4-C ,  5-O ) :   1.2305
B(  4-C ,  6-N ) :   1.1419 B(  5-O ,  6-N ) :   0.2030 B(  6-N ,  7-H ) :   1.0484
B(  6-N ,  8-C ) :   0.7736 B(  8-C ,  9-H ) :   0.9362 B(  8-C , 10-H ) :   0.9570
B(  8-C , 11-H ) :   0.9566 B( 12-O , 13-H ) :   0.9329 B( 12-O , 14-H ) :   0.9345

MP2 TOTAL ENERGY:     -324.501491519 Eh
FINAL SINGLE POINT ENERGY      -324.501491519004

DIPOLE MOMENT
-------------
                                X             Y             Z
Electronic contribution:     -2.57909      -0.29553       1.11338
Nuclear contribution   :      5.28211       0.46351      -1.78683
                        -----------------------------------------
Total Dipole Moment    :      2.70302       0.16798      -0.67346
                        -----------------------------------------
Magnitude (a.u.)       :      2.79071
Magnitude (Debye)      :      7.09343

Rotational constants in cm-1:     0.131516     0.068330     0.046019
Rotational constants in MHz :  3942.752201  2048.478139  1379.608741

                             ****ORCA TERMINATED NORMALLY****
TOTAL RUN TIME: 0 days 1 hours 25 minutes 58 seconds 826 msec
