                         Program Version 5.0.4 -  RELEASE  -
|  1> ! ri-mp2 aug-cc-pvdz aug-cc-pvdz/c tightscf
|  2> %pal nprocs 16 end
|  3> %maxcore 3800
|  4> %base "DZ_S66by10_19_0.7_dimer"
|  5>
|  6> *xyz 0 1
|  7> O   -0.62765177    0.08746727    0.00147128
|  8> H    0.34360203    0.12230333   -0.00060045
|  9> C   -0.97793123   -1.27855601    0.00123841
| 10> H   -2.06339209   -1.34204332    0.00500898
| 11> H   -0.61488369   -1.80637584   -0.88538395
| 12> H   -0.60864033   -1.80823682    0.88417273
| 13> N    1.70880011    0.04736564   -0.00132695
| 14> C    2.40516850    0.02293030   -1.14604655
| 15> H    1.82068990    0.04615384   -2.05702199
| 16> C    3.79480556   -0.02681256   -1.19473180
| 17> H    4.30215791   -0.04410459   -2.14851453
| 18> C    4.50517879   -0.05252518    0.00088123
| 19> H    5.58551480   -0.09028993    0.00173052
| 20> C    3.79293134   -0.02750407    1.19542108
| 21> H    4.29873007   -0.04532840    2.14990677
| 22> C    2.40337770    0.02224562    1.14446699
| 23> H    1.81737191    0.04492005    2.05458568
| 24> *
| 25>
| 26> $new_job
| 27> ! ri-mp2 aug-cc-pvtz aug-cc-pvtz/c tightscf
| 28> %pal nprocs 16 end
| 29> %maxcore 3800
| 30> %base "TZ_S66by10_19_0.7_dimer"
| 31>
| 32> *xyz 0 1
| 33> O   -0.62765177    0.08746727    0.00147128
| 34> H    0.34360203    0.12230333   -0.00060045
| 35> C   -0.97793123   -1.27855601    0.00123841
| 36> H   -2.06339209   -1.34204332    0.00500898
| 37> H   -0.61488369   -1.80637584   -0.88538395
| 38> H   -0.60864033   -1.80823682    0.88417273
| 39> N    1.70880011    0.04736564   -0.00132695
| 40> C    2.40516850    0.02293030   -1.14604655
| 41> H    1.82068990    0.04615384   -2.05702199
| 42> C    3.79480556   -0.02681256   -1.19473180
| 43> H    4.30215791   -0.04410459   -2.14851453
| 44> C    4.50517879   -0.05252518    0.00088123
| 45> H    5.58551480   -0.09028993    0.00173052
| 46> C    3.79293134   -0.02750407    1.19542108
| 47> H    4.29873007   -0.04532840    2.14990677
| 48> C    2.40337770    0.02224562    1.14446699
| 49> H    1.81737191    0.04492005    2.05458568
| 50> *
| 51>
| 52> $new_job
| 53> ! ri-mp2 aug-cc-pvqz aug-cc-pvqz/c tightscf
| 54> %pal nprocs 16 end
| 55> %maxcore 3800
| 56> %base "QZ_S66by10_19_0.7_dimer"
| 57>
| 58> *xyz 0 1
| 59> O   -0.62765177    0.08746727    0.00147128
| 60> H    0.34360203    0.12230333   -0.00060045
| 61> C   -0.97793123   -1.27855601    0.00123841
| 62> H   -2.06339209   -1.34204332    0.00500898
| 63> H   -0.61488369   -1.80637584   -0.88538395
| 64> H   -0.60864033   -1.80823682    0.88417273
| 65> N    1.70880011    0.04736564   -0.00132695
| 66> C    2.40516850    0.02293030   -1.14604655
| 67> H    1.82068990    0.04615384   -2.05702199
| 68> C    3.79480556   -0.02681256   -1.19473180
| 69> H    4.30215791   -0.04410459   -2.14851453
| 70> C    4.50517879   -0.05252518    0.00088123
| 71> H    5.58551480   -0.09028993    0.00173052
| 72> C    3.79293134   -0.02750407    1.19542108
| 73> H    4.29873007   -0.04532840    2.14990677
| 74> C    2.40337770    0.02224562    1.14446699
| 75> H    1.81737191    0.04492005    2.05458568
| 76> *
| 77>
| 78>
| 79>
| 80>
| 81>                          ****END OF INPUT****
 Total Charge           Charge          ....    0
 Multiplicity           Mult            ....    1
 Number of Electrons    NEL             ....   60
MP2 TOTAL ENERGY:     -362.977730357 Eh
FINAL SINGLE POINT ENERGY      -362.977730357187
MP2 TOTAL ENERGY:     -363.299855276 Eh
FINAL SINGLE POINT ENERGY      -363.299855275995

CARTESIAN COORDINATES (ANGSTROEM)
---------------------------------
  O     -0.627652    0.087467    0.001471
  H      0.343602    0.122303   -0.000600
  C     -0.977931   -1.278556    0.001238
  H     -2.063392   -1.342043    0.005009
  H     -0.614884   -1.806376   -0.885384
  H     -0.608640   -1.808237    0.884173
  N      1.708800    0.047366   -0.001327
  C      2.405168    0.022930   -1.146047
  H      1.820690    0.046154   -2.057022
  C      3.794806   -0.026813   -1.194732
  H      4.302158   -0.044105   -2.148515
  C      4.505179   -0.052525    0.000881
  H      5.585515   -0.090290    0.001731
  C      3.792931   -0.027504    1.195421
  H      4.298730   -0.045328    2.149907
  C      2.403378    0.022246    1.144467
  H      1.817372    0.044920    2.054586

 Multiplicity           Mult            ....    1
 Number of Electrons    NEL             ....   60
 Basis Dimension        Dim             .... 1054

ORBITAL ENERGIES
----------------

  NO   OCC          E(Eh)            E(eV)
   0   2.0000     -20.470164      -557.0215
   1   2.0000     -15.588316      -424.1796
   2   2.0000     -11.299300      -307.4696
   3   2.0000     -11.299279      -307.4690
   4   2.0000     -11.281176      -306.9764
   5   2.0000     -11.260664      -306.4182
   6   2.0000     -11.260616      -306.4169
   7   2.0000     -11.229886      -305.5807
   8   2.0000      -1.310093       -35.6494
   9   2.0000      -1.276788       -34.7432
  10   2.0000      -1.113830       -30.3089
  11   2.0000      -1.056858       -28.7586
  12   2.0000      -0.893164       -24.3042
  13   2.0000      -0.881050       -23.9746
  14   2.0000      -0.876058       -23.8387
  15   2.0000      -0.755207       -20.5502
  16   2.0000      -0.685890       -18.6640
  17   2.0000      -0.685501       -18.6534
  18   2.0000      -0.666340       -18.1320
  19   2.0000      -0.620496       -16.8846
  20   2.0000      -0.585786       -15.9401
  21   2.0000      -0.574019       -15.6198
  22   2.0000      -0.570895       -15.5349
  23   2.0000      -0.542130       -14.7521
  24   2.0000      -0.540965       -14.7204
  25   2.0000      -0.488525       -13.2934
  26   2.0000      -0.410476       -11.1696
  27   2.0000      -0.402833       -10.9616
  28   2.0000      -0.390416       -10.6238
  29   2.0000      -0.368656       -10.0316
  30   0.0000       0.016732         0.4553
  31   0.0000       0.024756         0.6737
  32   0.0000       0.031235         0.8499
  33   0.0000       0.041420         1.1271
  34   0.0000       0.043043         1.1713

MULLIKEN ATOMIC CHARGES
-----------------------
   0 O :   -0.847051
   1 H :    0.514490
   2 C :   -0.637804
   3 H :    0.431870
   4 H :    0.253565
   5 H :    0.253508
   6 N :   -0.444379
   7 C :   -0.300993
   8 H :    0.358218
   9 C :   -0.196419
  10 H :    0.311855
  11 C :   -0.194025
  12 H :    0.322523
  13 C :   -0.196027
  14 H :    0.312081
  15 C :   -0.299611
  16 H :    0.358198
Sum of atomic charges:   -0.0000000

LOEWDIN ATOMIC CHARGES
----------------------
   0 O :    1.244889
   1 H :   -1.399849
   2 C :    0.552665
   3 H :   -0.347229
   4 H :   -0.319564
   5 H :   -0.319637
   6 N :    0.665159
   7 C :    0.209637
   8 H :   -0.306859
   9 C :    0.364475
  10 H :   -0.325337
  11 C :    0.348339
  12 H :   -0.308704
  13 C :    0.364607
  14 H :   -0.325426
  15 C :    0.209532
  16 H :   -0.306698

  Mayer bond orders larger than 0.100000
B(  0-O ,  1-H ) :   0.7362 B(  0-O ,  2-C ) :   0.8915 B(  0-O ,  6-N ) :  -0.1661
B(  2-C ,  3-H ) :   0.8242 B(  2-C ,  4-H ) :   0.9162 B(  2-C ,  5-H ) :   0.9162
B(  6-N ,  7-C ) :   1.3818 B(  6-N , 15-C ) :   1.3817 B(  7-C ,  8-H ) :   0.9583
B(  7-C ,  9-C ) :   1.1861 B(  7-C , 10-H ) :  -0.1064 B(  7-C , 13-C ) :   0.1183
B(  9-C , 10-H ) :   1.0119 B(  9-C , 11-C ) :   1.1661 B(  9-C , 13-C ) :  -0.1052
B(  9-C , 15-C ) :   0.1180 B( 11-C , 12-H ) :   1.0116 B( 11-C , 13-C ) :   1.1664
B( 13-C , 14-H ) :   1.0117 B( 13-C , 15-C ) :   1.1847 B( 14-H , 15-C ) :  -0.1063
B( 15-C , 16-H ) :   0.9585

MP2 TOTAL ENERGY:     -363.402209977 Eh
FINAL SINGLE POINT ENERGY      -363.402209977323

DIPOLE MOMENT
-------------
                                X             Y             Z
Electronic contribution:      5.02038       2.77393      -0.00290
Nuclear contribution   :     -2.80376      -3.17043       0.00186
                        -----------------------------------------
Total Dipole Moment    :      2.21662      -0.39650      -0.00104
                        -----------------------------------------
Magnitude (a.u.)       :      2.25180
Magnitude (Debye)      :      5.72362

Rotational constants in cm-1:     0.163016     0.036918     0.032191
Rotational constants in MHz :  4887.096403  1106.769489   965.075934

                             ****ORCA TERMINATED NORMALLY****
TOTAL RUN TIME: 0 days 0 hours 25 minutes 15 seconds 611 msec
