                         Program Version 5.0.4 -  RELEASE  -
|  1> ! ri-mp2 aug-cc-pvdz aug-cc-pvdz/c tightscf
|  2> %pal nprocs 16 end
|  3> %maxcore 3800
|  4> %base "DZ_S66by10_56_1.0_dimer"
|  5>
|  6> *xyz 0 1
|  7> C    0.69231523    1.08829204    0.32484124
|  8> H    1.28194880    1.99194678    0.25251578
|  9> C    1.31818722   -0.15687008    0.28689607
| 10> H    2.39314337   -0.21947636    0.18840681
| 11> C    0.55801841   -1.32195045    0.38139986
| 12> H    1.04391922   -2.28757380    0.35761542
| 13> C   -0.82755236   -1.24142187    0.51168501
| 14> H   -1.41670095   -2.14525152    0.58533927
| 15> C   -1.45341138    0.00367145    0.54838107
| 16> H   -2.52823255    0.06570272    0.64984254
| 17> C   -0.69346094    1.16840108    0.45622907
| 18> H   -1.17873534    2.13440989    0.48572685
| 19> N    0.27464526   -0.22310549    3.86318009
| 20> H    0.40926362   -0.17906499    2.86010873
| 21> H    0.41613783    0.72204125    4.19565237
| 22> C   -1.10145421   -0.62948890    4.14061588
| 23> H   -1.25933078   -0.65803591    5.21717142
| 24> H   -1.87275640    0.01089189    3.70049689
| 25> H   -1.25614619   -1.63905670    3.76499418
| 26> *
| 27>
| 28> $new_job
| 29> ! ri-mp2 aug-cc-pvtz aug-cc-pvtz/c tightscf
| 30> %pal nprocs 16 end
| 31> %maxcore 3800
| 32> %base "TZ_S66by10_56_1.0_dimer"
| 33>
| 34> *xyz 0 1
| 35> C    0.69231523    1.08829204    0.32484124
| 36> H    1.28194880    1.99194678    0.25251578
| 37> C    1.31818722   -0.15687008    0.28689607
| 38> H    2.39314337   -0.21947636    0.18840681
| 39> C    0.55801841   -1.32195045    0.38139986
| 40> H    1.04391922   -2.28757380    0.35761542
| 41> C   -0.82755236   -1.24142187    0.51168501
| 42> H   -1.41670095   -2.14525152    0.58533927
| 43> C   -1.45341138    0.00367145    0.54838107
| 44> H   -2.52823255    0.06570272    0.64984254
| 45> C   -0.69346094    1.16840108    0.45622907
| 46> H   -1.17873534    2.13440989    0.48572685
| 47> N    0.27464526   -0.22310549    3.86318009
| 48> H    0.40926362   -0.17906499    2.86010873
| 49> H    0.41613783    0.72204125    4.19565237
| 50> C   -1.10145421   -0.62948890    4.14061588
| 51> H   -1.25933078   -0.65803591    5.21717142
| 52> H   -1.87275640    0.01089189    3.70049689
| 53> H   -1.25614619   -1.63905670    3.76499418
| 54> *
| 55>
| 56> $new_job
| 57> ! ri-mp2 aug-cc-pvqz aug-cc-pvqz/c tightscf
| 58> %pal nprocs 16 end
| 59> %maxcore 3800
| 60> %base "QZ_S66by10_56_1.0_dimer"
| 61>
| 62> *xyz 0 1
| 63> C    0.69231523    1.08829204    0.32484124
| 64> H    1.28194880    1.99194678    0.25251578
| 65> C    1.31818722   -0.15687008    0.28689607
| 66> H    2.39314337   -0.21947636    0.18840681
| 67> C    0.55801841   -1.32195045    0.38139986
| 68> H    1.04391922   -2.28757380    0.35761542
| 69> C   -0.82755236   -1.24142187    0.51168501
| 70> H   -1.41670095   -2.14525152    0.58533927
| 71> C   -1.45341138    0.00367145    0.54838107
| 72> H   -2.52823255    0.06570272    0.64984254
| 73> C   -0.69346094    1.16840108    0.45622907
| 74> H   -1.17873534    2.13440989    0.48572685
| 75> N    0.27464526   -0.22310549    3.86318009
| 76> H    0.40926362   -0.17906499    2.86010873
| 77> H    0.41613783    0.72204125    4.19565237
| 78> C   -1.10145421   -0.62948890    4.14061588
| 79> H   -1.25933078   -0.65803591    5.21717142
| 80> H   -1.87275640    0.01089189    3.70049689
| 81> H   -1.25614619   -1.63905670    3.76499418
| 82> *
| 83>
| 84>
| 85>
| 86>
| 87>                          ****END OF INPUT****
 Total Charge           Charge          ....    0
 Multiplicity           Mult            ....    1
 Number of Electrons    NEL             ....   60
MP2 TOTAL ENERGY:     -327.120772760 Eh
FINAL SINGLE POINT ENERGY      -327.120772760119
MP2 TOTAL ENERGY:     -327.419152974 Eh
FINAL SINGLE POINT ENERGY      -327.419152974347

CARTESIAN COORDINATES (ANGSTROEM)
---------------------------------
  C      0.692315    1.088292    0.324841
  H      1.281949    1.991947    0.252516
  C      1.318187   -0.156870    0.286896
  H      2.393143   -0.219476    0.188407
  C      0.558018   -1.321950    0.381400
  H      1.043919   -2.287574    0.357615
  C     -0.827552   -1.241422    0.511685
  H     -1.416701   -2.145252    0.585339
  C     -1.453411    0.003671    0.548381
  H     -2.528233    0.065703    0.649843
  C     -0.693461    1.168401    0.456229
  H     -1.178735    2.134410    0.485727
  N      0.274645   -0.223105    3.863180
  H      0.409264   -0.179065    2.860109
  H      0.416138    0.722041    4.195652
  C     -1.101454   -0.629489    4.140616
  H     -1.259331   -0.658036    5.217171
  H     -1.872756    0.010892    3.700497
  H     -1.256146   -1.639057    3.764994

 Multiplicity           Mult            ....    1
 Number of Electrons    NEL             ....   60
 Basis Dimension        Dim             .... 1146

ORBITAL ENERGIES
----------------

  NO   OCC          E(Eh)            E(eV)
   0   2.0000     -15.522752      -422.3956
   1   2.0000     -11.241430      -305.8949
   2   2.0000     -11.240736      -305.8760
   3   2.0000     -11.240618      -305.8728
   4   2.0000     -11.239589      -305.8448
   5   2.0000     -11.239368      -305.8387
   6   2.0000     -11.238733      -305.8215
   7   2.0000     -11.228538      -305.5440
   8   2.0000      -1.160143       -31.5691
   9   2.0000      -1.154520       -31.4161
  10   2.0000      -1.021103       -27.7856
  11   2.0000      -1.020990       -27.7826
  12   2.0000      -0.884232       -24.0612
  13   2.0000      -0.830153       -22.5896
  14   2.0000      -0.830077       -22.5875
  15   2.0000      -0.715948       -19.4819
  16   2.0000      -0.650137       -17.6911
  17   2.0000      -0.649691       -17.6790
  18   2.0000      -0.625262       -17.0143
  19   2.0000      -0.595212       -16.1966
  20   2.0000      -0.594254       -16.1705
  21   2.0000      -0.592969       -16.1355
  22   2.0000      -0.543716       -14.7953
  23   2.0000      -0.511686       -13.9237
  24   2.0000      -0.501191       -13.6381
  25   2.0000      -0.500860       -13.6291
  26   2.0000      -0.500418       -13.6171
  27   2.0000      -0.381137       -10.3713
  28   2.0000      -0.344099        -9.3634
  29   2.0000      -0.343850        -9.3566
  30   0.0000       0.023803         0.6477
  31   0.0000       0.028846         0.7849
  32   0.0000       0.029986         0.8160
  33   0.0000       0.037538         1.0215
  34   0.0000       0.041456         1.1281

MULLIKEN ATOMIC CHARGES
-----------------------
   0 C :   -0.307260
   1 H :    0.339364
   2 C :   -0.318082
   3 H :    0.297672
   4 C :   -0.270646
   5 H :    0.292920
   6 C :   -0.382699
   7 H :    0.317915
   8 C :   -0.302043
   9 H :    0.287073
  10 C :   -0.317967
  11 H :    0.309614
  12 N :   -0.740913
  13 H :    0.424852
  14 H :    0.247244
  15 C :   -0.865786
  16 H :    0.436669
  17 H :    0.269004
  18 H :    0.283068
Sum of atomic charges:   -0.0000000

LOEWDIN ATOMIC CHARGES
----------------------
   0 C :    0.330848
   1 H :   -0.320889
   2 C :    0.330079
   3 H :   -0.318667
   4 C :    0.329861
   5 H :   -0.316757
   6 C :    0.321273
   7 H :   -0.317317
   8 C :    0.317886
   9 H :   -0.318663
  10 C :    0.330001
  11 H :   -0.320622
  12 N :    1.268686
  13 H :   -0.619591
  14 H :   -0.515297
  15 C :    0.739658
  16 H :   -0.310056
  17 H :   -0.296135
  18 H :   -0.314296

  Mayer bond orders larger than 0.100000
B(  0-C ,  1-H ) :   1.0309 B(  0-C ,  2-C ) :   1.1422 B(  0-C ,  6-C ) :   0.1353
B(  0-C , 10-C ) :   1.2228 B(  2-C ,  3-H ) :   1.0803 B(  2-C ,  4-C ) :   1.2206
B(  2-C ,  8-C ) :   0.1177 B(  4-C ,  5-H ) :   1.0768 B(  4-C ,  6-C ) :   1.2376
B(  4-C , 10-C ) :   0.2047 B(  6-C ,  7-H ) :   1.0405 B(  6-C ,  8-C ) :   1.1793
B(  8-C ,  9-H ) :   1.0620 B(  8-C , 10-C ) :   1.2387 B( 10-C , 11-H ) :   1.0449
B( 12-N , 13-H ) :   0.7666 B( 12-N , 14-H ) :   0.9274 B( 12-N , 15-C ) :   1.0053
B( 15-C , 16-H ) :   0.7997 B( 15-C , 17-H ) :   0.9146 B( 15-C , 18-H ) :   0.9246

MP2 TOTAL ENERGY:     -327.512248572 Eh
FINAL SINGLE POINT ENERGY      -327.512248572104

DIPOLE MOMENT
-------------
                                X             Y             Z
Electronic contribution:      1.66767       0.68092      -6.50410
Nuclear contribution   :     -1.99394      -0.32532       6.10882
                        -----------------------------------------
Total Dipole Moment    :     -0.32627       0.35560      -0.39528
                        -----------------------------------------
Magnitude (a.u.)       :      0.62382
Magnitude (Debye)      :      1.58563

Rotational constants in cm-1:     0.088626     0.043226     0.042235
Rotational constants in MHz :  2656.941410  1295.896060  1266.172213

                             ****ORCA TERMINATED NORMALLY****
TOTAL RUN TIME: 0 days 0 hours 32 minutes 28 seconds 388 msec
