                         Program Version 5.0.4 -  RELEASE  -
|  1> ! ri-mp2 aug-cc-pvdz aug-cc-pvdz/c tightscf
|  2> %pal nprocs 16 end
|  3> %maxcore 3800
|  4> %base "DZ_S66by10_42_1.5_dimer"
|  5> %scf STABPerform true end
|  6>
|  7> *xyz 0 1
|  8> N    0.19572959   -0.84468925    0.82384642
|  9> H    0.45039753   -1.79675294    1.04976794
| 10> C   -1.17904919   -0.57368440    0.75948349
| 11> O   -1.99364624   -1.45626527    0.96690066
| 12> C   -1.47671471    0.81115567    0.43755952
| 13> H   -2.50635592    1.11565059    0.36389469
| 14> C   -0.46811280    1.68296245    0.23489084
| 15> H   -0.63843522    2.72164296   -0.00616410
| 16> N    0.84562854    1.30599113    0.32683051
| 17> H    1.58969256    1.96887924    0.18595979
| 18> C    1.25426147    0.01946187    0.63624397
| 19> O    2.42230438   -0.30171639    0.73187948
| 20> C    1.10266351   -0.88854245    5.88946481
| 21> H    1.55651602   -0.98059869    4.90148225
| 22> H    1.64716601   -1.55252272    6.55866248
| 23> C    1.15697698    0.57740955    6.32240079
| 24> H    2.11526697    1.05030849    6.11167650
| 25> H    0.96886170    0.65904709    7.39562392
| 26> C   -0.01037460    1.19022403    5.55162959
| 27> H    0.26392968    1.27900563    4.49815796
| 28> H   -0.29478902    2.18136515    5.90326360
| 29> C   -1.12731909    0.15265212    5.72265790
| 30> H   -1.85285837    0.17626597    4.91128599
| 31> H   -1.67140472    0.35734928    6.64490652
| 32> C   -0.40428275   -1.21389571    5.82631479
| 33> H   -0.64694729   -1.85805184    4.98295511
| 34> H   -0.71938897   -1.74129812    6.72540121
| 35> *
| 36>
| 37> $new_job
| 38> ! ri-mp2 aug-cc-pvtz aug-cc-pvtz/c tightscf
| 39> %pal nprocs 16 end
| 40> %maxcore 3800
| 41> %base "TZ_S66by10_42_1.5_dimer"
| 42>
| 43> *xyz 0 1
| 44> N    0.19572959   -0.84468925    0.82384642
| 45> H    0.45039753   -1.79675294    1.04976794
| 46> C   -1.17904919   -0.57368440    0.75948349
| 47> O   -1.99364624   -1.45626527    0.96690066
| 48> C   -1.47671471    0.81115567    0.43755952
| 49> H   -2.50635592    1.11565059    0.36389469
| 50> C   -0.46811280    1.68296245    0.23489084
| 51> H   -0.63843522    2.72164296   -0.00616410
| 52> N    0.84562854    1.30599113    0.32683051
| 53> H    1.58969256    1.96887924    0.18595979
| 54> C    1.25426147    0.01946187    0.63624397
| 55> O    2.42230438   -0.30171639    0.73187948
| 56> C    1.10266351   -0.88854245    5.88946481
| 57> H    1.55651602   -0.98059869    4.90148225
| 58> H    1.64716601   -1.55252272    6.55866248
| 59> C    1.15697698    0.57740955    6.32240079
| 60> H    2.11526697    1.05030849    6.11167650
| 61> H    0.96886170    0.65904709    7.39562392
| 62> C   -0.01037460    1.19022403    5.55162959
| 63> H    0.26392968    1.27900563    4.49815796
| 64> H   -0.29478902    2.18136515    5.90326360
| 65> C   -1.12731909    0.15265212    5.72265790
| 66> H   -1.85285837    0.17626597    4.91128599
| 67> H   -1.67140472    0.35734928    6.64490652
| 68> C   -0.40428275   -1.21389571    5.82631479
| 69> H   -0.64694729   -1.85805184    4.98295511
| 70> H   -0.71938897   -1.74129812    6.72540121
| 71> *
| 72>
| 73> $new_job
| 74> ! ri-mp2 aug-cc-pvqz aug-cc-pvqz/c tightscf
| 75> %pal nprocs 16 end
| 76> %maxcore 3800
| 77> %base "QZ_S66by10_42_1.5_dimer"
| 78>
| 79> *xyz 0 1
| 80> N    0.19572959   -0.84468925    0.82384642
| 81> H    0.45039753   -1.79675294    1.04976794
| 82> C   -1.17904919   -0.57368440    0.75948349
| 83> O   -1.99364624   -1.45626527    0.96690066
| 84> C   -1.47671471    0.81115567    0.43755952
| 85> H   -2.50635592    1.11565059    0.36389469
| 86> C   -0.46811280    1.68296245    0.23489084
| 87> H   -0.63843522    2.72164296   -0.00616410
| 88> N    0.84562854    1.30599113    0.32683051
| 89> H    1.58969256    1.96887924    0.18595979
| 90> C    1.25426147    0.01946187    0.63624397
| 91> O    2.42230438   -0.30171639    0.73187948
| 92> C    1.10266351   -0.88854245    5.88946481
| 93> H    1.55651602   -0.98059869    4.90148225
| 94> H    1.64716601   -1.55252272    6.55866248
| 95> C    1.15697698    0.57740955    6.32240079
| 96> H    2.11526697    1.05030849    6.11167650
| 97> H    0.96886170    0.65904709    7.39562392
| 98> C   -0.01037460    1.19022403    5.55162959
| 99> H    0.26392968    1.27900563    4.49815796
|100> H   -0.29478902    2.18136515    5.90326360
|101> C   -1.12731909    0.15265212    5.72265790
|102> H   -1.85285837    0.17626597    4.91128599
|103> H   -1.67140472    0.35734928    6.64490652
|104> C   -0.40428275   -1.21389571    5.82631479
|105> H   -0.64694729   -1.85805184    4.98295511
|106> H   -0.71938897   -1.74129812    6.72540121
|107> *
|108>
|109>
|110>
|111>
|112>                          ****END OF INPUT****
 Total Charge           Charge          ....    0
 Multiplicity           Mult            ....    1
 Number of Electrons    NEL             ....   98
MP2 TOTAL ENERGY:     -609.702347220 Eh
FINAL SINGLE POINT ENERGY      -609.702347220477
MP2 TOTAL ENERGY:     -610.238579267 Eh
FINAL SINGLE POINT ENERGY      -610.238579266756

CARTESIAN COORDINATES (ANGSTROEM)
---------------------------------
  N      0.195730   -0.844689    0.823846
  H      0.450398   -1.796753    1.049768
  C     -1.179049   -0.573684    0.759483
  O     -1.993646   -1.456265    0.966901
  C     -1.476715    0.811156    0.437560
  H     -2.506356    1.115651    0.363895
  C     -0.468113    1.682962    0.234891
  H     -0.638435    2.721643   -0.006164
  N      0.845629    1.305991    0.326831
  H      1.589693    1.968879    0.185960
  C      1.254261    0.019462    0.636244
  O      2.422304   -0.301716    0.731879
  C      1.102664   -0.888542    5.889465
  H      1.556516   -0.980599    4.901482
  H      1.647166   -1.552523    6.558662
  C      1.156977    0.577410    6.322401
  H      2.115267    1.050308    6.111676
  H      0.968862    0.659047    7.395624
  C     -0.010375    1.190224    5.551630
  H      0.263930    1.279006    4.498158
  H     -0.294789    2.181365    5.903264
  C     -1.127319    0.152652    5.722658
  H     -1.852858    0.176266    4.911286
  H     -1.671405    0.357349    6.644907
  C     -0.404283   -1.213896    5.826315
  H     -0.646947   -1.858052    4.982955
  H     -0.719389   -1.741298    6.725401

 Multiplicity           Mult            ....    1
 Number of Electrons    NEL             ....   98
 Basis Dimension        Dim             .... 1684

ORBITAL ENERGIES
----------------

  NO   OCC          E(Eh)            E(eV)
   0   2.0000     -20.545918      -559.0828
   1   2.0000     -20.540419      -558.9332
   2   2.0000     -15.643502      -425.6813
   3   2.0000     -15.626533      -425.2196
   4   2.0000     -11.419025      -310.7275
   5   2.0000     -11.381043      -309.6939
   6   2.0000     -11.340811      -308.5992
   7   2.0000     -11.255401      -306.2750
   8   2.0000     -11.209754      -305.0329
   9   2.0000     -11.208178      -304.9900
  10   2.0000     -11.207427      -304.9696
  11   2.0000     -11.206911      -304.9556
  12   2.0000     -11.206129      -304.9343
  13   2.0000      -1.436913       -39.1004
  14   2.0000      -1.398842       -38.0644
  15   2.0000      -1.314097       -35.7584
  16   2.0000      -1.246425       -33.9170
  17   2.0000      -1.114773       -30.3345
  18   2.0000      -1.089253       -29.6401
  19   2.0000      -0.955254       -25.9938
  20   2.0000      -0.954501       -25.9733
  21   2.0000      -0.934404       -25.4264
  22   2.0000      -0.902593       -24.5608
  23   2.0000      -0.808133       -21.9904
  24   2.0000      -0.776143       -21.1199
  25   2.0000      -0.766278       -20.8515
  26   2.0000      -0.765584       -20.8326
  27   2.0000      -0.715463       -19.4687
  28   2.0000      -0.678833       -18.4720
  29   2.0000      -0.670318       -18.2403
  30   2.0000      -0.654327       -17.8051
  31   2.0000      -0.648775       -17.6541
  32   2.0000      -0.643623       -17.5139
  33   2.0000      -0.616387       -16.7728
  34   2.0000      -0.602921       -16.4063
  35   2.0000      -0.572357       -15.5746
  36   2.0000      -0.568235       -15.4625
  37   2.0000      -0.566874       -15.4254
  38   2.0000      -0.527315       -14.3490
  39   2.0000      -0.485322       -13.2063
  40   2.0000      -0.474415       -12.9095
  41   2.0000      -0.473432       -12.8827
  42   2.0000      -0.462106       -12.5745
  43   2.0000      -0.459831       -12.5126
  44   2.0000      -0.458574       -12.4784
  45   2.0000      -0.450898       -12.2696
  46   2.0000      -0.446983       -12.1630
  47   2.0000      -0.438543       -11.9334
  48   2.0000      -0.370376       -10.0785
  49   0.0000       0.011461         0.3119
  50   0.0000       0.028257         0.7689
  51   0.0000       0.028644         0.7794
  52   0.0000       0.032867         0.8944
  53   0.0000       0.038854         1.0573

MULLIKEN ATOMIC CHARGES
-----------------------
   0 N :   -0.693981
   1 H :    0.099582
   2 C :    1.225320
   3 O :   -0.851783
   4 C :   -0.424010
   5 H :    0.289438
   6 C :   -0.159641
   7 H :    0.444434
   8 N :   -0.644687
   9 H :    0.092982
  10 C :    1.444523
  11 O :   -0.822431
  12 C :   -0.660014
  13 H :    0.283055
  14 H :    0.324286
  15 C :   -0.550046
  16 H :    0.363965
  17 H :    0.222566
  18 C :   -0.703368
  19 H :    0.343954
  20 H :    0.354533
  21 C :   -0.652450
  22 H :    0.372737
  23 H :    0.263551
  24 C :   -0.538691
  25 H :    0.274343
  26 H :    0.301832
Sum of atomic charges:    0.0000000

LOEWDIN ATOMIC CHARGES
----------------------
   0 N :    0.776269
   1 H :   -0.520665
   2 C :   -0.869907
   3 O :    0.686070
   4 C :    0.330424
   5 H :   -0.354432
   6 C :    0.234135
   7 H :   -0.298203
   8 N :    0.810602
   9 H :   -0.492935
  10 C :   -0.991759
  11 O :    0.691507
  12 C :    0.529748
  13 H :   -0.271994
  14 H :   -0.259834
  15 C :    0.520099
  16 H :   -0.256215
  17 H :   -0.263347
  18 C :    0.517200
  19 H :   -0.272678
  20 H :   -0.257346
  21 C :    0.538503
  22 H :   -0.264058
  23 H :   -0.271648
  24 C :    0.549176
  25 H :   -0.267896
  26 H :   -0.270816

  Mayer bond orders larger than 0.100000
B(  0-N ,  1-H ) :   1.1799 B(  0-N ,  2-C ) :   0.9372 B(  0-N ,  3-O ) :   0.2171
B(  0-N , 10-C ) :   1.1248 B(  0-N , 11-O ) :   0.2238 B(  2-C ,  3-O ) :   0.9624
B(  2-C ,  4-C ) :   1.1525 B(  2-C ,  6-C ) :  -0.1140 B(  3-O ,  4-C ) :   0.2478
B(  4-C ,  5-H ) :   1.0069 B(  4-C ,  6-C ) :   1.4987 B(  6-C ,  7-H ) :   0.8891
B(  6-C ,  8-N ) :   0.8607 B(  8-N ,  9-H ) :   1.1915 B(  8-N , 10-C ) :   1.0895
B(  8-N , 11-O ) :   0.2100 B( 10-C , 11-O ) :   1.0409 B( 12-C , 13-H ) :   0.8829
B( 12-C , 14-H ) :   0.8820 B( 12-C , 15-C ) :   0.9845 B( 12-C , 24-C ) :   0.9663
B( 15-C , 16-H ) :   0.7855 B( 15-C , 17-H ) :   0.9481 B( 15-C , 18-C ) :   0.9731
B( 18-C , 19-H ) :   0.8115 B( 18-C , 20-H ) :   0.8444 B( 18-C , 21-C ) :   0.9748
B( 21-C , 22-H ) :   0.8048 B( 21-C , 23-H ) :   0.9576 B( 21-C , 24-C ) :   0.9727
B( 24-C , 25-H ) :   0.9044 B( 24-C , 26-H ) :   0.9003

MP2 TOTAL ENERGY:     -610.410524839 Eh
FINAL SINGLE POINT ENERGY      -610.410524839014

DIPOLE MOMENT
-------------
                                X             Y             Z
Electronic contribution:      0.32685      -1.23508     -22.21891
Nuclear contribution   :     -0.31162       3.11448      21.76363
                        -----------------------------------------
Total Dipole Moment    :      0.01524       1.87940      -0.45528
                        -----------------------------------------
Magnitude (a.u.)       :      1.93382
Magnitude (Debye)      :      4.91538

Rotational constants in cm-1:     0.033675     0.012081     0.011065
Rotational constants in MHz :  1009.543131   362.190642   331.728554

                             ****ORCA TERMINATED NORMALLY****
TOTAL RUN TIME: 0 days 10 hours 55 minutes 34 seconds 811 msec
