                         Program Version 5.0.4 -  RELEASE  -
|  1> ! ri-mp2 aug-cc-pvdz aug-cc-pvdz/c tightscf
|  2> %pal nprocs 16 end
|  3> %maxcore 3800
|  4> %base "DZ_S66by10_29_0.95_dimer"
|  5>
|  6> *xyz 0 1
|  7> N    1.21075533    0.02867578    0.32971111
|  8> C    0.61193497   -1.15844901    0.15345176
|  9> H    1.25147791   -2.02952340    0.21929295
| 10> C   -0.75131399   -1.30864956   -0.08883407
| 11> H   -1.17041577   -2.29686932   -0.21338320
| 12> C   -1.54786767   -0.16994027   -0.15646691
| 13> H   -2.61101275   -0.24595469   -0.33875574
| 14> C   -0.94362237    1.07063612    0.01982310
| 15> H   -1.51881431    1.98450028   -0.01164403
| 16> C    0.42771857    1.11610863    0.25734879
| 17> H    0.92469451    2.06805173    0.39754798
| 18> N   -0.73036703   -0.29379939    3.10472454
| 19> H   -1.62525605   -0.72566288    2.92012105
| 20> C   -0.73011214    1.10401040    3.19773554
| 21> O   -1.76999522    1.73221021    3.08288541
| 22> C    0.58938261    1.66309175    3.42529861
| 23> H    0.69069897    2.73031392    3.52116679
| 24> C    1.65925620    0.84439945    3.49681866
| 25> H    2.66313524    1.21306415    3.64524519
| 26> N    1.54119506   -0.51289382    3.38426400
| 27> H    2.35463105   -1.10508117    3.37609636
| 28> C    0.34074812   -1.16012624    3.15788230
| 29> O    0.24861088   -2.36554432    3.02430302
| 30> *
| 31>
| 32> $new_job
| 33> ! ri-mp2 aug-cc-pvtz aug-cc-pvtz/c tightscf
| 34> %pal nprocs 16 end
| 35> %maxcore 3800
| 36> %base "TZ_S66by10_29_0.95_dimer"
| 37>
| 38> *xyz 0 1
| 39> N    1.21075533    0.02867578    0.32971111
| 40> C    0.61193497   -1.15844901    0.15345176
| 41> H    1.25147791   -2.02952340    0.21929295
| 42> C   -0.75131399   -1.30864956   -0.08883407
| 43> H   -1.17041577   -2.29686932   -0.21338320
| 44> C   -1.54786767   -0.16994027   -0.15646691
| 45> H   -2.61101275   -0.24595469   -0.33875574
| 46> C   -0.94362237    1.07063612    0.01982310
| 47> H   -1.51881431    1.98450028   -0.01164403
| 48> C    0.42771857    1.11610863    0.25734879
| 49> H    0.92469451    2.06805173    0.39754798
| 50> N   -0.73036703   -0.29379939    3.10472454
| 51> H   -1.62525605   -0.72566288    2.92012105
| 52> C   -0.73011214    1.10401040    3.19773554
| 53> O   -1.76999522    1.73221021    3.08288541
| 54> C    0.58938261    1.66309175    3.42529861
| 55> H    0.69069897    2.73031392    3.52116679
| 56> C    1.65925620    0.84439945    3.49681866
| 57> H    2.66313524    1.21306415    3.64524519
| 58> N    1.54119506   -0.51289382    3.38426400
| 59> H    2.35463105   -1.10508117    3.37609636
| 60> C    0.34074812   -1.16012624    3.15788230
| 61> O    0.24861088   -2.36554432    3.02430302
| 62> *
| 63>
| 64> $new_job
| 65> ! ri-mp2 aug-cc-pvqz aug-cc-pvqz/c tightscf
| 66> %pal nprocs 16 end
| 67> %maxcore 3800
| 68> %base "QZ_S66by10_29_0.95_dimer"
| 69>
| 70> *xyz 0 1
| 71> N    1.21075533    0.02867578    0.32971111
| 72> C    0.61193497   -1.15844901    0.15345176
| 73> H    1.25147791   -2.02952340    0.21929295
| 74> C   -0.75131399   -1.30864956   -0.08883407
| 75> H   -1.17041577   -2.29686932   -0.21338320
| 76> C   -1.54786767   -0.16994027   -0.15646691
| 77> H   -2.61101275   -0.24595469   -0.33875574
| 78> C   -0.94362237    1.07063612    0.01982310
| 79> H   -1.51881431    1.98450028   -0.01164403
| 80> C    0.42771857    1.11610863    0.25734879
| 81> H    0.92469451    2.06805173    0.39754798
| 82> N   -0.73036703   -0.29379939    3.10472454
| 83> H   -1.62525605   -0.72566288    2.92012105
| 84> C   -0.73011214    1.10401040    3.19773554
| 85> O   -1.76999522    1.73221021    3.08288541
| 86> C    0.58938261    1.66309175    3.42529861
| 87> H    0.69069897    2.73031392    3.52116679
| 88> C    1.65925620    0.84439945    3.49681866
| 89> H    2.66313524    1.21306415    3.64524519
| 90> N    1.54119506   -0.51289382    3.38426400
| 91> H    2.35463105   -1.10508117    3.37609636
| 92> C    0.34074812   -1.16012624    3.15788230
| 93> O    0.24861088   -2.36554432    3.02430302
| 94> *
| 95>
| 96>
| 97>
| 98>
| 99>                          ****END OF INPUT****
 Total Charge           Charge          ....    0
 Multiplicity           Mult            ....    1
 Number of Electrons    NEL             ....  100
MP2 TOTAL ENERGY:     -661.361174648 Eh
FINAL SINGLE POINT ENERGY      -661.361174647739
MP2 TOTAL ENERGY:     -661.919287638 Eh
FINAL SINGLE POINT ENERGY      -661.919287637563

CARTESIAN COORDINATES (ANGSTROEM)
---------------------------------
  N      1.210755    0.028676    0.329711
  C      0.611935   -1.158449    0.153452
  H      1.251478   -2.029523    0.219293
  C     -0.751314   -1.308650   -0.088834
  H     -1.170416   -2.296869   -0.213383
  C     -1.547868   -0.169940   -0.156467
  H     -2.611013   -0.245955   -0.338756
  C     -0.943622    1.070636    0.019823
  H     -1.518814    1.984500   -0.011644
  C      0.427719    1.116109    0.257349
  H      0.924695    2.068052    0.397548
  N     -0.730367   -0.293799    3.104725
  H     -1.625256   -0.725663    2.920121
  C     -0.730112    1.104010    3.197736
  O     -1.769995    1.732210    3.082885
  C      0.589383    1.663092    3.425299
  H      0.690699    2.730314    3.521167
  C      1.659256    0.844399    3.496819
  H      2.663135    1.213064    3.645245
  N      1.541195   -0.512894    3.384264
  H      2.354631   -1.105081    3.376096
  C      0.340748   -1.160126    3.157882
  O      0.248611   -2.365544    3.024303

 Multiplicity           Mult            ....    1
 Number of Electrons    NEL             ....  100
 Basis Dimension        Dim             .... 1534

ORBITAL ENERGIES
----------------

  NO   OCC          E(Eh)            E(eV)
   0   2.0000     -20.537930      -558.8655
   1   2.0000     -20.532639      -558.7215
   2   2.0000     -15.632833      -425.3910
   3   2.0000     -15.617491      -424.9735
   4   2.0000     -15.568112      -423.6299
   5   2.0000     -11.410589      -310.4979
   6   2.0000     -11.373489      -309.4884
   7   2.0000     -11.331245      -308.3389
   8   2.0000     -11.274551      -306.7961
   9   2.0000     -11.274045      -306.7824
  10   2.0000     -11.257741      -306.3387
  11   2.0000     -11.245309      -306.0004
  12   2.0000     -11.239948      -305.8545
  13   2.0000     -11.238749      -305.8219
  14   2.0000      -1.429287       -38.8929
  15   2.0000      -1.391454       -37.8634
  16   2.0000      -1.305727       -35.5306
  17   2.0000      -1.258992       -34.2589
  18   2.0000      -1.238395       -33.6984
  19   2.0000      -1.089662       -29.6512
  20   2.0000      -1.080574       -29.4039
  21   2.0000      -1.034033       -28.1375
  22   2.0000      -0.926216       -25.2036
  23   2.0000      -0.894646       -24.3446
  24   2.0000      -0.859433       -23.3864
  25   2.0000      -0.856312       -23.3014
  26   2.0000      -0.799639       -21.7593
  27   2.0000      -0.758125       -20.6296
  28   2.0000      -0.722697       -19.6656
  29   2.0000      -0.706817       -19.2335
  30   2.0000      -0.671667       -18.2770
  31   2.0000      -0.667421       -18.1614
  32   2.0000      -0.660628       -17.9766
  33   2.0000      -0.652973       -17.7683
  34   2.0000      -0.646782       -17.5998
  35   2.0000      -0.608450       -16.5568
  36   2.0000      -0.598452       -16.2847
  37   2.0000      -0.595047       -16.1921
  38   2.0000      -0.578120       -15.7314
  39   2.0000      -0.567411       -15.4400
  40   2.0000      -0.538244       -14.6464
  41   2.0000      -0.521877       -14.2010
  42   2.0000      -0.517213       -14.0741
  43   2.0000      -0.478156       -13.0113
  44   2.0000      -0.444190       -12.0870
  45   2.0000      -0.432446       -11.7674
  46   2.0000      -0.423612       -11.5271
  47   2.0000      -0.385784       -10.4977
  48   2.0000      -0.362942        -9.8762
  49   2.0000      -0.344279        -9.3683
  50   0.0000       0.017226         0.4687
  51   0.0000       0.028229         0.7681
  52   0.0000       0.029609         0.8057
  53   0.0000       0.035747         0.9727
  54   0.0000       0.039304         1.0695

MULLIKEN ATOMIC CHARGES
-----------------------
   0 N :   -0.888209
   1 C :   -0.040016
   2 H :    0.516049
   3 C :   -0.231188
   4 H :    0.262228
   5 C :   -0.423251
   6 H :    0.331510
   7 C :   -0.277725
   8 H :    0.341127
   9 C :   -0.053364
  10 H :    0.470956
  11 N :   -0.770767
  12 H :    0.098997
  13 C :    1.395799
  14 O :   -0.972333
  15 C :   -0.478603
  16 H :    0.232800
  17 C :   -0.058764
  18 H :    0.388862
  19 N :   -0.736189
  20 H :    0.089118
  21 C :    1.734095
  22 O :   -0.931132
Sum of atomic charges:    0.0000000

LOEWDIN ATOMIC CHARGES
----------------------
   0 N :    0.596672
   1 C :    0.034330
   2 H :   -0.345328
   3 C :    0.324370
   4 H :   -0.317307
   5 C :    0.331819
   6 H :   -0.304052
   7 C :    0.311235
   8 H :   -0.316912
   9 C :    0.039447
  10 H :   -0.345348
  11 N :    0.777329
  12 H :   -0.517106
  13 C :   -0.900482
  14 O :    0.702914
  15 C :    0.316455
  16 H :   -0.344004
  17 C :    0.227094
  18 H :   -0.287318
  19 N :    0.814744
  20 H :   -0.481770
  21 C :   -1.032361
  22 O :    0.715579

  Mayer bond orders larger than 0.100000
B(  0-N ,  1-C ) :   1.1110 B(  0-N ,  2-H ) :  -0.1864 B(  0-N ,  7-C ) :   0.1061
B(  0-N ,  9-C ) :   1.0317 B(  0-N , 10-H ) :  -0.1640 B(  1-C ,  2-H ) :   0.8562
B(  1-C ,  3-C ) :   1.1338 B(  1-C ,  5-C ) :   0.1023 B(  3-C ,  4-H ) :   1.0711
B(  3-C ,  5-C ) :   1.2775 B(  5-C ,  6-H ) :   1.0043 B(  5-C ,  7-C ) :   1.1951
B(  7-C ,  8-H ) :   1.0229 B(  7-C ,  9-C ) :   1.1274 B(  7-C , 10-H ) :  -0.1133
B(  9-C , 10-H ) :   0.8688 B( 11-N , 12-H ) :   1.1969 B( 11-N , 13-C ) :   0.9544
B( 11-N , 14-O ) :   0.2258 B( 11-N , 21-C ) :   0.9860 B( 11-N , 22-O ) :   0.2382
B( 13-C , 14-O ) :   0.7465 B( 13-C , 15-C ) :   1.0664 B( 14-O , 15-C ) :   0.2373
B( 15-C , 16-H ) :   1.0613 B( 15-C , 17-C ) :   1.5035 B( 17-C , 18-H ) :   0.9785
B( 17-C , 19-N ) :   0.9091 B( 19-N , 20-H ) :   1.1811 B( 19-N , 21-C ) :   1.0128
B( 19-N , 22-O ) :   0.2216 B( 21-C , 22-O ) :   0.7966

MP2 TOTAL ENERGY:     -662.101485617 Eh
FINAL SINGLE POINT ENERGY      -662.101485617400

DIPOLE MOMENT
-------------
                                X             Y             Z
Electronic contribution:      0.14846      -1.03281       3.58217
Nuclear contribution   :      0.85241       1.27600      -3.55716
                        -----------------------------------------
Total Dipole Moment    :      1.00086       0.24320       0.02501
                        -----------------------------------------
Magnitude (a.u.)       :      1.03029
Magnitude (Debye)      :      2.61879

Rotational constants in cm-1:     0.032191     0.024875     0.020510
Rotational constants in MHz :   965.051936   745.745952   614.864551

                             ****ORCA TERMINATED NORMALLY****
TOTAL RUN TIME: 0 days 2 hours 20 minutes 8 seconds 60 msec
