                         Program Version 5.0.4 -  RELEASE  -
|  1> ! ri-mp2 aug-cc-pvdz aug-cc-pvdz/c tightscf
|  2> %pal nprocs 16 end
|  3> %maxcore 3800
|  4> %base "DZ_S66by10_29_0.8_dimer"
|  5>
|  6> *xyz 0 1
|  7> N    1.21075533    0.02867578    0.32971111
|  8> C    0.61193497   -1.15844901    0.15345176
|  9> H    1.25147791   -2.02952340    0.21929295
| 10> C   -0.75131399   -1.30864956   -0.08883407
| 11> H   -1.17041577   -2.29686932   -0.21338320
| 12> C   -1.54786767   -0.16994027   -0.15646691
| 13> H   -2.61101275   -0.24595469   -0.33875574
| 14> C   -0.94362237    1.07063612    0.01982310
| 15> H   -1.51881431    1.98450028   -0.01164403
| 16> C    0.42771857    1.11610863    0.25734879
| 17> H    0.92469451    2.06805173    0.39754798
| 18> N   -0.77739071   -0.32072971    2.57760826
| 19> H   -1.67227973   -0.75259320    2.39300477
| 20> C   -0.77713582    1.07708009    2.67061926
| 21> O   -1.81701890    1.70527989    2.55576913
| 22> C    0.54235893    1.63616143    2.89818232
| 23> H    0.64367530    2.70338360    2.99405050
| 24> C    1.61223252    0.81746913    2.96970238
| 25> H    2.61611156    1.18613383    3.11812891
| 26> N    1.49417138   -0.53982413    2.85714771
| 27> H    2.30760737   -1.13201148    2.84898007
| 28> C    0.29372444   -1.18705656    2.63076601
| 29> O    0.20158720   -2.39247464    2.49718674
| 30> *
| 31>
| 32> $new_job
| 33> ! ri-mp2 aug-cc-pvtz aug-cc-pvtz/c tightscf
| 34> %pal nprocs 16 end
| 35> %maxcore 3800
| 36> %base "TZ_S66by10_29_0.8_dimer"
| 37>
| 38> *xyz 0 1
| 39> N    1.21075533    0.02867578    0.32971111
| 40> C    0.61193497   -1.15844901    0.15345176
| 41> H    1.25147791   -2.02952340    0.21929295
| 42> C   -0.75131399   -1.30864956   -0.08883407
| 43> H   -1.17041577   -2.29686932   -0.21338320
| 44> C   -1.54786767   -0.16994027   -0.15646691
| 45> H   -2.61101275   -0.24595469   -0.33875574
| 46> C   -0.94362237    1.07063612    0.01982310
| 47> H   -1.51881431    1.98450028   -0.01164403
| 48> C    0.42771857    1.11610863    0.25734879
| 49> H    0.92469451    2.06805173    0.39754798
| 50> N   -0.77739071   -0.32072971    2.57760826
| 51> H   -1.67227973   -0.75259320    2.39300477
| 52> C   -0.77713582    1.07708009    2.67061926
| 53> O   -1.81701890    1.70527989    2.55576913
| 54> C    0.54235893    1.63616143    2.89818232
| 55> H    0.64367530    2.70338360    2.99405050
| 56> C    1.61223252    0.81746913    2.96970238
| 57> H    2.61611156    1.18613383    3.11812891
| 58> N    1.49417138   -0.53982413    2.85714771
| 59> H    2.30760737   -1.13201148    2.84898007
| 60> C    0.29372444   -1.18705656    2.63076601
| 61> O    0.20158720   -2.39247464    2.49718674
| 62> *
| 63>
| 64> $new_job
| 65> ! ri-mp2 aug-cc-pvqz aug-cc-pvqz/c tightscf
| 66> %pal nprocs 16 end
| 67> %maxcore 3800
| 68> %base "QZ_S66by10_29_0.8_dimer"
| 69>
| 70> *xyz 0 1
| 71> N    1.21075533    0.02867578    0.32971111
| 72> C    0.61193497   -1.15844901    0.15345176
| 73> H    1.25147791   -2.02952340    0.21929295
| 74> C   -0.75131399   -1.30864956   -0.08883407
| 75> H   -1.17041577   -2.29686932   -0.21338320
| 76> C   -1.54786767   -0.16994027   -0.15646691
| 77> H   -2.61101275   -0.24595469   -0.33875574
| 78> C   -0.94362237    1.07063612    0.01982310
| 79> H   -1.51881431    1.98450028   -0.01164403
| 80> C    0.42771857    1.11610863    0.25734879
| 81> H    0.92469451    2.06805173    0.39754798
| 82> N   -0.77739071   -0.32072971    2.57760826
| 83> H   -1.67227973   -0.75259320    2.39300477
| 84> C   -0.77713582    1.07708009    2.67061926
| 85> O   -1.81701890    1.70527989    2.55576913
| 86> C    0.54235893    1.63616143    2.89818232
| 87> H    0.64367530    2.70338360    2.99405050
| 88> C    1.61223252    0.81746913    2.96970238
| 89> H    2.61611156    1.18613383    3.11812891
| 90> N    1.49417138   -0.53982413    2.85714771
| 91> H    2.30760737   -1.13201148    2.84898007
| 92> C    0.29372444   -1.18705656    2.63076601
| 93> O    0.20158720   -2.39247464    2.49718674
| 94> *
| 95>
| 96>
| 97>
| 98>
| 99>                          ****END OF INPUT****
 Total Charge           Charge          ....    0
 Multiplicity           Mult            ....    1
 Number of Electrons    NEL             ....  100
MP2 TOTAL ENERGY:     -661.337032195 Eh
FINAL SINGLE POINT ENERGY      -661.337032194583
MP2 TOTAL ENERGY:     -661.894574420 Eh
FINAL SINGLE POINT ENERGY      -661.894574419861

CARTESIAN COORDINATES (ANGSTROEM)
---------------------------------
  N      1.210755    0.028676    0.329711
  C      0.611935   -1.158449    0.153452
  H      1.251478   -2.029523    0.219293
  C     -0.751314   -1.308650   -0.088834
  H     -1.170416   -2.296869   -0.213383
  C     -1.547868   -0.169940   -0.156467
  H     -2.611013   -0.245955   -0.338756
  C     -0.943622    1.070636    0.019823
  H     -1.518814    1.984500   -0.011644
  C      0.427719    1.116109    0.257349
  H      0.924695    2.068052    0.397548
  N     -0.777391   -0.320730    2.577608
  H     -1.672280   -0.752593    2.393005
  C     -0.777136    1.077080    2.670619
  O     -1.817019    1.705280    2.555769
  C      0.542359    1.636161    2.898182
  H      0.643675    2.703384    2.994051
  C      1.612233    0.817469    2.969702
  H      2.616112    1.186134    3.118129
  N      1.494171   -0.539824    2.857148
  H      2.307607   -1.132011    2.848980
  C      0.293724   -1.187057    2.630766
  O      0.201587   -2.392475    2.497187

 Multiplicity           Mult            ....    1
 Number of Electrons    NEL             ....  100
 Basis Dimension        Dim             .... 1534

ORBITAL ENERGIES
----------------

  NO   OCC          E(Eh)            E(eV)
   0   2.0000     -20.537494      -558.8536
   1   2.0000     -20.531564      -558.6923
   2   2.0000     -15.629166      -425.2912
   3   2.0000     -15.614631      -424.8957
   4   2.0000     -15.566782      -423.5937
   5   2.0000     -11.410618      -310.4987
   6   2.0000     -11.374241      -309.5088
   7   2.0000     -11.327713      -308.2427
   8   2.0000     -11.273337      -306.7631
   9   2.0000     -11.272376      -306.7369
  10   2.0000     -11.253315      -306.2183
  11   2.0000     -11.244088      -305.9672
  12   2.0000     -11.235983      -305.7466
  13   2.0000     -11.234298      -305.7008
  14   2.0000      -1.431980       -38.9662
  15   2.0000      -1.393582       -37.9213
  16   2.0000      -1.306872       -35.5618
  17   2.0000      -1.261153       -34.3177
  18   2.0000      -1.238885       -33.7118
  19   2.0000      -1.089413       -29.6444
  20   2.0000      -1.082740       -29.4628
  21   2.0000      -1.034737       -28.1566
  22   2.0000      -0.926403       -25.2087
  23   2.0000      -0.895247       -24.3609
  24   2.0000      -0.859902       -23.3991
  25   2.0000      -0.857321       -23.3289
  26   2.0000      -0.799804       -21.7638
  27   2.0000      -0.758008       -20.6264
  28   2.0000      -0.724990       -19.7280
  29   2.0000      -0.705678       -19.2025
  30   2.0000      -0.682783       -18.5795
  31   2.0000      -0.672721       -18.3057
  32   2.0000      -0.659984       -17.9591
  33   2.0000      -0.652615       -17.7585
  34   2.0000      -0.647403       -17.6167
  35   2.0000      -0.609049       -16.5731
  36   2.0000      -0.600440       -16.3388
  37   2.0000      -0.595067       -16.1926
  38   2.0000      -0.580995       -15.8097
  39   2.0000      -0.571583       -15.5536
  40   2.0000      -0.527140       -14.3442
  41   2.0000      -0.520236       -14.1563
  42   2.0000      -0.515966       -14.0401
  43   2.0000      -0.478442       -13.0191
  44   2.0000      -0.444974       -12.1083
  45   2.0000      -0.435133       -11.8406
  46   2.0000      -0.424004       -11.5377
  47   2.0000      -0.379991       -10.3401
  48   2.0000      -0.365818        -9.9544
  49   2.0000      -0.330738        -8.9998
  50   0.0000       0.017302         0.4708
  51   0.0000       0.028793         0.7835
  52   0.0000       0.029384         0.7996
  53   0.0000       0.035465         0.9650
  54   0.0000       0.040035         1.0894

MULLIKEN ATOMIC CHARGES
-----------------------
   0 N :   -0.883584
   1 C :   -0.016329
   2 H :    0.479652
   3 C :   -0.390711
   4 H :    0.232696
   5 C :   -0.268132
   6 H :    0.282292
   7 C :   -0.341668
   8 H :    0.306803
   9 C :   -0.002261
  10 H :    0.467921
  11 N :   -0.711623
  12 H :    0.060857
  13 C :    1.492318
  14 O :   -1.061545
  15 C :   -0.510298
  16 H :    0.247272
  17 C :   -0.091398
  18 H :    0.341037
  19 N :   -0.715937
  20 H :    0.054336
  21 C :    2.052863
  22 O :   -1.024560
Sum of atomic charges:    0.0000000

LOEWDIN ATOMIC CHARGES
----------------------
   0 N :    0.605133
   1 C :   -0.008253
   2 H :   -0.344979
   3 C :    0.315620
   4 H :   -0.302686
   5 C :    0.332696
   6 H :   -0.290177
   7 C :    0.279519
   8 H :   -0.317417
   9 C :    0.021362
  10 H :   -0.339602
  11 N :    0.780718
  12 H :   -0.520303
  13 C :   -0.912198
  14 O :    0.738274
  15 C :    0.302722
  16 H :   -0.325501
  17 C :    0.219468
  18 H :   -0.274510
  19 N :    0.812078
  20 H :   -0.467917
  21 C :   -1.061678
  22 O :    0.757630

  Mayer bond orders larger than 0.100000
B(  0-N ,  1-C ) :   1.1063 B(  0-N ,  2-H ) :  -0.1830 B(  0-N ,  9-C ) :   0.9402
B(  0-N , 10-H ) :  -0.1753 B(  1-C ,  2-H ) :   0.8968 B(  1-C ,  3-C ) :   1.1905
B(  3-C ,  4-H ) :   1.1099 B(  3-C ,  5-C ) :   1.2838 B(  5-C ,  6-H ) :   1.0629
B(  5-C ,  7-C ) :   1.1829 B(  7-C ,  8-H ) :   1.0713 B(  7-C ,  9-C ) :   1.2110
B(  7-C , 10-H ) :  -0.1311 B(  9-C , 10-H ) :   0.9208 B( 11-N , 12-H ) :   1.2324
B( 11-N , 13-C ) :   0.9987 B( 11-N , 14-O ) :   0.2524 B( 11-N , 21-C ) :   0.9614
B( 11-N , 22-O ) :   0.2981 B( 13-C , 14-O ) :   0.5559 B( 13-C , 15-C ) :   1.0915
B( 14-O , 15-C ) :   0.2592 B( 15-C , 16-H ) :   1.0219 B( 15-C , 17-C ) :   1.5128
B( 16-H , 17-C ) :  -0.1022 B( 17-C , 18-H ) :   1.0383 B( 17-C , 19-N ) :   0.9568
B( 19-N , 20-H ) :   1.1991 B( 19-N , 21-C ) :   0.9630 B( 19-N , 22-O ) :   0.2505
B( 21-C , 22-O ) :   0.5040

MP2 TOTAL ENERGY:     -662.076100443 Eh
FINAL SINGLE POINT ENERGY      -662.076100442533

DIPOLE MOMENT
-------------
                                X             Y             Z
Electronic contribution:      0.12624      -1.05962       2.99891
Nuclear contribution   :      0.90808       1.30788      -2.93310
                        -----------------------------------------
Total Dipole Moment    :      1.03432       0.24827       0.06581
                        -----------------------------------------
Magnitude (a.u.)       :      1.06573
Magnitude (Debye)      :      2.70887

Rotational constants in cm-1:     0.032771     0.031468     0.024466
Rotational constants in MHz :   982.446822   943.373762   733.477639

                             ****ORCA TERMINATED NORMALLY****
TOTAL RUN TIME: 0 days 2 hours 11 minutes 33 seconds 951 msec
