                         Program Version 5.0.4 -  RELEASE  -
|  1> ! ri-mp2 aug-cc-pvdz aug-cc-pvdz/c tightscf
|  2> %pal nprocs 16 end
|  3> %maxcore 3800
|  4> %base "DZ_S66by10_4_0.95_dimer"
|  5> %scf STABPerform true end
|  6>
|  7> *xyz 0 1
|  8> O   -0.39201845   -0.38471874    0.07607132
|  9> H   -0.91146085    0.41381204    0.17764877
| 10> H    0.52490382   -0.06848469    0.09051136
| 11> C    2.14619114   -2.25086961   -0.22943254
| 12> H    2.79615399   -3.11198149   -0.36234793
| 13> H    1.46521517   -2.17339755   -1.07329782
| 14> H    1.53317425   -2.38966560    0.65757582
| 15> C    2.90092322   -0.95285673   -0.09683904
| 16> O    2.32420778    0.12243812    0.05974970
| 17> N    4.25155635   -1.05035942   -0.16145701
| 18> H    4.65250797   -1.96089340   -0.29097210
| 19> C    5.11979846    0.10161104   -0.05201393
| 20> H    4.48330433    0.96991149    0.08277068
| 21> H    5.78538796    0.01015585    0.80407896
| 22> H    5.71426418    0.23103153   -0.95427311
| 23> *
| 24>
| 25> $new_job
| 26> ! ri-mp2 aug-cc-pvtz aug-cc-pvtz/c tightscf
| 27> %pal nprocs 16 end
| 28> %maxcore 3800
| 29> %base "TZ_S66by10_4_0.95_dimer"
| 30>
| 31> *xyz 0 1
| 32> O   -0.39201845   -0.38471874    0.07607132
| 33> H   -0.91146085    0.41381204    0.17764877
| 34> H    0.52490382   -0.06848469    0.09051136
| 35> C    2.14619114   -2.25086961   -0.22943254
| 36> H    2.79615399   -3.11198149   -0.36234793
| 37> H    1.46521517   -2.17339755   -1.07329782
| 38> H    1.53317425   -2.38966560    0.65757582
| 39> C    2.90092322   -0.95285673   -0.09683904
| 40> O    2.32420778    0.12243812    0.05974970
| 41> N    4.25155635   -1.05035942   -0.16145701
| 42> H    4.65250797   -1.96089340   -0.29097210
| 43> C    5.11979846    0.10161104   -0.05201393
| 44> H    4.48330433    0.96991149    0.08277068
| 45> H    5.78538796    0.01015585    0.80407896
| 46> H    5.71426418    0.23103153   -0.95427311
| 47> *
| 48>
| 49> $new_job
| 50> ! ri-mp2 aug-cc-pvqz aug-cc-pvqz/c tightscf
| 51> %pal nprocs 16 end
| 52> %maxcore 3800
| 53> %base "QZ_S66by10_4_0.95_dimer"
| 54>
| 55> *xyz 0 1
| 56> O   -0.39201845   -0.38471874    0.07607132
| 57> H   -0.91146085    0.41381204    0.17764877
| 58> H    0.52490382   -0.06848469    0.09051136
| 59> C    2.14619114   -2.25086961   -0.22943254
| 60> H    2.79615399   -3.11198149   -0.36234793
| 61> H    1.46521517   -2.17339755   -1.07329782
| 62> H    1.53317425   -2.38966560    0.65757582
| 63> C    2.90092322   -0.95285673   -0.09683904
| 64> O    2.32420778    0.12243812    0.05974970
| 65> N    4.25155635   -1.05035942   -0.16145701
| 66> H    4.65250797   -1.96089340   -0.29097210
| 67> C    5.11979846    0.10161104   -0.05201393
| 68> H    4.48330433    0.96991149    0.08277068
| 69> H    5.78538796    0.01015585    0.80407896
| 70> H    5.71426418    0.23103153   -0.95427311
| 71> *
| 72>
| 73>
| 74>
| 75>
| 76>                          ****END OF INPUT****
 Total Charge           Charge          ....    0
 Multiplicity           Mult            ....    1
 Number of Electrons    NEL             ....   50
MP2 TOTAL ENERGY:     -324.120691024 Eh
FINAL SINGLE POINT ENERGY      -324.120691023858
MP2 TOTAL ENERGY:     -324.412582944 Eh
FINAL SINGLE POINT ENERGY      -324.412582943795

CARTESIAN COORDINATES (ANGSTROEM)
---------------------------------
  O     -0.392018   -0.384719    0.076071
  H     -0.911461    0.413812    0.177649
  H      0.524904   -0.068485    0.090511
  C      2.146191   -2.250870   -0.229433
  H      2.796154   -3.111981   -0.362348
  H      1.465215   -2.173398   -1.073298
  H      1.533174   -2.389666    0.657576
  C      2.900923   -0.952857   -0.096839
  O      2.324208    0.122438    0.059750
  N      4.251556   -1.050359   -0.161457
  H      4.652508   -1.960893   -0.290972
  C      5.119798    0.101611   -0.052014
  H      4.483304    0.969911    0.082771
  H      5.785388    0.010156    0.804079
  H      5.714264    0.231032   -0.954273

 Multiplicity           Mult            ....    1
 Number of Electrons    NEL             ....   50
 Basis Dimension        Dim             ....  894

ORBITAL ENERGIES
----------------

  NO   OCC          E(Eh)            E(eV)
   0   2.0000     -20.523737      -558.4793
   1   2.0000     -20.517166      -558.3005
   2   2.0000     -15.596269      -424.3961
   3   2.0000     -11.360420      -309.1328
   4   2.0000     -11.263168      -306.4864
   5   2.0000     -11.234644      -305.7102
   6   2.0000      -1.389916       -37.8215
   7   2.0000      -1.306828       -35.5606
   8   2.0000      -1.242468       -33.8093
   9   2.0000      -1.025353       -27.9013
  10   2.0000      -0.940291       -25.5866
  11   2.0000      -0.803815       -21.8729
  12   2.0000      -0.699773       -19.0418
  13   2.0000      -0.679647       -18.4941
  14   2.0000      -0.665725       -18.1153
  15   2.0000      -0.642435       -17.4815
  16   2.0000      -0.592020       -16.1097
  17   2.0000      -0.591579       -16.0977
  18   2.0000      -0.563939       -15.3455
  19   2.0000      -0.553031       -15.0487
  20   2.0000      -0.539319       -14.6756
  21   2.0000      -0.514824       -14.0091
  22   2.0000      -0.467273       -12.7151
  23   2.0000      -0.437239       -11.8979
  24   2.0000      -0.405619       -11.0375
  25   0.0000       0.017967         0.4889
  26   0.0000       0.030428         0.8280
  27   0.0000       0.035584         0.9683
  28   0.0000       0.037217         1.0127
  29   0.0000       0.048411         1.3173

MULLIKEN ATOMIC CHARGES
-----------------------
   0 O :   -0.708015
   1 H :    0.283216
   2 H :    0.301374
   3 C :   -0.731527
   4 H :    0.291798
   5 H :    0.270938
   6 H :    0.270111
   7 C :    0.934620
   8 O :   -0.806907
   9 N :   -0.472461
  10 H :    0.245230
  11 C :   -0.720959
  12 H :    0.294583
  13 H :    0.273578
  14 H :    0.274421
Sum of atomic charges:    0.0000000

LOEWDIN ATOMIC CHARGES
----------------------
   0 O :    1.614285
   1 H :   -0.782365
   2 H :   -1.116081
   3 C :    0.903952
   4 H :   -0.308150
   5 H :   -0.299350
   6 H :   -0.298255
   7 C :   -0.740873
   8 O :    0.826424
   9 N :    0.840574
  10 H :   -0.505578
  11 C :    0.797110
  12 H :   -0.363416
  13 H :   -0.284145
  14 H :   -0.284133

  Mayer bond orders larger than 0.100000
B(  0-O ,  1-H ) :   0.9833 B(  0-O ,  2-H ) :   0.8757 B(  3-C ,  4-H ) :   0.9735
B(  3-C ,  5-H ) :   0.9372 B(  3-C ,  6-H ) :   0.9377 B(  3-C ,  7-C ) :   0.8201
B(  7-C ,  8-O ) :   1.2988 B(  7-C ,  9-N ) :   1.1750 B(  8-O ,  9-N ) :   0.1211
B(  9-N , 10-H ) :   0.9812 B(  9-N , 11-C ) :   0.8357 B( 11-C , 12-H ) :   0.9402
B( 11-C , 13-H ) :   0.9569 B( 11-C , 14-H ) :   0.9559

MP2 TOTAL ENERGY:     -324.506579595 Eh
FINAL SINGLE POINT ENERGY      -324.506579595350

DIPOLE MOMENT
-------------
                                X             Y             Z
Electronic contribution:     -0.66159       0.99982       0.16032
Nuclear contribution   :      2.25977      -1.60479      -0.30099
                        -----------------------------------------
Total Dipole Moment    :      1.59817      -0.60497      -0.14067
                        -----------------------------------------
Magnitude (a.u.)       :      1.71462
Magnitude (Debye)      :      4.35823

Rotational constants in cm-1:     0.228744     0.053822     0.044286
Rotational constants in MHz :  6857.569586  1613.548159  1327.646165

                             ****ORCA TERMINATED NORMALLY****
TOTAL RUN TIME: 0 days 1 hours 9 minutes 50 seconds 104 msec
