                         Program Version 5.0.4 -  RELEASE  -
|  1> ! ri-mp2 aug-cc-pvdz aug-cc-pvdz/c tightscf
|  2> %pal nprocs 16 end
|  3> %maxcore 3800
|  4> %base "DZ_S66by10_25_0.7_dimer"
|  5>
|  6> *xyz 0 1
|  7> N    1.57248145    0.25454916   -0.25648131
|  8> C    0.96935990   -0.90316032    0.04452614
|  9> H    1.61363891   -1.77218121    0.10234520
| 10> C   -0.39815811   -1.02881911    0.28096043
| 11> H   -0.81842477   -1.99173710    0.53356364
| 12> C   -1.19580525    0.10655779    0.19539732
| 13> H   -2.26068964    0.04953865    0.37344280
| 14> C   -0.58712829    1.31741239   -0.12010544
| 15> H   -1.16181223    2.22950003   -0.20046257
| 16> C    0.78854733    1.33970567   -0.33224053
| 17> H    1.28843202    2.26879436   -0.57852690
| 18> N   -0.40549624   -1.40705812    2.72487468
| 19> C   -1.33797433   -0.44642866    2.79872583
| 20> H   -2.34076358   -0.77738346    3.04091870
| 21> C   -1.07597129    0.90463976    2.58934645
| 22> H   -1.87452905    1.62914520    2.66761755
| 23> C    0.22345604    1.29388104    2.27907804
| 24> H    0.46544060    2.33287953    2.10320679
| 25> C    1.20301535    0.31098289    2.19571658
| 26> H    2.22531659    0.55772863    1.94727960
| 27> C    0.84053563   -1.01415487    2.42890957
| 28> H    1.58439639   -1.79970950    2.37246098
| 29> *
| 30>
| 31> $new_job
| 32> ! ri-mp2 aug-cc-pvtz aug-cc-pvtz/c tightscf
| 33> %pal nprocs 16 end
| 34> %maxcore 3800
| 35> %base "TZ_S66by10_25_0.7_dimer"
| 36>
| 37> *xyz 0 1
| 38> N    1.57248145    0.25454916   -0.25648131
| 39> C    0.96935990   -0.90316032    0.04452614
| 40> H    1.61363891   -1.77218121    0.10234520
| 41> C   -0.39815811   -1.02881911    0.28096043
| 42> H   -0.81842477   -1.99173710    0.53356364
| 43> C   -1.19580525    0.10655779    0.19539732
| 44> H   -2.26068964    0.04953865    0.37344280
| 45> C   -0.58712829    1.31741239   -0.12010544
| 46> H   -1.16181223    2.22950003   -0.20046257
| 47> C    0.78854733    1.33970567   -0.33224053
| 48> H    1.28843202    2.26879436   -0.57852690
| 49> N   -0.40549624   -1.40705812    2.72487468
| 50> C   -1.33797433   -0.44642866    2.79872583
| 51> H   -2.34076358   -0.77738346    3.04091870
| 52> C   -1.07597129    0.90463976    2.58934645
| 53> H   -1.87452905    1.62914520    2.66761755
| 54> C    0.22345604    1.29388104    2.27907804
| 55> H    0.46544060    2.33287953    2.10320679
| 56> C    1.20301535    0.31098289    2.19571658
| 57> H    2.22531659    0.55772863    1.94727960
| 58> C    0.84053563   -1.01415487    2.42890957
| 59> H    1.58439639   -1.79970950    2.37246098
| 60> *
| 61>
| 62> $new_job
| 63> ! ri-mp2 aug-cc-pvqz aug-cc-pvqz/c tightscf
| 64> %pal nprocs 16 end
| 65> %maxcore 3800
| 66> %base "QZ_S66by10_25_0.7_dimer"
| 67>
| 68> *xyz 0 1
| 69> N    1.57248145    0.25454916   -0.25648131
| 70> C    0.96935990   -0.90316032    0.04452614
| 71> H    1.61363891   -1.77218121    0.10234520
| 72> C   -0.39815811   -1.02881911    0.28096043
| 73> H   -0.81842477   -1.99173710    0.53356364
| 74> C   -1.19580525    0.10655779    0.19539732
| 75> H   -2.26068964    0.04953865    0.37344280
| 76> C   -0.58712829    1.31741239   -0.12010544
| 77> H   -1.16181223    2.22950003   -0.20046257
| 78> C    0.78854733    1.33970567   -0.33224053
| 79> H    1.28843202    2.26879436   -0.57852690
| 80> N   -0.40549624   -1.40705812    2.72487468
| 81> C   -1.33797433   -0.44642866    2.79872583
| 82> H   -2.34076358   -0.77738346    3.04091870
| 83> C   -1.07597129    0.90463976    2.58934645
| 84> H   -1.87452905    1.62914520    2.66761755
| 85> C    0.22345604    1.29388104    2.27907804
| 86> H    0.46544060    2.33287953    2.10320679
| 87> C    1.20301535    0.31098289    2.19571658
| 88> H    2.22531659    0.55772863    1.94727960
| 89> C    0.84053563   -1.01415487    2.42890957
| 90> H    1.58439639   -1.79970950    2.37246098
| 91> *
| 92>
| 93>
| 94>
| 95>
| 96>                          ****END OF INPUT****
 Total Charge           Charge          ....    0
 Multiplicity           Mult            ....    1
 Number of Electrons    NEL             ....   84
MP2 TOTAL ENERGY:     -495.075763115 Eh
FINAL SINGLE POINT ENERGY      -495.075763115172
MP2 TOTAL ENERGY:     -495.502453591 Eh
FINAL SINGLE POINT ENERGY      -495.502453591072

CARTESIAN COORDINATES (ANGSTROEM)
---------------------------------
  N      1.572481    0.254549   -0.256481
  C      0.969360   -0.903160    0.044526
  H      1.613639   -1.772181    0.102345
  C     -0.398158   -1.028819    0.280960
  H     -0.818425   -1.991737    0.533564
  C     -1.195805    0.106558    0.195397
  H     -2.260690    0.049539    0.373443
  C     -0.587128    1.317412   -0.120105
  H     -1.161812    2.229500   -0.200463
  C      0.788547    1.339706   -0.332241
  H      1.288432    2.268794   -0.578527
  N     -0.405496   -1.407058    2.724875
  C     -1.337974   -0.446429    2.798726
  H     -2.340764   -0.777383    3.040919
  C     -1.075971    0.904640    2.589346
  H     -1.874529    1.629145    2.667618
  C      0.223456    1.293881    2.279078
  H      0.465441    2.332880    2.103207
  C      1.203015    0.310983    2.195717
  H      2.225317    0.557729    1.947280
  C      0.840536   -1.014155    2.428910
  H      1.584396   -1.799709    2.372461

 Multiplicity           Mult            ....    1
 Number of Electrons    NEL             ....   84
 Basis Dimension        Dim             .... 1420

ORBITAL ENERGIES
----------------

  NO   OCC          E(Eh)            E(eV)
   0   2.0000     -15.547047      -423.0567
   1   2.0000     -15.546821      -423.0505
   2   2.0000     -11.274853      -306.8043
   3   2.0000     -11.274663      -306.7992
   4   2.0000     -11.261998      -306.4546
   5   2.0000     -11.261777      -306.4485
   6   2.0000     -11.256827      -306.3138
   7   2.0000     -11.256706      -306.3106
   8   2.0000     -11.239851      -305.8519
   9   2.0000     -11.239618      -305.8456
  10   2.0000     -11.233133      -305.6691
  11   2.0000     -11.232759      -305.6589
  12   2.0000      -1.268173       -34.5087
  13   2.0000      -1.243278       -33.8313
  14   2.0000      -1.100175       -29.9373
  15   2.0000      -1.084334       -29.5062
  16   2.0000      -1.046358       -28.4729
  17   2.0000      -1.022751       -27.8305
  18   2.0000      -0.867674       -23.6106
  19   2.0000      -0.865152       -23.5420
  20   2.0000      -0.851579       -23.1726
  21   2.0000      -0.847781       -23.0693
  22   2.0000      -0.736478       -20.0406
  23   2.0000      -0.709902       -19.3174
  24   2.0000      -0.663916       -18.0661
  25   2.0000      -0.658367       -17.9151
  26   2.0000      -0.658108       -17.9080
  27   2.0000      -0.647616       -17.6225
  28   2.0000      -0.611823       -16.6486
  29   2.0000      -0.603029       -16.4093
  30   2.0000      -0.594905       -16.1882
  31   2.0000      -0.573900       -15.6166
  32   2.0000      -0.571738       -15.5578
  33   2.0000      -0.523272       -14.2389
  34   2.0000      -0.514897       -14.0111
  35   2.0000      -0.487616       -13.2687
  36   2.0000      -0.425842       -11.5878
  37   2.0000      -0.416788       -11.3414
  38   2.0000      -0.409640       -11.1469
  39   2.0000      -0.374455       -10.1894
  40   2.0000      -0.327766        -8.9190
  41   2.0000      -0.290431        -7.9030
  42   0.0000       0.020496         0.5577
  43   0.0000       0.027581         0.7505
  44   0.0000       0.029681         0.8076
  45   0.0000       0.035130         0.9559
  46   0.0000       0.038813         1.0562

MULLIKEN ATOMIC CHARGES
-----------------------
   0 N :   -0.856540
   1 C :    0.006905
   2 H :    0.331858
   3 C :   -0.048205
   4 H :    0.303654
   5 C :    0.071752
   6 H :    0.266788
   7 C :   -0.354325
   8 H :    0.212687
   9 C :   -0.272877
  10 H :    0.338824
  11 N :   -0.855353
  12 C :   -0.270007
  13 H :    0.338223
  14 C :   -0.350176
  15 H :    0.213402
  16 C :    0.071669
  17 H :    0.266656
  18 C :   -0.057368
  19 H :    0.301760
  20 C :    0.007564
  21 H :    0.333108
Sum of atomic charges:    0.0000000

LOEWDIN ATOMIC CHARGES
----------------------
   0 N :    0.610652
   1 C :    0.020470
   2 H :   -0.314581
   3 C :    0.261891
   4 H :   -0.316318
   5 C :    0.282094
   6 H :   -0.282744
   7 C :    0.294278
   8 H :   -0.290161
   9 C :    0.054745
  10 H :   -0.323064
  11 N :    0.610567
  12 C :    0.054255
  13 H :   -0.322307
  14 C :    0.293625
  15 H :   -0.289704
  16 C :    0.283200
  17 H :   -0.282378
  18 C :    0.263559
  19 H :   -0.314523
  20 C :    0.020697
  21 H :   -0.314254

  Mayer bond orders larger than 0.100000
B(  0-N ,  1-C ) :   0.9709 B(  0-N ,  2-H ) :  -0.1366 B(  0-N ,  9-C ) :   1.1428
B(  0-N , 10-H ) :  -0.1403 B(  1-C ,  2-H ) :   1.0636 B(  1-C ,  3-C ) :   1.0763
B(  1-C ,  4-H ) :  -0.1421 B(  2-H ,  3-C ) :  -0.1538 B(  3-C ,  4-H ) :   1.0317
B(  3-C ,  5-C ) :   1.0687 B(  3-C ,  6-H ) :  -0.1401 B(  4-H ,  5-C ) :  -0.1581
B(  5-C ,  6-H ) :   1.0428 B(  5-C ,  7-C ) :   1.0542 B(  5-C ,  8-H ) :  -0.1189
B(  6-H ,  7-C ) :  -0.1331 B(  7-C ,  8-H ) :   1.1548 B(  7-C ,  9-C ) :   1.3109
B(  9-C , 10-H ) :   1.0396 B( 11-N , 12-C ) :   1.1410 B( 11-N , 13-H ) :  -0.1406
B( 11-N , 20-C ) :   0.9741 B( 11-N , 21-H ) :  -0.1372 B( 12-C , 13-H ) :   1.0405
B( 12-C , 14-C ) :   1.3096 B( 14-C , 15-H ) :   1.1546 B( 14-C , 16-C ) :   1.0535
B( 14-C , 17-H ) :  -0.1333 B( 15-H , 16-C ) :  -0.1198 B( 16-C , 17-H ) :   1.0428
B( 16-C , 18-C ) :   1.0692 B( 16-C , 19-H ) :  -0.1563 B( 17-H , 18-C ) :  -0.1404
B( 18-C , 19-H ) :   1.0327 B( 18-C , 20-C ) :   1.0795 B( 18-C , 21-H ) :  -0.1537
B( 19-H , 20-C ) :  -0.1395 B( 20-C , 21-H ) :   1.0614

MP2 TOTAL ENERGY:     -495.637784585 Eh
FINAL SINGLE POINT ENERGY      -495.637784585419

DIPOLE MOMENT
-------------
                                X             Y             Z
Electronic contribution:      1.09435      -1.30789       0.00202
Nuclear contribution   :     -1.68087       2.00584       0.00438
                        -----------------------------------------
Total Dipole Moment    :     -0.58653       0.69795       0.00640
                        -----------------------------------------
Magnitude (a.u.)       :      0.91170
Magnitude (Debye)      :      2.31736

Rotational constants in cm-1:     0.057097     0.039040     0.035542
Rotational constants in MHz :  1711.721858  1170.393477  1065.525022

                             ****ORCA TERMINATED NORMALLY****
TOTAL RUN TIME: 0 days 2 hours 14 minutes 7 seconds 758 msec
