                         Program Version 5.0.4 -  RELEASE  -
|  1> ! ri-mp2 aug-cc-pvdz aug-cc-pvdz/c tightscf
|  2> %pal nprocs 16 end
|  3> %maxcore 3800
|  4> %base "DZ_S66by10_41_1.1_dimer"
|  5> %scf STABPerform true end
|  6>
|  7> *xyz 0 1
|  8> N   -0.20890478   -0.96458262    0.53476104
|  9> H   -0.22415099   -1.97310940    0.60508386
| 10> C   -1.44634208   -0.34458112    0.30665858
| 11> O   -2.46123675   -1.01079161    0.19789196
| 12> C   -1.35778219    1.10318559    0.22814378
| 13> H   -2.25657214    1.66773071    0.04984731
| 14> C   -0.16300320    1.70989257    0.38112632
| 15> H   -0.04629046    2.78244591    0.33334968
| 16> N    0.98545210    1.00082412    0.61120636
| 17> H    1.86755978    1.46692777    0.74478430
| 18> C    1.02702092   -0.37917011    0.71264723
| 19> O    2.04919670   -0.99739548    0.93725979
| 20> C    1.17099475    2.36087057    4.40901227
| 21> H    0.74014614    2.67191926    3.45622971
| 22> H    0.53676084    2.76630369    5.19725992
| 23> H    2.15387478    2.82131798    4.50213376
| 24> C    1.24401122    0.84199962    4.49853061
| 25> H    1.67439486    0.55243676    5.45982157
| 26> H    1.91860081    0.45083907    3.73341245
| 27> C   -0.12077397    0.18383296    4.34371385
| 28> H   -0.79201823    0.55270878    5.12533310
| 29> H   -0.56824484    0.49409798    3.39381363
| 30> C   -0.06448503   -1.33685359    4.40334935
| 31> H    0.35912046   -1.63928400    5.36398554
| 32> H    0.62703671   -1.69873253    3.63884692
| 33> C   -1.43376795   -1.97872680    4.21957570
| 34> H   -1.87214695   -1.70526911    3.25939019
| 35> H   -1.37682916   -3.06549518    4.26363289
| 36> H   -2.12173073   -1.65038081    4.99880875
| 37> *
| 38>
| 39> $new_job
| 40> ! ri-mp2 aug-cc-pvtz aug-cc-pvtz/c tightscf
| 41> %pal nprocs 16 end
| 42> %maxcore 3800
| 43> %base "TZ_S66by10_41_1.1_dimer"
| 44>
| 45> *xyz 0 1
| 46> N   -0.20890478   -0.96458262    0.53476104
| 47> H   -0.22415099   -1.97310940    0.60508386
| 48> C   -1.44634208   -0.34458112    0.30665858
| 49> O   -2.46123675   -1.01079161    0.19789196
| 50> C   -1.35778219    1.10318559    0.22814378
| 51> H   -2.25657214    1.66773071    0.04984731
| 52> C   -0.16300320    1.70989257    0.38112632
| 53> H   -0.04629046    2.78244591    0.33334968
| 54> N    0.98545210    1.00082412    0.61120636
| 55> H    1.86755978    1.46692777    0.74478430
| 56> C    1.02702092   -0.37917011    0.71264723
| 57> O    2.04919670   -0.99739548    0.93725979
| 58> C    1.17099475    2.36087057    4.40901227
| 59> H    0.74014614    2.67191926    3.45622971
| 60> H    0.53676084    2.76630369    5.19725992
| 61> H    2.15387478    2.82131798    4.50213376
| 62> C    1.24401122    0.84199962    4.49853061
| 63> H    1.67439486    0.55243676    5.45982157
| 64> H    1.91860081    0.45083907    3.73341245
| 65> C   -0.12077397    0.18383296    4.34371385
| 66> H   -0.79201823    0.55270878    5.12533310
| 67> H   -0.56824484    0.49409798    3.39381363
| 68> C   -0.06448503   -1.33685359    4.40334935
| 69> H    0.35912046   -1.63928400    5.36398554
| 70> H    0.62703671   -1.69873253    3.63884692
| 71> C   -1.43376795   -1.97872680    4.21957570
| 72> H   -1.87214695   -1.70526911    3.25939019
| 73> H   -1.37682916   -3.06549518    4.26363289
| 74> H   -2.12173073   -1.65038081    4.99880875
| 75> *
| 76>
| 77> $new_job
| 78> ! ri-mp2 aug-cc-pvqz aug-cc-pvqz/c tightscf
| 79> %pal nprocs 16 end
| 80> %maxcore 3800
| 81> %base "QZ_S66by10_41_1.1_dimer"
| 82>
| 83> *xyz 0 1
| 84> N   -0.20890478   -0.96458262    0.53476104
| 85> H   -0.22415099   -1.97310940    0.60508386
| 86> C   -1.44634208   -0.34458112    0.30665858
| 87> O   -2.46123675   -1.01079161    0.19789196
| 88> C   -1.35778219    1.10318559    0.22814378
| 89> H   -2.25657214    1.66773071    0.04984731
| 90> C   -0.16300320    1.70989257    0.38112632
| 91> H   -0.04629046    2.78244591    0.33334968
| 92> N    0.98545210    1.00082412    0.61120636
| 93> H    1.86755978    1.46692777    0.74478430
| 94> C    1.02702092   -0.37917011    0.71264723
| 95> O    2.04919670   -0.99739548    0.93725979
| 96> C    1.17099475    2.36087057    4.40901227
| 97> H    0.74014614    2.67191926    3.45622971
| 98> H    0.53676084    2.76630369    5.19725992
| 99> H    2.15387478    2.82131798    4.50213376
|100> C    1.24401122    0.84199962    4.49853061
|101> H    1.67439486    0.55243676    5.45982157
|102> H    1.91860081    0.45083907    3.73341245
|103> C   -0.12077397    0.18383296    4.34371385
|104> H   -0.79201823    0.55270878    5.12533310
|105> H   -0.56824484    0.49409798    3.39381363
|106> C   -0.06448503   -1.33685359    4.40334935
|107> H    0.35912046   -1.63928400    5.36398554
|108> H    0.62703671   -1.69873253    3.63884692
|109> C   -1.43376795   -1.97872680    4.21957570
|110> H   -1.87214695   -1.70526911    3.25939019
|111> H   -1.37682916   -3.06549518    4.26363289
|112> H   -2.12173073   -1.65038081    4.99880875
|113> *
|114>
|115>
|116>
|117>
|118>                          ****END OF INPUT****
 Total Charge           Charge          ....    0
 Multiplicity           Mult            ....    1
 Number of Electrons    NEL             ....  100
MP2 TOTAL ENERGY:     -610.901845631 Eh
FINAL SINGLE POINT ENERGY      -610.901845630506
MP2 TOTAL ENERGY:     -611.444547560 Eh
FINAL SINGLE POINT ENERGY      -611.444547559663

CARTESIAN COORDINATES (ANGSTROEM)
---------------------------------
  N     -0.208905   -0.964583    0.534761
  H     -0.224151   -1.973109    0.605084
  C     -1.446342   -0.344581    0.306659
  O     -2.461237   -1.010792    0.197892
  C     -1.357782    1.103186    0.228144
  H     -2.256572    1.667731    0.049847
  C     -0.163003    1.709893    0.381126
  H     -0.046290    2.782446    0.333350
  N      0.985452    1.000824    0.611206
  H      1.867560    1.466928    0.744784
  C      1.027021   -0.379170    0.712647
  O      2.049197   -0.997395    0.937260
  C      1.170995    2.360871    4.409012
  H      0.740146    2.671919    3.456230
  H      0.536761    2.766304    5.197260
  H      2.153875    2.821318    4.502134
  C      1.244011    0.842000    4.498531
  H      1.674395    0.552437    5.459822
  H      1.918601    0.450839    3.733412
  C     -0.120774    0.183833    4.343714
  H     -0.792018    0.552709    5.125333
  H     -0.568245    0.494098    3.393814
  C     -0.064485   -1.336854    4.403349
  H      0.359120   -1.639284    5.363986
  H      0.627037   -1.698733    3.638847
  C     -1.433768   -1.978727    4.219576
  H     -1.872147   -1.705269    3.259390
  H     -1.376829   -3.065495    4.263633
  H     -2.121731   -1.650381    4.998809

 Multiplicity           Mult            ....    1
 Number of Electrons    NEL             ....  100
 Basis Dimension        Dim             .... 1776

ORBITAL ENERGIES
----------------

  NO   OCC          E(Eh)            E(eV)
   0   2.0000     -20.545942      -559.0835
   1   2.0000     -20.540352      -558.9314
   2   2.0000     -15.643094      -425.6702
   3   2.0000     -15.626413      -425.2163
   4   2.0000     -11.418996      -310.7267
   5   2.0000     -11.380894      -309.6899
   6   2.0000     -11.340421      -308.5885
   7   2.0000     -11.255093      -306.2667
   8   2.0000     -11.216137      -305.2066
   9   2.0000     -11.215482      -305.1888
  10   2.0000     -11.212714      -305.1135
  11   2.0000     -11.210261      -305.0467
  12   2.0000     -11.202951      -304.8478
  13   2.0000      -1.437017       -39.1032
  14   2.0000      -1.398849       -38.0646
  15   2.0000      -1.314126       -35.7592
  16   2.0000      -1.246504       -33.9191
  17   2.0000      -1.088983       -29.6327
  18   2.0000      -1.083867       -29.4935
  19   2.0000      -1.017794       -27.6956
  20   2.0000      -0.934444       -25.4275
  21   2.0000      -0.921974       -25.0882
  22   2.0000      -0.902492       -24.5581
  23   2.0000      -0.822649       -22.3854
  24   2.0000      -0.807982       -21.9863
  25   2.0000      -0.787807       -21.4373
  26   2.0000      -0.766239       -20.8504
  27   2.0000      -0.715438       -19.4680
  28   2.0000      -0.678827       -18.4718
  29   2.0000      -0.674436       -18.3523
  30   2.0000      -0.654328       -17.8052
  31   2.0000      -0.646329       -17.5875
  32   2.0000      -0.616198       -16.7676
  33   2.0000      -0.602799       -16.4030
  34   2.0000      -0.601890       -16.3783
  35   2.0000      -0.596554       -16.2330
  36   2.0000      -0.571895       -15.5621
  37   2.0000      -0.557394       -15.1675
  38   2.0000      -0.550564       -14.9816
  39   2.0000      -0.529245       -14.4015
  40   2.0000      -0.527448       -14.3526
  41   2.0000      -0.497888       -13.5482
  42   2.0000      -0.485575       -13.2132
  43   2.0000      -0.478451       -13.0193
  44   2.0000      -0.464765       -12.6469
  45   2.0000      -0.460898       -12.5417
  46   2.0000      -0.450787       -12.2665
  47   2.0000      -0.449221       -12.2239
  48   2.0000      -0.438381       -11.9289
  49   2.0000      -0.370118       -10.0714
  50   0.0000       0.013403         0.3647
  51   0.0000       0.027541         0.7494
  52   0.0000       0.028150         0.7660
  53   0.0000       0.031510         0.8574
  54   0.0000       0.039159         1.0656

MULLIKEN ATOMIC CHARGES
-----------------------
   0 N :   -0.771625
   1 H :    0.057601
   2 C :    1.284907
   3 O :   -0.902244
   4 C :   -0.449100
   5 H :    0.269135
   6 C :   -0.216345
   7 H :    0.381131
   8 N :   -0.667576
   9 H :    0.114212
  10 C :    1.882203
  11 O :   -0.928623
  12 C :   -0.995827
  13 H :    0.304358
  14 H :    0.239175
  15 H :    0.252356
  16 C :   -0.558859
  17 H :    0.320812
  18 H :    0.266249
  19 C :   -0.312758
  20 H :    0.310952
  21 H :    0.305046
  22 C :   -0.576005
  23 H :    0.322977
  24 H :    0.267111
  25 C :   -0.996595
  26 H :    0.308455
  27 H :    0.245918
  28 H :    0.242959
Sum of atomic charges:    0.0000000

LOEWDIN ATOMIC CHARGES
----------------------
   0 N :    0.779095
   1 H :   -0.515336
   2 C :   -0.872803
   3 O :    0.692377
   4 C :    0.334201
   5 H :   -0.350586
   6 C :    0.228159
   7 H :   -0.293987
   8 N :    0.811797
   9 H :   -0.488257
  10 C :   -1.005267
  11 O :    0.707303
  12 C :    0.925958
  13 H :   -0.297761
  14 H :   -0.282386
  15 H :   -0.280416
  16 C :    0.504329
  17 H :   -0.267141
  18 H :   -0.284907
  19 C :    0.486758
  20 H :   -0.262170
  21 H :   -0.292609
  22 C :    0.504911
  23 H :   -0.267759
  24 H :   -0.285273
  25 C :    0.930359
  26 H :   -0.296745
  27 H :   -0.279394
  28 H :   -0.282451

  Mayer bond orders larger than 0.100000
B(  0-N ,  1-H ) :   1.2364 B(  0-N ,  2-C ) :   0.9845 B(  0-N ,  3-O ) :   0.1829
B(  0-N , 10-C ) :   0.9271 B(  0-N , 11-O ) :   0.2443 B(  2-C ,  3-O ) :   0.8071
B(  2-C ,  4-C ) :   1.1553 B(  3-O ,  4-C ) :   0.2652 B(  4-C ,  5-H ) :   1.0197
B(  4-C ,  6-C ) :   1.5427 B(  6-C ,  7-H ) :   0.9796 B(  6-C ,  8-N ) :   0.8790
B(  8-N ,  9-H ) :   1.1540 B(  8-N , 10-C ) :   1.0025 B(  8-N , 11-O ) :   0.2234
B( 10-C , 11-O ) :   0.7307 B( 12-C , 13-H ) :   0.8699 B( 12-C , 14-H ) :   0.9886
B( 12-C , 15-H ) :   1.0394 B( 12-C , 16-C ) :   1.0268 B( 12-C , 19-C ) :  -0.1081
B( 16-C , 17-H ) :   0.8505 B( 16-C , 18-H ) :   0.8743 B( 16-C , 19-C ) :   0.7968
B( 19-C , 20-H ) :   0.8724 B( 19-C , 21-H ) :   0.8323 B( 19-C , 22-C ) :   0.7964
B( 19-C , 25-C ) :  -0.1080 B( 22-C , 23-H ) :   0.8493 B( 22-C , 24-H ) :   0.8760
B( 22-C , 25-C ) :   1.0332 B( 25-C , 26-H ) :   0.8602 B( 25-C , 27-H ) :   1.0436
B( 25-C , 28-H ) :   0.9852

MP2 TOTAL ENERGY:     -611.617016485 Eh
FINAL SINGLE POINT ENERGY      -611.617016485176

DIPOLE MOMENT
-------------
                                X             Y             Z
Electronic contribution:     -0.73966      -2.48911     -20.48209
Nuclear contribution   :      1.30099       4.28037      20.48856
                        -----------------------------------------
Total Dipole Moment    :      0.56133       1.79126       0.00647
                        -----------------------------------------
Magnitude (a.u.)       :      1.87716
Magnitude (Debye)      :      4.77137

Rotational constants in cm-1:     0.027288     0.018388     0.015140
Rotational constants in MHz :   818.079264   551.268001   453.895120

                             ****ORCA TERMINATED NORMALLY****
TOTAL RUN TIME: 0 days 12 hours 57 minutes 26 seconds 661 msec
