                         Program Version 5.0.4 -  RELEASE  -
|  1> ! ri-mp2 aug-cc-pvdz aug-cc-pvdz/c tightscf
|  2> %pal nprocs 16 end
|  3> %maxcore 3800
|  4> %base "DZ_S66by10_9_0.9_dimer"
|  5> %scf STABPerform true end
|  6>
|  7> *xyz 0 1
|  8> N   -0.89345122   -0.04384432   -0.04299745
|  9> H    0.09694826   -0.25605945   -0.07106993
| 10> H   -1.36843879   -0.93339065    0.03383773
| 11> C   -1.17578248    0.75790769    1.14523719
| 12> H   -2.24162660    0.97221601    1.19502464
| 13> H   -0.88078955    0.30424674    2.09720910
| 14> H   -0.66300572    1.71432940    1.06080916
| 15> O    2.12212068   -0.06295579    0.02048604
| 16> H    2.40414680    0.30699298   -0.81937804
| 17> C    2.50803453    0.84862848    1.03992221
| 18> H    2.18485148    0.41899580    1.98298875
| 19> H    3.58908977    0.98771195    1.07896217
| 20> H    2.02955997    1.82222632    0.92474567
| 21> *
| 22>
| 23> $new_job
| 24> ! ri-mp2 aug-cc-pvtz aug-cc-pvtz/c tightscf
| 25> %pal nprocs 16 end
| 26> %maxcore 3800
| 27> %base "TZ_S66by10_9_0.9_dimer"
| 28>
| 29> *xyz 0 1
| 30> N   -0.89345122   -0.04384432   -0.04299745
| 31> H    0.09694826   -0.25605945   -0.07106993
| 32> H   -1.36843879   -0.93339065    0.03383773
| 33> C   -1.17578248    0.75790769    1.14523719
| 34> H   -2.24162660    0.97221601    1.19502464
| 35> H   -0.88078955    0.30424674    2.09720910
| 36> H   -0.66300572    1.71432940    1.06080916
| 37> O    2.12212068   -0.06295579    0.02048604
| 38> H    2.40414680    0.30699298   -0.81937804
| 39> C    2.50803453    0.84862848    1.03992221
| 40> H    2.18485148    0.41899580    1.98298875
| 41> H    3.58908977    0.98771195    1.07896217
| 42> H    2.02955997    1.82222632    0.92474567
| 43> *
| 44>
| 45> $new_job
| 46> ! ri-mp2 aug-cc-pvqz aug-cc-pvqz/c tightscf
| 47> %pal nprocs 16 end
| 48> %maxcore 3800
| 49> %base "QZ_S66by10_9_0.9_dimer"
| 50>
| 51> *xyz 0 1
| 52> N   -0.89345122   -0.04384432   -0.04299745
| 53> H    0.09694826   -0.25605945   -0.07106993
| 54> H   -1.36843879   -0.93339065    0.03383773
| 55> C   -1.17578248    0.75790769    1.14523719
| 56> H   -2.24162660    0.97221601    1.19502464
| 57> H   -0.88078955    0.30424674    2.09720910
| 58> H   -0.66300572    1.71432940    1.06080916
| 59> O    2.12212068   -0.06295579    0.02048604
| 60> H    2.40414680    0.30699298   -0.81937804
| 61> C    2.50803453    0.84862848    1.03992221
| 62> H    2.18485148    0.41899580    1.98298875
| 63> H    3.58908977    0.98771195    1.07896217
| 64> H    2.02955997    1.82222632    0.92474567
| 65> *
| 66>
| 67>
| 68>
| 69>
| 70>                          ****END OF INPUT****
 Total Charge           Charge          ....    0
 Multiplicity           Mult            ....    1
 Number of Electrons    NEL             ....   36
MP2 TOTAL ENERGY:     -211.000201609 Eh
FINAL SINGLE POINT ENERGY      -211.000201609493
MP2 TOTAL ENERGY:     -211.201139813 Eh
FINAL SINGLE POINT ENERGY      -211.201139813395

CARTESIAN COORDINATES (ANGSTROEM)
---------------------------------
  N     -0.893451   -0.043844   -0.042997
  H      0.096948   -0.256059   -0.071070
  H     -1.368439   -0.933391    0.033838
  C     -1.175782    0.757908    1.145237
  H     -2.241627    0.972216    1.195025
  H     -0.880790    0.304247    2.097209
  H     -0.663006    1.714329    1.060809
  O      2.122121   -0.062956    0.020486
  H      2.404147    0.306993   -0.819378
  C      2.508035    0.848628    1.039922
  H      2.184851    0.418996    1.982989
  H      3.589090    0.987712    1.078962
  H      2.029560    1.822226    0.924746

 Multiplicity           Mult            ....    1
 Number of Electrons    NEL             ....   36
 Basis Dimension        Dim             ....  734

ORBITAL ENERGIES
----------------

  NO   OCC          E(Eh)            E(eV)
   0   2.0000     -20.569169      -559.7156
   1   2.0000     -15.515626      -422.2016
   2   2.0000     -11.278161      -306.8944
   3   2.0000     -11.228856      -305.5527
   4   2.0000      -1.371949       -37.3326
   5   2.0000      -1.153416       -31.3861
   6   2.0000      -0.936542       -25.4846
   7   2.0000      -0.883170       -24.0323
   8   2.0000      -0.705087       -19.1864
   9   2.0000      -0.657531       -17.8923
  10   2.0000      -0.624051       -16.9813
  11   2.0000      -0.606330       -16.4991
  12   2.0000      -0.588174       -16.0050
  13   2.0000      -0.542444       -14.7606
  14   2.0000      -0.519682       -14.1413
  15   2.0000      -0.504062       -13.7162
  16   2.0000      -0.460782       -12.5385
  17   2.0000      -0.376217       -10.2374
  18   0.0000       0.023886         0.6500
  19   0.0000       0.033880         0.9219
  20   0.0000       0.037315         1.0154
  21   0.0000       0.040136         1.0921
  22   0.0000       0.050288         1.3684

MULLIKEN ATOMIC CHARGES
-----------------------
   0 N :   -0.653973
   1 H :    0.287083
   2 H :    0.236635
   3 C :   -0.764827
   4 H :    0.413939
   5 H :    0.220862
   6 H :    0.254857
   7 O :   -0.717515
   8 H :    0.353844
   9 C :   -0.624768
  10 H :    0.275771
  11 H :    0.469513
  12 H :    0.248579
Sum of atomic charges:   -0.0000000

LOEWDIN ATOMIC CHARGES
----------------------
   0 N :    1.257321
   1 H :   -0.690486
   2 H :   -0.521803
   3 C :    0.732179
   4 H :   -0.314332
   5 H :   -0.293011
   6 H :   -0.325790
   7 O :    1.274212
   8 H :   -0.763723
   9 C :    0.602562
  10 H :   -0.332377
  11 H :   -0.309821
  12 H :   -0.314931

  Mayer bond orders larger than 0.100000
B(  0-N ,  1-H ) :   0.8973 B(  0-N ,  2-H ) :   0.9373 B(  0-N ,  3-C ) :   0.9830
B(  3-C ,  4-H ) :   0.8121 B(  3-C ,  5-H ) :   0.9600 B(  3-C ,  6-H ) :   0.9334
B(  7-O ,  8-H ) :   0.8594 B(  7-O ,  9-C ) :   0.8686 B(  9-C , 10-H ) :   0.9182
B(  9-C , 11-H ) :   0.7620 B(  9-C , 12-H ) :   0.9264

MP2 TOTAL ENERGY:     -211.263705804 Eh
FINAL SINGLE POINT ENERGY      -211.263705803652

DIPOLE MOMENT
-------------
                                X             Y             Z
Electronic contribution:      1.56831      -1.60751      -2.18075
Nuclear contribution   :     -0.85950       1.91370       2.52512
                        -----------------------------------------
Total Dipole Moment    :      0.70880       0.30619       0.34437
                        -----------------------------------------
Magnitude (a.u.)       :      0.84543
Magnitude (Debye)      :      2.14891

Rotational constants in cm-1:     0.408512     0.090146     0.076731
Rotational constants in MHz : 12246.885013  2702.519944  2300.341926

                             ****ORCA TERMINATED NORMALLY****
TOTAL RUN TIME: 0 days 0 hours 24 minutes 50 seconds 82 msec
