                         Program Version 5.0.4 -  RELEASE  -
|  1> ! ri-mp2 aug-cc-pvdz aug-cc-pvdz/c tightscf
|  2> %pal nprocs 16 end
|  3> %maxcore 3800
|  4> %base "DZ_S66by10_40_0.95_dimer"
|  5>
|  6> *xyz 0 1
|  7> C    0.31195353    0.56102334    0.49669886
|  8> H    0.74213608    1.55336911    0.48156571
|  9> C    1.14218235   -0.55807461    0.53606185
| 10> H    2.21651131   -0.43425014    0.55235015
| 11> C    0.58780415   -1.83668704    0.55414435
| 12> H    1.23191239   -2.70484153    0.58522179
| 13> C   -0.79665772   -1.99637562    0.53296300
| 14> H   -1.22677442   -2.98844427    0.54863708
| 15> C   -1.62689297   -0.87747365    0.49416828
| 16> H   -2.70112211   -1.00134997    0.47981498
| 17> C   -1.07266525    0.40120590    0.47597397
| 18> H   -1.71697357    1.26940117    0.44591995
| 19> C    0.17786019    0.51203779    4.65158805
| 20> C    1.62410887    0.69082515    4.19662656
| 21> H    2.03996559    1.62410303    4.58004954
| 22> H    2.24750819   -0.12979048    4.55548043
| 23> H    1.68471801    0.71021644    3.10769234
| 24> C    0.12346883    0.48066665    6.17645337
| 25> H   -0.90232120    0.35324623    6.52554114
| 26> H    0.71887473   -0.34502021    6.56900710
| 27> H    0.51176331    1.40855128    6.59935895
| 28> C   -0.37151984   -0.79745418    4.09129203
| 29> H   -1.40639344   -0.94772922    4.40396362
| 30> H    0.21493674   -1.64642794    4.44710330
| 31> H   -0.34274001   -0.79790696    3.00097779
| 32> C   -0.66351259    1.67660948    4.13538257
| 33> H   -0.64197163    1.71263987    3.04538401
| 34> H   -1.70330174    1.57283991    4.44986506
| 35> H   -0.28785999    2.62730395    4.51748948
| 36> *
| 37>
| 38> $new_job
| 39> ! ri-mp2 aug-cc-pvtz aug-cc-pvtz/c tightscf
| 40> %pal nprocs 16 end
| 41> %maxcore 3800
| 42> %base "TZ_S66by10_40_0.95_dimer"
| 43>
| 44> *xyz 0 1
| 45> C    0.31195353    0.56102334    0.49669886
| 46> H    0.74213608    1.55336911    0.48156571
| 47> C    1.14218235   -0.55807461    0.53606185
| 48> H    2.21651131   -0.43425014    0.55235015
| 49> C    0.58780415   -1.83668704    0.55414435
| 50> H    1.23191239   -2.70484153    0.58522179
| 51> C   -0.79665772   -1.99637562    0.53296300
| 52> H   -1.22677442   -2.98844427    0.54863708
| 53> C   -1.62689297   -0.87747365    0.49416828
| 54> H   -2.70112211   -1.00134997    0.47981498
| 55> C   -1.07266525    0.40120590    0.47597397
| 56> H   -1.71697357    1.26940117    0.44591995
| 57> C    0.17786019    0.51203779    4.65158805
| 58> C    1.62410887    0.69082515    4.19662656
| 59> H    2.03996559    1.62410303    4.58004954
| 60> H    2.24750819   -0.12979048    4.55548043
| 61> H    1.68471801    0.71021644    3.10769234
| 62> C    0.12346883    0.48066665    6.17645337
| 63> H   -0.90232120    0.35324623    6.52554114
| 64> H    0.71887473   -0.34502021    6.56900710
| 65> H    0.51176331    1.40855128    6.59935895
| 66> C   -0.37151984   -0.79745418    4.09129203
| 67> H   -1.40639344   -0.94772922    4.40396362
| 68> H    0.21493674   -1.64642794    4.44710330
| 69> H   -0.34274001   -0.79790696    3.00097779
| 70> C   -0.66351259    1.67660948    4.13538257
| 71> H   -0.64197163    1.71263987    3.04538401
| 72> H   -1.70330174    1.57283991    4.44986506
| 73> H   -0.28785999    2.62730395    4.51748948
| 74> *
| 75>
| 76> $new_job
| 77> ! ri-mp2 aug-cc-pvqz aug-cc-pvqz/c tightscf
| 78> %pal nprocs 16 end
| 79> %maxcore 3800
| 80> %base "QZ_S66by10_40_0.95_dimer"
| 81>
| 82> *xyz 0 1
| 83> C    0.31195353    0.56102334    0.49669886
| 84> H    0.74213608    1.55336911    0.48156571
| 85> C    1.14218235   -0.55807461    0.53606185
| 86> H    2.21651131   -0.43425014    0.55235015
| 87> C    0.58780415   -1.83668704    0.55414435
| 88> H    1.23191239   -2.70484153    0.58522179
| 89> C   -0.79665772   -1.99637562    0.53296300
| 90> H   -1.22677442   -2.98844427    0.54863708
| 91> C   -1.62689297   -0.87747365    0.49416828
| 92> H   -2.70112211   -1.00134997    0.47981498
| 93> C   -1.07266525    0.40120590    0.47597397
| 94> H   -1.71697357    1.26940117    0.44591995
| 95> C    0.17786019    0.51203779    4.65158805
| 96> C    1.62410887    0.69082515    4.19662656
| 97> H    2.03996559    1.62410303    4.58004954
| 98> H    2.24750819   -0.12979048    4.55548043
| 99> H    1.68471801    0.71021644    3.10769234
|100> C    0.12346883    0.48066665    6.17645337
|101> H   -0.90232120    0.35324623    6.52554114
|102> H    0.71887473   -0.34502021    6.56900710
|103> H    0.51176331    1.40855128    6.59935895
|104> C   -0.37151984   -0.79745418    4.09129203
|105> H   -1.40639344   -0.94772922    4.40396362
|106> H    0.21493674   -1.64642794    4.44710330
|107> H   -0.34274001   -0.79790696    3.00097779
|108> C   -0.66351259    1.67660948    4.13538257
|109> H   -0.64197163    1.71263987    3.04538401
|110> H   -1.70330174    1.57283991    4.44986506
|111> H   -0.28785999    2.62730395    4.51748948
|112> *
|113>
|114>
|115>
|116>
|117>                          ****END OF INPUT****
 Total Charge           Charge          ....    0
 Multiplicity           Mult            ....    1
 Number of Electrons    NEL             ....   84
MP2 TOTAL ENERGY:     -428.671495653 Eh
FINAL SINGLE POINT ENERGY      -428.671495652800
MP2 TOTAL ENERGY:     -429.070603295 Eh
FINAL SINGLE POINT ENERGY      -429.070603295302

CARTESIAN COORDINATES (ANGSTROEM)
---------------------------------
  C      0.311954    0.561023    0.496699
  H      0.742136    1.553369    0.481566
  C      1.142182   -0.558075    0.536062
  H      2.216511   -0.434250    0.552350
  C      0.587804   -1.836687    0.554144
  H      1.231912   -2.704842    0.585222
  C     -0.796658   -1.996376    0.532963
  H     -1.226774   -2.988444    0.548637
  C     -1.626893   -0.877474    0.494168
  H     -2.701122   -1.001350    0.479815
  C     -1.072665    0.401206    0.475974
  H     -1.716974    1.269401    0.445920
  C      0.177860    0.512038    4.651588
  C      1.624109    0.690825    4.196627
  H      2.039966    1.624103    4.580050
  H      2.247508   -0.129790    4.555480
  H      1.684718    0.710216    3.107692
  C      0.123469    0.480667    6.176453
  H     -0.902321    0.353246    6.525541
  H      0.718875   -0.345020    6.569007
  H      0.511763    1.408551    6.599359
  C     -0.371520   -0.797454    4.091292
  H     -1.406393   -0.947729    4.403964
  H      0.214937   -1.646428    4.447103
  H     -0.342740   -0.797907    3.000978
  C     -0.663513    1.676609    4.135383
  H     -0.641972    1.712640    3.045384
  H     -1.703302    1.572840    4.449865
  H     -0.287860    2.627304    4.517489

 Multiplicity           Mult            ....    1
 Number of Electrons    NEL             ....   84
 Basis Dimension        Dim             .... 1708

ORBITAL ENERGIES
----------------

  NO   OCC          E(Eh)            E(eV)
   0   2.0000     -11.237482      -305.7874
   1   2.0000     -11.236888      -305.7713
   2   2.0000     -11.236818      -305.7694
   3   2.0000     -11.235644      -305.7374
   4   2.0000     -11.235607      -305.7364
   5   2.0000     -11.234965      -305.7189
   6   2.0000     -11.217566      -305.2455
   7   2.0000     -11.198333      -304.7221
   8   2.0000     -11.197268      -304.6932
   9   2.0000     -11.197247      -304.6926
  10   2.0000     -11.191570      -304.5381
  11   2.0000      -1.153279       -31.3823
  12   2.0000      -1.098283       -29.8858
  13   2.0000      -1.017480       -27.6870
  14   2.0000      -1.017339       -27.6832
  15   2.0000      -0.922244       -25.0955
  16   2.0000      -0.921716       -25.0812
  17   2.0000      -0.918419       -24.9914
  18   2.0000      -0.826693       -22.4955
  19   2.0000      -0.826677       -22.4950
  20   2.0000      -0.722239       -19.6531
  21   2.0000      -0.712498       -19.3880
  22   2.0000      -0.646708       -17.5978
  23   2.0000      -0.621817       -16.9205
  24   2.0000      -0.606068       -16.4919
  25   2.0000      -0.604772       -16.4567
  26   2.0000      -0.604052       -16.4371
  27   2.0000      -0.590733       -16.0747
  28   2.0000      -0.590606       -16.0712
  29   2.0000      -0.546556       -14.8726
  30   2.0000      -0.545885       -14.8543
  31   2.0000      -0.512604       -13.9487
  32   2.0000      -0.503304       -13.6956
  33   2.0000      -0.501238       -13.6394
  34   2.0000      -0.497526       -13.5384
  35   2.0000      -0.497338       -13.5332
  36   2.0000      -0.495263       -13.4768
  37   2.0000      -0.444935       -12.1073
  38   2.0000      -0.444159       -12.0862
  39   2.0000      -0.440254       -11.9799
  40   2.0000      -0.339976        -9.2512
  41   2.0000      -0.339674        -9.2430
  42   0.0000       0.022083         0.6009
  43   0.0000       0.028090         0.7644
  44   0.0000       0.028506         0.7757
  45   0.0000       0.031966         0.8698
  46   0.0000       0.040060         1.0901

MULLIKEN ATOMIC CHARGES
-----------------------
   0 C :   -0.210485
   1 H :    0.326195
   2 C :   -0.316601
   3 H :    0.279613
   4 C :   -0.340429
   5 H :    0.269420
   6 C :   -0.279262
   7 H :    0.296942
   8 C :   -0.340581
   9 H :    0.268981
  10 C :   -0.315568
  11 H :    0.279353
  12 C :    1.943108
  13 C :   -1.352147
  14 H :    0.225474
  15 H :    0.181759
  16 H :    0.423966
  17 C :   -1.118055
  18 H :    0.221012
  19 H :    0.221053
  20 H :    0.233841
  21 C :   -1.331337
  22 H :    0.234104
  23 H :    0.233991
  24 H :    0.486879
  25 C :   -1.352011
  26 H :    0.423430
  27 H :    0.181926
  28 H :    0.225431
Sum of atomic charges:   -0.0000000

LOEWDIN ATOMIC CHARGES
----------------------
   0 C :    0.319414
   1 H :   -0.312587
   2 C :    0.326193
   3 H :   -0.315471
   4 C :    0.333638
   5 H :   -0.317860
   6 C :    0.330326
   7 H :   -0.318452
   8 C :    0.333719
   9 H :   -0.317873
  10 C :    0.326158
  11 H :   -0.315485
  12 C :   -0.320032
  13 C :    0.902585
  14 H :   -0.266924
  15 H :   -0.266171
  16 H :   -0.301607
  17 C :    0.903421
  18 H :   -0.271888
  19 H :   -0.271863
  20 H :   -0.271963
  21 C :    0.896204
  22 H :   -0.259118
  23 H :   -0.259109
  24 H :   -0.353132
  25 C :    0.902571
  26 H :   -0.301615
  27 H :   -0.266144
  28 H :   -0.266935

  Mayer bond orders larger than 0.100000
B(  0-C ,  1-H ) :   1.0039 B(  0-C ,  2-C ) :   1.1701 B(  0-C ,  6-C ) :   0.1773
B(  0-C , 10-C ) :   1.1690 B(  2-C ,  3-H ) :   1.0762 B(  2-C ,  4-C ) :   1.1848
B(  2-C ,  8-C ) :   0.1613 B(  4-C ,  5-H ) :   1.1132 B(  4-C ,  6-C ) :   1.2342
B(  4-C , 10-C ) :   0.1611 B(  6-C ,  7-H ) :   1.0624 B(  6-C ,  8-C ) :   1.2342
B(  6-C , 24-H ) :  -0.1418 B(  8-C ,  9-H ) :   1.1133 B(  8-C , 10-C ) :   1.1848
B( 10-C , 11-H ) :   1.0764 B( 12-C , 13-C ) :   0.3257 B( 12-C , 15-H ) :  -0.1063
B( 12-C , 18-H ) :  -0.1640 B( 12-C , 19-H ) :  -0.1641 B( 12-C , 20-H ) :  -0.1545
B( 12-C , 21-C ) :   0.4308 B( 12-C , 24-H ) :  -0.2125 B( 12-C , 25-C ) :   0.3256
B( 12-C , 27-H ) :  -0.1063 B( 13-C , 14-H ) :   1.0858 B( 13-C , 15-H ) :   1.0965
B( 13-C , 16-H ) :   0.8426 B( 13-C , 17-C ) :   0.1628 B( 13-C , 21-C ) :   0.1598
B( 13-C , 25-C ) :   0.1789 B( 17-C , 18-H ) :   1.0829 B( 17-C , 19-H ) :   1.0829
B( 17-C , 20-H ) :   1.0762 B( 17-C , 21-C ) :   0.1601 B( 17-C , 25-C ) :   0.1627
B( 21-C , 22-H ) :   0.9905 B( 21-C , 23-H ) :   0.9905 B( 21-C , 24-H ) :   0.9999
B( 21-C , 25-C ) :   0.1600 B( 25-C , 26-H ) :   0.8432 B( 25-C , 27-H ) :   1.0961
B( 25-C , 28-H ) :   1.0858

MP2 TOTAL ENERGY:     -429.192711037 Eh
FINAL SINGLE POINT ENERGY      -429.192711036968

DIPOLE MOMENT
-------------
                                X             Y             Z
Electronic contribution:     -1.34403      -3.93060     -13.17785
Nuclear contribution   :      1.32112       3.86812      13.02623
                        -----------------------------------------
Total Dipole Moment    :     -0.02291      -0.06248      -0.15161
                        -----------------------------------------
Magnitude (a.u.)       :      0.16557
Magnitude (Debye)      :      0.42085

Rotational constants in cm-1:     0.059924     0.018609     0.018441
Rotational constants in MHz :  1796.471427   557.880692   552.846803

                             ****ORCA TERMINATED NORMALLY****
TOTAL RUN TIME: 0 days 2 hours 13 minutes 5 seconds 410 msec
