                         Program Version 5.0.4 -  RELEASE  -
|  1> ! ri-mp2 aug-cc-pvdz aug-cc-pvdz/c tightscf
|  2> %pal nprocs 16 end
|  3> %maxcore 3800
|  4> %base "DZ_S66by10_65_1.05_dimer"
|  5>
|  6> *xyz 0 1
|  7> N   -0.08303249    0.00071459    1.05519999
|  8> C   -0.20285376   -1.14172585    0.36493369
|  9> H   -0.09848563   -2.05509795    0.93743262
| 10> C   -0.44678144   -1.19176367   -1.00451226
| 11> H   -0.53364921   -2.14585511   -1.50417155
| 12> C   -0.57468209    0.00343953   -1.70430948
| 13> H   -0.76368391    0.00448010   -2.76872670
| 14> C   -0.45345675    1.19724254   -1.00091647
| 15> H   -0.54563080    2.15227264   -1.49779508
| 16> C   -0.20931111    1.14450759    0.36836730
| 17> H   -0.11016707    2.05669726    0.94357396
| 18> C    0.48941976   -0.00646568    5.66960793
| 19> H    0.60482981   -0.00589149    6.72462175
| 20> C    0.35735000   -0.00701541    4.46336063
| 21> H    0.23920188   -0.00675299    3.39885516
| 22> *
| 23>
| 24> $new_job
| 25> ! ri-mp2 aug-cc-pvtz aug-cc-pvtz/c tightscf
| 26> %pal nprocs 16 end
| 27> %maxcore 3800
| 28> %base "TZ_S66by10_65_1.05_dimer"
| 29>
| 30> *xyz 0 1
| 31> N   -0.08303249    0.00071459    1.05519999
| 32> C   -0.20285376   -1.14172585    0.36493369
| 33> H   -0.09848563   -2.05509795    0.93743262
| 34> C   -0.44678144   -1.19176367   -1.00451226
| 35> H   -0.53364921   -2.14585511   -1.50417155
| 36> C   -0.57468209    0.00343953   -1.70430948
| 37> H   -0.76368391    0.00448010   -2.76872670
| 38> C   -0.45345675    1.19724254   -1.00091647
| 39> H   -0.54563080    2.15227264   -1.49779508
| 40> C   -0.20931111    1.14450759    0.36836730
| 41> H   -0.11016707    2.05669726    0.94357396
| 42> C    0.48941976   -0.00646568    5.66960793
| 43> H    0.60482981   -0.00589149    6.72462175
| 44> C    0.35735000   -0.00701541    4.46336063
| 45> H    0.23920188   -0.00675299    3.39885516
| 46> *
| 47>
| 48> $new_job
| 49> ! ri-mp2 aug-cc-pvqz aug-cc-pvqz/c tightscf
| 50> %pal nprocs 16 end
| 51> %maxcore 3800
| 52> %base "QZ_S66by10_65_1.05_dimer"
| 53>
| 54> *xyz 0 1
| 55> N   -0.08303249    0.00071459    1.05519999
| 56> C   -0.20285376   -1.14172585    0.36493369
| 57> H   -0.09848563   -2.05509795    0.93743262
| 58> C   -0.44678144   -1.19176367   -1.00451226
| 59> H   -0.53364921   -2.14585511   -1.50417155
| 60> C   -0.57468209    0.00343953   -1.70430948
| 61> H   -0.76368391    0.00448010   -2.76872670
| 62> C   -0.45345675    1.19724254   -1.00091647
| 63> H   -0.54563080    2.15227264   -1.49779508
| 64> C   -0.20931111    1.14450759    0.36836730
| 65> H   -0.11016707    2.05669726    0.94357396
| 66> C    0.48941976   -0.00646568    5.66960793
| 67> H    0.60482981   -0.00589149    6.72462175
| 68> C    0.35735000   -0.00701541    4.46336063
| 69> H    0.23920188   -0.00675299    3.39885516
| 70> *
| 71>
| 72>
| 73>
| 74>
| 75>                          ****END OF INPUT****
 Total Charge           Charge          ....    0
 Multiplicity           Mult            ....    1
 Number of Electrons    NEL             ....   56
MP2 TOTAL ENERGY:     -324.663134800 Eh
FINAL SINGLE POINT ENERGY      -324.663134799900
MP2 TOTAL ENERGY:     -324.948680485 Eh
FINAL SINGLE POINT ENERGY      -324.948680484581

CARTESIAN COORDINATES (ANGSTROEM)
---------------------------------
  N     -0.083032    0.000715    1.055200
  C     -0.202854   -1.141726    0.364934
  H     -0.098486   -2.055098    0.937433
  C     -0.446781   -1.191764   -1.004512
  H     -0.533649   -2.145855   -1.504172
  C     -0.574682    0.003440   -1.704309
  H     -0.763684    0.004480   -2.768727
  C     -0.453457    1.197243   -1.000916
  H     -0.545631    2.152273   -1.497795
  C     -0.209311    1.144508    0.368367
  H     -0.110167    2.056697    0.943574
  C      0.489420   -0.006466    5.669608
  H      0.604830   -0.005891    6.724622
  C      0.357350   -0.007015    4.463361
  H      0.239202   -0.006753    3.398855

 Multiplicity           Mult            ....    1
 Number of Electrons    NEL             ....   56
 Basis Dimension        Dim             ....  962

ORBITAL ENERGIES
----------------

  NO   OCC          E(Eh)            E(eV)
   0   2.0000     -15.574964      -423.8163
   1   2.0000     -11.282824      -307.0213
   2   2.0000     -11.282801      -307.0206
   3   2.0000     -11.266743      -306.5837
   4   2.0000     -11.248181      -306.0786
   5   2.0000     -11.248129      -306.0772
   6   2.0000     -11.224645      -305.4381
   7   2.0000     -11.221036      -305.3399
   8   2.0000      -1.266005       -34.4497
   9   2.0000      -1.097403       -29.8619
  10   2.0000      -1.041772       -28.3481
  11   2.0000      -1.007750       -27.4223
  12   2.0000      -0.867221       -23.5983
  13   2.0000      -0.864434       -23.5224
  14   2.0000      -0.747780       -20.3481
  15   2.0000      -0.729787       -19.8585
  16   2.0000      -0.669159       -18.2087
  17   2.0000      -0.662154       -18.0181
  18   2.0000      -0.658337       -17.9143
  19   2.0000      -0.606509       -16.5039
  20   2.0000      -0.585016       -15.9191
  21   2.0000      -0.550464       -14.9789
  22   2.0000      -0.528116       -14.3708
  23   2.0000      -0.432036       -11.7563
  24   2.0000      -0.393265       -10.7013
  25   2.0000      -0.389570       -10.6007
  26   2.0000      -0.389034       -10.5862
  27   2.0000      -0.355539        -9.6747
  28   0.0000       0.020523         0.5585
  29   0.0000       0.027656         0.7526
  30   0.0000       0.029397         0.7999
  31   0.0000       0.035699         0.9714
  32   0.0000       0.043965         1.1963

MULLIKEN ATOMIC CHARGES
-----------------------
   0 N :   -0.487549
   1 C :   -0.311644
   2 H :    0.428419
   3 C :   -0.206187
   4 H :    0.340540
   5 C :   -0.230373
   6 H :    0.351786
   7 C :   -0.206214
   8 H :    0.340356
   9 C :   -0.313362
  10 H :    0.427986
  11 C :   -1.004072
  12 H :    0.395036
  13 C :   -0.914266
  14 H :    1.389543
Sum of atomic charges:   -0.0000000

LOEWDIN ATOMIC CHARGES
----------------------
   0 N :    0.578922
   1 C :    0.085096
   2 H :   -0.348333
   3 C :    0.333778
   4 H :   -0.329749
   5 C :    0.331443
   6 H :   -0.313645
   7 C :    0.333772
   8 H :   -0.329764
   9 C :    0.085155
  10 H :   -0.348374
  11 C :    0.483934
  12 H :   -0.490467
  13 C :    0.481826
  14 H :   -0.553598

  Mayer bond orders larger than 0.100000
B(  0-N ,  1-C ) :   1.3387 B(  0-N ,  9-C ) :   1.3390 B(  0-N , 11-C ) :  -0.1159
B(  0-N , 13-C ) :   0.1309 B(  1-C ,  2-H ) :   0.8909 B(  1-C ,  3-C ) :   1.1992
B(  1-C ,  7-C ) :   0.1114 B(  3-C ,  4-H ) :   0.9592 B(  3-C ,  5-C ) :   1.2188
B(  3-C ,  9-C ) :   0.1112 B(  5-C ,  6-H ) :   0.9480 B(  5-C ,  7-C ) :   1.2187
B(  7-C ,  8-H ) :   0.9594 B(  7-C ,  9-C ) :   1.1997 B(  9-C , 10-H ) :   0.8919
B( 11-C , 12-H ) :   1.1631 B( 11-C , 13-C ) :   2.1999 B( 11-C , 14-H ) :  -0.2942
B( 12-H , 14-H ) :  -0.1990 B( 13-C , 14-H ) :  -0.5188

MP2 TOTAL ENERGY:     -325.038449853 Eh
FINAL SINGLE POINT ENERGY      -325.038449852705

DIPOLE MOMENT
-------------
                                X             Y             Z
Electronic contribution:     -0.00269       0.00141      -0.38670
Nuclear contribution   :     -0.20345       0.00059      -0.83612
                        -----------------------------------------
Total Dipole Moment    :     -0.20614       0.00200      -1.22282
                        -----------------------------------------
Magnitude (a.u.)       :      1.24008
Magnitude (Debye)      :      3.15202

Rotational constants in cm-1:     0.201593     0.024810     0.022099
Rotational constants in MHz :  6043.609381   743.799535   662.505243

                             ****ORCA TERMINATED NORMALLY****
TOTAL RUN TIME: 0 days 0 hours 14 minutes 7 seconds 608 msec
