                         Program Version 5.0.4 -  RELEASE  -
|  1> ! ri-mp2 aug-cc-pvdz aug-cc-pvdz/c tightscf
|  2> %pal nprocs 16 end
|  3> %maxcore 3800
|  4> %base "DZ_S66by10_11_0.9_dimer"
|  5> %scf STABPerform true end
|  6>
|  7> *xyz 0 1
|  8> N   -0.56970824    0.81437245    0.10109775
|  9> H    0.13087774    0.56141065   -0.58761455
| 10> H   -1.46125215    0.52691480   -0.28042996
| 11> C   -0.30551437    0.06571030    1.32879173
| 12> H   -1.05714948    0.31427017    2.07595940
| 13> H   -0.28802353   -1.02229248    1.21484626
| 14> H    0.66045772    0.36850913    1.73024224
| 15> C    2.07247623    2.70321075   -0.12404514
| 16> H    2.19709470    3.11438748   -1.12308948
| 17> H    2.57904761    3.34420330    0.59373938
| 18> H    1.00606448    2.67668122    0.09437629
| 19> C    2.58446792    1.28541306   -0.12175111
| 20> O    2.12448804    0.41967665   -0.86092572
| 21> N    3.57095089    1.01238072    0.77057960
| 22> H    3.97071191    1.76731349    1.29593235
| 23> C    4.15939623   -0.30720983    0.84807916
| 24> H    3.37121962   -1.04853997    0.75505857
| 25> H    4.88065601   -0.47920520    0.04953477
| 26> H    4.65404974   -0.42307801    1.80801869
| 27> *
| 28>
| 29> $new_job
| 30> ! ri-mp2 aug-cc-pvtz aug-cc-pvtz/c tightscf
| 31> %pal nprocs 16 end
| 32> %maxcore 3800
| 33> %base "TZ_S66by10_11_0.9_dimer"
| 34>
| 35> *xyz 0 1
| 36> N   -0.56970824    0.81437245    0.10109775
| 37> H    0.13087774    0.56141065   -0.58761455
| 38> H   -1.46125215    0.52691480   -0.28042996
| 39> C   -0.30551437    0.06571030    1.32879173
| 40> H   -1.05714948    0.31427017    2.07595940
| 41> H   -0.28802353   -1.02229248    1.21484626
| 42> H    0.66045772    0.36850913    1.73024224
| 43> C    2.07247623    2.70321075   -0.12404514
| 44> H    2.19709470    3.11438748   -1.12308948
| 45> H    2.57904761    3.34420330    0.59373938
| 46> H    1.00606448    2.67668122    0.09437629
| 47> C    2.58446792    1.28541306   -0.12175111
| 48> O    2.12448804    0.41967665   -0.86092572
| 49> N    3.57095089    1.01238072    0.77057960
| 50> H    3.97071191    1.76731349    1.29593235
| 51> C    4.15939623   -0.30720983    0.84807916
| 52> H    3.37121962   -1.04853997    0.75505857
| 53> H    4.88065601   -0.47920520    0.04953477
| 54> H    4.65404974   -0.42307801    1.80801869
| 55> *
| 56>
| 57> $new_job
| 58> ! ri-mp2 aug-cc-pvqz aug-cc-pvqz/c tightscf
| 59> %pal nprocs 16 end
| 60> %maxcore 3800
| 61> %base "QZ_S66by10_11_0.9_dimer"
| 62>
| 63> *xyz 0 1
| 64> N   -0.56970824    0.81437245    0.10109775
| 65> H    0.13087774    0.56141065   -0.58761455
| 66> H   -1.46125215    0.52691480   -0.28042996
| 67> C   -0.30551437    0.06571030    1.32879173
| 68> H   -1.05714948    0.31427017    2.07595940
| 69> H   -0.28802353   -1.02229248    1.21484626
| 70> H    0.66045772    0.36850913    1.73024224
| 71> C    2.07247623    2.70321075   -0.12404514
| 72> H    2.19709470    3.11438748   -1.12308948
| 73> H    2.57904761    3.34420330    0.59373938
| 74> H    1.00606448    2.67668122    0.09437629
| 75> C    2.58446792    1.28541306   -0.12175111
| 76> O    2.12448804    0.41967665   -0.86092572
| 77> N    3.57095089    1.01238072    0.77057960
| 78> H    3.97071191    1.76731349    1.29593235
| 79> C    4.15939623   -0.30720983    0.84807916
| 80> H    3.37121962   -1.04853997    0.75505857
| 81> H    4.88065601   -0.47920520    0.04953477
| 82> H    4.65404974   -0.42307801    1.80801869
| 83> *
| 84>
| 85>
| 86>
| 87>
| 88>                          ****END OF INPUT****
 Total Charge           Charge          ....    0
 Multiplicity           Mult            ....    1
 Number of Electrons    NEL             ....   58
MP2 TOTAL ENERGY:     -343.429995663 Eh
FINAL SINGLE POINT ENERGY      -343.429995663437
MP2 TOTAL ENERGY:     -343.746786702 Eh
FINAL SINGLE POINT ENERGY      -343.746786701938

CARTESIAN COORDINATES (ANGSTROEM)
---------------------------------
  N     -0.569708    0.814372    0.101098
  H      0.130878    0.561411   -0.587615
  H     -1.461252    0.526915   -0.280430
  C     -0.305514    0.065710    1.328792
  H     -1.057149    0.314270    2.075959
  H     -0.288024   -1.022292    1.214846
  H      0.660458    0.368509    1.730242
  C      2.072476    2.703211   -0.124045
  H      2.197095    3.114387   -1.123089
  H      2.579048    3.344203    0.593739
  H      1.006064    2.676681    0.094376
  C      2.584468    1.285413   -0.121751
  O      2.124488    0.419677   -0.860926
  N      3.570951    1.012381    0.770580
  H      3.970712    1.767313    1.295932
  C      4.159396   -0.307210    0.848079
  H      3.371220   -1.048540    0.755059
  H      4.880656   -0.479205    0.049535
  H      4.654050   -0.423078    1.808019

 Multiplicity           Mult            ....    1
 Number of Electrons    NEL             ....   58
 Basis Dimension        Dim             .... 1112

ORBITAL ENERGIES
----------------

  NO   OCC          E(Eh)            E(eV)
   0   2.0000     -20.511956      -558.1587
   1   2.0000     -15.587149      -424.1479
   2   2.0000     -15.513802      -422.1520
   3   2.0000     -11.348078      -308.7969
   4   2.0000     -11.258912      -306.3706
   5   2.0000     -11.226467      -305.4877
   6   2.0000     -11.224649      -305.4382
   7   2.0000      -1.378657       -37.5152
   8   2.0000      -1.232756       -33.5450
   9   2.0000      -1.152166       -31.3520
  10   2.0000      -1.016126       -27.6502
  11   2.0000      -0.932695       -25.3799
  12   2.0000      -0.881151       -23.9773
  13   2.0000      -0.793629       -21.5957
  14   2.0000      -0.689756       -18.7692
  15   2.0000      -0.660219       -17.9655
  16   2.0000      -0.655198       -17.8288
  17   2.0000      -0.626888       -17.0585
  18   2.0000      -0.592250       -16.1159
  19   2.0000      -0.579634       -15.7726
  20   2.0000      -0.578966       -15.7545
  21   2.0000      -0.557003       -15.1568
  22   2.0000      -0.547012       -14.8850
  23   2.0000      -0.536974       -14.6118
  24   2.0000      -0.503734       -13.7073
  25   2.0000      -0.501870       -13.6566
  26   2.0000      -0.425035       -11.5658
  27   2.0000      -0.396639       -10.7931
  28   2.0000      -0.375649       -10.2219
  29   0.0000       0.020028         0.5450
  30   0.0000       0.031033         0.8445
  31   0.0000       0.034438         0.9371
  32   0.0000       0.035366         0.9624
  33   0.0000       0.047639         1.2963

MULLIKEN ATOMIC CHARGES
-----------------------
   0 N :   -0.598182
   1 H :    0.328540
   2 H :    0.152257
   3 C :   -0.867888
   4 H :    0.372624
   5 H :    0.267870
   6 H :    0.294088
   7 C :   -0.842993
   8 H :    0.298255
   9 H :    0.250726
  10 H :    0.300386
  11 C :    1.225214
  12 O :   -0.978371
  13 N :   -0.584692
  14 H :    0.278532
  15 C :   -0.871253
  16 H :    0.308658
  17 H :    0.309686
  18 H :    0.356545
Sum of atomic charges:   -0.0000000

LOEWDIN ATOMIC CHARGES
----------------------
   0 N :    1.252730
   1 H :   -0.712815
   2 H :   -0.503915
   3 C :    0.749579
   4 H :   -0.306937
   5 H :   -0.282666
   6 H :   -0.331640
   7 C :    0.905436
   8 H :   -0.286133
   9 H :   -0.304739
  10 H :   -0.351342
  11 C :   -0.819420
  12 O :    0.780091
  13 N :    0.830401
  14 H :   -0.502313
  15 C :    0.779881
  16 H :   -0.323006
  17 H :   -0.279766
  18 H :   -0.293426

  Mayer bond orders larger than 0.100000
B(  0-N ,  1-H ) :   0.8349 B(  0-N ,  2-H ) :   1.0331 B(  0-N ,  3-C ) :   0.9647
B(  3-C ,  4-H ) :   0.8736 B(  3-C ,  5-H ) :   0.9320 B(  3-C ,  6-H ) :   0.8831
B(  7-C ,  8-H ) :   0.9206 B(  7-C ,  9-H ) :   1.0040 B(  7-C , 10-H ) :   0.9164
B(  7-C , 11-C ) :   0.8036 B( 11-C , 12-O ) :   1.0442 B( 11-C , 13-N ) :   1.0378
B( 12-O , 13-N ) :   0.1588 B( 13-N , 14-H ) :   0.9477 B( 13-N , 15-C ) :   0.8489
B( 15-C , 16-H ) :   0.9523 B( 15-C , 17-H ) :   0.9397 B( 15-C , 18-H ) :   0.9007

MP2 TOTAL ENERGY:     -343.846307996 Eh
FINAL SINGLE POINT ENERGY      -343.846307995791

DIPOLE MOMENT
-------------
                                X             Y             Z
Electronic contribution:      3.05570       0.69493      -3.11282
Nuclear contribution   :     -2.15076      -0.31784       3.97090
                        -----------------------------------------
Total Dipole Moment    :      0.90495       0.37709       0.85808
                        -----------------------------------------
Magnitude (a.u.)       :      1.30286
Magnitude (Debye)      :      3.31160

Rotational constants in cm-1:     0.108061     0.048170     0.040464
Rotational constants in MHz :  3239.581379  1444.087319  1213.093205

                             ****ORCA TERMINATED NORMALLY****
TOTAL RUN TIME: 0 days 3 hours 34 minutes 4 seconds 943 msec
