                         Program Version 5.0.4 -  RELEASE  -
|  1> ! ri-mp2 aug-cc-pvdz aug-cc-pvdz/c tightscf
|  2> %pal nprocs 16 end
|  3> %maxcore 3800
|  4> %base "DZ_S66by10_25_1.0_dimer"
|  5>
|  6> *xyz 0 1
|  7> N    1.57248145    0.25454916   -0.25648131
|  8> C    0.96935990   -0.90316032    0.04452614
|  9> H    1.61363891   -1.77218121    0.10234520
| 10> C   -0.39815811   -1.02881911    0.28096043
| 11> H   -0.81842477   -1.99173710    0.53356364
| 12> C   -1.19580525    0.10655779    0.19539732
| 13> H   -2.26068964    0.04953865    0.37344280
| 14> C   -0.58712829    1.31741239   -0.12010544
| 15> H   -1.16181223    2.22950003   -0.20046257
| 16> C    0.78854733    1.33970567   -0.33224053
| 17> H    1.28843202    2.26879436   -0.57852690
| 18> N   -0.52318661   -1.50692104    3.75217128
| 19> C   -1.45566471   -0.54629158    3.82602244
| 20> H   -2.45845395   -0.87724638    4.06821530
| 21> C   -1.19366167    0.80477684    3.61664306
| 22> H   -1.99221943    1.52928227    3.69491415
| 23> C    0.10576566    1.19401812    3.30637465
| 24> H    0.34775022    2.23301660    3.13050339
| 25> C    1.08532497    0.21111997    3.22301319
| 26> H    2.10762621    0.45786571    2.97457620
| 27> C    0.72284525   -1.11401779    3.45620618
| 28> H    1.46670602   -1.89957242    3.39975758
| 29> *
| 30>
| 31> $new_job
| 32> ! ri-mp2 aug-cc-pvtz aug-cc-pvtz/c tightscf
| 33> %pal nprocs 16 end
| 34> %maxcore 3800
| 35> %base "TZ_S66by10_25_1.0_dimer"
| 36>
| 37> *xyz 0 1
| 38> N    1.57248145    0.25454916   -0.25648131
| 39> C    0.96935990   -0.90316032    0.04452614
| 40> H    1.61363891   -1.77218121    0.10234520
| 41> C   -0.39815811   -1.02881911    0.28096043
| 42> H   -0.81842477   -1.99173710    0.53356364
| 43> C   -1.19580525    0.10655779    0.19539732
| 44> H   -2.26068964    0.04953865    0.37344280
| 45> C   -0.58712829    1.31741239   -0.12010544
| 46> H   -1.16181223    2.22950003   -0.20046257
| 47> C    0.78854733    1.33970567   -0.33224053
| 48> H    1.28843202    2.26879436   -0.57852690
| 49> N   -0.52318661   -1.50692104    3.75217128
| 50> C   -1.45566471   -0.54629158    3.82602244
| 51> H   -2.45845395   -0.87724638    4.06821530
| 52> C   -1.19366167    0.80477684    3.61664306
| 53> H   -1.99221943    1.52928227    3.69491415
| 54> C    0.10576566    1.19401812    3.30637465
| 55> H    0.34775022    2.23301660    3.13050339
| 56> C    1.08532497    0.21111997    3.22301319
| 57> H    2.10762621    0.45786571    2.97457620
| 58> C    0.72284525   -1.11401779    3.45620618
| 59> H    1.46670602   -1.89957242    3.39975758
| 60> *
| 61>
| 62> $new_job
| 63> ! ri-mp2 aug-cc-pvqz aug-cc-pvqz/c tightscf
| 64> %pal nprocs 16 end
| 65> %maxcore 3800
| 66> %base "QZ_S66by10_25_1.0_dimer"
| 67>
| 68> *xyz 0 1
| 69> N    1.57248145    0.25454916   -0.25648131
| 70> C    0.96935990   -0.90316032    0.04452614
| 71> H    1.61363891   -1.77218121    0.10234520
| 72> C   -0.39815811   -1.02881911    0.28096043
| 73> H   -0.81842477   -1.99173710    0.53356364
| 74> C   -1.19580525    0.10655779    0.19539732
| 75> H   -2.26068964    0.04953865    0.37344280
| 76> C   -0.58712829    1.31741239   -0.12010544
| 77> H   -1.16181223    2.22950003   -0.20046257
| 78> C    0.78854733    1.33970567   -0.33224053
| 79> H    1.28843202    2.26879436   -0.57852690
| 80> N   -0.52318661   -1.50692104    3.75217128
| 81> C   -1.45566471   -0.54629158    3.82602244
| 82> H   -2.45845395   -0.87724638    4.06821530
| 83> C   -1.19366167    0.80477684    3.61664306
| 84> H   -1.99221943    1.52928227    3.69491415
| 85> C    0.10576566    1.19401812    3.30637465
| 86> H    0.34775022    2.23301660    3.13050339
| 87> C    1.08532497    0.21111997    3.22301319
| 88> H    2.10762621    0.45786571    2.97457620
| 89> C    0.72284525   -1.11401779    3.45620618
| 90> H    1.46670602   -1.89957242    3.39975758
| 91> *
| 92>
| 93>
| 94>
| 95>
| 96>                          ****END OF INPUT****
 Total Charge           Charge          ....    0
 Multiplicity           Mult            ....    1
 Number of Electrons    NEL             ....   84
MP2 TOTAL ENERGY:     -495.140184667 Eh
FINAL SINGLE POINT ENERGY      -495.140184667287
MP2 TOTAL ENERGY:     -495.566562606 Eh
FINAL SINGLE POINT ENERGY      -495.566562605720

CARTESIAN COORDINATES (ANGSTROEM)
---------------------------------
  N      1.572481    0.254549   -0.256481
  C      0.969360   -0.903160    0.044526
  H      1.613639   -1.772181    0.102345
  C     -0.398158   -1.028819    0.280960
  H     -0.818425   -1.991737    0.533564
  C     -1.195805    0.106558    0.195397
  H     -2.260690    0.049539    0.373443
  C     -0.587128    1.317412   -0.120105
  H     -1.161812    2.229500   -0.200463
  C      0.788547    1.339706   -0.332241
  H      1.288432    2.268794   -0.578527
  N     -0.523187   -1.506921    3.752171
  C     -1.455665   -0.546292    3.826022
  H     -2.458454   -0.877246    4.068215
  C     -1.193662    0.804777    3.616643
  H     -1.992219    1.529282    3.694914
  C      0.105766    1.194018    3.306375
  H      0.347750    2.233017    3.130503
  C      1.085325    0.211120    3.223013
  H      2.107626    0.457866    2.974576
  C      0.722845   -1.114018    3.456206
  H      1.466706   -1.899572    3.399758

 Multiplicity           Mult            ....    1
 Number of Electrons    NEL             ....   84
 Basis Dimension        Dim             .... 1420

ORBITAL ENERGIES
----------------

  NO   OCC          E(Eh)            E(eV)
   0   2.0000     -15.562943      -423.4892
   1   2.0000     -15.562884      -423.4876
   2   2.0000     -11.272345      -306.7361
   3   2.0000     -11.272298      -306.7348
   4   2.0000     -11.271842      -306.7224
   5   2.0000     -11.271783      -306.7208
   6   2.0000     -11.256136      -306.2950
   7   2.0000     -11.256080      -306.2935
   8   2.0000     -11.239065      -305.8305
   9   2.0000     -11.238997      -305.8287
  10   2.0000     -11.237163      -305.7787
  11   2.0000     -11.237074      -305.7763
  12   2.0000      -1.255429       -34.1620
  13   2.0000      -1.253466       -34.1085
  14   2.0000      -1.088658       -29.6239
  15   2.0000      -1.085704       -29.5435
  16   2.0000      -1.032610       -28.0987
  17   2.0000      -1.029969       -28.0269
  18   2.0000      -0.857242       -23.3267
  19   2.0000      -0.857113       -23.3232
  20   2.0000      -0.853882       -23.2353
  21   2.0000      -0.853507       -23.2251
  22   2.0000      -0.721465       -19.6321
  23   2.0000      -0.718693       -19.5566
  24   2.0000      -0.658713       -17.9245
  25   2.0000      -0.657915       -17.9028
  26   2.0000      -0.652418       -17.7532
  27   2.0000      -0.651953       -17.7405
  28   2.0000      -0.597018       -16.2457
  29   2.0000      -0.595440       -16.2027
  30   2.0000      -0.575267       -15.6538
  31   2.0000      -0.574943       -15.6450
  32   2.0000      -0.556535       -15.1441
  33   2.0000      -0.524883       -14.2828
  34   2.0000      -0.518205       -14.1011
  35   2.0000      -0.517398       -14.0791
  36   2.0000      -0.419193       -11.4068
  37   2.0000      -0.418179       -11.3792
  38   2.0000      -0.388692       -10.5768
  39   2.0000      -0.377802       -10.2805
  40   2.0000      -0.353063        -9.6073
  41   2.0000      -0.334593        -9.1047
  42   0.0000       0.020696         0.5632
  43   0.0000       0.027611         0.7513
  44   0.0000       0.030409         0.8275
  45   0.0000       0.034070         0.9271
  46   0.0000       0.038875         1.0578

MULLIKEN ATOMIC CHARGES
-----------------------
   0 N :   -0.787120
   1 C :   -0.099416
   2 H :    0.438503
   3 C :   -0.211974
   4 H :    0.264750
   5 C :   -0.325128
   6 H :    0.336965
   7 C :   -0.211683
   8 H :    0.307361
   9 C :   -0.171843
  10 H :    0.459897
  11 N :   -0.788135
  12 C :   -0.170140
  13 H :    0.459909
  14 C :   -0.209031
  15 H :    0.308009
  16 C :   -0.329473
  17 H :    0.336530
  18 C :   -0.211357
  19 H :    0.265534
  20 C :   -0.100504
  21 H :    0.438344
Sum of atomic charges:    0.0000000

LOEWDIN ATOMIC CHARGES
----------------------
   0 N :    0.594350
   1 C :    0.050971
   2 H :   -0.345000
   3 C :    0.306889
   4 H :   -0.317381
   5 C :    0.310903
   6 H :   -0.303918
   7 C :    0.316564
   8 H :   -0.323510
   9 C :    0.061832
  10 H :   -0.351957
  11 N :    0.594266
  12 C :    0.061590
  13 H :   -0.351816
  14 C :    0.316301
  15 H :   -0.323355
  16 C :    0.311161
  17 H :   -0.303835
  18 C :    0.307268
  19 H :   -0.317222
  20 C :    0.050892
  21 H :   -0.344995

  Mayer bond orders larger than 0.100000
B(  0-N ,  1-C ) :   1.0697 B(  0-N ,  2-H ) :  -0.1537 B(  0-N ,  7-C ) :   0.1045
B(  0-N ,  9-C ) :   1.1654 B(  0-N , 10-H ) :  -0.1426 B(  1-C ,  2-H ) :   0.9352
B(  1-C ,  3-C ) :   1.1011 B(  2-H ,  3-C ) :  -0.1170 B(  3-C ,  4-H ) :   1.0565
B(  3-C ,  5-C ) :   1.1879 B(  3-C ,  9-C ) :   0.1251 B(  5-C ,  6-H ) :   0.9612
B(  5-C ,  7-C ) :   1.1546 B(  7-C ,  8-H ) :   1.0225 B(  7-C ,  9-C ) :   1.2195
B(  9-C , 10-H ) :   0.8993 B( 11-N , 12-C ) :   1.1636 B( 11-N , 13-H ) :  -0.1429
B( 11-N , 14-C ) :   0.1047 B( 11-N , 20-C ) :   1.0695 B( 11-N , 21-H ) :  -0.1538
B( 12-C , 13-H ) :   0.8995 B( 12-C , 14-C ) :   1.2188 B( 12-C , 18-C ) :   0.1247
B( 14-C , 15-H ) :   1.0219 B( 14-C , 16-C ) :   1.1541 B( 16-C , 17-H ) :   0.9614
B( 16-C , 18-C ) :   1.1883 B( 18-C , 19-H ) :   1.0563 B( 18-C , 20-C ) :   1.1032
B( 18-C , 21-H ) :  -0.1165 B( 20-C , 21-H ) :   0.9354

MP2 TOTAL ENERGY:     -495.702728000 Eh
FINAL SINGLE POINT ENERGY      -495.702728000076

DIPOLE MOMENT
-------------
                                X             Y             Z
Electronic contribution:      1.02435      -1.22215      -0.00149
Nuclear contribution   :     -1.68087       2.00584       0.00438
                        -----------------------------------------
Total Dipole Moment    :     -0.65652       0.78369       0.00288
                        -----------------------------------------
Magnitude (a.u.)       :      1.02235
Magnitude (Debye)      :      2.59861

Rotational constants in cm-1:     0.054647     0.024603     0.023596
Rotational constants in MHz :  1638.277601   737.585766   707.375950

                             ****ORCA TERMINATED NORMALLY****
TOTAL RUN TIME: 0 days 1 hours 45 minutes 5 seconds 792 msec
