                         Program Version 5.0.4 -  RELEASE  -
|  1> ! ri-mp2 aug-cc-pvdz aug-cc-pvdz/c tightscf
|  2> %pal nprocs 16 end
|  3> %maxcore 3800
|  4> %base "DZ_S66by10_32_1.0_dimer"
|  5> %scf STABPerform true end
|  6>
|  7> *xyz 0 1
|  8> N   -0.05545357   -0.94799090    0.01001028
|  9> H   -0.05731609   -1.95771330    0.05505287
| 10> C   -1.31395971   -0.33514498   -0.06458622
| 11> O   -2.32889664   -1.00790087   -0.12310273
| 12> C   -1.24835877    1.11605191   -0.06650860
| 13> H   -2.16434937    1.67533298   -0.14710244
| 14> C   -0.05308010    1.73142748    0.03419541
| 15> H    0.04811054    2.80642986    0.04341968
| 16> N    1.11592628    1.02759107    0.13516893
| 17> H    1.99665515    1.49727976    0.26162029
| 18> C    1.17534700   -0.35380470    0.17616616
| 19> O    2.21463146   -0.96646542    0.33517250
| 20> C    0.70842545   -0.17222230    3.28707670
| 21> H    1.70424372   -0.52620815    3.17285797
| 22> C   -0.43617864    0.21423539    3.39326854
| 23> H   -1.44106119    0.54293573    3.49363271
| 24> *
| 25>
| 26> $new_job
| 27> ! ri-mp2 aug-cc-pvtz aug-cc-pvtz/c tightscf
| 28> %pal nprocs 16 end
| 29> %maxcore 3800
| 30> %base "TZ_S66by10_32_1.0_dimer"
| 31>
| 32> *xyz 0 1
| 33> N   -0.05545357   -0.94799090    0.01001028
| 34> H   -0.05731609   -1.95771330    0.05505287
| 35> C   -1.31395971   -0.33514498   -0.06458622
| 36> O   -2.32889664   -1.00790087   -0.12310273
| 37> C   -1.24835877    1.11605191   -0.06650860
| 38> H   -2.16434937    1.67533298   -0.14710244
| 39> C   -0.05308010    1.73142748    0.03419541
| 40> H    0.04811054    2.80642986    0.04341968
| 41> N    1.11592628    1.02759107    0.13516893
| 42> H    1.99665515    1.49727976    0.26162029
| 43> C    1.17534700   -0.35380470    0.17616616
| 44> O    2.21463146   -0.96646542    0.33517250
| 45> C    0.70842545   -0.17222230    3.28707670
| 46> H    1.70424372   -0.52620815    3.17285797
| 47> C   -0.43617864    0.21423539    3.39326854
| 48> H   -1.44106119    0.54293573    3.49363271
| 49> *
| 50>
| 51> $new_job
| 52> ! ri-mp2 aug-cc-pvqz aug-cc-pvqz/c tightscf
| 53> %pal nprocs 16 end
| 54> %maxcore 3800
| 55> %base "QZ_S66by10_32_1.0_dimer"
| 56>
| 57> *xyz 0 1
| 58> N   -0.05545357   -0.94799090    0.01001028
| 59> H   -0.05731609   -1.95771330    0.05505287
| 60> C   -1.31395971   -0.33514498   -0.06458622
| 61> O   -2.32889664   -1.00790087   -0.12310273
| 62> C   -1.24835877    1.11605191   -0.06650860
| 63> H   -2.16434937    1.67533298   -0.14710244
| 64> C   -0.05308010    1.73142748    0.03419541
| 65> H    0.04811054    2.80642986    0.04341968
| 66> N    1.11592628    1.02759107    0.13516893
| 67> H    1.99665515    1.49727976    0.26162029
| 68> C    1.17534700   -0.35380470    0.17616616
| 69> O    2.21463146   -0.96646542    0.33517250
| 70> C    0.70842545   -0.17222230    3.28707670
| 71> H    1.70424372   -0.52620815    3.17285797
| 72> C   -0.43617864    0.21423539    3.39326854
| 73> H   -1.44106119    0.54293573    3.49363271
| 74> *
| 75>
| 76>
| 77>
| 78>
| 79>                          ****END OF INPUT****
 Total Charge           Charge          ....    0
 Multiplicity           Mult            ....    1
 Number of Electrons    NEL             ....   72
MP2 TOTAL ENERGY:     -490.878579063 Eh
FINAL SINGLE POINT ENERGY      -490.878579063365
MP2 TOTAL ENERGY:     -491.297200889 Eh
FINAL SINGLE POINT ENERGY      -491.297200889244

CARTESIAN COORDINATES (ANGSTROEM)
---------------------------------
  N     -0.055454   -0.947991    0.010010
  H     -0.057316   -1.957713    0.055053
  C     -1.313960   -0.335145   -0.064586
  O     -2.328897   -1.007901   -0.123103
  C     -1.248359    1.116052   -0.066509
  H     -2.164349    1.675333   -0.147102
  C     -0.053080    1.731427    0.034195
  H      0.048111    2.806430    0.043420
  N      1.115926    1.027591    0.135169
  H      1.996655    1.497280    0.261620
  C      1.175347   -0.353805    0.176166
  O      2.214631   -0.966465    0.335172
  C      0.708425   -0.172222    3.287077
  H      1.704244   -0.526208    3.172858
  C     -0.436179    0.214235    3.393269
  H     -1.441061    0.542936    3.493633

 Multiplicity           Mult            ....    1
 Number of Electrons    NEL             ....   72
 Basis Dimension        Dim             .... 1076

ORBITAL ENERGIES
----------------

  NO   OCC          E(Eh)            E(eV)
   0   2.0000     -20.543375      -559.0137
   1   2.0000     -20.536713      -558.8324
   2   2.0000     -15.639070      -425.5607
   3   2.0000     -15.621419      -425.0804
   4   2.0000     -11.415887      -310.6421
   5   2.0000     -11.376951      -309.5826
   6   2.0000     -11.336487      -308.4815
   7   2.0000     -11.251177      -306.1601
   8   2.0000     -11.249444      -306.1129
   9   2.0000     -11.245768      -306.0129
  10   2.0000      -1.434036       -39.0221
  11   2.0000      -1.395224       -37.9660
  12   2.0000      -1.310624       -35.6639
  13   2.0000      -1.242817       -33.8188
  14   2.0000      -1.085222       -29.5304
  15   2.0000      -1.033398       -28.1202
  16   2.0000      -0.930691       -25.3254
  17   2.0000      -0.898752       -24.4563
  18   2.0000      -0.804461       -21.8905
  19   2.0000      -0.773375       -21.0446
  20   2.0000      -0.762794       -20.7567
  21   2.0000      -0.711688       -19.3660
  22   2.0000      -0.686283       -18.6747
  23   2.0000      -0.675796       -18.3893
  24   2.0000      -0.665841       -18.1185
  25   2.0000      -0.651331       -17.7236
  26   2.0000      -0.612847       -16.6764
  27   2.0000      -0.599496       -16.3131
  28   2.0000      -0.568447       -15.4682
  29   2.0000      -0.524273       -14.2662
  30   2.0000      -0.482970       -13.1423
  31   2.0000      -0.447704       -12.1827
  32   2.0000      -0.436367       -11.8741
  33   2.0000      -0.414535       -11.2801
  34   2.0000      -0.413393       -11.2490
  35   2.0000      -0.366489        -9.9727
  36   0.0000       0.013584         0.3696
  37   0.0000       0.027226         0.7408
  38   0.0000       0.034063         0.9269
  39   0.0000       0.037476         1.0198
  40   0.0000       0.043257         1.1771

MULLIKEN ATOMIC CHARGES
-----------------------
   0 N :   -0.687737
   1 H :    0.088082
   2 C :    1.248347
   3 O :   -0.854580
   4 C :   -0.505371
   5 H :    0.256745
   6 C :   -0.104189
   7 H :    0.431348
   8 N :   -0.621613
   9 H :    0.086706
  10 C :    1.530258
  11 O :   -0.854260
  12 C :   -0.542657
  13 H :    0.543517
  14 C :   -0.555487
  15 H :    0.540889
Sum of atomic charges:   -0.0000000

LOEWDIN ATOMIC CHARGES
----------------------
   0 N :    0.771064
   1 H :   -0.515561
   2 C :   -0.884861
   3 O :    0.686554
   4 C :    0.316293
   5 H :   -0.352293
   6 C :    0.220387
   7 H :   -0.294143
   8 N :    0.802434
   9 H :   -0.488918
  10 C :   -1.047385
  11 O :    0.696894
  12 C :    0.489350
  13 H :   -0.455538
  14 C :    0.506562
  15 H :   -0.450841

  Mayer bond orders larger than 0.100000
B(  0-N ,  1-H ) :   1.1744 B(  0-N ,  2-C ) :   0.9870 B(  0-N ,  3-O ) :   0.2082
B(  0-N , 10-C ) :   1.0301 B(  0-N , 11-O ) :   0.2116 B(  2-C ,  3-O ) :   0.9807
B(  2-C ,  4-C ) :   1.1417 B(  3-O ,  4-C ) :   0.2583 B(  4-C ,  5-H ) :   1.0415
B(  4-C ,  6-C ) :   1.4767 B(  6-C ,  7-H ) :   0.9046 B(  6-C ,  8-N ) :   0.9030
B(  8-N ,  9-H ) :   1.1668 B(  8-N , 10-C ) :   1.1046 B(  8-N , 11-O ) :   0.2004
B( 10-C , 11-O ) :   1.0247 B( 12-C , 13-H ) :   0.7185 B( 12-C , 14-C ) :   2.5557
B( 14-C , 15-H ) :   0.7319

MP2 TOTAL ENERGY:     -491.433580525 Eh
FINAL SINGLE POINT ENERGY      -491.433580524699

DIPOLE MOMENT
-------------
                                X             Y             Z
Electronic contribution:      0.38054      -1.89293      -2.55414
Nuclear contribution   :      0.12260       3.75849       2.61813
                        -----------------------------------------
Total Dipole Moment    :      0.50314       1.86557       0.06400
                        -----------------------------------------
Magnitude (a.u.)       :      1.93328
Magnitude (Debye)      :      4.91402

Rotational constants in cm-1:     0.049890     0.040667     0.034335
Rotational constants in MHz :  1495.653969  1219.151657  1029.340146

                             ****ORCA TERMINATED NORMALLY****
TOTAL RUN TIME: 0 days 2 hours 44 minutes 55 seconds 660 msec
