                         Program Version 5.0.4 -  RELEASE  -
|  1> ! ri-mp2 aug-cc-pvdz aug-cc-pvdz/c tightscf
|  2> %pal nprocs 16 end
|  3> %maxcore 3800
|  4> %base "DZ_S66by10_56_1.05_dimer"
|  5>
|  6> *xyz 0 1
|  7> C    0.69231523    1.08829204    0.32484124
|  8> H    1.28194880    1.99194678    0.25251578
|  9> C    1.31818722   -0.15687008    0.28689607
| 10> H    2.39314337   -0.21947636    0.18840681
| 11> C    0.55801841   -1.32195045    0.38139986
| 12> H    1.04391922   -2.28757380    0.35761542
| 13> C   -0.82755236   -1.24142187    0.51168501
| 14> H   -1.41670095   -2.14525152    0.58533927
| 15> C   -1.45341138    0.00367145    0.54838107
| 16> H   -2.52823255    0.06570272    0.64984254
| 17> C   -0.69346094    1.16840108    0.45622907
| 18> H   -1.17873534    2.13440989    0.48572685
| 19> N    0.25991949   -0.23673309    4.01316649
| 20> H    0.39453784   -0.19269259    3.01009513
| 21> H    0.40141206    0.70841365    4.34563876
| 22> C   -1.11617999   -0.64311650    4.29060228
| 23> H   -1.27405655   -0.67166351    5.36715781
| 24> H   -1.88748217   -0.00273571    3.85048328
| 25> H   -1.27087197   -1.65268430    3.91498058
| 26> *
| 27>
| 28> $new_job
| 29> ! ri-mp2 aug-cc-pvtz aug-cc-pvtz/c tightscf
| 30> %pal nprocs 16 end
| 31> %maxcore 3800
| 32> %base "TZ_S66by10_56_1.05_dimer"
| 33>
| 34> *xyz 0 1
| 35> C    0.69231523    1.08829204    0.32484124
| 36> H    1.28194880    1.99194678    0.25251578
| 37> C    1.31818722   -0.15687008    0.28689607
| 38> H    2.39314337   -0.21947636    0.18840681
| 39> C    0.55801841   -1.32195045    0.38139986
| 40> H    1.04391922   -2.28757380    0.35761542
| 41> C   -0.82755236   -1.24142187    0.51168501
| 42> H   -1.41670095   -2.14525152    0.58533927
| 43> C   -1.45341138    0.00367145    0.54838107
| 44> H   -2.52823255    0.06570272    0.64984254
| 45> C   -0.69346094    1.16840108    0.45622907
| 46> H   -1.17873534    2.13440989    0.48572685
| 47> N    0.25991949   -0.23673309    4.01316649
| 48> H    0.39453784   -0.19269259    3.01009513
| 49> H    0.40141206    0.70841365    4.34563876
| 50> C   -1.11617999   -0.64311650    4.29060228
| 51> H   -1.27405655   -0.67166351    5.36715781
| 52> H   -1.88748217   -0.00273571    3.85048328
| 53> H   -1.27087197   -1.65268430    3.91498058
| 54> *
| 55>
| 56> $new_job
| 57> ! ri-mp2 aug-cc-pvqz aug-cc-pvqz/c tightscf
| 58> %pal nprocs 16 end
| 59> %maxcore 3800
| 60> %base "QZ_S66by10_56_1.05_dimer"
| 61>
| 62> *xyz 0 1
| 63> C    0.69231523    1.08829204    0.32484124
| 64> H    1.28194880    1.99194678    0.25251578
| 65> C    1.31818722   -0.15687008    0.28689607
| 66> H    2.39314337   -0.21947636    0.18840681
| 67> C    0.55801841   -1.32195045    0.38139986
| 68> H    1.04391922   -2.28757380    0.35761542
| 69> C   -0.82755236   -1.24142187    0.51168501
| 70> H   -1.41670095   -2.14525152    0.58533927
| 71> C   -1.45341138    0.00367145    0.54838107
| 72> H   -2.52823255    0.06570272    0.64984254
| 73> C   -0.69346094    1.16840108    0.45622907
| 74> H   -1.17873534    2.13440989    0.48572685
| 75> N    0.25991949   -0.23673309    4.01316649
| 76> H    0.39453784   -0.19269259    3.01009513
| 77> H    0.40141206    0.70841365    4.34563876
| 78> C   -1.11617999   -0.64311650    4.29060228
| 79> H   -1.27405655   -0.67166351    5.36715781
| 80> H   -1.88748217   -0.00273571    3.85048328
| 81> H   -1.27087197   -1.65268430    3.91498058
| 82> *
| 83>
| 84>
| 85>
| 86>
| 87>                          ****END OF INPUT****
 Total Charge           Charge          ....    0
 Multiplicity           Mult            ....    1
 Number of Electrons    NEL             ....   60
MP2 TOTAL ENERGY:     -327.119994610 Eh
FINAL SINGLE POINT ENERGY      -327.119994610072
MP2 TOTAL ENERGY:     -327.418609111 Eh
FINAL SINGLE POINT ENERGY      -327.418609110763

CARTESIAN COORDINATES (ANGSTROEM)
---------------------------------
  C      0.692315    1.088292    0.324841
  H      1.281949    1.991947    0.252516
  C      1.318187   -0.156870    0.286896
  H      2.393143   -0.219476    0.188407
  C      0.558018   -1.321950    0.381400
  H      1.043919   -2.287574    0.357615
  C     -0.827552   -1.241422    0.511685
  H     -1.416701   -2.145252    0.585339
  C     -1.453411    0.003671    0.548381
  H     -2.528233    0.065703    0.649843
  C     -0.693461    1.168401    0.456229
  H     -1.178735    2.134410    0.485727
  N      0.259919   -0.236733    4.013166
  H      0.394538   -0.192693    3.010095
  H      0.401412    0.708414    4.345639
  C     -1.116180   -0.643116    4.290602
  H     -1.274057   -0.671664    5.367158
  H     -1.887482   -0.002736    3.850483
  H     -1.270872   -1.652684    3.914981

 Multiplicity           Mult            ....    1
 Number of Electrons    NEL             ....   60
 Basis Dimension        Dim             .... 1146

ORBITAL ENERGIES
----------------

  NO   OCC          E(Eh)            E(eV)
   0   2.0000     -15.524397      -422.4403
   1   2.0000     -11.241163      -305.8876
   2   2.0000     -11.240499      -305.8695
   3   2.0000     -11.240398      -305.8668
   4   2.0000     -11.239328      -305.8377
   5   2.0000     -11.239163      -305.8332
   6   2.0000     -11.238524      -305.8158
   7   2.0000     -11.229486      -305.5699
   8   2.0000      -1.159975       -31.5645
   9   2.0000      -1.155398       -31.4400
  10   2.0000      -1.020697       -27.7746
  11   2.0000      -1.020610       -27.7722
  12   2.0000      -0.885125       -24.0855
  13   2.0000      -0.829840       -22.5811
  14   2.0000      -0.829780       -22.5795
  15   2.0000      -0.715580       -19.4719
  16   2.0000      -0.650435       -17.6992
  17   2.0000      -0.649641       -17.6776
  18   2.0000      -0.624977       -17.0065
  19   2.0000      -0.595105       -16.1936
  20   2.0000      -0.593922       -16.1614
  21   2.0000      -0.593334       -16.1454
  22   2.0000      -0.544591       -14.8191
  23   2.0000      -0.511465       -13.9177
  24   2.0000      -0.502354       -13.6698
  25   2.0000      -0.500618       -13.6225
  26   2.0000      -0.500568       -13.6212
  27   2.0000      -0.382308       -10.4031
  28   2.0000      -0.343707        -9.3527
  29   2.0000      -0.343495        -9.3470
  30   0.0000       0.023822         0.6482
  31   0.0000       0.028842         0.7848
  32   0.0000       0.029965         0.8154
  33   0.0000       0.037366         1.0168
  34   0.0000       0.041460         1.1282

MULLIKEN ATOMIC CHARGES
-----------------------
   0 C :   -0.318993
   1 H :    0.351907
   2 C :   -0.322922
   3 H :    0.306287
   4 C :   -0.279010
   5 H :    0.305897
   6 C :   -0.378824
   7 H :    0.324332
   8 C :   -0.330622
   9 H :    0.283395
  10 C :   -0.301422
  11 H :    0.323280
  12 N :   -0.734161
  13 H :    0.398976
  14 H :    0.248813
  15 C :   -0.867134
  16 H :    0.436072
  17 H :    0.268231
  18 H :    0.285895
Sum of atomic charges:   -0.0000000

LOEWDIN ATOMIC CHARGES
----------------------
   0 C :    0.329320
   1 H :   -0.322477
   2 C :    0.329057
   3 H :   -0.320645
   4 C :    0.328423
   5 H :   -0.319042
   6 C :    0.321383
   7 H :   -0.319429
   8 C :    0.318895
   9 H :   -0.320558
  10 C :    0.328138
  11 H :   -0.322272
  12 N :    1.265562
  13 H :   -0.596131
  14 H :   -0.518867
  15 C :    0.739506
  16 H :   -0.311500
  17 H :   -0.295021
  18 H :   -0.314342

  Mayer bond orders larger than 0.100000
B(  0-C ,  1-H ) :   1.0149 B(  0-C ,  2-C ) :   1.1479 B(  0-C ,  6-C ) :   0.1313
B(  0-C , 10-C ) :   1.2221 B(  2-C ,  3-H ) :   1.0713 B(  2-C ,  4-C ) :   1.2208
B(  2-C ,  8-C ) :   0.1143 B(  4-C ,  5-H ) :   1.0656 B(  4-C ,  6-C ) :   1.2353
B(  4-C , 10-C ) :   0.2040 B(  6-C ,  7-H ) :   1.0338 B(  6-C ,  8-C ) :   1.1786
B(  8-C ,  9-H ) :   1.0674 B(  8-C , 10-C ) :   1.2357 B( 10-C , 11-H ) :   1.0277
B( 12-N , 13-H ) :   0.7781 B( 12-N , 14-H ) :   0.9245 B( 12-N , 15-C ) :   1.0067
B( 15-C , 16-H ) :   0.7998 B( 15-C , 17-H ) :   0.9131 B( 15-C , 18-H ) :   0.9214

MP2 TOTAL ENERGY:     -327.511802158 Eh
FINAL SINGLE POINT ENERGY      -327.511802157860

DIPOLE MOMENT
-------------
                                X             Y             Z
Electronic contribution:      1.69341       0.70683      -6.75988
Nuclear contribution   :     -2.01984      -0.34929       6.37264
                        -----------------------------------------
Total Dipole Moment    :     -0.32643       0.35754      -0.38724
                        -----------------------------------------
Magnitude (a.u.)       :      0.61996
Magnitude (Debye)      :      1.57580

Rotational constants in cm-1:     0.088472     0.040682     0.039775
Rotational constants in MHz :  2652.326838  1219.618323  1192.419526

                             ****ORCA TERMINATED NORMALLY****
TOTAL RUN TIME: 0 days 0 hours 31 minutes 37 seconds 102 msec
