                         Program Version 5.0.4 -  RELEASE  -
|  1> ! ri-mp2 aug-cc-pvdz aug-cc-pvdz/c tightscf
|  2> %pal nprocs 16 end
|  3> %maxcore 3800
|  4> %base "DZ_S66by10_38_1.1_dimer"
|  5> %scf STABPerform true end
|  6>
|  7> *xyz 0 1
|  8> C    0.95688019   -0.89184563    1.14195000
|  9> H    1.50456597   -1.27835762    0.28342019
| 10> H    1.42138447   -1.31477793    2.03102546
| 11> C    0.99094943    0.65850830    1.14550384
| 12> H    1.51059446    1.02309646    0.25994788
| 13> H    1.51625823    1.05981813    2.01053703
| 14> C   -0.47945194    1.10231879    1.10387910
| 15> H   -0.61626861    2.06487722    0.61356737
| 16> H   -0.87474223    1.18907144    2.11806960
| 17> C   -1.18210650   -0.05279656    0.39334575
| 18> H   -0.94888216   -0.02683030   -0.67380459
| 19> H   -2.26566452   -0.03356474    0.50127403
| 20> C   -0.53065958   -1.27488954    1.03930959
| 21> H   -0.69039061   -2.19702093    0.48299221
| 22> H   -0.95084939   -1.41541197    2.03674782
| 23> C   -1.12507597   -0.37002998    5.37142377
| 24> H   -1.45821047   -0.13333137    4.35883940
| 25> H   -1.92986437   -0.91312845    5.86441027
| 26> C    0.18853048   -1.16557490    5.32366257
| 27> H    0.23847542   -1.82331759    4.45752875
| 28> H    0.26881810   -1.79693253    6.20804786
| 29> C    1.31784571   -0.10286907    5.32425866
| 30> H    1.93911066   -0.16354792    4.43238504
| 31> H    1.97525520   -0.25275211    6.17966383
| 32> C    0.60767234    1.25879968    5.43212550
| 33> H    0.42780916    1.66729146    4.43612637
| 34> H    1.18805629    1.99320318    5.98809876
| 35> C   -0.73438013    0.92432724    6.08193736
| 36> H   -1.47404869    1.71683901    5.97705606
| 37> H   -0.59434020    0.73268719    7.14848632
| 38> *
| 39>
| 40> $new_job
| 41> ! ri-mp2 aug-cc-pvtz aug-cc-pvtz/c tightscf
| 42> %pal nprocs 16 end
| 43> %maxcore 3800
| 44> %base "TZ_S66by10_38_1.1_dimer"
| 45>
| 46> *xyz 0 1
| 47> C    0.95688019   -0.89184563    1.14195000
| 48> H    1.50456597   -1.27835762    0.28342019
| 49> H    1.42138447   -1.31477793    2.03102546
| 50> C    0.99094943    0.65850830    1.14550384
| 51> H    1.51059446    1.02309646    0.25994788
| 52> H    1.51625823    1.05981813    2.01053703
| 53> C   -0.47945194    1.10231879    1.10387910
| 54> H   -0.61626861    2.06487722    0.61356737
| 55> H   -0.87474223    1.18907144    2.11806960
| 56> C   -1.18210650   -0.05279656    0.39334575
| 57> H   -0.94888216   -0.02683030   -0.67380459
| 58> H   -2.26566452   -0.03356474    0.50127403
| 59> C   -0.53065958   -1.27488954    1.03930959
| 60> H   -0.69039061   -2.19702093    0.48299221
| 61> H   -0.95084939   -1.41541197    2.03674782
| 62> C   -1.12507597   -0.37002998    5.37142377
| 63> H   -1.45821047   -0.13333137    4.35883940
| 64> H   -1.92986437   -0.91312845    5.86441027
| 65> C    0.18853048   -1.16557490    5.32366257
| 66> H    0.23847542   -1.82331759    4.45752875
| 67> H    0.26881810   -1.79693253    6.20804786
| 68> C    1.31784571   -0.10286907    5.32425866
| 69> H    1.93911066   -0.16354792    4.43238504
| 70> H    1.97525520   -0.25275211    6.17966383
| 71> C    0.60767234    1.25879968    5.43212550
| 72> H    0.42780916    1.66729146    4.43612637
| 73> H    1.18805629    1.99320318    5.98809876
| 74> C   -0.73438013    0.92432724    6.08193736
| 75> H   -1.47404869    1.71683901    5.97705606
| 76> H   -0.59434020    0.73268719    7.14848632
| 77> *
| 78>
| 79> $new_job
| 80> ! ri-mp2 aug-cc-pvqz aug-cc-pvqz/c tightscf
| 81> %pal nprocs 16 end
| 82> %maxcore 3800
| 83> %base "QZ_S66by10_38_1.1_dimer"
| 84>
| 85> *xyz 0 1
| 86> C    0.95688019   -0.89184563    1.14195000
| 87> H    1.50456597   -1.27835762    0.28342019
| 88> H    1.42138447   -1.31477793    2.03102546
| 89> C    0.99094943    0.65850830    1.14550384
| 90> H    1.51059446    1.02309646    0.25994788
| 91> H    1.51625823    1.05981813    2.01053703
| 92> C   -0.47945194    1.10231879    1.10387910
| 93> H   -0.61626861    2.06487722    0.61356737
| 94> H   -0.87474223    1.18907144    2.11806960
| 95> C   -1.18210650   -0.05279656    0.39334575
| 96> H   -0.94888216   -0.02683030   -0.67380459
| 97> H   -2.26566452   -0.03356474    0.50127403
| 98> C   -0.53065958   -1.27488954    1.03930959
| 99> H   -0.69039061   -2.19702093    0.48299221
|100> H   -0.95084939   -1.41541197    2.03674782
|101> C   -1.12507597   -0.37002998    5.37142377
|102> H   -1.45821047   -0.13333137    4.35883940
|103> H   -1.92986437   -0.91312845    5.86441027
|104> C    0.18853048   -1.16557490    5.32366257
|105> H    0.23847542   -1.82331759    4.45752875
|106> H    0.26881810   -1.79693253    6.20804786
|107> C    1.31784571   -0.10286907    5.32425866
|108> H    1.93911066   -0.16354792    4.43238504
|109> H    1.97525520   -0.25275211    6.17966383
|110> C    0.60767234    1.25879968    5.43212550
|111> H    0.42780916    1.66729146    4.43612637
|112> H    1.18805629    1.99320318    5.98809876
|113> C   -0.73438013    0.92432724    6.08193736
|114> H   -1.47404869    1.71683901    5.97705606
|115> H   -0.59434020    0.73268719    7.14848632
|116> *
|117>
|118>
|119>
|120>
|121>                          ****END OF INPUT****
 Total Charge           Charge          ....    0
 Multiplicity           Mult            ....    1
 Number of Electrons    NEL             ....   80
MP2 TOTAL ENERGY:     -391.850514295 Eh
FINAL SINGLE POINT ENERGY      -391.850514295200
MP2 TOTAL ENERGY:     -392.227173923 Eh
FINAL SINGLE POINT ENERGY      -392.227173922577

CARTESIAN COORDINATES (ANGSTROEM)
---------------------------------
  C      0.956880   -0.891846    1.141950
  H      1.504566   -1.278358    0.283420
  H      1.421384   -1.314778    2.031025
  C      0.990949    0.658508    1.145504
  H      1.510594    1.023096    0.259948
  H      1.516258    1.059818    2.010537
  C     -0.479452    1.102319    1.103879
  H     -0.616269    2.064877    0.613567
  H     -0.874742    1.189071    2.118070
  C     -1.182106   -0.052797    0.393346
  H     -0.948882   -0.026830   -0.673805
  H     -2.265665   -0.033565    0.501274
  C     -0.530660   -1.274890    1.039310
  H     -0.690391   -2.197021    0.482992
  H     -0.950849   -1.415412    2.036748
  C     -1.125076   -0.370030    5.371424
  H     -1.458210   -0.133331    4.358839
  H     -1.929864   -0.913128    5.864410
  C      0.188530   -1.165575    5.323663
  H      0.238475   -1.823318    4.457529
  H      0.268818   -1.796933    6.208048
  C      1.317846   -0.102869    5.324259
  H      1.939111   -0.163548    4.432385
  H      1.975255   -0.252752    6.179664
  C      0.607672    1.258800    5.432125
  H      0.427809    1.667291    4.436126
  H      1.188056    1.993203    5.988099
  C     -0.734380    0.924327    6.081937
  H     -1.474049    1.716839    5.977056
  H     -0.594340    0.732687    7.148486

 Multiplicity           Mult            ....    1
 Number of Electrons    NEL             ....   80
 Basis Dimension        Dim             .... 1720

ORBITAL ENERGIES
----------------

  NO   OCC          E(Eh)            E(eV)
   0   2.0000     -11.209948      -305.0382
   1   2.0000     -11.209944      -305.0381
   2   2.0000     -11.209564      -305.0277
   3   2.0000     -11.209560      -305.0276
   4   2.0000     -11.209484      -305.0256
   5   2.0000     -11.209481      -305.0255
   6   2.0000     -11.208933      -305.0106
   7   2.0000     -11.208930      -305.0105
   8   2.0000     -11.208716      -305.0047
   9   2.0000     -11.208714      -305.0046
  10   2.0000      -1.117423       -30.4066
  11   2.0000      -1.116129       -30.3714
  12   2.0000      -0.958082       -26.0707
  13   2.0000      -0.957350       -26.0508
  14   2.0000      -0.956250       -26.0209
  15   2.0000      -0.955544       -26.0017
  16   2.0000      -0.779208       -21.2033
  17   2.0000      -0.776218       -21.1220
  18   2.0000      -0.767868       -20.8947
  19   2.0000      -0.767838       -20.8939
  20   2.0000      -0.656333       -17.8597
  21   2.0000      -0.647317       -17.6144
  22   2.0000      -0.646344       -17.5879
  23   2.0000      -0.642404       -17.4807
  24   2.0000      -0.574595       -15.6355
  25   2.0000      -0.574434       -15.6311
  26   2.0000      -0.566716       -15.4211
  27   2.0000      -0.563852       -15.3432
  28   2.0000      -0.476877       -12.9765
  29   2.0000      -0.476813       -12.9747
  30   2.0000      -0.475600       -12.9417
  31   2.0000      -0.473544       -12.8858
  32   2.0000      -0.466170       -12.6851
  33   2.0000      -0.464388       -12.6366
  34   2.0000      -0.464282       -12.6338
  35   2.0000      -0.460061       -12.5189
  36   2.0000      -0.459649       -12.5077
  37   2.0000      -0.455815       -12.4033
  38   2.0000      -0.449818       -12.2402
  39   2.0000      -0.449358       -12.2277
  40   0.0000       0.024247         0.6598
  41   0.0000       0.028412         0.7731
  42   0.0000       0.029395         0.7999
  43   0.0000       0.030654         0.8341
  44   0.0000       0.039093         1.0638

MULLIKEN ATOMIC CHARGES
-----------------------
   0 C :   -0.613004
   1 H :    0.303927
   2 H :    0.318682
   3 C :   -0.617407
   4 H :    0.293617
   5 H :    0.359222
   6 C :   -0.730606
   7 H :    0.347388
   8 H :    0.357566
   9 C :   -0.540275
  10 H :    0.228100
  11 H :    0.330923
  12 C :   -0.713691
  13 H :    0.337870
  14 H :    0.337704
  15 C :   -0.730654
  16 H :    0.357631
  17 H :    0.347578
  18 C :   -0.617511
  19 H :    0.358923
  20 H :    0.293646
  21 C :   -0.612779
  22 H :    0.318560
  23 H :    0.304053
  24 C :   -0.713721
  25 H :    0.337596
  26 H :    0.338064
  27 C :   -0.540357
  28 H :    0.330821
  29 H :    0.228135
Sum of atomic charges:   -0.0000000

LOEWDIN ATOMIC CHARGES
----------------------
   0 C :    0.548233
   1 H :   -0.267323
   2 H :   -0.276650
   3 C :    0.545410
   4 H :   -0.267742
   5 H :   -0.274236
   6 C :    0.524602
   7 H :   -0.253220
   8 H :   -0.281666
   9 C :    0.527483
  10 H :   -0.261433
  11 H :   -0.253869
  12 C :    0.527851
  13 H :   -0.254437
  14 H :   -0.283005
  15 C :    0.524606
  16 H :   -0.281667
  17 H :   -0.253240
  18 C :    0.545400
  19 H :   -0.274208
  20 H :   -0.267734
  21 C :    0.548264
  22 H :   -0.276706
  23 H :   -0.267345
  24 C :    0.527911
  25 H :   -0.282950
  26 H :   -0.254499
  27 C :    0.527484
  28 H :   -0.253886
  29 H :   -0.261429

  Mayer bond orders larger than 0.100000
B(  0-C ,  1-H ) :   0.9165 B(  0-C ,  2-H ) :   0.8665 B(  0-C ,  3-C ) :   1.0007
B(  0-C ,  9-C ) :  -0.1077 B(  0-C , 12-C ) :   0.9833 B(  3-C ,  4-H ) :   0.9368
B(  3-C ,  5-H ) :   0.8158 B(  3-C ,  6-C ) :   0.9791 B(  3-C ,  9-C ) :  -0.1113
B(  6-C ,  7-H ) :   0.8545 B(  6-C ,  8-H ) :   0.8310 B(  6-C ,  9-C ) :   1.0211
B(  9-C , 10-H ) :   0.9510 B(  9-C , 11-H ) :   0.8237 B(  9-C , 12-C ) :   1.0135
B( 12-C , 13-H ) :   0.8652 B( 12-C , 14-H ) :   0.8370 B( 15-C , 16-H ) :   0.8309
B( 15-C , 17-H ) :   0.8544 B( 15-C , 18-C ) :   0.9790 B( 15-C , 27-C ) :   1.0209
B( 18-C , 19-H ) :   0.8161 B( 18-C , 20-H ) :   0.9367 B( 18-C , 21-C ) :   1.0007
B( 18-C , 27-C ) :  -0.1112 B( 21-C , 22-H ) :   0.8665 B( 21-C , 23-H ) :   0.9164
B( 21-C , 24-C ) :   0.9832 B( 21-C , 27-C ) :  -0.1077 B( 24-C , 25-H ) :   0.8370
B( 24-C , 26-H ) :   0.8650 B( 24-C , 27-C ) :   1.0134 B( 27-C , 28-H ) :   0.8238
B( 27-C , 29-H ) :   0.9511

MP2 TOTAL ENERGY:     -392.340512086 Eh
FINAL SINGLE POINT ENERGY      -392.340512085811

DIPOLE MOMENT
-------------
                                X             Y             Z
Electronic contribution:     -0.14286       0.06343       0.00033
Nuclear contribution   :      0.13388      -0.05944      -0.00030
                        -----------------------------------------
Total Dipole Moment    :     -0.00898       0.00400       0.00003
                        -----------------------------------------
Magnitude (a.u.)       :      0.00983
Magnitude (Debye)      :      0.02498

Rotational constants in cm-1:     0.065517     0.019102     0.019055
Rotational constants in MHz :  1964.149079   572.668710   571.243285

                             ****ORCA TERMINATED NORMALLY****
TOTAL RUN TIME: 0 days 16 hours 24 minutes 1 seconds 7 msec
