                         Program Version 5.0.4 -  RELEASE  -
|  1> ! ri-mp2 aug-cc-pvdz aug-cc-pvdz/c tightscf
|  2> %pal nprocs 16 end
|  3> %maxcore 3800
|  4> %base "DZ_S66by10_31_0.8_dimer"
|  5> %scf STABPerform true end
|  6>
|  7> *xyz 0 1
|  8> N   -0.05087365   -0.98008127    0.03396219
|  9> H   -0.05322205   -1.99069374    0.04982167
| 10> C   -1.30881316   -0.36187638    0.00402596
| 11> O   -2.32722000   -1.03255492   -0.00582886
| 12> C   -1.23681849    1.08804829   -0.01222440
| 13> H   -2.15273897    1.65146044   -0.05477443
| 14> C   -0.03519433    1.69783584    0.03370483
| 15> H    0.07036636    2.77247575    0.03188224
| 16> N    1.13452913    0.99028251    0.09184461
| 17> H    2.02372032    1.45677218    0.15569277
| 18> C    1.19318599   -0.39183287    0.11577512
| 19> O    2.23639797   -1.01118826    0.19418562
| 20> C    0.71031784    0.00508588    2.81269124
| 21> H    1.22743558   -0.86590201    2.43546465
| 22> H    1.31592884    0.79207993    3.24000558
| 23> C   -0.61845866    0.10567633    2.76344431
| 24> H   -1.23046155   -0.68180326    2.34654359
| 25> H   -1.13028365    0.97674592    3.14744408
| 26> *
| 27>
| 28> $new_job
| 29> ! ri-mp2 aug-cc-pvtz aug-cc-pvtz/c tightscf
| 30> %pal nprocs 16 end
| 31> %maxcore 3800
| 32> %base "TZ_S66by10_31_0.8_dimer"
| 33>
| 34> *xyz 0 1
| 35> N   -0.05087365   -0.98008127    0.03396219
| 36> H   -0.05322205   -1.99069374    0.04982167
| 37> C   -1.30881316   -0.36187638    0.00402596
| 38> O   -2.32722000   -1.03255492   -0.00582886
| 39> C   -1.23681849    1.08804829   -0.01222440
| 40> H   -2.15273897    1.65146044   -0.05477443
| 41> C   -0.03519433    1.69783584    0.03370483
| 42> H    0.07036636    2.77247575    0.03188224
| 43> N    1.13452913    0.99028251    0.09184461
| 44> H    2.02372032    1.45677218    0.15569277
| 45> C    1.19318599   -0.39183287    0.11577512
| 46> O    2.23639797   -1.01118826    0.19418562
| 47> C    0.71031784    0.00508588    2.81269124
| 48> H    1.22743558   -0.86590201    2.43546465
| 49> H    1.31592884    0.79207993    3.24000558
| 50> C   -0.61845866    0.10567633    2.76344431
| 51> H   -1.23046155   -0.68180326    2.34654359
| 52> H   -1.13028365    0.97674592    3.14744408
| 53> *
| 54>
| 55> $new_job
| 56> ! ri-mp2 aug-cc-pvqz aug-cc-pvqz/c tightscf
| 57> %pal nprocs 16 end
| 58> %maxcore 3800
| 59> %base "QZ_S66by10_31_0.8_dimer"
| 60>
| 61> *xyz 0 1
| 62> N   -0.05087365   -0.98008127    0.03396219
| 63> H   -0.05322205   -1.99069374    0.04982167
| 64> C   -1.30881316   -0.36187638    0.00402596
| 65> O   -2.32722000   -1.03255492   -0.00582886
| 66> C   -1.23681849    1.08804829   -0.01222440
| 67> H   -2.15273897    1.65146044   -0.05477443
| 68> C   -0.03519433    1.69783584    0.03370483
| 69> H    0.07036636    2.77247575    0.03188224
| 70> N    1.13452913    0.99028251    0.09184461
| 71> H    2.02372032    1.45677218    0.15569277
| 72> C    1.19318599   -0.39183287    0.11577512
| 73> O    2.23639797   -1.01118826    0.19418562
| 74> C    0.71031784    0.00508588    2.81269124
| 75> H    1.22743558   -0.86590201    2.43546465
| 76> H    1.31592884    0.79207993    3.24000558
| 77> C   -0.61845866    0.10567633    2.76344431
| 78> H   -1.23046155   -0.68180326    2.34654359
| 79> H   -1.13028365    0.97674592    3.14744408
| 80> *
| 81>
| 82>
| 83>
| 84>
| 85>                          ****END OF INPUT****
 Total Charge           Charge          ....    0
 Multiplicity           Mult            ....    1
 Number of Electrons    NEL             ....   74
MP2 TOTAL ENERGY:     -492.108989517 Eh
FINAL SINGLE POINT ENERGY      -492.108989516920
MP2 TOTAL ENERGY:     -492.531128553 Eh
FINAL SINGLE POINT ENERGY      -492.531128552713

CARTESIAN COORDINATES (ANGSTROEM)
---------------------------------
  N     -0.050874   -0.980081    0.033962
  H     -0.053222   -1.990694    0.049822
  C     -1.308813   -0.361876    0.004026
  O     -2.327220   -1.032555   -0.005829
  C     -1.236818    1.088048   -0.012224
  H     -2.152739    1.651460   -0.054774
  C     -0.035194    1.697836    0.033705
  H      0.070366    2.772476    0.031882
  N      1.134529    0.990283    0.091845
  H      2.023720    1.456772    0.155693
  C      1.193186   -0.391833    0.115775
  O      2.236398   -1.011188    0.194186
  C      0.710318    0.005086    2.812691
  H      1.227436   -0.865902    2.435465
  H      1.315929    0.792080    3.240006
  C     -0.618459    0.105676    2.763444
  H     -1.230462   -0.681803    2.346544
  H     -1.130284    0.976746    3.147444

 Multiplicity           Mult            ....    1
 Number of Electrons    NEL             ....   74
 Basis Dimension        Dim             .... 1168

ORBITAL ENERGIES
----------------

  NO   OCC          E(Eh)            E(eV)
   0   2.0000     -20.542650      -558.9939
   1   2.0000     -20.538581      -558.8832
   2   2.0000     -15.639619      -425.5757
   3   2.0000     -15.621153      -425.0732
   4   2.0000     -11.416405      -310.6562
   5   2.0000     -11.378833      -309.6338
   6   2.0000     -11.335640      -308.4585
   7   2.0000     -11.251447      -306.1674
   8   2.0000     -11.230349      -305.5933
   9   2.0000     -11.227626      -305.5192
  10   2.0000      -1.435254       -39.0552
  11   2.0000      -1.397772       -38.0353
  12   2.0000      -1.311364       -35.6840
  13   2.0000      -1.243970       -33.8502
  14   2.0000      -1.086301       -29.5597
  15   2.0000      -1.040609       -28.3164
  16   2.0000      -0.931645       -25.3514
  17   2.0000      -0.900340       -24.4995
  18   2.0000      -0.805495       -21.9186
  19   2.0000      -0.800517       -21.7832
  20   2.0000      -0.763746       -20.7826
  21   2.0000      -0.712304       -19.3828
  22   2.0000      -0.683939       -18.6109
  23   2.0000      -0.676806       -18.4168
  24   2.0000      -0.651955       -17.7406
  25   2.0000      -0.639688       -17.4068
  26   2.0000      -0.613929       -16.7059
  27   2.0000      -0.600617       -16.3436
  28   2.0000      -0.590789       -16.0762
  29   2.0000      -0.573066       -15.5939
  30   2.0000      -0.527231       -14.3467
  31   2.0000      -0.504339       -13.7238
  32   2.0000      -0.483239       -13.1496
  33   2.0000      -0.449333       -12.2270
  34   2.0000      -0.439084       -11.9481
  35   2.0000      -0.381977       -10.3941
  36   2.0000      -0.362778        -9.8717
  37   0.0000       0.012352         0.3361
  38   0.0000       0.028502         0.7756
  39   0.0000       0.033151         0.9021
  40   0.0000       0.036161         0.9840
  41   0.0000       0.044798         1.2190

MULLIKEN ATOMIC CHARGES
-----------------------
   0 N :   -0.666565
   1 H :    0.044465
   2 C :    1.444966
   3 O :   -0.923619
   4 C :   -0.509569
   5 H :    0.217825
   6 C :   -0.131827
   7 H :    0.403864
   8 N :   -0.627023
   9 H :    0.057180
  10 C :    1.703716
  11 O :   -0.918402
  12 C :   -0.721929
  13 H :    0.347620
  14 H :    0.317815
  15 C :   -0.723805
  16 H :    0.379515
  17 H :    0.305773
Sum of atomic charges:    0.0000000

LOEWDIN ATOMIC CHARGES
----------------------
   0 N :    0.778847
   1 H :   -0.498130
   2 C :   -0.918508
   3 O :    0.714651
   4 C :    0.317122
   5 H :   -0.338896
   6 C :    0.226269
   7 H :   -0.287207
   8 N :    0.812278
   9 H :   -0.478622
  10 C :   -1.057584
  11 O :    0.730005
  12 C :    0.734320
  13 H :   -0.411595
  14 H :   -0.329100
  15 C :    0.735272
  16 H :   -0.402091
  17 H :   -0.327029

  Mayer bond orders larger than 0.100000
B(  0-N ,  1-H ) :   1.2052 B(  0-N ,  2-C ) :   0.9573 B(  0-N ,  3-O ) :   0.2362
B(  0-N , 10-C ) :   1.0662 B(  0-N , 11-O ) :   0.2333 B(  2-C ,  3-O ) :   0.8568
B(  2-C ,  4-C ) :   1.0623 B(  3-O ,  4-C ) :   0.2495 B(  4-C ,  5-H ) :   1.0810
B(  4-C ,  6-C ) :   1.4711 B(  6-C ,  7-H ) :   0.9522 B(  6-C ,  8-N ) :   0.9370
B(  8-N ,  9-H ) :   1.1856 B(  8-N , 10-C ) :   1.0221 B(  8-N , 11-O ) :   0.2375
B( 10-C , 11-O ) :   0.8298 B( 12-C , 13-H ) :   0.8443 B( 12-C , 14-H ) :   0.9215
B( 12-C , 15-C ) :   1.9817 B( 15-C , 16-H ) :   0.8267 B( 15-C , 17-H ) :   0.9386

MP2 TOTAL ENERGY:     -492.668514691 Eh
FINAL SINGLE POINT ENERGY      -492.668514691083

DIPOLE MOMENT
-------------
                                X             Y             Z
Electronic contribution:      0.34033      -2.04671      -6.07903
Nuclear contribution   :      0.16612       3.97068       6.08277
                        -----------------------------------------
Total Dipole Moment    :      0.50645       1.92397       0.00374
                        -----------------------------------------
Magnitude (a.u.)       :      1.98951
Magnitude (Debye)      :      5.05694

Rotational constants in cm-1:     0.056539     0.042082     0.038717
Rotational constants in MHz :  1695.009668  1261.586427  1160.692832

                             ****ORCA TERMINATED NORMALLY****
TOTAL RUN TIME: 0 days 3 hours 58 minutes 50 seconds 578 msec
