                         Program Version 5.0.4 -  RELEASE  -
|  1> ! ri-mp2 aug-cc-pvdz aug-cc-pvdz/c tightscf
|  2> %pal nprocs 16 end
|  3> %maxcore 3800
|  4> %base "DZ_S66by10_54_0.9_dimer"
|  5>
|  6> *xyz 0 1
|  7> C    0.78014717   -0.60991473   -1.20755689
|  8> H    0.89619160   -1.13763959   -2.14414463
|  9> C    0.47794275    0.75099363   -1.20789541
| 10> H    0.35696423    1.27816780   -2.14405407
| 11> C    0.32728928    1.43186787   -0.00000000
| 12> H    0.09146503    2.48713922    0.00000000
| 13> C    0.47794275    0.75099363    1.20789541
| 14> H    0.35696423    1.27816780    2.14405407
| 15> C    0.78014717   -0.60991473    1.20755689
| 16> H    0.89619160   -1.13763959    2.14414463
| 17> C    0.93164831   -1.28998134    0.00000000
| 18> H    1.16848573   -2.34521369   -0.00000000
| 19> O   -2.49973020   -0.24186309    0.00000000
| 20> H   -2.33492620   -1.18658462    0.00000000
| 21> H   -1.61242925    0.12972723    0.00000000
| 22> *
| 23>
| 24> $new_job
| 25> ! ri-mp2 aug-cc-pvtz aug-cc-pvtz/c tightscf
| 26> %pal nprocs 16 end
| 27> %maxcore 3800
| 28> %base "TZ_S66by10_54_0.9_dimer"
| 29>
| 30> *xyz 0 1
| 31> C    0.78014717   -0.60991473   -1.20755689
| 32> H    0.89619160   -1.13763959   -2.14414463
| 33> C    0.47794275    0.75099363   -1.20789541
| 34> H    0.35696423    1.27816780   -2.14405407
| 35> C    0.32728928    1.43186787   -0.00000000
| 36> H    0.09146503    2.48713922    0.00000000
| 37> C    0.47794275    0.75099363    1.20789541
| 38> H    0.35696423    1.27816780    2.14405407
| 39> C    0.78014717   -0.60991473    1.20755689
| 40> H    0.89619160   -1.13763959    2.14414463
| 41> C    0.93164831   -1.28998134    0.00000000
| 42> H    1.16848573   -2.34521369   -0.00000000
| 43> O   -2.49973020   -0.24186309    0.00000000
| 44> H   -2.33492620   -1.18658462    0.00000000
| 45> H   -1.61242925    0.12972723    0.00000000
| 46> *
| 47>
| 48> $new_job
| 49> ! ri-mp2 aug-cc-pvqz aug-cc-pvqz/c tightscf
| 50> %pal nprocs 16 end
| 51> %maxcore 3800
| 52> %base "QZ_S66by10_54_0.9_dimer"
| 53>
| 54> *xyz 0 1
| 55> C    0.78014717   -0.60991473   -1.20755689
| 56> H    0.89619160   -1.13763959   -2.14414463
| 57> C    0.47794275    0.75099363   -1.20789541
| 58> H    0.35696423    1.27816780   -2.14405407
| 59> C    0.32728928    1.43186787   -0.00000000
| 60> H    0.09146503    2.48713922    0.00000000
| 61> C    0.47794275    0.75099363    1.20789541
| 62> H    0.35696423    1.27816780    2.14405407
| 63> C    0.78014717   -0.60991473    1.20755689
| 64> H    0.89619160   -1.13763959    2.14414463
| 65> C    0.93164831   -1.28998134    0.00000000
| 66> H    1.16848573   -2.34521369   -0.00000000
| 67> O   -2.49973020   -0.24186309    0.00000000
| 68> H   -2.33492620   -1.18658462    0.00000000
| 69> H   -1.61242925    0.12972723    0.00000000
| 70> *
| 71>
| 72>
| 73>
| 74>
| 75>                          ****END OF INPUT****
 Total Charge           Charge          ....    0
 Multiplicity           Mult            ....    1
 Number of Electrons    NEL             ....   52
MP2 TOTAL ENERGY:     -307.806473272 Eh
FINAL SINGLE POINT ENERGY      -307.806473271614
MP2 TOTAL ENERGY:     -308.079918159 Eh
FINAL SINGLE POINT ENERGY      -308.079918158916

CARTESIAN COORDINATES (ANGSTROEM)
---------------------------------
  C      0.780147   -0.609915   -1.207557
  H      0.896192   -1.137640   -2.144145
  C      0.477943    0.750994   -1.207895
  H      0.356964    1.278168   -2.144054
  C      0.327289    1.431868   -0.000000
  H      0.091465    2.487139    0.000000
  C      0.477943    0.750994    1.207895
  H      0.356964    1.278168    2.144054
  C      0.780147   -0.609915    1.207557
  H      0.896192   -1.137640    2.144145
  C      0.931648   -1.289981    0.000000
  H      1.168486   -2.345214   -0.000000
  O     -2.499730   -0.241863    0.000000
  H     -2.334926   -1.186585    0.000000
  H     -1.612429    0.129727    0.000000

 Multiplicity           Mult            ....    1
 Number of Electrons    NEL             ....   52
 Basis Dimension        Dim             ....  928

ORBITAL ENERGIES
----------------

  NO   OCC          E(Eh)            E(eV)
   0   2.0000     -20.537047      -558.8415
   1   2.0000     -11.247876      -306.0703
   2   2.0000     -11.247186      -306.0515
   3   2.0000     -11.247094      -306.0490
   4   2.0000     -11.245918      -306.0170
   5   2.0000     -11.245846      -306.0150
   6   2.0000     -11.245197      -305.9974
   7   2.0000      -1.326788       -36.1037
   8   2.0000      -1.164367       -31.6840
   9   2.0000      -1.028171       -27.9780
  10   2.0000      -1.027586       -27.9620
  11   2.0000      -0.836481       -22.7618
  12   2.0000      -0.836344       -22.7581
  13   2.0000      -0.722522       -19.6608
  14   2.0000      -0.689925       -18.7738
  15   2.0000      -0.655674       -17.8418
  16   2.0000      -0.631655       -17.1882
  17   2.0000      -0.600674       -16.3452
  18   2.0000      -0.600425       -16.3384
  19   2.0000      -0.569711       -15.5026
  20   2.0000      -0.509671       -13.8688
  21   2.0000      -0.507033       -13.7971
  22   2.0000      -0.506881       -13.7929
  23   2.0000      -0.486041       -13.2258
  24   2.0000      -0.352502        -9.5921
  25   2.0000      -0.350018        -9.5245
  26   0.0000       0.022874         0.6224
  27   0.0000       0.028810         0.7840
  28   0.0000       0.028908         0.7866
  29   0.0000       0.040897         1.1129
  30   0.0000       0.041026         1.1164

MULLIKEN ATOMIC CHARGES
-----------------------
   0 C :   -0.336226
   1 H :    0.320437
   2 C :   -0.340879
   3 H :    0.300545
   4 C :   -0.189569
   5 H :    0.321559
   6 C :   -0.340879
   7 H :    0.300545
   8 C :   -0.336226
   9 H :    0.320437
  10 C :   -0.367979
  11 H :    0.288001
  12 O :   -0.698996
  13 H :    0.323730
  14 H :    0.435501
Sum of atomic charges:   -0.0000000

LOEWDIN ATOMIC CHARGES
----------------------
   0 C :    0.333816
   1 H :   -0.318678
   2 C :    0.331697
   3 H :   -0.313213
   4 C :    0.326196
   5 H :   -0.310739
   6 C :    0.331697
   7 H :   -0.313213
   8 C :    0.333816
   9 H :   -0.318678
  10 C :    0.331739
  11 H :   -0.320961
  12 O :    1.646905
  13 H :   -0.780083
  14 H :   -0.960300

  Mayer bond orders larger than 0.100000
B(  0-C ,  1-H ) :   1.0405 B(  0-C ,  2-C ) :   1.2191 B(  0-C ,  6-C ) :   0.1448
B(  0-C , 10-C ) :   1.1906 B(  2-C ,  3-H ) :   1.0736 B(  2-C ,  4-C ) :   1.1647
B(  2-C ,  8-C ) :   0.1448 B(  4-C ,  5-H ) :   1.0541 B(  4-C ,  6-C ) :   1.1647
B(  4-C , 10-C ) :   0.1288 B(  6-C ,  7-H ) :   1.0736 B(  6-C ,  8-C ) :   1.2191
B(  8-C ,  9-H ) :   1.0405 B(  8-C , 10-C ) :   1.1906 B( 10-C , 11-H ) :   1.0778
B( 12-O , 13-H ) :   0.9275 B( 12-O , 14-H ) :   0.8447

MP2 TOTAL ENERGY:     -308.167339504 Eh
FINAL SINGLE POINT ENERGY      -308.167339504272

DIPOLE MOMENT
-------------
                                X             Y             Z
Electronic contribution:      1.50497       0.32985      -0.00000
Nuclear contribution   :     -0.61110      -0.64400      -0.00000
                        -----------------------------------------
Total Dipole Moment    :      0.89387      -0.31415      -0.00000
                        -----------------------------------------
Magnitude (a.u.)       :      0.94747
Magnitude (Debye)      :      2.40828

Rotational constants in cm-1:     0.096004     0.073282     0.072765
Rotational constants in MHz :  2878.132777  2196.935504  2181.450927

                             ****ORCA TERMINATED NORMALLY****
TOTAL RUN TIME: 0 days 0 hours 18 minutes 37 seconds 308 msec
