                         Program Version 5.0.4 -  RELEASE  -
|  1> ! ri-mp2 aug-cc-pvdz aug-cc-pvdz/c tightscf
|  2> %pal nprocs 16 end
|  3> %maxcore 3800
|  4> %base "DZ_S66by10_7_1.05_dimer"
|  5> %scf STABPerform true end
|  6>
|  7> *xyz 0 1
|  8> O   -0.20877739   -0.21687067   -1.03240597
|  9> H    0.71112593   -0.38689175   -0.77396240
| 10> C   -1.02217337   -0.74117114   -0.00545419
| 11> H   -2.05749119   -0.53870733   -0.26859725
| 12> H   -0.90774336   -1.82182632    0.10853710
| 13> H   -0.82463111   -0.27549472    0.96464547
| 14> C    2.08683274    1.90421063    0.47141749
| 15> H    2.59322637    2.86565971    0.43654714
| 16> H    1.67628862    1.75807475    1.46929413
| 17> H    1.25718494    1.89469736   -0.23008804
| 18> C    3.00246312    0.74927181    0.15550128
| 19> O    2.57826833   -0.37063898   -0.12958026
| 20> N    4.32860004    1.01099609    0.21470064
| 21> H    4.62661249    1.92142422    0.51238783
| 22> C    5.31100607   -0.02911522   -0.00804318
| 23> H    4.95444889   -0.68005254   -0.80022013
| 24> H    6.25137531    0.42440862   -0.30655688
| 25> H    5.47051619   -0.63364212    0.88403236
| 26> *
| 27>
| 28> $new_job
| 29> ! ri-mp2 aug-cc-pvtz aug-cc-pvtz/c tightscf
| 30> %pal nprocs 16 end
| 31> %maxcore 3800
| 32> %base "TZ_S66by10_7_1.05_dimer"
| 33>
| 34> *xyz 0 1
| 35> O   -0.20877739   -0.21687067   -1.03240597
| 36> H    0.71112593   -0.38689175   -0.77396240
| 37> C   -1.02217337   -0.74117114   -0.00545419
| 38> H   -2.05749119   -0.53870733   -0.26859725
| 39> H   -0.90774336   -1.82182632    0.10853710
| 40> H   -0.82463111   -0.27549472    0.96464547
| 41> C    2.08683274    1.90421063    0.47141749
| 42> H    2.59322637    2.86565971    0.43654714
| 43> H    1.67628862    1.75807475    1.46929413
| 44> H    1.25718494    1.89469736   -0.23008804
| 45> C    3.00246312    0.74927181    0.15550128
| 46> O    2.57826833   -0.37063898   -0.12958026
| 47> N    4.32860004    1.01099609    0.21470064
| 48> H    4.62661249    1.92142422    0.51238783
| 49> C    5.31100607   -0.02911522   -0.00804318
| 50> H    4.95444889   -0.68005254   -0.80022013
| 51> H    6.25137531    0.42440862   -0.30655688
| 52> H    5.47051619   -0.63364212    0.88403236
| 53> *
| 54>
| 55> $new_job
| 56> ! ri-mp2 aug-cc-pvqz aug-cc-pvqz/c tightscf
| 57> %pal nprocs 16 end
| 58> %maxcore 3800
| 59> %base "QZ_S66by10_7_1.05_dimer"
| 60>
| 61> *xyz 0 1
| 62> O   -0.20877739   -0.21687067   -1.03240597
| 63> H    0.71112593   -0.38689175   -0.77396240
| 64> C   -1.02217337   -0.74117114   -0.00545419
| 65> H   -2.05749119   -0.53870733   -0.26859725
| 66> H   -0.90774336   -1.82182632    0.10853710
| 67> H   -0.82463111   -0.27549472    0.96464547
| 68> C    2.08683274    1.90421063    0.47141749
| 69> H    2.59322637    2.86565971    0.43654714
| 70> H    1.67628862    1.75807475    1.46929413
| 71> H    1.25718494    1.89469736   -0.23008804
| 72> C    3.00246312    0.74927181    0.15550128
| 73> O    2.57826833   -0.37063898   -0.12958026
| 74> N    4.32860004    1.01099609    0.21470064
| 75> H    4.62661249    1.92142422    0.51238783
| 76> C    5.31100607   -0.02911522   -0.00804318
| 77> H    4.95444889   -0.68005254   -0.80022013
| 78> H    6.25137531    0.42440862   -0.30655688
| 79> H    5.47051619   -0.63364212    0.88403236
| 80> *
| 81>
| 82>
| 83>
| 84>
| 85>                          ****END OF INPUT****
 Total Charge           Charge          ....    0
 Multiplicity           Mult            ....    1
 Number of Electrons    NEL             ....   58
MP2 TOTAL ENERGY:     -363.281642204 Eh
FINAL SINGLE POINT ENERGY      -363.281642204175
MP2 TOTAL ENERGY:     -363.612500248 Eh
FINAL SINGLE POINT ENERGY      -363.612500248080

CARTESIAN COORDINATES (ANGSTROEM)
---------------------------------
  O     -0.208777   -0.216871   -1.032406
  H      0.711126   -0.386892   -0.773962
  C     -1.022173   -0.741171   -0.005454
  H     -2.057491   -0.538707   -0.268597
  H     -0.907743   -1.821826    0.108537
  H     -0.824631   -0.275495    0.964645
  C      2.086833    1.904211    0.471417
  H      2.593226    2.865660    0.436547
  H      1.676289    1.758075    1.469294
  H      1.257185    1.894697   -0.230088
  C      3.002463    0.749272    0.155501
  O      2.578268   -0.370639   -0.129580
  N      4.328600    1.010996    0.214701
  H      4.626612    1.921424    0.512388
  C      5.311006   -0.029115   -0.008043
  H      4.954449   -0.680053   -0.800220
  H      6.251375    0.424409   -0.306557
  H      5.470516   -0.633642    0.884032

 Multiplicity           Mult            ....    1
 Number of Electrons    NEL             ....   58
 Basis Dimension        Dim             .... 1066

ORBITAL ENERGIES
----------------

  NO   OCC          E(Eh)            E(eV)
   0   2.0000     -20.524282      -558.4941
   1   2.0000     -20.521366      -558.4148
   2   2.0000     -15.595784      -424.3829
   3   2.0000     -11.359166      -309.0986
   4   2.0000     -11.264453      -306.5213
   5   2.0000     -11.246592      -306.0353
   6   2.0000     -11.238937      -305.8270
   7   2.0000      -1.388307       -37.7778
   8   2.0000      -1.326576       -36.0980
   9   2.0000      -1.241878       -33.7932
  10   2.0000      -1.027594       -27.9623
  11   2.0000      -0.941542       -25.6207
  12   2.0000      -0.899814       -24.4852
  13   2.0000      -0.803311       -21.8592
  14   2.0000      -0.700196       -19.0533
  15   2.0000      -0.670686       -18.2503
  16   2.0000      -0.661713       -18.0061
  17   2.0000      -0.643951       -17.5228
  18   2.0000      -0.597326       -16.2541
  19   2.0000      -0.592752       -16.1296
  20   2.0000      -0.589792       -16.0490
  21   2.0000      -0.567703       -15.4480
  22   2.0000      -0.564844       -15.3702
  23   2.0000      -0.555010       -15.1026
  24   2.0000      -0.513918       -13.9844
  25   2.0000      -0.478926       -13.0322
  26   2.0000      -0.436546       -11.8790
  27   2.0000      -0.421042       -11.4571
  28   2.0000      -0.405730       -11.0405
  29   0.0000       0.016886         0.4595
  30   0.0000       0.029292         0.7971
  31   0.0000       0.032423         0.8823
  32   0.0000       0.037803         1.0287
  33   0.0000       0.045356         1.2342

MULLIKEN ATOMIC CHARGES
-----------------------
   0 O :   -0.778324
   1 H :    0.371384
   2 C :   -0.571140
   3 H :    0.384991
   4 H :    0.263862
   5 H :    0.272523
   6 C :   -0.832833
   7 H :    0.300796
   8 H :    0.275532
   9 H :    0.314414
  10 C :    0.980395
  11 O :   -0.851566
  12 N :   -0.517613
  13 H :    0.253307
  14 C :   -0.859688
  15 H :    0.296503
  16 H :    0.394074
  17 H :    0.303383
Sum of atomic charges:    0.0000000

LOEWDIN ATOMIC CHARGES
----------------------
   0 O :    1.244341
   1 H :   -1.035712
   2 C :    0.559385
   3 H :   -0.343567
   4 H :   -0.316455
   5 H :   -0.320655
   6 C :    0.907086
   7 H :   -0.304731
   8 H :   -0.283761
   9 H :   -0.326899
  10 C :   -0.780579
  11 O :    0.789427
  12 N :    0.827873
  13 H :   -0.502077
  14 C :    0.786009
  15 H :   -0.326090
  16 H :   -0.293334
  17 H :   -0.280260

  Mayer bond orders larger than 0.100000
B(  0-O ,  1-H ) :   0.8451 B(  0-O ,  2-C ) :   0.8544 B(  2-C ,  3-H ) :   0.8565
B(  2-C ,  4-H ) :   0.9262 B(  2-C ,  5-H ) :   0.8935 B(  6-C ,  7-H ) :   0.9717
B(  6-C ,  8-H ) :   0.9047 B(  6-C ,  9-H ) :   0.9631 B(  6-C , 10-C ) :   0.8141
B( 10-C , 11-O ) :   1.2736 B( 10-C , 12-N ) :   1.1816 B( 11-O , 12-N ) :   0.1527
B( 12-N , 13-H ) :   0.9614 B( 12-N , 14-C ) :   0.8136 B( 14-C , 15-H ) :   0.9444
B( 14-C , 16-H ) :   0.8661 B( 14-C , 17-H ) :   0.9457

MP2 TOTAL ENERGY:     -363.717486414 Eh
FINAL SINGLE POINT ENERGY      -363.717486413880

DIPOLE MOMENT
-------------
                                X             Y             Z
Electronic contribution:      2.22500       0.01416      -1.46703
Nuclear contribution   :     -0.81591       1.09838       2.46760
                        -----------------------------------------
Total Dipole Moment    :      1.40910       1.11254       1.00057
                        -----------------------------------------
Magnitude (a.u.)       :      2.05535
Magnitude (Debye)      :      5.22427

Rotational constants in cm-1:     0.177670     0.032113     0.028710
Rotational constants in MHz :  5326.417582   962.708540   860.708686

                             ****ORCA TERMINATED NORMALLY****
TOTAL RUN TIME: 0 days 1 hours 42 minutes 21 seconds 125 msec
