                         Program Version 5.0.4 -  RELEASE  -
|  1> ! ri-mp2 aug-cc-pvdz aug-cc-pvdz/c tightscf
|  2> %pal nprocs 16 end
|  3> %maxcore 3800
|  4> %base "DZ_S66by10_24_1.25_dimer"
|  5>
|  6> *xyz 0 1
|  7> C    0.71264532    1.12099570    0.06054078
|  8> H    1.35784165    1.98639917    0.12773717
|  9> C    1.25823573   -0.15925190    0.12423352
| 10> H    2.32495428   -0.28709988    0.24674303
| 11> C    0.42688496   -1.27452666    0.04265043
| 12> H    0.85044465   -2.26843268    0.09474995
| 13> C   -0.94957784   -1.11007406   -0.10031360
| 14> H   -1.59445570   -1.97627370   -0.16371348
| 15> C   -1.49552564    0.17105056   -0.16154602
| 16> H   -2.56378279    0.29922115   -0.27370311
| 17> C   -0.66382760    1.28664289   -0.08340143
| 18> H   -1.08690070    2.28100020   -0.13288613
| 19> C    2.25369932    1.10726200    4.47109521
| 20> H    2.89854444    1.97344574    4.53484593
| 21> C    2.79965244   -0.17388910    4.53261494
| 22> H    3.86785933   -0.30203615    4.64535916
| 23> C    1.96800296   -1.28948920    4.45396452
| 24> H    2.39108467   -2.28384164    4.50361818
| 25> C    0.59160140   -1.12385417    4.30924777
| 26> H   -0.05350120   -1.98926442    4.24161513
| 27> C    0.04604153    0.15637857    4.24528194
| 28> H   -1.02058650    0.28420779    4.12210318
| 29> C    0.87731848    1.27165934    4.32735288
| 30> H    0.45379360    2.26556437    4.27498395
| 31> *
| 32>
| 33> $new_job
| 34> ! ri-mp2 aug-cc-pvtz aug-cc-pvtz/c tightscf
| 35> %pal nprocs 16 end
| 36> %maxcore 3800
| 37> %base "TZ_S66by10_24_1.25_dimer"
| 38>
| 39> *xyz 0 1
| 40> C    0.71264532    1.12099570    0.06054078
| 41> H    1.35784165    1.98639917    0.12773717
| 42> C    1.25823573   -0.15925190    0.12423352
| 43> H    2.32495428   -0.28709988    0.24674303
| 44> C    0.42688496   -1.27452666    0.04265043
| 45> H    0.85044465   -2.26843268    0.09474995
| 46> C   -0.94957784   -1.11007406   -0.10031360
| 47> H   -1.59445570   -1.97627370   -0.16371348
| 48> C   -1.49552564    0.17105056   -0.16154602
| 49> H   -2.56378279    0.29922115   -0.27370311
| 50> C   -0.66382760    1.28664289   -0.08340143
| 51> H   -1.08690070    2.28100020   -0.13288613
| 52> C    2.25369932    1.10726200    4.47109521
| 53> H    2.89854444    1.97344574    4.53484593
| 54> C    2.79965244   -0.17388910    4.53261494
| 55> H    3.86785933   -0.30203615    4.64535916
| 56> C    1.96800296   -1.28948920    4.45396452
| 57> H    2.39108467   -2.28384164    4.50361818
| 58> C    0.59160140   -1.12385417    4.30924777
| 59> H   -0.05350120   -1.98926442    4.24161513
| 60> C    0.04604153    0.15637857    4.24528194
| 61> H   -1.02058650    0.28420779    4.12210318
| 62> C    0.87731848    1.27165934    4.32735288
| 63> H    0.45379360    2.26556437    4.27498395
| 64> *
| 65>
| 66> $new_job
| 67> ! ri-mp2 aug-cc-pvqz aug-cc-pvqz/c tightscf
| 68> %pal nprocs 16 end
| 69> %maxcore 3800
| 70> %base "QZ_S66by10_24_1.25_dimer"
| 71>
| 72> *xyz 0 1
| 73> C    0.71264532    1.12099570    0.06054078
| 74> H    1.35784165    1.98639917    0.12773717
| 75> C    1.25823573   -0.15925190    0.12423352
| 76> H    2.32495428   -0.28709988    0.24674303
| 77> C    0.42688496   -1.27452666    0.04265043
| 78> H    0.85044465   -2.26843268    0.09474995
| 79> C   -0.94957784   -1.11007406   -0.10031360
| 80> H   -1.59445570   -1.97627370   -0.16371348
| 81> C   -1.49552564    0.17105056   -0.16154602
| 82> H   -2.56378279    0.29922115   -0.27370311
| 83> C   -0.66382760    1.28664289   -0.08340143
| 84> H   -1.08690070    2.28100020   -0.13288613
| 85> C    2.25369932    1.10726200    4.47109521
| 86> H    2.89854444    1.97344574    4.53484593
| 87> C    2.79965244   -0.17388910    4.53261494
| 88> H    3.86785933   -0.30203615    4.64535916
| 89> C    1.96800296   -1.28948920    4.45396452
| 90> H    2.39108467   -2.28384164    4.50361818
| 91> C    0.59160140   -1.12385417    4.30924777
| 92> H   -0.05350120   -1.98926442    4.24161513
| 93> C    0.04604153    0.15637857    4.24528194
| 94> H   -1.02058650    0.28420779    4.12210318
| 95> C    0.87731848    1.27165934    4.32735288
| 96> H    0.45379360    2.26556437    4.27498395
| 97> *
| 98>
| 99>
|100>
|101>
|102>                          ****END OF INPUT****
 Total Charge           Charge          ....    0
 Multiplicity           Mult            ....    1
 Number of Electrons    NEL             ....   84
MP2 TOTAL ENERGY:     -463.082560373 Eh
FINAL SINGLE POINT ENERGY      -463.082560372556
MP2 TOTAL ENERGY:     -463.493722417 Eh
FINAL SINGLE POINT ENERGY      -463.493722417436

CARTESIAN COORDINATES (ANGSTROEM)
---------------------------------
  C      0.712645    1.120996    0.060541
  H      1.357842    1.986399    0.127737
  C      1.258236   -0.159252    0.124234
  H      2.324954   -0.287100    0.246743
  C      0.426885   -1.274527    0.042650
  H      0.850445   -2.268433    0.094750
  C     -0.949578   -1.110074   -0.100314
  H     -1.594456   -1.976274   -0.163713
  C     -1.495526    0.171051   -0.161546
  H     -2.563783    0.299221   -0.273703
  C     -0.663828    1.286643   -0.083401
  H     -1.086901    2.281000   -0.132886
  C      2.253699    1.107262    4.471095
  H      2.898544    1.973446    4.534846
  C      2.799652   -0.173889    4.532615
  H      3.867859   -0.302036    4.645359
  C      1.968003   -1.289489    4.453965
  H      2.391085   -2.283842    4.503618
  C      0.591601   -1.123854    4.309248
  H     -0.053501   -1.989264    4.241615
  C      0.046042    0.156379    4.245282
  H     -1.020587    0.284208    4.122103
  C      0.877318    1.271659    4.327353
  H      0.453794    2.265564    4.274984

 Multiplicity           Mult            ....    1
 Number of Electrons    NEL             ....   84
 Basis Dimension        Dim             .... 1512

ORBITAL ENERGIES
----------------

  NO   OCC          E(Eh)            E(eV)
   0   2.0000     -11.231625      -305.6280
   1   2.0000     -11.231623      -305.6280
   2   2.0000     -11.230887      -305.6080
   3   2.0000     -11.230883      -305.6079
   4   2.0000     -11.230533      -305.5983
   5   2.0000     -11.230527      -305.5982
   6   2.0000     -11.229651      -305.5743
   7   2.0000     -11.229648      -305.5743
   8   2.0000     -11.229462      -305.5692
   9   2.0000     -11.229456      -305.5690
  10   2.0000     -11.228516      -305.5435
  11   2.0000     -11.228508      -305.5432
  12   2.0000      -1.146496       -31.1977
  13   2.0000      -1.145961       -31.1832
  14   2.0000      -1.010906       -27.5081
  15   2.0000      -1.010728       -27.5033
  16   2.0000      -1.010654       -27.5013
  17   2.0000      -1.010479       -27.4965
  18   2.0000      -0.820363       -22.3232
  19   2.0000      -0.820251       -22.3202
  20   2.0000      -0.820213       -22.3191
  21   2.0000      -0.820142       -22.3172
  22   2.0000      -0.706156       -19.2155
  23   2.0000      -0.705902       -19.2086
  24   2.0000      -0.640512       -17.4292
  25   2.0000      -0.640393       -17.4260
  26   2.0000      -0.615460       -16.7475
  27   2.0000      -0.615407       -16.7461
  28   2.0000      -0.584599       -15.9077
  29   2.0000      -0.584430       -15.9031
  30   2.0000      -0.584414       -15.9027
  31   2.0000      -0.584224       -15.8975
  32   2.0000      -0.503213       -13.6931
  33   2.0000      -0.494075       -13.4445
  34   2.0000      -0.491333       -13.3699
  35   2.0000      -0.491298       -13.3689
  36   2.0000      -0.491275       -13.3683
  37   2.0000      -0.491208       -13.3664
  38   2.0000      -0.337143        -9.1741
  39   2.0000      -0.333239        -9.0679
  40   2.0000      -0.332250        -9.0410
  41   2.0000      -0.329104        -8.9554
  42   0.0000       0.024501         0.6667
  43   0.0000       0.027455         0.7471
  44   0.0000       0.027582         0.7505
  45   0.0000       0.036929         1.0049
  46   0.0000       0.037576         1.0225

MULLIKEN ATOMIC CHARGES
-----------------------
   0 C :   -0.338989
   1 H :    0.298906
   2 C :   -0.341867
   3 H :    0.306248
   4 C :   -0.334287
   5 H :    0.298123
   6 C :   -0.292868
   7 H :    0.343674
   8 C :   -0.340826
   9 H :    0.340958
  10 C :   -0.284004
  11 H :    0.344928
  12 C :   -0.292894
  13 H :    0.343674
  14 C :   -0.340934
  15 H :    0.341130
  16 C :   -0.284038
  17 H :    0.344872
  18 C :   -0.338982
  19 H :    0.298966
  20 C :   -0.341972
  21 H :    0.306249
  22 C :   -0.334181
  23 H :    0.298116
Sum of atomic charges:    0.0000000

LOEWDIN ATOMIC CHARGES
----------------------
   0 C :    0.324672
   1 H :   -0.324390
   2 C :    0.324033
   3 H :   -0.322690
   4 C :    0.325055
   5 H :   -0.324839
   6 C :    0.326528
   7 H :   -0.326945
   8 C :    0.326076
   9 H :   -0.327347
  10 C :    0.326547
  11 H :   -0.326701
  12 C :    0.326558
  13 H :   -0.326961
  14 C :    0.326104
  15 H :   -0.327343
  16 C :    0.326558
  17 H :   -0.326699
  18 C :    0.324680
  19 H :   -0.324414
  20 C :    0.324017
  21 H :   -0.322705
  22 C :    0.325049
  23 H :   -0.324842

  Mayer bond orders larger than 0.100000
B(  0-C ,  1-H ) :   1.0266 B(  0-C ,  2-C ) :   1.2269 B(  0-C ,  6-C ) :   0.1524
B(  0-C , 10-C ) :   1.2388 B(  2-C ,  3-H ) :   1.0173 B(  2-C ,  4-C ) :   1.2467
B(  2-C ,  8-C ) :   0.1297 B(  4-C ,  5-H ) :   1.0266 B(  4-C ,  6-C ) :   1.2297
B(  4-C , 10-C ) :   0.1649 B(  6-C ,  7-H ) :   0.9955 B(  6-C ,  8-C ) :   1.2129
B(  8-C ,  9-H ) :   0.9979 B(  8-C , 10-C ) :   1.2175 B( 10-C , 11-H ) :   0.9938
B( 12-C , 13-H ) :   0.9956 B( 12-C , 14-C ) :   1.2128 B( 12-C , 18-C ) :   0.1524
B( 12-C , 22-C ) :   1.2297 B( 14-C , 15-H ) :   0.9976 B( 14-C , 16-C ) :   1.2175
B( 14-C , 20-C ) :   0.1296 B( 16-C , 17-H ) :   0.9939 B( 16-C , 18-C ) :   1.2387
B( 16-C , 22-C ) :   0.1649 B( 18-C , 19-H ) :   1.0266 B( 18-C , 20-C ) :   1.2268
B( 20-C , 21-H ) :   1.0174 B( 20-C , 22-C ) :   1.2466 B( 22-C , 23-H ) :   1.0265

MP2 TOTAL ENERGY:     -463.623532511 Eh
FINAL SINGLE POINT ENERGY      -463.623532511301

DIPOLE MOMENT
-------------
                                X             Y             Z
Electronic contribution:     -0.00010       0.00001       0.00008
Nuclear contribution   :      0.00013      -0.00001      -0.00023
                        -----------------------------------------
Total Dipole Moment    :      0.00003       0.00000      -0.00015
                        -----------------------------------------
Magnitude (a.u.)       :      0.00016
Magnitude (Debye)      :      0.00040

Rotational constants in cm-1:     0.053408     0.016380     0.015793
Rotational constants in MHz :  1601.135960   491.050816   473.469736

                             ****ORCA TERMINATED NORMALLY****
TOTAL RUN TIME: 0 days 1 hours 18 minutes 17 seconds 983 msec
