                         Program Version 5.0.4 -  RELEASE  -
|  1> ! ri-mp2 aug-cc-pvdz aug-cc-pvdz/c tightscf
|  2> %pal nprocs 16 end
|  3> %maxcore 3800
|  4> %base "DZ_S66by10_40_0.8_dimer"
|  5>
|  6> *xyz 0 1
|  7> C    0.31195353    0.56102334    0.49669886
|  8> H    0.74213608    1.55336911    0.48156571
|  9> C    1.14218235   -0.55807461    0.53606185
| 10> H    2.21651131   -0.43425014    0.55235015
| 11> C    0.58780415   -1.83668704    0.55414435
| 12> H    1.23191239   -2.70484153    0.58522179
| 13> C   -0.79665772   -1.99637562    0.53296300
| 14> H   -1.22677442   -2.98844427    0.54863708
| 15> C   -1.62689297   -0.87747365    0.49416828
| 16> H   -2.70112211   -1.00134997    0.47981498
| 17> C   -1.07266525    0.40120590    0.47597397
| 18> H   -1.71697357    1.26940117    0.44591995
| 19> C    0.19837476    0.52842735    4.14344074
| 20> C    1.64462344    0.70721471    3.68847926
| 21> H    2.06048016    1.64049259    4.07190224
| 22> H    2.26802276   -0.11340092    4.04733313
| 23> H    1.70523257    0.72660600    2.59954504
| 24> C    0.14398339    0.49705621    5.66830606
| 25> H   -0.88180664    0.36963579    6.01739384
| 26> H    0.73938929   -0.32863066    6.06085980
| 27> H    0.53227787    1.42494084    6.09121164
| 28> C   -0.35100527   -0.78106463    3.58314472
| 29> H   -1.38587888   -0.93133966    3.89581631
| 30> H    0.23545130   -1.63003839    3.93895599
| 31> H   -0.32222544   -0.78151740    2.49283048
| 32> C   -0.64299802    1.69299904    3.62723527
| 33> H   -0.62145707    1.72902943    2.53723671
| 34> H   -1.68278717    1.58922947    3.94171775
| 35> H   -0.26734543    2.64369351    4.00934218
| 36> *
| 37>
| 38> $new_job
| 39> ! ri-mp2 aug-cc-pvtz aug-cc-pvtz/c tightscf
| 40> %pal nprocs 16 end
| 41> %maxcore 3800
| 42> %base "TZ_S66by10_40_0.8_dimer"
| 43>
| 44> *xyz 0 1
| 45> C    0.31195353    0.56102334    0.49669886
| 46> H    0.74213608    1.55336911    0.48156571
| 47> C    1.14218235   -0.55807461    0.53606185
| 48> H    2.21651131   -0.43425014    0.55235015
| 49> C    0.58780415   -1.83668704    0.55414435
| 50> H    1.23191239   -2.70484153    0.58522179
| 51> C   -0.79665772   -1.99637562    0.53296300
| 52> H   -1.22677442   -2.98844427    0.54863708
| 53> C   -1.62689297   -0.87747365    0.49416828
| 54> H   -2.70112211   -1.00134997    0.47981498
| 55> C   -1.07266525    0.40120590    0.47597397
| 56> H   -1.71697357    1.26940117    0.44591995
| 57> C    0.19837476    0.52842735    4.14344074
| 58> C    1.64462344    0.70721471    3.68847926
| 59> H    2.06048016    1.64049259    4.07190224
| 60> H    2.26802276   -0.11340092    4.04733313
| 61> H    1.70523257    0.72660600    2.59954504
| 62> C    0.14398339    0.49705621    5.66830606
| 63> H   -0.88180664    0.36963579    6.01739384
| 64> H    0.73938929   -0.32863066    6.06085980
| 65> H    0.53227787    1.42494084    6.09121164
| 66> C   -0.35100527   -0.78106463    3.58314472
| 67> H   -1.38587888   -0.93133966    3.89581631
| 68> H    0.23545130   -1.63003839    3.93895599
| 69> H   -0.32222544   -0.78151740    2.49283048
| 70> C   -0.64299802    1.69299904    3.62723527
| 71> H   -0.62145707    1.72902943    2.53723671
| 72> H   -1.68278717    1.58922947    3.94171775
| 73> H   -0.26734543    2.64369351    4.00934218
| 74> *
| 75>
| 76> $new_job
| 77> ! ri-mp2 aug-cc-pvqz aug-cc-pvqz/c tightscf
| 78> %pal nprocs 16 end
| 79> %maxcore 3800
| 80> %base "QZ_S66by10_40_0.8_dimer"
| 81>
| 82> *xyz 0 1
| 83> C    0.31195353    0.56102334    0.49669886
| 84> H    0.74213608    1.55336911    0.48156571
| 85> C    1.14218235   -0.55807461    0.53606185
| 86> H    2.21651131   -0.43425014    0.55235015
| 87> C    0.58780415   -1.83668704    0.55414435
| 88> H    1.23191239   -2.70484153    0.58522179
| 89> C   -0.79665772   -1.99637562    0.53296300
| 90> H   -1.22677442   -2.98844427    0.54863708
| 91> C   -1.62689297   -0.87747365    0.49416828
| 92> H   -2.70112211   -1.00134997    0.47981498
| 93> C   -1.07266525    0.40120590    0.47597397
| 94> H   -1.71697357    1.26940117    0.44591995
| 95> C    0.19837476    0.52842735    4.14344074
| 96> C    1.64462344    0.70721471    3.68847926
| 97> H    2.06048016    1.64049259    4.07190224
| 98> H    2.26802276   -0.11340092    4.04733313
| 99> H    1.70523257    0.72660600    2.59954504
|100> C    0.14398339    0.49705621    5.66830606
|101> H   -0.88180664    0.36963579    6.01739384
|102> H    0.73938929   -0.32863066    6.06085980
|103> H    0.53227787    1.42494084    6.09121164
|104> C   -0.35100527   -0.78106463    3.58314472
|105> H   -1.38587888   -0.93133966    3.89581631
|106> H    0.23545130   -1.63003839    3.93895599
|107> H   -0.32222544   -0.78151740    2.49283048
|108> C   -0.64299802    1.69299904    3.62723527
|109> H   -0.62145707    1.72902943    2.53723671
|110> H   -1.68278717    1.58922947    3.94171775
|111> H   -0.26734543    2.64369351    4.00934218
|112> *
|113>
|114>
|115>
|116>
|117>                          ****END OF INPUT****
 Total Charge           Charge          ....    0
 Multiplicity           Mult            ....    1
 Number of Electrons    NEL             ....   84
MP2 TOTAL ENERGY:     -428.665136603 Eh
FINAL SINGLE POINT ENERGY      -428.665136602866
MP2 TOTAL ENERGY:     -429.063612299 Eh
FINAL SINGLE POINT ENERGY      -429.063612299460

CARTESIAN COORDINATES (ANGSTROEM)
---------------------------------
  C      0.311954    0.561023    0.496699
  H      0.742136    1.553369    0.481566
  C      1.142182   -0.558075    0.536062
  H      2.216511   -0.434250    0.552350
  C      0.587804   -1.836687    0.554144
  H      1.231912   -2.704842    0.585222
  C     -0.796658   -1.996376    0.532963
  H     -1.226774   -2.988444    0.548637
  C     -1.626893   -0.877474    0.494168
  H     -2.701122   -1.001350    0.479815
  C     -1.072665    0.401206    0.475974
  H     -1.716974    1.269401    0.445920
  C      0.198375    0.528427    4.143441
  C      1.644623    0.707215    3.688479
  H      2.060480    1.640493    4.071902
  H      2.268023   -0.113401    4.047333
  H      1.705233    0.726606    2.599545
  C      0.143983    0.497056    5.668306
  H     -0.881807    0.369636    6.017394
  H      0.739389   -0.328631    6.060860
  H      0.532278    1.424941    6.091212
  C     -0.351005   -0.781065    3.583145
  H     -1.385879   -0.931340    3.895816
  H      0.235451   -1.630038    3.938956
  H     -0.322225   -0.781517    2.492830
  C     -0.642998    1.692999    3.627235
  H     -0.621457    1.729029    2.537237
  H     -1.682787    1.589229    3.941718
  H     -0.267345    2.643694    4.009342

 Multiplicity           Mult            ....    1
 Number of Electrons    NEL             ....   84
 Basis Dimension        Dim             .... 1708

ORBITAL ENERGIES
----------------

  NO   OCC          E(Eh)            E(eV)
   0   2.0000     -11.238057      -305.8031
   1   2.0000     -11.237367      -305.7843
   2   2.0000     -11.237037      -305.7753
   3   2.0000     -11.236163      -305.7516
   4   2.0000     -11.235889      -305.7441
   5   2.0000     -11.235137      -305.7236
   6   2.0000     -11.214795      -305.1701
   7   2.0000     -11.196073      -304.6606
   8   2.0000     -11.194776      -304.6253
   9   2.0000     -11.194754      -304.6247
  10   2.0000     -11.184399      -304.3430
  11   2.0000      -1.156407       -31.4674
  12   2.0000      -1.095760       -29.8171
  13   2.0000      -1.019748       -27.7488
  14   2.0000      -1.019131       -27.7320
  15   2.0000      -0.920592       -25.0506
  16   2.0000      -0.920495       -25.0479
  17   2.0000      -0.915531       -24.9129
  18   2.0000      -0.828343       -22.5403
  19   2.0000      -0.828125       -22.5344
  20   2.0000      -0.721240       -19.6259
  21   2.0000      -0.714786       -19.4503
  22   2.0000      -0.648193       -17.6382
  23   2.0000      -0.623521       -16.9669
  24   2.0000      -0.609963       -16.5979
  25   2.0000      -0.603555       -16.4236
  26   2.0000      -0.602105       -16.3841
  27   2.0000      -0.591961       -16.1081
  28   2.0000      -0.591579       -16.0977
  29   2.0000      -0.548360       -14.9216
  30   2.0000      -0.544488       -14.8163
  31   2.0000      -0.517137       -14.0720
  32   2.0000      -0.502403       -13.6711
  33   2.0000      -0.499564       -13.5938
  34   2.0000      -0.498796       -13.5729
  35   2.0000      -0.497581       -13.5399
  36   2.0000      -0.487955       -13.2779
  37   2.0000      -0.442969       -12.0538
  38   2.0000      -0.441734       -12.0202
  39   2.0000      -0.427417       -11.6306
  40   2.0000      -0.341073        -9.2811
  41   2.0000      -0.339743        -9.2449
  42   0.0000       0.021558         0.5866
  43   0.0000       0.027967         0.7610
  44   0.0000       0.028409         0.7730
  45   0.0000       0.032361         0.8806
  46   0.0000       0.040011         1.0888

MULLIKEN ATOMIC CHARGES
-----------------------
   0 C :   -0.087367
   1 H :    0.385954
   2 C :   -0.252170
   3 H :    0.292282
   4 C :   -0.511414
   5 H :    0.219277
   6 C :   -0.243480
   7 H :    0.231782
   8 C :   -0.511998
   9 H :    0.218494
  10 C :   -0.250826
  11 H :    0.292238
  12 C :    2.042608
  13 C :   -1.300254
  14 H :    0.182742
  15 H :    0.140851
  16 H :    0.420822
  17 C :   -1.128948
  18 H :    0.209022
  19 H :    0.209073
  20 H :    0.228793
  21 C :   -1.040820
  22 H :    0.217560
  23 H :    0.217697
  24 H :    0.374239
  25 C :   -1.299816
  26 H :    0.420119
  27 H :    0.140947
  28 H :    0.182593
Sum of atomic charges:   -0.0000000

LOEWDIN ATOMIC CHARGES
----------------------
   0 C :    0.328630
   1 H :   -0.293207
   2 C :    0.339582
   3 H :   -0.300822
   4 C :    0.349146
   5 H :   -0.306796
   6 C :    0.340383
   7 H :   -0.308122
   8 C :    0.349297
   9 H :   -0.306811
  10 C :    0.339533
  11 H :   -0.300867
  12 C :   -0.298327
  13 C :    0.908498
  14 H :   -0.260974
  15 H :   -0.259065
  16 H :   -0.353646
  17 C :    0.907123
  18 H :   -0.271590
  19 H :   -0.271566
  20 H :   -0.272225
  21 C :    0.888171
  22 H :   -0.245920
  23 H :   -0.245912
  24 H :   -0.489316
  25 C :    0.908491
  26 H :   -0.353666
  27 H :   -0.259035
  28 H :   -0.260983

  Mayer bond orders larger than 0.100000
B(  0-C ,  1-H ) :   0.9478 B(  0-C ,  2-C ) :   1.1427 B(  0-C ,  6-C ) :   0.1605
B(  0-C , 10-C ) :   1.1419 B(  0-C , 24-H ) :  -0.1289 B(  1-H ,  2-C ) :  -0.1211
B(  1-H , 10-C ) :  -0.1212 B(  2-C ,  3-H ) :   1.0619 B(  2-C ,  4-C ) :   1.1924
B(  2-C ,  5-H ) :  -0.1111 B(  2-C ,  8-C ) :   0.1439 B(  4-C ,  5-H ) :   1.1662
B(  4-C ,  6-C ) :   1.2998 B(  4-C ,  8-C ) :   0.1468 B(  4-C , 10-C ) :   0.1435
B(  6-C ,  7-H ) :   1.1276 B(  6-C ,  8-C ) :   1.2999 B(  6-C , 24-H ) :  -0.2635
B(  8-C ,  9-H ) :   1.1670 B(  8-C , 10-C ) :   1.1922 B(  9-H , 10-C ) :  -0.1111
B( 10-C , 11-H ) :   1.0619 B( 12-C , 13-C ) :   0.2970 B( 12-C , 14-H ) :  -0.1005
B( 12-C , 15-H ) :  -0.1182 B( 12-C , 18-H ) :  -0.1921 B( 12-C , 19-H ) :  -0.1921
B( 12-C , 20-H ) :  -0.1705 B( 12-C , 21-C ) :   0.5069 B( 12-C , 24-H ) :  -0.2210
B( 12-C , 25-C ) :   0.2965 B( 12-C , 27-H ) :  -0.1183 B( 12-C , 28-H ) :  -0.1003
B( 13-C , 14-H ) :   1.1364 B( 13-C , 15-H ) :   1.1450 B( 13-C , 16-H ) :   0.8481
B( 13-C , 17-C ) :   0.1701 B( 13-C , 21-C ) :   0.1301 B( 13-C , 25-C ) :   0.1787
B( 17-C , 18-H ) :   1.1150 B( 17-C , 19-H ) :   1.1150 B( 17-C , 20-H ) :   1.0891
B( 17-C , 21-C ) :   0.1192 B( 17-C , 25-C ) :   0.1699 B( 21-C , 22-H ) :   0.9789
B( 21-C , 23-H ) :   0.9787 B( 21-C , 24-H ) :   1.0726 B( 21-C , 25-C ) :   0.1305
B( 25-C , 26-H ) :   0.8489 B( 25-C , 27-H ) :   1.1446 B( 25-C , 28-H ) :   1.1365

MP2 TOTAL ENERGY:     -429.185076100 Eh
FINAL SINGLE POINT ENERGY      -429.185076099982

DIPOLE MOMENT
-------------
                                X             Y             Z
Electronic contribution:     -1.41404      -3.99753     -11.62397
Nuclear contribution   :      1.38574       3.91974      11.42577
                        -----------------------------------------
Total Dipole Moment    :     -0.02831      -0.07779      -0.19819
                        -----------------------------------------
Magnitude (a.u.)       :      0.21479
Magnitude (Debye)      :      0.54594

Rotational constants in cm-1:     0.060558     0.022177     0.021855
Rotational constants in MHz :  1815.490177   664.854891   655.204802

                             ****ORCA TERMINATED NORMALLY****
TOTAL RUN TIME: 0 days 2 hours 21 minutes 5 seconds 341 msec
