                         Program Version 5.0.4 -  RELEASE  -
|  1> ! ri-mp2 aug-cc-pvdz aug-cc-pvdz/c tightscf
|  2> %pal nprocs 16 end
|  3> %maxcore 3800
|  4> %base "DZ_S66by10_65_0.8_dimer"
|  5>
|  6> *xyz 0 1
|  7> N   -0.08303249    0.00071459    1.05519999
|  8> C   -0.20285376   -1.14172585    0.36493369
|  9> H   -0.09848563   -2.05509795    0.93743262
| 10> C   -0.44678144   -1.19176367   -1.00451226
| 11> H   -0.53364921   -2.14585511   -1.50417155
| 12> C   -0.57468209    0.00343953   -1.70430948
| 13> H   -0.76368391    0.00448010   -2.76872670
| 14> C   -0.45345675    1.19724254   -1.00091647
| 15> H   -0.54563080    2.15227264   -1.49779508
| 16> C   -0.20931111    1.14450759    0.36836730
| 17> H   -0.11016707    2.05669726    0.94357396
| 18> C    0.41271416   -0.00468808    5.11171745
| 19> H    0.52812420   -0.00411388    6.16673127
| 20> C    0.28064439   -0.00523781    3.90547015
| 21> H    0.16249628   -0.00497538    2.84096468
| 22> *
| 23>
| 24> $new_job
| 25> ! ri-mp2 aug-cc-pvtz aug-cc-pvtz/c tightscf
| 26> %pal nprocs 16 end
| 27> %maxcore 3800
| 28> %base "TZ_S66by10_65_0.8_dimer"
| 29>
| 30> *xyz 0 1
| 31> N   -0.08303249    0.00071459    1.05519999
| 32> C   -0.20285376   -1.14172585    0.36493369
| 33> H   -0.09848563   -2.05509795    0.93743262
| 34> C   -0.44678144   -1.19176367   -1.00451226
| 35> H   -0.53364921   -2.14585511   -1.50417155
| 36> C   -0.57468209    0.00343953   -1.70430948
| 37> H   -0.76368391    0.00448010   -2.76872670
| 38> C   -0.45345675    1.19724254   -1.00091647
| 39> H   -0.54563080    2.15227264   -1.49779508
| 40> C   -0.20931111    1.14450759    0.36836730
| 41> H   -0.11016707    2.05669726    0.94357396
| 42> C    0.41271416   -0.00468808    5.11171745
| 43> H    0.52812420   -0.00411388    6.16673127
| 44> C    0.28064439   -0.00523781    3.90547015
| 45> H    0.16249628   -0.00497538    2.84096468
| 46> *
| 47>
| 48> $new_job
| 49> ! ri-mp2 aug-cc-pvqz aug-cc-pvqz/c tightscf
| 50> %pal nprocs 16 end
| 51> %maxcore 3800
| 52> %base "QZ_S66by10_65_0.8_dimer"
| 53>
| 54> *xyz 0 1
| 55> N   -0.08303249    0.00071459    1.05519999
| 56> C   -0.20285376   -1.14172585    0.36493369
| 57> H   -0.09848563   -2.05509795    0.93743262
| 58> C   -0.44678144   -1.19176367   -1.00451226
| 59> H   -0.53364921   -2.14585511   -1.50417155
| 60> C   -0.57468209    0.00343953   -1.70430948
| 61> H   -0.76368391    0.00448010   -2.76872670
| 62> C   -0.45345675    1.19724254   -1.00091647
| 63> H   -0.54563080    2.15227264   -1.49779508
| 64> C   -0.20931111    1.14450759    0.36836730
| 65> H   -0.11016707    2.05669726    0.94357396
| 66> C    0.41271416   -0.00468808    5.11171745
| 67> H    0.52812420   -0.00411388    6.16673127
| 68> C    0.28064439   -0.00523781    3.90547015
| 69> H    0.16249628   -0.00497538    2.84096468
| 70> *
| 71>
| 72>
| 73>
| 74>
| 75>                          ****END OF INPUT****
 Total Charge           Charge          ....    0
 Multiplicity           Mult            ....    1
 Number of Electrons    NEL             ....   56
MP2 TOTAL ENERGY:     -324.659607470 Eh
FINAL SINGLE POINT ENERGY      -324.659607470450
MP2 TOTAL ENERGY:     -324.945255620 Eh
FINAL SINGLE POINT ENERGY      -324.945255620489

CARTESIAN COORDINATES (ANGSTROEM)
---------------------------------
  N     -0.083032    0.000715    1.055200
  C     -0.202854   -1.141726    0.364934
  H     -0.098486   -2.055098    0.937433
  C     -0.446781   -1.191764   -1.004512
  H     -0.533649   -2.145855   -1.504172
  C     -0.574682    0.003440   -1.704309
  H     -0.763684    0.004480   -2.768727
  C     -0.453457    1.197243   -1.000916
  H     -0.545631    2.152273   -1.497795
  C     -0.209311    1.144508    0.368367
  H     -0.110167    2.056697    0.943574
  C      0.412714   -0.004688    5.111717
  H      0.528124   -0.004114    6.166731
  C      0.280644   -0.005238    3.905470
  H      0.162496   -0.004975    2.840965

 Multiplicity           Mult            ....    1
 Number of Electrons    NEL             ....   56
 Basis Dimension        Dim             ....  962

ORBITAL ENERGIES
----------------

  NO   OCC          E(Eh)            E(eV)
   0   2.0000     -15.578320      -423.9076
   1   2.0000     -11.288384      -307.1725
   2   2.0000     -11.288362      -307.1719
   3   2.0000     -11.271579      -306.7153
   4   2.0000     -11.252463      -306.1951
   5   2.0000     -11.252413      -306.1937
   6   2.0000     -11.209507      -305.0262
   7   2.0000     -11.201839      -304.8175
   8   2.0000      -1.273203       -34.6456
   9   2.0000      -1.103035       -30.0151
  10   2.0000      -1.046709       -28.4824
  11   2.0000      -0.995368       -27.0853
  12   2.0000      -0.873076       -23.7576
  13   2.0000      -0.869919       -23.6717
  14   2.0000      -0.750341       -20.4178
  15   2.0000      -0.726472       -19.7683
  16   2.0000      -0.674627       -18.3575
  17   2.0000      -0.667339       -18.1592
  18   2.0000      -0.653956       -17.7950
  19   2.0000      -0.611036       -16.6271
  20   2.0000      -0.583358       -15.8740
  21   2.0000      -0.556493       -15.1429
  22   2.0000      -0.532715       -14.4959
  23   2.0000      -0.434953       -11.8357
  24   2.0000      -0.399384       -10.8678
  25   2.0000      -0.377167       -10.2632
  26   2.0000      -0.376382       -10.2419
  27   2.0000      -0.359962        -9.7951
  28   0.0000       0.019133         0.5206
  29   0.0000       0.026922         0.7326
  30   0.0000       0.030212         0.8221
  31   0.0000       0.036320         0.9883
  32   0.0000       0.044253         1.2042

MULLIKEN ATOMIC CHARGES
-----------------------
   0 N :   -0.423355
   1 C :   -0.263431
   2 H :    0.392913
   3 C :   -0.222432
   4 H :    0.318900
   5 C :   -0.188708
   6 H :    0.355422
   7 C :   -0.223495
   8 H :    0.318664
   9 C :   -0.263566
  10 H :    0.393468
  11 C :   -1.175033
  12 H :    0.294595
  13 C :   -0.568965
  14 H :    1.255022
Sum of atomic charges:    0.0000000

LOEWDIN ATOMIC CHARGES
----------------------
   0 N :    0.590991
   1 C :    0.127438
   2 H :   -0.334043
   3 C :    0.344674
   4 H :   -0.328119
   5 C :    0.337532
   6 H :   -0.311855
   7 C :    0.344648
   8 H :   -0.328137
   9 C :    0.127461
  10 H :   -0.334120
  11 C :    0.500750
  12 H :   -0.495716
  13 C :    0.482863
  14 H :   -0.724368

  Mayer bond orders larger than 0.100000
B(  0-N ,  1-C ) :   1.4142 B(  0-N ,  9-C ) :   1.4126 B(  0-N , 13-C ) :  -0.1358
B(  0-N , 14-H ) :   0.1907 B(  1-C ,  2-H ) :   0.9282 B(  1-C ,  3-C ) :   1.1804
B(  1-C ,  5-C ) :  -0.1189 B(  1-C ,  7-C ) :   0.1341 B(  3-C ,  4-H ) :   0.9953
B(  3-C ,  5-C ) :   1.1974 B(  3-C ,  7-C ) :  -0.1062 B(  3-C ,  9-C ) :   0.1345
B(  5-C ,  6-H ) :   0.9560 B(  5-C ,  7-C ) :   1.1974 B(  5-C ,  9-C ) :  -0.1184
B(  7-C ,  8-H ) :   0.9956 B(  7-C ,  9-C ) :   1.1813 B(  9-C , 10-H ) :   0.9281
B( 11-C , 12-H ) :   1.3821 B( 11-C , 13-C ) :   2.0462 B( 11-C , 14-H ) :  -0.4701
B( 12-H , 13-C ) :  -0.1929 B( 12-H , 14-H ) :  -0.2521 B( 13-C , 14-H ) :  -0.2882

MP2 TOTAL ENERGY:     -325.034925994 Eh
FINAL SINGLE POINT ENERGY      -325.034925993731

DIPOLE MOMENT
-------------
                                X             Y             Z
Electronic contribution:     -0.01883       0.00142      -0.51501
Nuclear contribution   :     -0.22252       0.00103      -0.97482
                        -----------------------------------------
Total Dipole Moment    :     -0.24135       0.00244      -1.48983
                        -----------------------------------------
Magnitude (a.u.)       :      1.50925
Magnitude (Debye)      :      3.83621

Rotational constants in cm-1:     0.201601     0.029794     0.025968
Rotational constants in MHz :  6043.860085   893.211407   778.491010

                             ****ORCA TERMINATED NORMALLY****
TOTAL RUN TIME: 0 days 0 hours 19 minutes 9 seconds 709 msec
