                         Program Version 5.0.4 -  RELEASE  -
|  1> ! ri-mp2 aug-cc-pvdz aug-cc-pvdz/c tightscf
|  2> %pal nprocs 16 end
|  3> %maxcore 3800
|  4> %base "DZ_S66by10_51_0.9_dimer"
|  5> %scf STABPerform true end
|  6>
|  7> *xyz 0 1
|  8> C   -0.60172996   -0.02857012    0.38493492
|  9> H   -1.66373543   -0.02852657    0.37901431
| 10> C    0.61010917   -0.02866364    0.38816379
| 11> H    1.67213544   -0.02879308    0.38796752
| 12> C   -0.00655752    0.09096803    3.87783012
| 13> H   -0.00316314    0.05723298    2.81453324
| 14> C   -0.01049395    0.12925805    5.08929550
| 15> H   -0.01376018    0.16263393    6.15020692
| 16> *
| 17>
| 18> $new_job
| 19> ! ri-mp2 aug-cc-pvtz aug-cc-pvtz/c tightscf
| 20> %pal nprocs 16 end
| 21> %maxcore 3800
| 22> %base "TZ_S66by10_51_0.9_dimer"
| 23>
| 24> *xyz 0 1
| 25> C   -0.60172996   -0.02857012    0.38493492
| 26> H   -1.66373543   -0.02852657    0.37901431
| 27> C    0.61010917   -0.02866364    0.38816379
| 28> H    1.67213544   -0.02879308    0.38796752
| 29> C   -0.00655752    0.09096803    3.87783012
| 30> H   -0.00316314    0.05723298    2.81453324
| 31> C   -0.01049395    0.12925805    5.08929550
| 32> H   -0.01376018    0.16263393    6.15020692
| 33> *
| 34>
| 35> $new_job
| 36> ! ri-mp2 aug-cc-pvqz aug-cc-pvqz/c tightscf
| 37> %pal nprocs 16 end
| 38> %maxcore 3800
| 39> %base "QZ_S66by10_51_0.9_dimer"
| 40>
| 41> *xyz 0 1
| 42> C   -0.60172996   -0.02857012    0.38493492
| 43> H   -1.66373543   -0.02852657    0.37901431
| 44> C    0.61010917   -0.02866364    0.38816379
| 45> H    1.67213544   -0.02879308    0.38796752
| 46> C   -0.00655752    0.09096803    3.87783012
| 47> H   -0.00316314    0.05723298    2.81453324
| 48> C   -0.01049395    0.12925805    5.08929550
| 49> H   -0.01376018    0.16263393    6.15020692
| 50> *
| 51>
| 52>
| 53>
| 54>
| 55>                          ****END OF INPUT****
 Total Charge           Charge          ....    0
 Multiplicity           Mult            ....    1
 Number of Electrons    NEL             ....   28
MP2 TOTAL ENERGY:     -154.187636563 Eh
FINAL SINGLE POINT ENERGY      -154.187636563214
MP2 TOTAL ENERGY:     -154.330989086 Eh
FINAL SINGLE POINT ENERGY      -154.330989085599

CARTESIAN COORDINATES (ANGSTROEM)
---------------------------------
  C     -0.601730   -0.028570    0.384935
  H     -1.663735   -0.028527    0.379014
  C      0.610109   -0.028664    0.388164
  H      1.672135   -0.028793    0.387968
  C     -0.006558    0.090968    3.877830
  H     -0.003163    0.057233    2.814533
  C     -0.010494    0.129258    5.089296
  H     -0.013760    0.162634    6.150207

 Multiplicity           Mult            ....    1
 Number of Electrons    NEL             ....   28
 Basis Dimension        Dim             ....  504

ORBITAL ENERGIES
----------------

  NO   OCC          E(Eh)            E(eV)
   0   2.0000     -11.256817      -306.3136
   1   2.0000     -11.253197      -306.2151
   2   2.0000     -11.235002      -305.7199
   3   2.0000     -11.231016      -305.6115
   4   2.0000      -1.041650       -28.3447
   5   2.0000      -1.018646       -27.7188
   6   2.0000      -0.780315       -21.2334
   7   2.0000      -0.759780       -20.6747
   8   2.0000      -0.692417       -18.8416
   9   2.0000      -0.672256       -18.2930
  10   2.0000      -0.422482       -11.4963
  11   2.0000      -0.421617       -11.4728
  12   2.0000      -0.400294       -10.8925
  13   2.0000      -0.399827       -10.8798
  14   0.0000       0.025681         0.6988
  15   0.0000       0.028878         0.7858
  16   0.0000       0.031558         0.8587
  17   0.0000       0.054403         1.4804
  18   0.0000       0.070053         1.9062

MULLIKEN ATOMIC CHARGES
-----------------------
   0 C :   -0.593875
   1 H :    0.569347
   2 C :   -0.593790
   3 H :    0.569372
   4 C :   -0.602138
   5 H :    0.879138
   6 C :   -0.769213
   7 H :    0.541160
Sum of atomic charges:   -0.0000000

LOEWDIN ATOMIC CHARGES
----------------------
   0 C :    0.497132
   1 H :   -0.449003
   2 C :    0.497195
   3 H :   -0.449018
   4 C :    0.481027
   5 H :   -0.590022
   6 C :    0.496717
   7 H :   -0.484029

  Mayer bond orders larger than 0.100000
B(  0-C ,  1-H ) :   0.6884 B(  0-C ,  2-C ) :   2.6916 B(  2-C ,  3-H ) :   0.6884
B(  4-C ,  5-H ) :   0.3646 B(  4-C ,  6-C ) :   2.5338 B(  5-H ,  6-C ) :  -0.1512
B(  6-C ,  7-H ) :   0.7523

MP2 TOTAL ENERGY:     -154.373944381 Eh
FINAL SINGLE POINT ENERGY      -154.373944380592

DIPOLE MOMENT
-------------
                                X             Y             Z
Electronic contribution:      0.00049      -0.00577      -0.16661
Nuclear contribution   :      0.00013      -0.00039      -0.00736
                        -----------------------------------------
Total Dipole Moment    :      0.00062      -0.00616      -0.17397
                        -----------------------------------------
Magnitude (a.u.)       :      0.17408
Magnitude (Debye)      :      0.44247

Rotational constants in cm-1:     1.168390     0.072277     0.068067
Rotational constants in MHz : 35027.445201  2166.824109  2040.592712

                             ****ORCA TERMINATED NORMALLY****
TOTAL RUN TIME: 0 days 0 hours 8 minutes 52 seconds 159 msec
