                         Program Version 5.0.4 -  RELEASE  -
|  1> ! ri-mp2 aug-cc-pvdz aug-cc-pvdz/c tightscf
|  2> %pal nprocs 16 end
|  3> %maxcore 3800
|  4> %base "DZ_S66by10_46_1.1_dimer"
|  5> %scf STABPerform true end
|  6>
|  7> *xyz 0 1
|  8> C    1.37219093    1.01247736    0.97082468
|  9> H    0.95217623    2.01404955    1.03311725
| 10> H    1.94742170    0.92651560    0.05071776
| 11> H    2.05170208    0.85182517    1.80295247
| 12> C    0.32673706   -0.07764727    0.98819876
| 13> O    0.61882128   -1.25248130    1.17128126
| 14> N   -0.95002884    0.34488680    0.77391491
| 15> H   -1.10467156    1.32202550    0.60611216
| 16> C   -2.05985440   -0.57736895    0.68015349
| 17> H   -1.66935602   -1.56679601    0.89718425
| 18> H   -2.83459176   -0.33138032    1.40366139
| 19> H   -2.49097050   -0.57892483   -0.31993926
| 20> C    2.68635797    0.48072861    5.15431415
| 21> H    2.80319726    1.23514450    4.37556933
| 22> H    2.60024760    1.00561493    6.10597021
| 23> H    3.59844941   -0.11351330    5.18112216
| 24> C    1.45808575   -0.38265890    4.89676260
| 25> H    1.36351639   -1.12811291    5.68981344
| 26> H    1.57450588   -0.93612323    3.96291880
| 27> C    0.17554790    0.43595504    4.83146125
| 28> H    0.06397758    1.01368993    5.75454490
| 29> H    0.25478205    1.16876995    4.02180860
| 30> C   -1.06880839   -0.41438019    4.61458136
| 31> H   -1.15961035   -1.12886668    5.43599858
| 32> H   -0.94100138   -1.00331792    3.70436690
| 33> C   -2.33564688    0.42591132    4.52446663
| 34> H   -2.26873365    1.13296230    3.69669740
| 35> H   -3.22098910   -0.19010617    4.37063372
| 36> H   -2.48600293    1.00212241    5.43768622
| 37> *
| 38>
| 39> $new_job
| 40> ! ri-mp2 aug-cc-pvtz aug-cc-pvtz/c tightscf
| 41> %pal nprocs 16 end
| 42> %maxcore 3800
| 43> %base "TZ_S66by10_46_1.1_dimer"
| 44>
| 45> *xyz 0 1
| 46> C    1.37219093    1.01247736    0.97082468
| 47> H    0.95217623    2.01404955    1.03311725
| 48> H    1.94742170    0.92651560    0.05071776
| 49> H    2.05170208    0.85182517    1.80295247
| 50> C    0.32673706   -0.07764727    0.98819876
| 51> O    0.61882128   -1.25248130    1.17128126
| 52> N   -0.95002884    0.34488680    0.77391491
| 53> H   -1.10467156    1.32202550    0.60611216
| 54> C   -2.05985440   -0.57736895    0.68015349
| 55> H   -1.66935602   -1.56679601    0.89718425
| 56> H   -2.83459176   -0.33138032    1.40366139
| 57> H   -2.49097050   -0.57892483   -0.31993926
| 58> C    2.68635797    0.48072861    5.15431415
| 59> H    2.80319726    1.23514450    4.37556933
| 60> H    2.60024760    1.00561493    6.10597021
| 61> H    3.59844941   -0.11351330    5.18112216
| 62> C    1.45808575   -0.38265890    4.89676260
| 63> H    1.36351639   -1.12811291    5.68981344
| 64> H    1.57450588   -0.93612323    3.96291880
| 65> C    0.17554790    0.43595504    4.83146125
| 66> H    0.06397758    1.01368993    5.75454490
| 67> H    0.25478205    1.16876995    4.02180860
| 68> C   -1.06880839   -0.41438019    4.61458136
| 69> H   -1.15961035   -1.12886668    5.43599858
| 70> H   -0.94100138   -1.00331792    3.70436690
| 71> C   -2.33564688    0.42591132    4.52446663
| 72> H   -2.26873365    1.13296230    3.69669740
| 73> H   -3.22098910   -0.19010617    4.37063372
| 74> H   -2.48600293    1.00212241    5.43768622
| 75> *
| 76>
| 77> $new_job
| 78> ! ri-mp2 aug-cc-pvqz aug-cc-pvqz/c tightscf
| 79> %pal nprocs 16 end
| 80> %maxcore 3800
| 81> %base "QZ_S66by10_46_1.1_dimer"
| 82>
| 83> *xyz 0 1
| 84> C    1.37219093    1.01247736    0.97082468
| 85> H    0.95217623    2.01404955    1.03311725
| 86> H    1.94742170    0.92651560    0.05071776
| 87> H    2.05170208    0.85182517    1.80295247
| 88> C    0.32673706   -0.07764727    0.98819876
| 89> O    0.61882128   -1.25248130    1.17128126
| 90> N   -0.95002884    0.34488680    0.77391491
| 91> H   -1.10467156    1.32202550    0.60611216
| 92> C   -2.05985440   -0.57736895    0.68015349
| 93> H   -1.66935602   -1.56679601    0.89718425
| 94> H   -2.83459176   -0.33138032    1.40366139
| 95> H   -2.49097050   -0.57892483   -0.31993926
| 96> C    2.68635797    0.48072861    5.15431415
| 97> H    2.80319726    1.23514450    4.37556933
| 98> H    2.60024760    1.00561493    6.10597021
| 99> H    3.59844941   -0.11351330    5.18112216
|100> C    1.45808575   -0.38265890    4.89676260
|101> H    1.36351639   -1.12811291    5.68981344
|102> H    1.57450588   -0.93612323    3.96291880
|103> C    0.17554790    0.43595504    4.83146125
|104> H    0.06397758    1.01368993    5.75454490
|105> H    0.25478205    1.16876995    4.02180860
|106> C   -1.06880839   -0.41438019    4.61458136
|107> H   -1.15961035   -1.12886668    5.43599858
|108> H   -0.94100138   -1.00331792    3.70436690
|109> C   -2.33564688    0.42591132    4.52446663
|110> H   -2.26873365    1.13296230    3.69669740
|111> H   -3.22098910   -0.19010617    4.37063372
|112> H   -2.48600293    1.00212241    5.43768622
|113> *
|114>
|115>
|116>
|117>
|118>                          ****END OF INPUT****
 Total Charge           Charge          ....    0
 Multiplicity           Mult            ....    1
 Number of Electrons    NEL             ....   82
MP2 TOTAL ENERGY:     -444.969052285 Eh
FINAL SINGLE POINT ENERGY      -444.969052285159
MP2 TOTAL ENERGY:     -445.388252032 Eh
FINAL SINGLE POINT ENERGY      -445.388252031931

CARTESIAN COORDINATES (ANGSTROEM)
---------------------------------
  C      1.372191    1.012477    0.970825
  H      0.952176    2.014050    1.033117
  H      1.947422    0.926516    0.050718
  H      2.051702    0.851825    1.802952
  C      0.326737   -0.077647    0.988199
  O      0.618821   -1.252481    1.171281
  N     -0.950029    0.344887    0.773915
  H     -1.104672    1.322026    0.606112
  C     -2.059854   -0.577369    0.680153
  H     -1.669356   -1.566796    0.897184
  H     -2.834592   -0.331380    1.403661
  H     -2.490970   -0.578925   -0.319939
  C      2.686358    0.480729    5.154314
  H      2.803197    1.235145    4.375569
  H      2.600248    1.005615    6.105970
  H      3.598449   -0.113513    5.181122
  C      1.458086   -0.382659    4.896763
  H      1.363516   -1.128113    5.689813
  H      1.574506   -0.936123    3.962919
  C      0.175548    0.435955    4.831461
  H      0.063978    1.013690    5.754545
  H      0.254782    1.168770    4.021809
  C     -1.068808   -0.414380    4.614581
  H     -1.159610   -1.128867    5.435999
  H     -0.941001   -1.003318    3.704367
  C     -2.335647    0.425911    4.524467
  H     -2.268734    1.132962    3.696697
  H     -3.220989   -0.190106    4.370634
  H     -2.486003    1.002122    5.437686

 Multiplicity           Mult            ....    1
 Number of Electrons    NEL             ....   82
 Basis Dimension        Dim             .... 1674

ORBITAL ENERGIES
----------------

  NO   OCC          E(Eh)            E(eV)
   0   2.0000     -20.510386      -558.1160
   1   2.0000     -15.585872      -424.1131
   2   2.0000     -11.348405      -308.8058
   3   2.0000     -11.255476      -306.2771
   4   2.0000     -11.235213      -305.7257
   5   2.0000     -11.206346      -304.9402
   6   2.0000     -11.206050      -304.9321
   7   2.0000     -11.205403      -304.9145
   8   2.0000     -11.203557      -304.8643
   9   2.0000     -11.202698      -304.8409
  10   2.0000      -1.375426       -37.4272
  11   2.0000      -1.231383       -33.5076
  12   2.0000      -1.076734       -29.2994
  13   2.0000      -1.020145       -27.7595
  14   2.0000      -1.011426       -27.5223
  15   2.0000      -0.933152       -25.3924
  16   2.0000      -0.916145       -24.9296
  17   2.0000      -0.815983       -22.2040
  18   2.0000      -0.790905       -21.5216
  19   2.0000      -0.780392       -21.2356
  20   2.0000      -0.692243       -18.8369
  21   2.0000      -0.654030       -17.7971
  22   2.0000      -0.649192       -17.6654
  23   2.0000      -0.629630       -17.1331
  24   2.0000      -0.595179       -16.1957
  25   2.0000      -0.595078       -16.1929
  26   2.0000      -0.584764       -15.9122
  27   2.0000      -0.581200       -15.8152
  28   2.0000      -0.556425       -15.1411
  29   2.0000      -0.550472       -14.9791
  30   2.0000      -0.545633       -14.8474
  31   2.0000      -0.545082       -14.8324
  32   2.0000      -0.523928       -14.2568
  33   2.0000      -0.507019       -13.7967
  34   2.0000      -0.491063       -13.3625
  35   2.0000      -0.471959       -12.8426
  36   2.0000      -0.457429       -12.4473
  37   2.0000      -0.454219       -12.3599
  38   2.0000      -0.442702       -12.0465
  39   2.0000      -0.422929       -11.5085
  40   2.0000      -0.393368       -10.7041
  41   0.0000       0.019030         0.5178
  42   0.0000       0.027744         0.7550
  43   0.0000       0.029381         0.7995
  44   0.0000       0.032525         0.8851
  45   0.0000       0.038673         1.0523

MULLIKEN ATOMIC CHARGES
-----------------------
   0 C :   -0.968496
   1 H :    0.199396
   2 H :    0.381347
   3 H :    0.395949
   4 C :    1.277030
   5 O :   -0.999467
   6 N :   -0.601518
   7 H :    0.260791
   8 C :   -0.920476
   9 H :    0.263261
  10 H :    0.317722
  11 H :    0.405500
  12 C :   -0.995714
  13 H :    0.267001
  14 H :    0.236227
  15 H :    0.253347
  16 C :   -0.520432
  17 H :    0.311600
  18 H :    0.288139
  19 C :   -0.282446
  20 H :    0.296712
  21 H :    0.295763
  22 C :   -0.516913
  23 H :    0.296966
  24 H :    0.325523
  25 C :   -1.050790
  26 H :    0.250563
  27 H :    0.234732
  28 H :    0.298684
Sum of atomic charges:    0.0000000

LOEWDIN ATOMIC CHARGES
----------------------
   0 C :    0.892821
   1 H :   -0.305792
   2 H :   -0.285709
   3 H :   -0.317953
   4 C :   -0.846370
   5 O :    0.721085
   6 N :    0.829627
   7 H :   -0.502535
   8 C :    0.784414
   9 H :   -0.360609
  10 H :   -0.295455
  11 H :   -0.278724
  12 C :    0.927107
  13 H :   -0.292972
  14 H :   -0.284860
  15 H :   -0.280759
  16 C :    0.504744
  17 H :   -0.268739
  18 H :   -0.286889
  19 C :    0.487247
  20 H :   -0.265220
  21 H :   -0.282020
  22 C :    0.502863
  23 H :   -0.265920
  24 H :   -0.293510
  25 C :    0.921928
  26 H :   -0.295303
  27 H :   -0.280241
  28 H :   -0.282257

  Mayer bond orders larger than 0.100000
B(  0-C ,  1-H ) :   1.0501 B(  0-C ,  2-H ) :   0.8700 B(  0-C ,  3-H ) :   0.8367
B(  0-C ,  4-C ) :   0.8419 B(  0-C ,  5-O ) :   0.1030 B(  1-H ,  4-C ) :  -0.1107
B(  4-C ,  5-O ) :   0.9944 B(  4-C ,  6-N ) :   1.0649 B(  4-C ,  8-C ) :  -0.1068
B(  5-O ,  6-N ) :   0.1572 B(  6-N ,  7-H ) :   0.9884 B(  6-N ,  8-C ) :   0.8635
B(  8-C ,  9-H ) :   0.9900 B(  8-C , 10-H ) :   0.8890 B(  8-C , 11-H ) :   0.8587
B( 12-C , 13-H ) :   0.9125 B( 12-C , 14-H ) :   0.9850 B( 12-C , 15-H ) :   1.0443
B( 12-C , 16-C ) :   0.9871 B( 15-H , 16-C ) :  -0.1050 B( 16-C , 17-H ) :   0.8533
B( 16-C , 18-H ) :   0.8404 B( 16-C , 19-C ) :   0.7753 B( 19-C , 20-H ) :   0.8960
B( 19-C , 21-H ) :   0.8463 B( 19-C , 22-C ) :   0.8707 B( 22-C , 23-H ) :   0.8735
B( 22-C , 24-H ) :   0.8082 B( 22-C , 25-C ) :   0.9565 B( 22-C , 27-H ) :  -0.1170
B( 25-C , 26-H ) :   0.9343 B( 25-C , 27-H ) :   1.0454 B( 25-C , 28-H ) :   0.9411

MP2 TOTAL ENERGY:     -445.516983431 Eh
FINAL SINGLE POINT ENERGY      -445.516983431450

DIPOLE MOMENT
-------------
                                X             Y             Z
Electronic contribution:      0.54736      -3.05841      -8.88863
Nuclear contribution   :     -1.18259       4.34299       8.51764
                        -----------------------------------------
Total Dipole Moment    :     -0.63523       1.28458      -0.37099
                        -----------------------------------------
Magnitude (a.u.)       :      1.48031
Magnitude (Debye)      :      3.76264

Rotational constants in cm-1:     0.041328     0.024887     0.017941
Rotational constants in MHz :  1238.970448   746.103348   537.848774

                             ****ORCA TERMINATED NORMALLY****
TOTAL RUN TIME: 0 days 11 hours 5 minutes 55 seconds 119 msec
