                         Program Version 5.0.4 -  RELEASE  -
|  1> ! ri-mp2 aug-cc-pvdz aug-cc-pvdz/c tightscf
|  2> %pal nprocs 16 end
|  3> %maxcore 3800
|  4> %base "DZ_S66by10_50_0.9_dimer"
|  5>
|  6> *xyz 0 1
|  7> C    0.83661195    1.11485600    0.23100790
|  8> H    1.48545250    1.97968049    0.21470491
|  9> C    1.38418781   -0.16696533    0.26005688
| 10> H    2.45768419   -0.29628753    0.26605977
| 11> C    0.54747934   -1.28184652    0.28693051
| 12> H    0.97191784   -2.27597918    0.31387670
| 13> C   -0.83666710   -1.11500365    0.28456279
| 14> H   -1.48555353   -1.97956851    0.30969784
| 15> C   -1.38416274    0.16685015    0.25560540
| 16> H   -2.45764469    0.29645927    0.25854055
| 17> C   -0.54749833    1.28174826    0.22897743
| 18> H   -0.97214124    2.27600137    0.21116093
| 19> C    0.00544546    0.06689301    3.42748930
| 20> H    0.00243633    0.04933746    2.36341380
| 21> C    0.00910591    0.08647386    4.63986547
| 22> H    0.01221832    0.10364679    5.70106248
| 23> *
| 24>
| 25> $new_job
| 26> ! ri-mp2 aug-cc-pvtz aug-cc-pvtz/c tightscf
| 27> %pal nprocs 16 end
| 28> %maxcore 3800
| 29> %base "TZ_S66by10_50_0.9_dimer"
| 30>
| 31> *xyz 0 1
| 32> C    0.83661195    1.11485600    0.23100790
| 33> H    1.48545250    1.97968049    0.21470491
| 34> C    1.38418781   -0.16696533    0.26005688
| 35> H    2.45768419   -0.29628753    0.26605977
| 36> C    0.54747934   -1.28184652    0.28693051
| 37> H    0.97191784   -2.27597918    0.31387670
| 38> C   -0.83666710   -1.11500365    0.28456279
| 39> H   -1.48555353   -1.97956851    0.30969784
| 40> C   -1.38416274    0.16685015    0.25560540
| 41> H   -2.45764469    0.29645927    0.25854055
| 42> C   -0.54749833    1.28174826    0.22897743
| 43> H   -0.97214124    2.27600137    0.21116093
| 44> C    0.00544546    0.06689301    3.42748930
| 45> H    0.00243633    0.04933746    2.36341380
| 46> C    0.00910591    0.08647386    4.63986547
| 47> H    0.01221832    0.10364679    5.70106248
| 48> *
| 49>
| 50> $new_job
| 51> ! ri-mp2 aug-cc-pvqz aug-cc-pvqz/c tightscf
| 52> %pal nprocs 16 end
| 53> %maxcore 3800
| 54> %base "QZ_S66by10_50_0.9_dimer"
| 55>
| 56> *xyz 0 1
| 57> C    0.83661195    1.11485600    0.23100790
| 58> H    1.48545250    1.97968049    0.21470491
| 59> C    1.38418781   -0.16696533    0.26005688
| 60> H    2.45768419   -0.29628753    0.26605977
| 61> C    0.54747934   -1.28184652    0.28693051
| 62> H    0.97191784   -2.27597918    0.31387670
| 63> C   -0.83666710   -1.11500365    0.28456279
| 64> H   -1.48555353   -1.97956851    0.30969784
| 65> C   -1.38416274    0.16685015    0.25560540
| 66> H   -2.45764469    0.29645927    0.25854055
| 67> C   -0.54749833    1.28174826    0.22897743
| 68> H   -0.97214124    2.27600137    0.21116093
| 69> C    0.00544546    0.06689301    3.42748930
| 70> H    0.00243633    0.04933746    2.36341380
| 71> C    0.00910591    0.08647386    4.63986547
| 72> H    0.01221832    0.10364679    5.70106248
| 73> *
| 74>
| 75>
| 76>
| 77>
| 78>                          ****END OF INPUT****
 Total Charge           Charge          ....    0
 Multiplicity           Mult            ....    1
 Number of Electrons    NEL             ....   56
MP2 TOTAL ENERGY:     -308.639202582 Eh
FINAL SINGLE POINT ENERGY      -308.639202582108
MP2 TOTAL ENERGY:     -308.914990004 Eh
FINAL SINGLE POINT ENERGY      -308.914990003796

CARTESIAN COORDINATES (ANGSTROEM)
---------------------------------
  C      0.836612    1.114856    0.231008
  H      1.485452    1.979680    0.214705
  C      1.384188   -0.166965    0.260057
  H      2.457684   -0.296288    0.266060
  C      0.547479   -1.281847    0.286931
  H      0.971918   -2.275979    0.313877
  C     -0.836667   -1.115004    0.284563
  H     -1.485554   -1.979569    0.309698
  C     -1.384163    0.166850    0.255605
  H     -2.457645    0.296459    0.258541
  C     -0.547498    1.281748    0.228977
  H     -0.972141    2.276001    0.211161
  C      0.005445    0.066893    3.427489
  H      0.002436    0.049337    2.363414
  C      0.009106    0.086474    4.639865
  H      0.012218    0.103647    5.701062

 Multiplicity           Mult            ....    1
 Number of Electrons    NEL             ....   56
 Basis Dimension        Dim             .... 1008

ORBITAL ENERGIES
----------------

  NO   OCC          E(Eh)            E(eV)
   0   2.0000     -11.243837      -305.9604
   1   2.0000     -11.243261      -305.9447
   2   2.0000     -11.243257      -305.9446
   3   2.0000     -11.242017      -305.9108
   4   2.0000     -11.242013      -305.9107
   5   2.0000     -11.241405      -305.8942
   6   2.0000     -11.225659      -305.4657
   7   2.0000     -11.222028      -305.3669
   8   2.0000      -1.161316       -31.6010
   9   2.0000      -1.024108       -27.8674
  10   2.0000      -1.024099       -27.8671
  11   2.0000      -1.009961       -27.4824
  12   2.0000      -0.832585       -22.6558
  13   2.0000      -0.832568       -22.6553
  14   2.0000      -0.753317       -20.4988
  15   2.0000      -0.718581       -19.5536
  16   2.0000      -0.666052       -18.1242
  17   2.0000      -0.651860       -17.7380
  18   2.0000      -0.627834       -17.0842
  19   2.0000      -0.596922       -16.2431
  20   2.0000      -0.596906       -16.2426
  21   2.0000      -0.506202       -13.7745
  22   2.0000      -0.503215       -13.6932
  23   2.0000      -0.503187       -13.6924
  24   2.0000      -0.393628       -10.7112
  25   2.0000      -0.393627       -10.7111
  26   2.0000      -0.346580        -9.4309
  27   2.0000      -0.346574        -9.4308
  28   0.0000       0.023592         0.6420
  29   0.0000       0.030066         0.8181
  30   0.0000       0.030067         0.8182
  31   0.0000       0.031501         0.8572
  32   0.0000       0.042256         1.1499

MULLIKEN ATOMIC CHARGES
-----------------------
   0 C :   -0.314347
   1 H :    0.278354
   2 C :   -0.314465
   3 H :    0.278617
   4 C :   -0.314562
   5 H :    0.278270
   6 C :   -0.314556
   7 H :    0.278485
   8 C :   -0.314350
   9 H :    0.278488
  10 C :   -0.314120
  11 H :    0.278468
  12 C :   -0.651365
  13 H :    1.971411
  14 C :   -1.372436
  15 H :    0.268111
Sum of atomic charges:    0.0000000

LOEWDIN ATOMIC CHARGES
----------------------
   0 C :    0.324750
   1 H :   -0.314116
   2 C :    0.324707
   3 H :   -0.314092
   4 C :    0.324540
   5 H :   -0.314087
   6 C :    0.324646
   7 H :   -0.314082
   8 C :    0.324756
   9 H :   -0.314110
  10 C :    0.324768
  11 H :   -0.314129
  12 C :    0.507828
  13 H :   -0.614932
  14 C :    0.528073
  15 H :   -0.484519

  Mayer bond orders larger than 0.100000
B(  0-C ,  1-H ) :   1.0842 B(  0-C ,  2-C ) :   1.2016 B(  0-C ,  6-C ) :   0.1287
B(  0-C , 10-C ) :   1.2016 B(  2-C ,  3-H ) :   1.0836 B(  2-C ,  4-C ) :   1.2017
B(  2-C ,  8-C ) :   0.1288 B(  4-C ,  5-H ) :   1.0839 B(  4-C ,  6-C ) :   1.2017
B(  4-C , 10-C ) :   0.1288 B(  6-C ,  7-H ) :   1.0837 B(  6-C ,  8-C ) :   1.2017
B(  8-C ,  9-H ) :   1.0840 B(  8-C , 10-C ) :   1.2016 B( 10-C , 11-H ) :   1.0842
B( 12-C , 13-H ) :  -0.9637 B( 12-C , 14-C ) :   2.1549 B( 12-C , 15-H ) :  -0.1865
B( 13-H , 14-C ) :  -0.6793 B( 13-H , 15-H ) :  -0.3541 B( 14-C , 15-H ) :   1.5037

MP2 TOTAL ENERGY:     -309.000775633 Eh
FINAL SINGLE POINT ENERGY      -309.000775632798

DIPOLE MOMENT
-------------
                                X             Y             Z
Electronic contribution:     -0.00018      -0.00687      -0.29544
Nuclear contribution   :     -0.00011       0.00025       0.02079
                        -----------------------------------------
Total Dipole Moment    :     -0.00030      -0.00662      -0.27465
                        -----------------------------------------
Magnitude (a.u.)       :      0.27473
Magnitude (Debye)      :      0.69831

Rotational constants in cm-1:     0.095168     0.044191     0.044190
Rotational constants in MHz :  2853.061767  1324.807709  1324.783392

                             ****ORCA TERMINATED NORMALLY****
TOTAL RUN TIME: 0 days 0 hours 24 minutes 43 seconds 504 msec
