                         Program Version 5.0.4 -  RELEASE  -
|  1> ! ri-mp2 aug-cc-pvdz aug-cc-pvdz/c tightscf
|  2> %pal nprocs 16 end
|  3> %maxcore 3800
|  4> %base "DZ_S66by10_19_0.8_dimer"
|  5>
|  6> *xyz 0 1
|  7> O   -0.62765177    0.08746727    0.00147128
|  8> H    0.34360203    0.12230333   -0.00060045
|  9> C   -0.97793123   -1.27855601    0.00123841
| 10> H   -2.06339209   -1.34204332    0.00500898
| 11> H   -0.61488369   -1.80637584   -0.88538395
| 12> H   -0.60864033   -1.80823682    0.88417273
| 13> N    1.90368577    0.03666808   -0.00143066
| 14> C    2.60005416    0.01223275   -1.14615026
| 15> H    2.01557556    0.03545628   -2.05712570
| 16> C    3.98969122   -0.03751011   -1.19483551
| 17> H    4.49704357   -0.05480215   -2.14861824
| 18> C    4.70006445   -0.06322273    0.00077751
| 19> H    5.78040045   -0.10098748    0.00162681
| 20> C    3.98781700   -0.03820162    1.19531737
| 21> H    4.49361573   -0.05602595    2.14980306
| 22> C    2.59826335    0.01154806    1.14436328
| 23> H    2.01225757    0.03422249    2.05448197
| 24> *
| 25>
| 26> $new_job
| 27> ! ri-mp2 aug-cc-pvtz aug-cc-pvtz/c tightscf
| 28> %pal nprocs 16 end
| 29> %maxcore 3800
| 30> %base "TZ_S66by10_19_0.8_dimer"
| 31>
| 32> *xyz 0 1
| 33> O   -0.62765177    0.08746727    0.00147128
| 34> H    0.34360203    0.12230333   -0.00060045
| 35> C   -0.97793123   -1.27855601    0.00123841
| 36> H   -2.06339209   -1.34204332    0.00500898
| 37> H   -0.61488369   -1.80637584   -0.88538395
| 38> H   -0.60864033   -1.80823682    0.88417273
| 39> N    1.90368577    0.03666808   -0.00143066
| 40> C    2.60005416    0.01223275   -1.14615026
| 41> H    2.01557556    0.03545628   -2.05712570
| 42> C    3.98969122   -0.03751011   -1.19483551
| 43> H    4.49704357   -0.05480215   -2.14861824
| 44> C    4.70006445   -0.06322273    0.00077751
| 45> H    5.78040045   -0.10098748    0.00162681
| 46> C    3.98781700   -0.03820162    1.19531737
| 47> H    4.49361573   -0.05602595    2.14980306
| 48> C    2.59826335    0.01154806    1.14436328
| 49> H    2.01225757    0.03422249    2.05448197
| 50> *
| 51>
| 52> $new_job
| 53> ! ri-mp2 aug-cc-pvqz aug-cc-pvqz/c tightscf
| 54> %pal nprocs 16 end
| 55> %maxcore 3800
| 56> %base "QZ_S66by10_19_0.8_dimer"
| 57>
| 58> *xyz 0 1
| 59> O   -0.62765177    0.08746727    0.00147128
| 60> H    0.34360203    0.12230333   -0.00060045
| 61> C   -0.97793123   -1.27855601    0.00123841
| 62> H   -2.06339209   -1.34204332    0.00500898
| 63> H   -0.61488369   -1.80637584   -0.88538395
| 64> H   -0.60864033   -1.80823682    0.88417273
| 65> N    1.90368577    0.03666808   -0.00143066
| 66> C    2.60005416    0.01223275   -1.14615026
| 67> H    2.01557556    0.03545628   -2.05712570
| 68> C    3.98969122   -0.03751011   -1.19483551
| 69> H    4.49704357   -0.05480215   -2.14861824
| 70> C    4.70006445   -0.06322273    0.00077751
| 71> H    5.78040045   -0.10098748    0.00162681
| 72> C    3.98781700   -0.03820162    1.19531737
| 73> H    4.49361573   -0.05602595    2.14980306
| 74> C    2.59826335    0.01154806    1.14436328
| 75> H    2.01225757    0.03422249    2.05448197
| 76> *
| 77>
| 78>
| 79>
| 80>
| 81>                          ****END OF INPUT****
 Total Charge           Charge          ....    0
 Multiplicity           Mult            ....    1
 Number of Electrons    NEL             ....   60
MP2 TOTAL ENERGY:     -362.991841818 Eh
FINAL SINGLE POINT ENERGY      -362.991841818011
MP2 TOTAL ENERGY:     -363.313768514 Eh
FINAL SINGLE POINT ENERGY      -363.313768514175

CARTESIAN COORDINATES (ANGSTROEM)
---------------------------------
  O     -0.627652    0.087467    0.001471
  H      0.343602    0.122303   -0.000600
  C     -0.977931   -1.278556    0.001238
  H     -2.063392   -1.342043    0.005009
  H     -0.614884   -1.806376   -0.885384
  H     -0.608640   -1.808237    0.884173
  N      1.903686    0.036668   -0.001431
  C      2.600054    0.012233   -1.146150
  H      2.015576    0.035456   -2.057126
  C      3.989691   -0.037510   -1.194836
  H      4.497044   -0.054802   -2.148618
  C      4.700064   -0.063223    0.000778
  H      5.780400   -0.100987    0.001627
  C      3.987817   -0.038202    1.195317
  H      4.493616   -0.056026    2.149803
  C      2.598263    0.011548    1.144363
  H      2.012258    0.034222    2.054482

 Multiplicity           Mult            ....    1
 Number of Electrons    NEL             ....   60
 Basis Dimension        Dim             .... 1054

ORBITAL ENERGIES
----------------

  NO   OCC          E(Eh)            E(eV)
   0   2.0000     -20.490291      -557.5692
   1   2.0000     -15.586577      -424.1323
   2   2.0000     -11.295132      -307.3562
   3   2.0000     -11.295113      -307.3556
   4   2.0000     -11.277512      -306.8767
   5   2.0000     -11.257666      -306.3367
   6   2.0000     -11.257616      -306.3353
   7   2.0000     -11.236070      -305.7490
   8   2.0000      -1.310303       -35.6552
   9   2.0000      -1.278876       -34.8000
  10   2.0000      -1.109280       -30.1850
  11   2.0000      -1.053206       -28.6592
  12   2.0000      -0.891216       -24.2512
  13   2.0000      -0.877233       -23.8707
  14   2.0000      -0.876808       -23.8592
  15   2.0000      -0.746998       -20.3268
  16   2.0000      -0.681517       -18.5450
  17   2.0000      -0.676830       -18.4175
  18   2.0000      -0.663045       -18.0424
  19   2.0000      -0.617272       -16.7968
  20   2.0000      -0.589339       -16.0367
  21   2.0000      -0.581501       -15.8234
  22   2.0000      -0.565868       -15.3981
  23   2.0000      -0.549341       -14.9483
  24   2.0000      -0.538788       -14.6612
  25   2.0000      -0.485313       -13.2060
  26   2.0000      -0.419741       -11.4217
  27   2.0000      -0.405959       -11.0467
  28   2.0000      -0.401816       -10.9340
  29   2.0000      -0.365593        -9.9483
  30   0.0000       0.017582         0.4784
  31   0.0000       0.025276         0.6878
  32   0.0000       0.031279         0.8511
  33   0.0000       0.041147         1.1197
  34   0.0000       0.042900         1.1674

MULLIKEN ATOMIC CHARGES
-----------------------
   0 O :   -0.807391
   1 H :    0.370975
   2 C :   -0.630040
   3 H :    0.438139
   4 H :    0.254839
   5 H :    0.254857
   6 N :   -0.392425
   7 C :   -0.308274
   8 H :    0.351550
   9 C :   -0.179821
  10 H :    0.306489
  11 C :   -0.155196
  12 H :    0.325207
  13 C :   -0.179347
  14 H :    0.306668
  15 C :   -0.307565
  16 H :    0.351337
Sum of atomic charges:    0.0000000

LOEWDIN ATOMIC CHARGES
----------------------
   0 O :    1.241963
   1 H :   -1.239937
   2 C :    0.550293
   3 H :   -0.346569
   4 H :   -0.319734
   5 H :   -0.319792
   6 N :    0.643735
   7 C :    0.170770
   8 H :   -0.320479
   9 C :    0.354587
  10 H :   -0.326535
  11 C :    0.343372
  12 H :   -0.310116
  13 C :    0.354701
  14 H :   -0.326628
  15 C :    0.170691
  16 H :   -0.320323

  Mayer bond orders larger than 0.100000
B(  0-O ,  1-H ) :   0.8591 B(  0-O ,  2-C ) :   0.8786 B(  0-O ,  6-N ) :  -0.1468
B(  2-C ,  3-H ) :   0.8152 B(  2-C ,  4-H ) :   0.9161 B(  2-C ,  5-H ) :   0.9159
B(  6-N ,  7-C ) :   1.4052 B(  6-N , 15-C ) :   1.4058 B(  7-C ,  8-H ) :   0.9737
B(  7-C ,  9-C ) :   1.1840 B(  7-C , 10-H ) :  -0.1032 B(  7-C , 11-C ) :  -0.1087
B(  7-C , 13-C ) :   0.1178 B(  9-C , 10-H ) :   1.0148 B(  9-C , 11-C ) :   1.1590
B(  9-C , 13-C ) :  -0.1047 B(  9-C , 15-C ) :   0.1175 B( 11-C , 12-H ) :   1.0049
B( 11-C , 13-C ) :   1.1593 B( 11-C , 15-C ) :  -0.1091 B( 13-C , 14-H ) :   1.0146
B( 13-C , 15-C ) :   1.1827 B( 14-H , 15-C ) :  -0.1031 B( 15-C , 16-H ) :   0.9739

MP2 TOTAL ENERGY:     -363.416080427 Eh
FINAL SINGLE POINT ENERGY      -363.416080426945

DIPOLE MOMENT
-------------
                                X             Y             Z
Electronic contribution:      5.11603       2.71996      -0.00294
Nuclear contribution   :     -3.06246      -3.15623       0.00200
                        -----------------------------------------
Total Dipole Moment    :      2.05357      -0.43627      -0.00094
                        -----------------------------------------
Magnitude (a.u.)       :      2.09940
Magnitude (Debye)      :      5.33626

Rotational constants in cm-1:     0.163222     0.034292     0.030169
Rotational constants in MHz :  4893.284961  1028.039414   904.452285

                             ****ORCA TERMINATED NORMALLY****
TOTAL RUN TIME: 0 days 0 hours 25 minutes 55 seconds 221 msec
