                         Program Version 5.0.4 -  RELEASE  -
|  1> ! ri-mp2 aug-cc-pvdz aug-cc-pvdz/c tightscf
|  2> %pal nprocs 16 end
|  3> %maxcore 3800
|  4> %base "DZ_S66by10_52_0.8_dimer"
|  5>
|  6> *xyz 0 1
|  7> C    0.96408039    0.87509331    0.37801364
|  8> H    1.65982961    1.69993082    0.44604227
|  9> C    1.43105709   -0.41313344    0.11899152
| 10> H    2.48952453   -0.58720917   -0.01701261
| 11> C    0.53412766   -1.47763890    0.04241755
| 12> H    0.89696129   -2.47738838   -0.15201199
| 13> C   -0.83032682   -1.25360409    0.22085611
| 14> H   -1.52576001   -2.07962435    0.16411655
| 15> C   -1.29758715    0.03441261    0.48024263
| 16> H   -2.35439607    0.20801612    0.62856096
| 17> C   -0.40044509    1.09977921    0.56160137
| 18> H   -0.76045514    2.09376880    0.78475698
| 19> C   -0.15780858    0.61086568    3.84628765
| 20> O   -0.62599818    1.66031230    3.46702727
| 21> O    0.24540399   -0.36669759    3.00700239
| 22> H    0.07669917   -0.04078400    2.10559714
| 23> C    0.05214572    0.21387859    5.27769344
| 24> H   -0.25782043    1.02321517    5.92768233
| 25> H   -0.52393501   -0.68274538    5.49464456
| 26> H    1.10064314   -0.02225349    5.44271203
| 27> *
| 28>
| 29> $new_job
| 30> ! ri-mp2 aug-cc-pvtz aug-cc-pvtz/c tightscf
| 31> %pal nprocs 16 end
| 32> %maxcore 3800
| 33> %base "TZ_S66by10_52_0.8_dimer"
| 34>
| 35> *xyz 0 1
| 36> C    0.96408039    0.87509331    0.37801364
| 37> H    1.65982961    1.69993082    0.44604227
| 38> C    1.43105709   -0.41313344    0.11899152
| 39> H    2.48952453   -0.58720917   -0.01701261
| 40> C    0.53412766   -1.47763890    0.04241755
| 41> H    0.89696129   -2.47738838   -0.15201199
| 42> C   -0.83032682   -1.25360409    0.22085611
| 43> H   -1.52576001   -2.07962435    0.16411655
| 44> C   -1.29758715    0.03441261    0.48024263
| 45> H   -2.35439607    0.20801612    0.62856096
| 46> C   -0.40044509    1.09977921    0.56160137
| 47> H   -0.76045514    2.09376880    0.78475698
| 48> C   -0.15780858    0.61086568    3.84628765
| 49> O   -0.62599818    1.66031230    3.46702727
| 50> O    0.24540399   -0.36669759    3.00700239
| 51> H    0.07669917   -0.04078400    2.10559714
| 52> C    0.05214572    0.21387859    5.27769344
| 53> H   -0.25782043    1.02321517    5.92768233
| 54> H   -0.52393501   -0.68274538    5.49464456
| 55> H    1.10064314   -0.02225349    5.44271203
| 56> *
| 57>
| 58> $new_job
| 59> ! ri-mp2 aug-cc-pvqz aug-cc-pvqz/c tightscf
| 60> %pal nprocs 16 end
| 61> %maxcore 3800
| 62> %base "QZ_S66by10_52_0.8_dimer"
| 63>
| 64> *xyz 0 1
| 65> C    0.96408039    0.87509331    0.37801364
| 66> H    1.65982961    1.69993082    0.44604227
| 67> C    1.43105709   -0.41313344    0.11899152
| 68> H    2.48952453   -0.58720917   -0.01701261
| 69> C    0.53412766   -1.47763890    0.04241755
| 70> H    0.89696129   -2.47738838   -0.15201199
| 71> C   -0.83032682   -1.25360409    0.22085611
| 72> H   -1.52576001   -2.07962435    0.16411655
| 73> C   -1.29758715    0.03441261    0.48024263
| 74> H   -2.35439607    0.20801612    0.62856096
| 75> C   -0.40044509    1.09977921    0.56160137
| 76> H   -0.76045514    2.09376880    0.78475698
| 77> C   -0.15780858    0.61086568    3.84628765
| 78> O   -0.62599818    1.66031230    3.46702727
| 79> O    0.24540399   -0.36669759    3.00700239
| 80> H    0.07669917   -0.04078400    2.10559714
| 81> C    0.05214572    0.21387859    5.27769344
| 82> H   -0.25782043    1.02321517    5.92768233
| 83> H   -0.52393501   -0.68274538    5.49464456
| 84> H    1.10064314   -0.02225349    5.44271203
| 85> *
| 86>
| 87>
| 88>
| 89>
| 90>                          ****END OF INPUT****
 Total Charge           Charge          ....    0
 Multiplicity           Mult            ....    1
 Number of Electrons    NEL             ....   74
MP2 TOTAL ENERGY:     -460.068177164 Eh
FINAL SINGLE POINT ENERGY      -460.068177164112
MP2 TOTAL ENERGY:     -460.471626134 Eh
FINAL SINGLE POINT ENERGY      -460.471626133781

CARTESIAN COORDINATES (ANGSTROEM)
---------------------------------
  C      0.964080    0.875093    0.378014
  H      1.659830    1.699931    0.446042
  C      1.431057   -0.413133    0.118992
  H      2.489525   -0.587209   -0.017013
  C      0.534128   -1.477639    0.042418
  H      0.896961   -2.477388   -0.152012
  C     -0.830327   -1.253604    0.220856
  H     -1.525760   -2.079624    0.164117
  C     -1.297587    0.034413    0.480243
  H     -2.354396    0.208016    0.628561
  C     -0.400445    1.099779    0.561601
  H     -0.760455    2.093769    0.784757
  C     -0.157809    0.610866    3.846288
  O     -0.625998    1.660312    3.467027
  O      0.245404   -0.366698    3.007002
  H      0.076699   -0.040784    2.105597
  C      0.052146    0.213879    5.277693
  H     -0.257820    1.023215    5.927682
  H     -0.523935   -0.682745    5.494645
  H      1.100643   -0.022253    5.442712

 Multiplicity           Mult            ....    1
 Number of Electrons    NEL             ....   74
 Basis Dimension        Dim             .... 1260

ORBITAL ENERGIES
----------------

  NO   OCC          E(Eh)            E(eV)
   0   2.0000     -20.580096      -560.0129
   1   2.0000     -20.531602      -558.6933
   2   2.0000     -11.372011      -309.4481
   3   2.0000     -11.244318      -305.9734
   4   2.0000     -11.243890      -305.9618
   5   2.0000     -11.242401      -305.9213
   6   2.0000     -11.241855      -305.9064
   7   2.0000     -11.241476      -305.8961
   8   2.0000     -11.240023      -305.8566
   9   2.0000     -11.231749      -305.6314
  10   2.0000      -1.444187       -39.2983
  11   2.0000      -1.342834       -36.5404
  12   2.0000      -1.163918       -31.6718
  13   2.0000      -1.026347       -27.9283
  14   2.0000      -1.025196       -27.8970
  15   2.0000      -1.014612       -27.6090
  16   2.0000      -0.832831       -22.6625
  17   2.0000      -0.832446       -22.6520
  18   2.0000      -0.807099       -21.9623
  19   2.0000      -0.720643       -19.6097
  20   2.0000      -0.691517       -18.8171
  21   2.0000      -0.664977       -18.0949
  22   2.0000      -0.650525       -17.7017
  23   2.0000      -0.635053       -17.2807
  24   2.0000      -0.627548       -17.0765
  25   2.0000      -0.597682       -16.2638
  26   2.0000      -0.596560       -16.2332
  27   2.0000      -0.571985       -15.5645
  28   2.0000      -0.566270       -15.4090
  29   2.0000      -0.547254       -14.8915
  30   2.0000      -0.505081       -13.7440
  31   2.0000      -0.503188       -13.6924
  32   2.0000      -0.502061       -13.6618
  33   2.0000      -0.467052       -12.7091
  34   2.0000      -0.439020       -11.9463
  35   2.0000      -0.348618        -9.4864
  36   2.0000      -0.347037        -9.4434
  37   0.0000       0.021993         0.5985
  38   0.0000       0.029156         0.7934
  39   0.0000       0.030845         0.8393
  40   0.0000       0.033614         0.9147
  41   0.0000       0.043184         1.1751

MULLIKEN ATOMIC CHARGES
-----------------------
   0 C :   -0.466008
   1 H :    0.273370
   2 C :   -0.399825
   3 H :    0.271543
   4 C :   -0.285565
   5 H :    0.308397
   6 C :   -0.395574
   7 H :    0.274468
   8 C :   -0.451667
   9 H :    0.280189
  10 C :   -0.171459
  11 H :    0.357485
  12 C :    0.963034
  13 O :   -0.813557
  14 O :   -0.689693
  15 H :    0.755662
  16 C :   -0.717014
  17 H :    0.324459
  18 H :    0.293018
  19 H :    0.288736
Sum of atomic charges:   -0.0000000

LOEWDIN ATOMIC CHARGES
----------------------
   0 C :    0.346049
   1 H :   -0.300091
   2 C :    0.350645
   3 H :   -0.311922
   4 C :    0.349842
   5 H :   -0.315680
   6 C :    0.350967
   7 H :   -0.311448
   8 C :    0.343648
   9 H :   -0.298693
  10 C :    0.307492
  11 H :   -0.309529
  12 C :   -0.997881
  13 O :    0.719181
  14 O :    1.307870
  15 H :   -1.172691
  16 C :    0.876614
  17 H :   -0.326206
  18 H :   -0.303584
  19 H :   -0.304582

  Mayer bond orders larger than 0.100000
B(  0-C ,  1-H ) :   1.0953 B(  0-C ,  2-C ) :   1.3137 B(  0-C ,  6-C ) :   0.1714
B(  0-C , 10-C ) :   1.1574 B(  0-C , 11-H ) :  -0.1013 B(  2-C ,  3-H ) :   1.0892
B(  2-C ,  4-C ) :   1.2186 B(  2-C ,  8-C ) :   0.1656 B(  2-C , 15-H ) :  -0.1471
B(  4-C ,  5-H ) :   1.0484 B(  4-C ,  6-C ) :   1.2259 B(  6-C ,  7-H ) :   1.0844
B(  6-C ,  8-C ) :   1.3123 B(  6-C , 15-H ) :  -0.1450 B(  8-C ,  9-H ) :   1.0870
B(  8-C , 10-C ) :   1.1491 B( 10-C , 11-H ) :   0.9627 B( 12-C , 13-O ) :   1.2958
B( 12-C , 14-O ) :   1.0424 B( 12-C , 16-C ) :   0.8094 B( 13-O , 15-H ) :   0.2451
B( 14-O , 15-H ) :   0.5306 B( 16-C , 17-H ) :   0.9688 B( 16-C , 18-H ) :   0.9233
B( 16-C , 19-H ) :   0.9312

MP2 TOTAL ENERGY:     -460.600535049 Eh
FINAL SINGLE POINT ENERGY      -460.600535049161

DIPOLE MOMENT
-------------
                                X             Y             Z
Electronic contribution:     -0.58202       1.22696      -2.23076
Nuclear contribution   :      0.86432      -1.88892       2.20902
                        -----------------------------------------
Total Dipole Moment    :      0.28230      -0.66196      -0.02174
                        -----------------------------------------
Magnitude (a.u.)       :      0.71997
Magnitude (Debye)      :      1.83002

Rotational constants in cm-1:     0.080778     0.027876     0.026623
Rotational constants in MHz :  2421.674009   835.700921   798.152314

                             ****ORCA TERMINATED NORMALLY****
TOTAL RUN TIME: 0 days 0 hours 52 minutes 56 seconds 411 msec
