                         Program Version 5.0.4 -  RELEASE  -
|  1> ! ri-mp2 aug-cc-pvdz aug-cc-pvdz/c tightscf
|  2> %pal nprocs 16 end
|  3> %maxcore 3800
|  4> %base "DZ_S66by10_64_1.1_dimer"
|  5> %scf STABPerform true end
|  6>
|  7> *xyz 0 1
|  8> C    1.62971482    0.50301252    0.27011189
|  9> H    1.64157338    1.45923792   -0.24808286
| 10> H    2.31531919   -0.18355470   -0.21758635
| 11> H    1.96974564    0.64936024    1.29398105
| 12> C    0.26182776   -0.13286122    0.31456221
| 13> O    0.09925265   -1.30961602    0.61183995
| 14> N   -0.77350225    0.70251214    0.02207590
| 15> H   -0.56901138    1.66655677   -0.16581434
| 16> C   -2.15001214    0.26596865    0.09505328
| 17> H   -2.14473761   -0.81940745    0.10091210
| 18> H   -2.64054318    0.61582035    1.00360442
| 19> H   -2.70774393    0.62075110   -0.76826057
| 20> C   -0.00054349    0.51520348    4.07519420
| 21> H   -0.00542505    1.25737728    4.86107677
| 22> H   -0.64907624    0.68297212    3.22651063
| 23> C    0.76796682   -0.57175845    4.14500381
| 24> H    1.41327178   -0.74358409    4.99513167
| 25> H    0.76285483   -1.30695858    3.35269453
| 26> *
| 27>
| 28> $new_job
| 29> ! ri-mp2 aug-cc-pvtz aug-cc-pvtz/c tightscf
| 30> %pal nprocs 16 end
| 31> %maxcore 3800
| 32> %base "TZ_S66by10_64_1.1_dimer"
| 33>
| 34> *xyz 0 1
| 35> C    1.62971482    0.50301252    0.27011189
| 36> H    1.64157338    1.45923792   -0.24808286
| 37> H    2.31531919   -0.18355470   -0.21758635
| 38> H    1.96974564    0.64936024    1.29398105
| 39> C    0.26182776   -0.13286122    0.31456221
| 40> O    0.09925265   -1.30961602    0.61183995
| 41> N   -0.77350225    0.70251214    0.02207590
| 42> H   -0.56901138    1.66655677   -0.16581434
| 43> C   -2.15001214    0.26596865    0.09505328
| 44> H   -2.14473761   -0.81940745    0.10091210
| 45> H   -2.64054318    0.61582035    1.00360442
| 46> H   -2.70774393    0.62075110   -0.76826057
| 47> C   -0.00054349    0.51520348    4.07519420
| 48> H   -0.00542505    1.25737728    4.86107677
| 49> H   -0.64907624    0.68297212    3.22651063
| 50> C    0.76796682   -0.57175845    4.14500381
| 51> H    1.41327178   -0.74358409    4.99513167
| 52> H    0.76285483   -1.30695858    3.35269453
| 53> *
| 54>
| 55> $new_job
| 56> ! ri-mp2 aug-cc-pvqz aug-cc-pvqz/c tightscf
| 57> %pal nprocs 16 end
| 58> %maxcore 3800
| 59> %base "QZ_S66by10_64_1.1_dimer"
| 60>
| 61> *xyz 0 1
| 62> C    1.62971482    0.50301252    0.27011189
| 63> H    1.64157338    1.45923792   -0.24808286
| 64> H    2.31531919   -0.18355470   -0.21758635
| 65> H    1.96974564    0.64936024    1.29398105
| 66> C    0.26182776   -0.13286122    0.31456221
| 67> O    0.09925265   -1.30961602    0.61183995
| 68> N   -0.77350225    0.70251214    0.02207590
| 69> H   -0.56901138    1.66655677   -0.16581434
| 70> C   -2.15001214    0.26596865    0.09505328
| 71> H   -2.14473761   -0.81940745    0.10091210
| 72> H   -2.64054318    0.61582035    1.00360442
| 73> H   -2.70774393    0.62075110   -0.76826057
| 74> C   -0.00054349    0.51520348    4.07519420
| 75> H   -0.00542505    1.25737728    4.86107677
| 76> H   -0.64907624    0.68297212    3.22651063
| 77> C    0.76796682   -0.57175845    4.14500381
| 78> H    1.41327178   -0.74358409    4.99513167
| 79> H    0.76285483   -1.30695858    3.35269453
| 80> *
| 81>
| 82>
| 83>
| 84>
| 85>                          ****END OF INPUT****
 Total Charge           Charge          ....    0
 Multiplicity           Mult            ....    1
 Number of Electrons    NEL             ....   56
MP2 TOTAL ENERGY:     -326.180547947 Eh
FINAL SINGLE POINT ENERGY      -326.180547947297
MP2 TOTAL ENERGY:     -326.479946517 Eh
FINAL SINGLE POINT ENERGY      -326.479946517169

CARTESIAN COORDINATES (ANGSTROEM)
---------------------------------
  C      1.629715    0.503013    0.270112
  H      1.641573    1.459238   -0.248083
  H      2.315319   -0.183555   -0.217586
  H      1.969746    0.649360    1.293981
  C      0.261828   -0.132861    0.314562
  O      0.099253   -1.309616    0.611840
  N     -0.773502    0.702512    0.022076
  H     -0.569011    1.666557   -0.165814
  C     -2.150012    0.265969    0.095053
  H     -2.144738   -0.819407    0.100912
  H     -2.640543    0.615820    1.003604
  H     -2.707744    0.620751   -0.768261
  C     -0.000543    0.515203    4.075194
  H     -0.005425    1.257377    4.861077
  H     -0.649076    0.682972    3.226511
  C      0.767967   -0.571758    4.145004
  H      1.413272   -0.743584    4.995132
  H      0.762855   -1.306959    3.352695

 Multiplicity           Mult            ....    1
 Number of Electrons    NEL             ....   56
 Basis Dimension        Dim             .... 1066

ORBITAL ENERGIES
----------------

  NO   OCC          E(Eh)            E(eV)
   0   2.0000     -20.510057      -558.1070
   1   2.0000     -15.585365      -424.0993
   2   2.0000     -11.347292      -308.7755
   3   2.0000     -11.256531      -306.3058
   4   2.0000     -11.232095      -305.6408
   5   2.0000     -11.222802      -305.3880
   6   2.0000     -11.220682      -305.3303
   7   2.0000      -1.374973       -37.4149
   8   2.0000      -1.230861       -33.4934
   9   2.0000      -1.027557       -27.9612
  10   2.0000      -1.018562       -27.7165
  11   2.0000      -0.932560       -25.3762
  12   2.0000      -0.790669       -21.5152
  13   2.0000      -0.785542       -21.3757
  14   2.0000      -0.690935       -18.8013
  15   2.0000      -0.653472       -17.7819
  16   2.0000      -0.643618       -17.5137
  17   2.0000      -0.629763       -17.1367
  18   2.0000      -0.587569       -15.9886
  19   2.0000      -0.582057       -15.8386
  20   2.0000      -0.578779       -15.7494
  21   2.0000      -0.555271       -15.1097
  22   2.0000      -0.545679       -14.8487
  23   2.0000      -0.505501       -13.7554
  24   2.0000      -0.501172       -13.6376
  25   2.0000      -0.422557       -11.4984
  26   2.0000      -0.393555       -10.7092
  27   2.0000      -0.370772       -10.0892
  28   0.0000       0.019758         0.5376
  29   0.0000       0.030844         0.8393
  30   0.0000       0.031875         0.8674
  31   0.0000       0.035589         0.9684
  32   0.0000       0.043963         1.1963

MULLIKEN ATOMIC CHARGES
-----------------------
   0 C :   -0.767535
   1 H :    0.241053
   2 H :    0.292470
   3 H :    0.334965
   4 C :    1.033652
   5 O :   -0.944060
   6 N :   -0.555365
   7 H :    0.259554
   8 C :   -0.819179
   9 H :    0.301579
  10 H :    0.283371
  11 H :    0.350606
  12 C :   -1.015458
  13 H :    0.423882
  14 H :    0.537933
  15 C :   -0.958615
  16 H :    0.461862
  17 H :    0.539285
Sum of atomic charges:   -0.0000000

LOEWDIN ATOMIC CHARGES
----------------------
   0 C :    0.887258
   1 H :   -0.309002
   2 H :   -0.302958
   3 H :   -0.303729
   4 C :   -0.856829
   5 O :    0.710731
   6 N :    0.823431
   7 H :   -0.505580
   8 C :    0.781680
   9 H :   -0.356384
  10 H :   -0.283905
  11 H :   -0.288488
  12 C :    0.751471
  13 H :   -0.369021
  14 H :   -0.383625
  15 C :    0.756062
  16 H :   -0.366560
  17 H :   -0.384553

  Mayer bond orders larger than 0.100000
B(  0-C ,  1-H ) :   1.0146 B(  0-C ,  2-H ) :   0.9661 B(  0-C ,  3-H ) :   0.8537
B(  0-C ,  4-C ) :   0.8486 B(  4-C ,  5-O ) :   1.0894 B(  4-C ,  6-N ) :   1.1161
B(  5-O ,  6-N ) :   0.1622 B(  6-N ,  7-H ) :   0.9567 B(  6-N ,  8-C ) :   0.8317
B(  8-C ,  9-H ) :   0.9360 B(  8-C , 10-H ) :   0.9397 B(  8-C , 11-H ) :   0.9041
B( 12-C , 13-H ) :   0.8619 B( 12-C , 14-H ) :   0.6619 B( 12-C , 15-C ) :   1.9586
B( 15-C , 16-H ) :   0.8189 B( 15-C , 17-H ) :   0.6572

MP2 TOTAL ENERGY:     -326.573956961 Eh
FINAL SINGLE POINT ENERGY      -326.573956961163

DIPOLE MOMENT
-------------
                                X             Y             Z
Electronic contribution:      0.11555      -2.17166      -3.01495
Nuclear contribution   :     -0.19505       3.66470       2.60884
                        -----------------------------------------
Total Dipole Moment    :     -0.07950       1.49304      -0.40611
                        -----------------------------------------
Magnitude (a.u.)       :      1.54932
Magnitude (Debye)      :      3.93807

Rotational constants in cm-1:     0.095242     0.044196     0.037474
Rotational constants in MHz :  2855.274904  1324.960591  1123.443365

                             ****ORCA TERMINATED NORMALLY****
TOTAL RUN TIME: 0 days 2 hours 10 minutes 37 seconds 808 msec
