                         Program Version 5.0.4 -  RELEASE  -
|  1> ! ri-mp2 aug-cc-pvdz aug-cc-pvdz/c tightscf
|  2> %pal nprocs 16 end
|  3> %maxcore 3800
|  4> %base "DZ_S66by10_32_1.05_dimer"
|  5> %scf STABPerform true end
|  6>
|  7> *xyz 0 1
|  8> N   -0.05545357   -0.94799090    0.01001028
|  9> H   -0.05731609   -1.95771330    0.05505287
| 10> C   -1.31395971   -0.33514498   -0.06458622
| 11> O   -2.32889664   -1.00790087   -0.12310273
| 12> C   -1.24835877    1.11605191   -0.06650860
| 13> H   -2.16434937    1.67533298   -0.14710244
| 14> C   -0.05308010    1.73142748    0.03419541
| 15> H    0.04811054    2.80642986    0.04341968
| 16> N    1.11592628    1.02759107    0.13516893
| 17> H    1.99665515    1.49727976    0.26162029
| 18> C    1.17534700   -0.35380470    0.17616616
| 19> O    2.21463146   -0.96646542    0.33517250
| 20> C    0.71650061   -0.17109733    3.43806684
| 21> H    1.71231888   -0.52508318    3.32384812
| 22> C   -0.42810347    0.21536036    3.54425869
| 23> H   -1.43298602    0.54406070    3.64462285
| 24> *
| 25>
| 26> $new_job
| 27> ! ri-mp2 aug-cc-pvtz aug-cc-pvtz/c tightscf
| 28> %pal nprocs 16 end
| 29> %maxcore 3800
| 30> %base "TZ_S66by10_32_1.05_dimer"
| 31>
| 32> *xyz 0 1
| 33> N   -0.05545357   -0.94799090    0.01001028
| 34> H   -0.05731609   -1.95771330    0.05505287
| 35> C   -1.31395971   -0.33514498   -0.06458622
| 36> O   -2.32889664   -1.00790087   -0.12310273
| 37> C   -1.24835877    1.11605191   -0.06650860
| 38> H   -2.16434937    1.67533298   -0.14710244
| 39> C   -0.05308010    1.73142748    0.03419541
| 40> H    0.04811054    2.80642986    0.04341968
| 41> N    1.11592628    1.02759107    0.13516893
| 42> H    1.99665515    1.49727976    0.26162029
| 43> C    1.17534700   -0.35380470    0.17616616
| 44> O    2.21463146   -0.96646542    0.33517250
| 45> C    0.71650061   -0.17109733    3.43806684
| 46> H    1.71231888   -0.52508318    3.32384812
| 47> C   -0.42810347    0.21536036    3.54425869
| 48> H   -1.43298602    0.54406070    3.64462285
| 49> *
| 50>
| 51> $new_job
| 52> ! ri-mp2 aug-cc-pvqz aug-cc-pvqz/c tightscf
| 53> %pal nprocs 16 end
| 54> %maxcore 3800
| 55> %base "QZ_S66by10_32_1.05_dimer"
| 56>
| 57> *xyz 0 1
| 58> N   -0.05545357   -0.94799090    0.01001028
| 59> H   -0.05731609   -1.95771330    0.05505287
| 60> C   -1.31395971   -0.33514498   -0.06458622
| 61> O   -2.32889664   -1.00790087   -0.12310273
| 62> C   -1.24835877    1.11605191   -0.06650860
| 63> H   -2.16434937    1.67533298   -0.14710244
| 64> C   -0.05308010    1.73142748    0.03419541
| 65> H    0.04811054    2.80642986    0.04341968
| 66> N    1.11592628    1.02759107    0.13516893
| 67> H    1.99665515    1.49727976    0.26162029
| 68> C    1.17534700   -0.35380470    0.17616616
| 69> O    2.21463146   -0.96646542    0.33517250
| 70> C    0.71650061   -0.17109733    3.43806684
| 71> H    1.71231888   -0.52508318    3.32384812
| 72> C   -0.42810347    0.21536036    3.54425869
| 73> H   -1.43298602    0.54406070    3.64462285
| 74> *
| 75>
| 76>
| 77>
| 78>
| 79>                          ****END OF INPUT****
 Total Charge           Charge          ....    0
 Multiplicity           Mult            ....    1
 Number of Electrons    NEL             ....   72
MP2 TOTAL ENERGY:     -490.877840050 Eh
FINAL SINGLE POINT ENERGY      -490.877840049738
MP2 TOTAL ENERGY:     -491.296616890 Eh
FINAL SINGLE POINT ENERGY      -491.296616890464

CARTESIAN COORDINATES (ANGSTROEM)
---------------------------------
  N     -0.055454   -0.947991    0.010010
  H     -0.057316   -1.957713    0.055053
  C     -1.313960   -0.335145   -0.064586
  O     -2.328897   -1.007901   -0.123103
  C     -1.248359    1.116052   -0.066509
  H     -2.164349    1.675333   -0.147102
  C     -0.053080    1.731427    0.034195
  H      0.048111    2.806430    0.043420
  N      1.115926    1.027591    0.135169
  H      1.996655    1.497280    0.261620
  C      1.175347   -0.353805    0.176166
  O      2.214631   -0.966465    0.335172
  C      0.716501   -0.171097    3.438067
  H      1.712319   -0.525083    3.323848
  C     -0.428103    0.215360    3.544259
  H     -1.432986    0.544061    3.644623

 Multiplicity           Mult            ....    1
 Number of Electrons    NEL             ....   72
 Basis Dimension        Dim             .... 1076

ORBITAL ENERGIES
----------------

  NO   OCC          E(Eh)            E(eV)
   0   2.0000     -20.543253      -559.0103
   1   2.0000     -20.536752      -558.8334
   2   2.0000     -15.639244      -425.5655
   3   2.0000     -15.621884      -425.0931
   4   2.0000     -11.415868      -310.6416
   5   2.0000     -11.377100      -309.5866
   6   2.0000     -11.336659      -308.4862
   7   2.0000     -11.251273      -306.1627
   8   2.0000     -11.249714      -306.1203
   9   2.0000     -11.246074      -306.0212
  10   2.0000      -1.433908       -39.0186
  11   2.0000      -1.395232       -37.9662
  12   2.0000      -1.310688       -35.6656
  13   2.0000      -1.243071       -33.8257
  14   2.0000      -1.085310       -29.5328
  15   2.0000      -1.033082       -28.1116
  16   2.0000      -0.930831       -25.3292
  17   2.0000      -0.898928       -24.4611
  18   2.0000      -0.804599       -21.8942
  19   2.0000      -0.773077       -21.0365
  20   2.0000      -0.762896       -20.7595
  21   2.0000      -0.711887       -19.3714
  22   2.0000      -0.685655       -18.6576
  23   2.0000      -0.675792       -18.3892
  24   2.0000      -0.666286       -18.1306
  25   2.0000      -0.651235       -17.7210
  26   2.0000      -0.612894       -16.6777
  27   2.0000      -0.599540       -16.3143
  28   2.0000      -0.568475       -15.4690
  29   2.0000      -0.524085       -14.2611
  30   2.0000      -0.482805       -13.1378
  31   2.0000      -0.447710       -12.1828
  32   2.0000      -0.435966       -11.8632
  33   2.0000      -0.414606       -11.2820
  34   2.0000      -0.413620       -11.2552
  35   2.0000      -0.366537        -9.9740
  36   0.0000       0.013580         0.3695
  37   0.0000       0.027183         0.7397
  38   0.0000       0.033877         0.9218
  39   0.0000       0.037461         1.0194
  40   0.0000       0.043027         1.1708

MULLIKEN ATOMIC CHARGES
-----------------------
   0 N :   -0.682853
   1 H :    0.090791
   2 C :    1.230796
   3 O :   -0.846555
   4 C :   -0.495363
   5 H :    0.257299
   6 C :   -0.100601
   7 H :    0.431256
   8 N :   -0.622082
   9 H :    0.089200
  10 C :    1.494907
  11 O :   -0.844413
  12 C :   -0.554250
  13 H :    0.550791
  14 C :   -0.547750
  15 H :    0.548825
Sum of atomic charges:   -0.0000000

LOEWDIN ATOMIC CHARGES
----------------------
   0 N :    0.772458
   1 H :   -0.516790
   2 C :   -0.881657
   3 O :    0.685762
   4 C :    0.318751
   5 H :   -0.353137
   6 C :    0.222126
   7 H :   -0.294991
   8 N :    0.803348
   9 H :   -0.490142
  10 C :   -1.037428
  11 O :    0.693890
  12 C :    0.489639
  13 H :   -0.457505
  14 C :    0.502415
  15 H :   -0.456737

  Mayer bond orders larger than 0.100000
B(  0-N ,  1-H ) :   1.1764 B(  0-N ,  2-C ) :   0.9814 B(  0-N ,  3-O ) :   0.2046
B(  0-N , 10-C ) :   1.0409 B(  0-N , 11-O ) :   0.2122 B(  2-C ,  3-O ) :   0.9996
B(  2-C ,  4-C ) :   1.1470 B(  3-O ,  4-C ) :   0.2542 B(  4-C ,  5-H ) :   1.0391
B(  4-C ,  6-C ) :   1.4751 B(  6-C ,  7-H ) :   0.9031 B(  6-C ,  8-N ) :   0.9005
B(  8-N ,  9-H ) :   1.1665 B(  8-N , 10-C ) :   1.1139 B(  8-N , 11-O ) :   0.2026
B( 10-C , 11-O ) :   1.0386 B( 12-C , 13-H ) :   0.7125 B( 12-C , 14-C ) :   2.5520
B( 14-C , 15-H ) :   0.7257

MP2 TOTAL ENERGY:     -491.433049898 Eh
FINAL SINGLE POINT ENERGY      -491.433049898402

DIPOLE MOMENT
-------------
                                X             Y             Z
Electronic contribution:      0.37467      -1.89434      -2.67376
Nuclear contribution   :      0.12912       3.75940       2.74007
                        -----------------------------------------
Total Dipole Moment    :      0.50379       1.86506       0.06631
                        -----------------------------------------
Magnitude (a.u.)       :      1.93305
Magnitude (Debye)      :      4.91341

Rotational constants in cm-1:     0.048106     0.039807     0.032896
Rotational constants in MHz :  1442.172338  1193.392955   986.198007

                             ****ORCA TERMINATED NORMALLY****
TOTAL RUN TIME: 0 days 2 hours 44 minutes 16 seconds 98 msec
