                         Program Version 5.0.4 -  RELEASE  -
|  1> ! ri-mp2 aug-cc-pvdz aug-cc-pvdz/c tightscf
|  2> %pal nprocs 16 end
|  3> %maxcore 3800
|  4> %base "DZ_S66by10_35_0.9_dimer"
|  5> %scf STABPerform true end
|  6>
|  7> *xyz 0 1
|  8> C   -2.53038287   -0.41757533    0.68130643
|  9> H   -2.55988603   -0.98278998   -0.25015619
| 10> H   -2.55403625   -1.13386495    1.50265790
| 11> H   -3.43621355    0.18414376    0.73677133
| 12> C   -1.27615683    0.44363493    0.75002483
| 13> H   -1.27808384    1.02521785    1.67508548
| 14> H   -1.28033899    1.16855564   -0.06715806
| 15> C    0.00220470   -0.38071620    0.67899257
| 16> H    0.00782894   -1.11141304    1.49383122
| 17> H    0.00624866   -0.96052270   -0.24882046
| 18> C    1.26833347    0.46239635    0.74936913
| 19> H    1.26201985    1.04425029    1.67424645
| 20> H    1.26163488    1.18705711   -0.06803458
| 21> C    2.53496627   -0.38042469    0.68068636
| 22> H    2.57244024   -0.94571652   -0.25045186
| 23> H    3.43198117    0.23441492    0.73557772
| 24> H    2.56920771   -1.09581003    1.50245608
| 25> C   -0.00049392    0.05505058    4.92744823
| 26> C    0.00057783   -0.08508052    6.44718119
| 27> H   -0.88645820    0.37899552    6.88055060
| 28> H    0.00982933   -1.13586077    6.74019106
| 29> H    0.87923805    0.39458404    6.88082426
| 30> C   -1.23994925   -0.62660145    4.35354972
| 31> H   -1.26324847   -0.53764432    3.26672054
| 32> H   -1.25203488   -1.68787784    4.60656292
| 33> H   -2.15089297   -0.17431019    4.74863484
| 34> C    1.25211120   -0.60249022    4.35397790
| 35> H    1.27343798   -0.51420456    3.26700694
| 36> H    1.28524173   -1.66305106    4.60807021
| 37> H    2.15392343   -0.13184691    4.74839902
| 38> C   -0.01474179    1.53484307    4.55282696
| 39> H    0.86302421    2.04543009    4.95178209
| 40> H   -0.01526599    1.66129800    3.46917527
| 41> H   -0.90284774    2.02817679    4.95061510
| 42> *
| 43>
| 44> $new_job
| 45> ! ri-mp2 aug-cc-pvtz aug-cc-pvtz/c tightscf
| 46> %pal nprocs 16 end
| 47> %maxcore 3800
| 48> %base "TZ_S66by10_35_0.9_dimer"
| 49>
| 50> *xyz 0 1
| 51> C   -2.53038287   -0.41757533    0.68130643
| 52> H   -2.55988603   -0.98278998   -0.25015619
| 53> H   -2.55403625   -1.13386495    1.50265790
| 54> H   -3.43621355    0.18414376    0.73677133
| 55> C   -1.27615683    0.44363493    0.75002483
| 56> H   -1.27808384    1.02521785    1.67508548
| 57> H   -1.28033899    1.16855564   -0.06715806
| 58> C    0.00220470   -0.38071620    0.67899257
| 59> H    0.00782894   -1.11141304    1.49383122
| 60> H    0.00624866   -0.96052270   -0.24882046
| 61> C    1.26833347    0.46239635    0.74936913
| 62> H    1.26201985    1.04425029    1.67424645
| 63> H    1.26163488    1.18705711   -0.06803458
| 64> C    2.53496627   -0.38042469    0.68068636
| 65> H    2.57244024   -0.94571652   -0.25045186
| 66> H    3.43198117    0.23441492    0.73557772
| 67> H    2.56920771   -1.09581003    1.50245608
| 68> C   -0.00049392    0.05505058    4.92744823
| 69> C    0.00057783   -0.08508052    6.44718119
| 70> H   -0.88645820    0.37899552    6.88055060
| 71> H    0.00982933   -1.13586077    6.74019106
| 72> H    0.87923805    0.39458404    6.88082426
| 73> C   -1.23994925   -0.62660145    4.35354972
| 74> H   -1.26324847   -0.53764432    3.26672054
| 75> H   -1.25203488   -1.68787784    4.60656292
| 76> H   -2.15089297   -0.17431019    4.74863484
| 77> C    1.25211120   -0.60249022    4.35397790
| 78> H    1.27343798   -0.51420456    3.26700694
| 79> H    1.28524173   -1.66305106    4.60807021
| 80> H    2.15392343   -0.13184691    4.74839902
| 81> C   -0.01474179    1.53484307    4.55282696
| 82> H    0.86302421    2.04543009    4.95178209
| 83> H   -0.01526599    1.66129800    3.46917527
| 84> H   -0.90284774    2.02817679    4.95061510
| 85> *
| 86>
| 87> $new_job
| 88> ! ri-mp2 aug-cc-pvqz aug-cc-pvqz/c tightscf
| 89> %pal nprocs 16 end
| 90> %maxcore 3800
| 91> %base "QZ_S66by10_35_0.9_dimer"
| 92>
| 93> *xyz 0 1
| 94> C   -2.53038287   -0.41757533    0.68130643
| 95> H   -2.55988603   -0.98278998   -0.25015619
| 96> H   -2.55403625   -1.13386495    1.50265790
| 97> H   -3.43621355    0.18414376    0.73677133
| 98> C   -1.27615683    0.44363493    0.75002483
| 99> H   -1.27808384    1.02521785    1.67508548
|100> H   -1.28033899    1.16855564   -0.06715806
|101> C    0.00220470   -0.38071620    0.67899257
|102> H    0.00782894   -1.11141304    1.49383122
|103> H    0.00624866   -0.96052270   -0.24882046
|104> C    1.26833347    0.46239635    0.74936913
|105> H    1.26201985    1.04425029    1.67424645
|106> H    1.26163488    1.18705711   -0.06803458
|107> C    2.53496627   -0.38042469    0.68068636
|108> H    2.57244024   -0.94571652   -0.25045186
|109> H    3.43198117    0.23441492    0.73557772
|110> H    2.56920771   -1.09581003    1.50245608
|111> C   -0.00049392    0.05505058    4.92744823
|112> C    0.00057783   -0.08508052    6.44718119
|113> H   -0.88645820    0.37899552    6.88055060
|114> H    0.00982933   -1.13586077    6.74019106
|115> H    0.87923805    0.39458404    6.88082426
|116> C   -1.23994925   -0.62660145    4.35354972
|117> H   -1.26324847   -0.53764432    3.26672054
|118> H   -1.25203488   -1.68787784    4.60656292
|119> H   -2.15089297   -0.17431019    4.74863484
|120> C    1.25211120   -0.60249022    4.35397790
|121> H    1.27343798   -0.51420456    3.26700694
|122> H    1.28524173   -1.66305106    4.60807021
|123> H    2.15392343   -0.13184691    4.74839902
|124> C   -0.01474179    1.53484307    4.55282696
|125> H    0.86302421    2.04543009    4.95178209
|126> H   -0.01526599    1.66129800    3.46917527
|127> H   -0.90284774    2.02817679    4.95061510
|128> *
|129>
|130>
|131>
|132>
|133>                          ****END OF INPUT****
 Total Charge           Charge          ....    0
 Multiplicity           Mult            ....    1
 Number of Electrons    NEL             ....   84
MP2 TOTAL ENERGY:     -394.242628446 Eh
FINAL SINGLE POINT ENERGY      -394.242628445967
MP2 TOTAL ENERGY:     -394.633387967 Eh
FINAL SINGLE POINT ENERGY      -394.633387967114

CARTESIAN COORDINATES (ANGSTROEM)
---------------------------------
  C     -2.530383   -0.417575    0.681306
  H     -2.559886   -0.982790   -0.250156
  H     -2.554036   -1.133865    1.502658
  H     -3.436214    0.184144    0.736771
  C     -1.276157    0.443635    0.750025
  H     -1.278084    1.025218    1.675085
  H     -1.280339    1.168556   -0.067158
  C      0.002205   -0.380716    0.678993
  H      0.007829   -1.111413    1.493831
  H      0.006249   -0.960523   -0.248820
  C      1.268333    0.462396    0.749369
  H      1.262020    1.044250    1.674246
  H      1.261635    1.187057   -0.068035
  C      2.534966   -0.380425    0.680686
  H      2.572440   -0.945717   -0.250452
  H      3.431981    0.234415    0.735578
  H      2.569208   -1.095810    1.502456
  C     -0.000494    0.055051    4.927448
  C      0.000578   -0.085081    6.447181
  H     -0.886458    0.378996    6.880551
  H      0.009829   -1.135861    6.740191
  H      0.879238    0.394584    6.880824
  C     -1.239949   -0.626601    4.353550
  H     -1.263248   -0.537644    3.266721
  H     -1.252035   -1.687878    4.606563
  H     -2.150893   -0.174310    4.748635
  C      1.252111   -0.602490    4.353978
  H      1.273438   -0.514205    3.267007
  H      1.285242   -1.663051    4.608070
  H      2.153923   -0.131847    4.748399
  C     -0.014742    1.534843    4.552827
  H      0.863024    2.045430    4.951782
  H     -0.015266    1.661298    3.469175
  H     -0.902848    2.028177    4.950615

 Multiplicity           Mult            ....    1
 Number of Electrons    NEL             ....   84
 Basis Dimension        Dim             .... 1904

ORBITAL ENERGIES
----------------

  NO   OCC          E(Eh)            E(eV)
   0   2.0000     -11.225046      -305.4490
   1   2.0000     -11.212182      -305.0990
   2   2.0000     -11.212100      -305.0968
   3   2.0000     -11.209948      -305.0382
   4   2.0000     -11.206305      -304.9391
   5   2.0000     -11.206304      -304.9390
   6   2.0000     -11.204390      -304.8870
   7   2.0000     -11.203785      -304.8705
   8   2.0000     -11.202878      -304.8458
   9   2.0000     -11.202858      -304.8453
  10   2.0000      -1.106225       -30.1019
  11   2.0000      -1.082660       -29.4607
  12   2.0000      -1.016686       -27.6654
  13   2.0000      -0.928949       -25.2780
  14   2.0000      -0.928468       -25.2649
  15   2.0000      -0.928355       -25.2618
  16   2.0000      -0.919792       -25.0288
  17   2.0000      -0.821017       -22.3410
  18   2.0000      -0.786856       -21.4114
  19   2.0000      -0.730800       -19.8861
  20   2.0000      -0.655260       -17.8305
  21   2.0000      -0.614618       -16.7246
  22   2.0000      -0.611946       -16.6519
  23   2.0000      -0.606624       -16.5071
  24   2.0000      -0.599516       -16.3136
  25   2.0000      -0.596482       -16.2311
  26   2.0000      -0.556749       -15.1499
  27   2.0000      -0.552477       -15.0337
  28   2.0000      -0.550725       -14.9860
  29   2.0000      -0.548042       -14.9130
  30   2.0000      -0.527157       -14.3447
  31   2.0000      -0.510534       -13.8923
  32   2.0000      -0.509142       -13.8544
  33   2.0000      -0.508646       -13.8410
  34   2.0000      -0.494784       -13.4638
  35   2.0000      -0.477548       -12.9947
  36   2.0000      -0.467602       -12.7241
  37   2.0000      -0.460217       -12.5231
  38   2.0000      -0.451800       -12.2941
  39   2.0000      -0.451268       -12.2796
  40   2.0000      -0.447781       -12.1847
  41   2.0000      -0.445697       -12.1280
  42   0.0000       0.022668         0.6168
  43   0.0000       0.028145         0.7659
  44   0.0000       0.028337         0.7711
  45   0.0000       0.029604         0.8056
  46   0.0000       0.039791         1.0828

MULLIKEN ATOMIC CHARGES
-----------------------
   0 C :   -1.004517
   1 H :    0.241858
   2 H :    0.243747
   3 H :    0.229468
   4 C :   -0.526089
   5 H :    0.382329
   6 H :    0.200342
   7 C :   -0.236973
   8 H :    0.385060
   9 H :    0.276002
  10 C :   -0.526167
  11 H :    0.380846
  12 H :    0.200867
  13 C :   -1.004419
  14 H :    0.241886
  15 H :    0.229696
  16 H :    0.243828
  17 C :    2.141796
  18 C :   -1.204460
  19 H :    0.223077
  20 H :    0.205886
  21 H :    0.223240
  22 C :   -1.238988
  23 H :    0.318321
  24 H :    0.213777
  25 H :    0.212198
  26 C :   -1.238805
  27 H :    0.318442
  28 H :    0.213503
  29 H :    0.212415
  30 C :   -1.251660
  31 H :    0.173519
  32 H :    0.346081
  33 H :    0.173893
Sum of atomic charges:    0.0000000

LOEWDIN ATOMIC CHARGES
----------------------
   0 C :    0.940314
   1 H :   -0.279662
   2 H :   -0.296846
   3 H :   -0.274298
   4 C :    0.514317
   5 H :   -0.302270
   6 H :   -0.261866
   7 C :    0.506296
   8 H :   -0.293163
   9 H :   -0.258820
  10 C :    0.514291
  11 H :   -0.302179
  12 H :   -0.261844
  13 C :    0.940284
  14 H :   -0.279636
  15 H :   -0.274266
  16 H :   -0.296885
  17 C :   -0.304301
  18 C :    0.907391
  19 H :   -0.270787
  20 H :   -0.270584
  21 H :   -0.270688
  22 C :    0.911493
  23 H :   -0.356017
  24 H :   -0.255619
  25 H :   -0.255583
  26 C :    0.911499
  27 H :   -0.355976
  28 H :   -0.255634
  29 H :   -0.255653
  30 C :    0.914591
  31 H :   -0.262128
  32 H :   -0.303661
  33 H :   -0.262111

  Mayer bond orders larger than 0.100000
B(  0-C ,  1-H ) :   1.0188 B(  0-C ,  2-H ) :   0.9515 B(  0-C ,  3-H ) :   1.0543
B(  0-C ,  4-C ) :   0.8883 B(  0-C ,  7-C ) :  -0.1046 B(  4-C ,  5-H ) :   0.8127
B(  4-C ,  6-H ) :   1.0090 B(  4-C ,  7-C ) :   0.8065 B(  7-C ,  8-H ) :   0.8823
B(  7-C ,  9-H ) :   0.9381 B(  7-C , 10-C ) :   0.8061 B(  7-C , 13-C ) :  -0.1042
B( 10-C , 11-H ) :   0.8148 B( 10-C , 12-H ) :   1.0083 B( 10-C , 13-C ) :   0.8883
B( 13-C , 14-H ) :   1.0188 B( 13-C , 15-H ) :   1.0539 B( 13-C , 16-H ) :   0.9515
B( 17-C , 18-C ) :  -0.1361 B( 17-C , 19-H ) :  -0.2068 B( 17-C , 20-H ) :  -0.2029
B( 17-C , 21-H ) :  -0.2067 B( 17-C , 22-C ) :   0.4179 B( 17-C , 23-H ) :  -0.2235
B( 17-C , 26-C ) :   0.4177 B( 17-C , 27-H ) :  -0.2243 B( 17-C , 30-C ) :   0.2651
B( 17-C , 31-H ) :  -0.1049 B( 17-C , 33-H ) :  -0.1052 B( 18-C , 19-H ) :   1.1049
B( 18-C , 20-H ) :   1.1162 B( 18-C , 21-H ) :   1.1046 B( 18-C , 22-C ) :   0.1803
B( 18-C , 26-C ) :   0.1805 B( 18-C , 30-C ) :   0.1888 B( 22-C , 23-H ) :   1.0241
B( 22-C , 24-H ) :   1.0149 B( 22-C , 25-H ) :   1.0594 B( 22-C , 26-C ) :   0.1486
B( 22-C , 30-C ) :   0.1527 B( 26-C , 27-H ) :   1.0245 B( 26-C , 28-H ) :   1.0151
B( 26-C , 29-H ) :   1.0586 B( 26-C , 30-C ) :   0.1523 B( 30-C , 31-H ) :   1.1333
B( 30-C , 32-H ) :   0.9157 B( 30-C , 33-H ) :   1.1329

MP2 TOTAL ENERGY:     -394.748937315 Eh
FINAL SINGLE POINT ENERGY      -394.748937315290

DIPOLE MOMENT
-------------
                                X             Y             Z
Electronic contribution:     -0.00434       0.60683       0.00741
Nuclear contribution   :      0.00408      -0.57011      -0.05180
                        -----------------------------------------
Total Dipole Moment    :     -0.00026       0.03672      -0.04439
                        -----------------------------------------
Magnitude (a.u.)       :      0.05761
Magnitude (Debye)      :      0.14644

Rotational constants in cm-1:     0.043895     0.021472     0.016639
Rotational constants in MHz :  1315.947652   643.712577   498.822181

                             ****ORCA TERMINATED NORMALLY****
TOTAL RUN TIME: 1 days 0 hours 24 minutes 50 seconds 729 msec
