                         Program Version 5.0.4 -  RELEASE  -
|  1> ! ri-mp2 aug-cc-pvdz aug-cc-pvdz/c tightscf
|  2> %pal nprocs 16 end
|  3> %maxcore 3800
|  4> %base "DZ_S66by10_33_0.95_dimer"
|  5>
|  6> *xyz 0 1
|  7> N    1.38138219   -0.00023348    0.13146374
|  8> C    0.67935079   -1.14023946    0.09207966
|  9> H    1.25871960   -2.05496223    0.12588361
| 10> C   -0.70972232   -1.19311407    0.00666426
| 11> H   -1.21408768   -2.14856163   -0.02530851
| 12> C   -1.42161357    0.00013343   -0.04081690
| 13> H   -2.50069615    0.00025757   -0.10916973
| 14> C   -0.70940120    1.19317538    0.00652198
| 15> H   -1.21351163    2.14874784   -0.02552831
| 16> C    0.67965167    1.13995623    0.09189303
| 17> H    1.25926073    2.05451090    0.12550248
| 18> C    0.01771194    0.66643017    3.27696721
| 19> H    0.92818595    1.22591589    3.11785237
| 20> H   -0.89183555    1.22883440    3.43392771
| 21> C    0.01804463   -0.66625713    3.27709945
| 22> H    0.92878032   -1.22533961    3.11808902
| 23> H   -0.89124347   -1.22908190    3.43418860
| 24> *
| 25>
| 26> $new_job
| 27> ! ri-mp2 aug-cc-pvtz aug-cc-pvtz/c tightscf
| 28> %pal nprocs 16 end
| 29> %maxcore 3800
| 30> %base "TZ_S66by10_33_0.95_dimer"
| 31>
| 32> *xyz 0 1
| 33> N    1.38138219   -0.00023348    0.13146374
| 34> C    0.67935079   -1.14023946    0.09207966
| 35> H    1.25871960   -2.05496223    0.12588361
| 36> C   -0.70972232   -1.19311407    0.00666426
| 37> H   -1.21408768   -2.14856163   -0.02530851
| 38> C   -1.42161357    0.00013343   -0.04081690
| 39> H   -2.50069615    0.00025757   -0.10916973
| 40> C   -0.70940120    1.19317538    0.00652198
| 41> H   -1.21351163    2.14874784   -0.02552831
| 42> C    0.67965167    1.13995623    0.09189303
| 43> H    1.25926073    2.05451090    0.12550248
| 44> C    0.01771194    0.66643017    3.27696721
| 45> H    0.92818595    1.22591589    3.11785237
| 46> H   -0.89183555    1.22883440    3.43392771
| 47> C    0.01804463   -0.66625713    3.27709945
| 48> H    0.92878032   -1.22533961    3.11808902
| 49> H   -0.89124347   -1.22908190    3.43418860
| 50> *
| 51>
| 52> $new_job
| 53> ! ri-mp2 aug-cc-pvqz aug-cc-pvqz/c tightscf
| 54> %pal nprocs 16 end
| 55> %maxcore 3800
| 56> %base "QZ_S66by10_33_0.95_dimer"
| 57>
| 58> *xyz 0 1
| 59> N    1.38138219   -0.00023348    0.13146374
| 60> C    0.67935079   -1.14023946    0.09207966
| 61> H    1.25871960   -2.05496223    0.12588361
| 62> C   -0.70972232   -1.19311407    0.00666426
| 63> H   -1.21408768   -2.14856163   -0.02530851
| 64> C   -1.42161357    0.00013343   -0.04081690
| 65> H   -2.50069615    0.00025757   -0.10916973
| 66> C   -0.70940120    1.19317538    0.00652198
| 67> H   -1.21351163    2.14874784   -0.02552831
| 68> C    0.67965167    1.13995623    0.09189303
| 69> H    1.25926073    2.05451090    0.12550248
| 70> C    0.01771194    0.66643017    3.27696721
| 71> H    0.92818595    1.22591589    3.11785237
| 72> H   -0.89183555    1.22883440    3.43392771
| 73> C    0.01804463   -0.66625713    3.27709945
| 74> H    0.92878032   -1.22533961    3.11808902
| 75> H   -0.89124347   -1.22908190    3.43418860
| 76> *
| 77>
| 78>
| 79>
| 80>
| 81>                          ****END OF INPUT****
 Total Charge           Charge          ....    0
 Multiplicity           Mult            ....    1
 Number of Electrons    NEL             ....   58
MP2 TOTAL ENERGY:     -325.898027236 Eh
FINAL SINGLE POINT ENERGY      -325.898027235582
MP2 TOTAL ENERGY:     -326.187615520 Eh
FINAL SINGLE POINT ENERGY      -326.187615519994

CARTESIAN COORDINATES (ANGSTROEM)
---------------------------------
  N      1.381382   -0.000233    0.131464
  C      0.679351   -1.140239    0.092080
  H      1.258720   -2.054962    0.125884
  C     -0.709722   -1.193114    0.006664
  H     -1.214088   -2.148562   -0.025309
  C     -1.421614    0.000133   -0.040817
  H     -2.500696    0.000258   -0.109170
  C     -0.709401    1.193175    0.006522
  H     -1.213512    2.148748   -0.025528
  C      0.679652    1.139956    0.091893
  H      1.259261    2.054511    0.125502
  C      0.017712    0.666430    3.276967
  H      0.928186    1.225916    3.117852
  H     -0.891836    1.228834    3.433928
  C      0.018045   -0.666257    3.277099
  H      0.928780   -1.225340    3.118089
  H     -0.891243   -1.229082    3.434189

 Multiplicity           Mult            ....    1
 Number of Electrons    NEL             ....   58
 Basis Dimension        Dim             .... 1054

ORBITAL ENERGIES
----------------

  NO   OCC          E(Eh)            E(eV)
   0   2.0000     -15.561876      -423.4602
   1   2.0000     -11.272189      -306.7319
   2   2.0000     -11.272173      -306.7314
   3   2.0000     -11.255980      -306.2908
   4   2.0000     -11.238695      -305.8205
   5   2.0000     -11.238641      -305.8190
   6   2.0000     -11.219959      -305.3106
   7   2.0000     -11.218235      -305.2637
   8   2.0000      -1.254252       -34.1299
   9   2.0000      -1.087347       -29.5882
  10   2.0000      -1.031343       -28.0643
  11   2.0000      -1.025531       -27.9061
  12   2.0000      -0.857322       -23.3289
  13   2.0000      -0.853921       -23.2364
  14   2.0000      -0.785439       -21.3729
  15   2.0000      -0.720260       -19.5993
  16   2.0000      -0.658588       -17.9211
  17   2.0000      -0.652852       -17.7650
  18   2.0000      -0.636874       -17.3302
  19   2.0000      -0.596354       -16.2276
  20   2.0000      -0.579480       -15.7684
  21   2.0000      -0.575197       -15.6519
  22   2.0000      -0.540959       -14.7202
  23   2.0000      -0.518306       -14.1038
  24   2.0000      -0.500832       -13.6283
  25   2.0000      -0.418011       -11.3746
  26   2.0000      -0.383100       -10.4247
  27   2.0000      -0.363797        -9.8994
  28   2.0000      -0.345595        -9.4041
  29   0.0000       0.022886         0.6228
  30   0.0000       0.027668         0.7529
  31   0.0000       0.032617         0.8876
  32   0.0000       0.039844         1.0842
  33   0.0000       0.041971         1.1421

MULLIKEN ATOMIC CHARGES
-----------------------
   0 N :   -0.675035
   1 C :   -0.146282
   2 H :    0.457168
   3 C :   -0.335857
   4 H :    0.301180
   5 C :   -0.268992
   6 H :    0.372135
   7 C :   -0.335964
   8 H :    0.301041
   9 C :   -0.146225
  10 H :    0.457280
  11 C :   -0.753741
  12 H :    0.396102
  13 H :    0.367435
  14 C :   -0.753659
  15 H :    0.395968
  16 H :    0.367446
Sum of atomic charges:   -0.0000000

LOEWDIN ATOMIC CHARGES
----------------------
   0 N :    0.592285
   1 C :    0.040576
   2 H :   -0.347402
   3 C :    0.310964
   4 H :   -0.323446
   5 C :    0.318464
   6 H :   -0.309504
   7 C :    0.310943
   8 H :   -0.323451
   9 C :    0.040595
  10 H :   -0.347422
  11 C :    0.731589
  12 H :   -0.359643
  13 H :   -0.353257
  14 C :    0.731589
  15 H :   -0.359644
  16 H :   -0.353238

  Mayer bond orders larger than 0.100000
B(  0-N ,  1-C ) :   1.1696 B(  0-N ,  2-H ) :  -0.1219 B(  0-N ,  9-C ) :   1.1695
B(  0-N , 10-H ) :  -0.1219 B(  1-C ,  2-H ) :   0.8957 B(  1-C ,  3-C ) :   1.1896
B(  3-C ,  4-H ) :   1.0285 B(  3-C ,  5-C ) :   1.2103 B(  5-C ,  6-H ) :   0.9592
B(  5-C ,  7-C ) :   1.2102 B(  7-C ,  8-H ) :   1.0287 B(  7-C ,  9-C ) :   1.1896
B(  9-C , 10-H ) :   0.8956 B( 11-C , 12-H ) :   0.8177 B( 11-C , 13-H ) :   0.8676
B( 11-C , 14-C ) :   2.0185 B( 14-C , 15-H ) :   0.8179 B( 14-C , 16-H ) :   0.8676

MP2 TOTAL ENERGY:     -326.278817063 Eh
FINAL SINGLE POINT ENERGY      -326.278817063434

DIPOLE MOMENT
-------------
                                X             Y             Z
Electronic contribution:      1.24862      -0.00034      -4.93286
Nuclear contribution   :     -2.15491       0.00045       4.83132
                        -----------------------------------------
Total Dipole Moment    :     -0.90628       0.00011      -0.10153
                        -----------------------------------------
Magnitude (a.u.)       :      0.91195
Magnitude (Debye)      :      2.31800

Rotational constants in cm-1:     0.088897     0.055033     0.053238
Rotational constants in MHz :  2665.070020  1649.852776  1596.034135

                             ****ORCA TERMINATED NORMALLY****
TOTAL RUN TIME: 0 days 0 hours 35 minutes 3 seconds 780 msec
