                         Program Version 5.0.4 -  RELEASE  -
|  1> ! ri-mp2 aug-cc-pvdz aug-cc-pvdz/c tightscf
|  2> %pal nprocs 16 end
|  3> %maxcore 3800
|  4> %base "DZ_S66by10_2_0.9_dimer"
|  5> %scf STABPerform true end
|  6>
|  7> *xyz 0 1
|  8> O   -0.52532979   -0.05097108   -0.31451686
|  9> H   -0.94200663    0.74790163    0.01125282
| 10> H    0.40369652    0.05978598   -0.07356837
| 11> O    2.16477797    0.04663485    0.06031393
| 12> H    2.53276079   -0.52544255    0.73784225
| 13> C    2.62978304   -0.42499507   -1.20184518
| 14> H    2.19896594    0.22609862   -1.95495922
| 15> H    3.71574672   -0.37420221   -1.27615711
| 16> H    2.30144042   -1.44486456   -1.40092582
| 17> *
| 18>
| 19> $new_job
| 20> ! ri-mp2 aug-cc-pvtz aug-cc-pvtz/c tightscf
| 21> %pal nprocs 16 end
| 22> %maxcore 3800
| 23> %base "TZ_S66by10_2_0.9_dimer"
| 24>
| 25> *xyz 0 1
| 26> O   -0.52532979   -0.05097108   -0.31451686
| 27> H   -0.94200663    0.74790163    0.01125282
| 28> H    0.40369652    0.05978598   -0.07356837
| 29> O    2.16477797    0.04663485    0.06031393
| 30> H    2.53276079   -0.52544255    0.73784225
| 31> C    2.62978304   -0.42499507   -1.20184518
| 32> H    2.19896594    0.22609862   -1.95495922
| 33> H    3.71574672   -0.37420221   -1.27615711
| 34> H    2.30144042   -1.44486456   -1.40092582
| 35> *
| 36>
| 37> $new_job
| 38> ! ri-mp2 aug-cc-pvqz aug-cc-pvqz/c tightscf
| 39> %pal nprocs 16 end
| 40> %maxcore 3800
| 41> %base "QZ_S66by10_2_0.9_dimer"
| 42>
| 43> *xyz 0 1
| 44> O   -0.52532979   -0.05097108   -0.31451686
| 45> H   -0.94200663    0.74790163    0.01125282
| 46> H    0.40369652    0.05978598   -0.07356837
| 47> O    2.16477797    0.04663485    0.06031393
| 48> H    2.53276079   -0.52544255    0.73784225
| 49> C    2.62978304   -0.42499507   -1.20184518
| 50> H    2.19896594    0.22609862   -1.95495922
| 51> H    3.71574672   -0.37420221   -1.27615711
| 52> H    2.30144042   -1.44486456   -1.40092582
| 53> *
| 54>
| 55>
| 56>
| 57>
| 58>                          ****END OF INPUT****
 Total Charge           Charge          ....    0
 Multiplicity           Mult            ....    1
 Number of Electrons    NEL             ....   28
MP2 TOTAL ENERGY:     -191.691409230 Eh
FINAL SINGLE POINT ENERGY      -191.691409230269
MP2 TOTAL ENERGY:     -191.866934396 Eh
FINAL SINGLE POINT ENERGY      -191.866934396499

CARTESIAN COORDINATES (ANGSTROEM)
---------------------------------
  O     -0.525330   -0.050971   -0.314517
  H     -0.942007    0.747902    0.011253
  H      0.403697    0.059786   -0.073568
  O      2.164778    0.046635    0.060314
  H      2.532761   -0.525443    0.737842
  C      2.629783   -0.424995   -1.201845
  H      2.198966    0.226099   -1.954959
  H      3.715747   -0.374202   -1.276157
  H      2.301440   -1.444865   -1.400926

 Multiplicity           Mult            ....    1
 Number of Electrons    NEL             ....   28
 Basis Dimension        Dim             ....  516

ORBITAL ENERGIES
----------------

  NO   OCC          E(Eh)            E(eV)
   0   2.0000     -20.581634      -560.0547
   1   2.0000     -20.525414      -558.5249
   2   2.0000     -11.282299      -307.0070
   3   2.0000      -1.385067       -37.6896
   4   2.0000      -1.315552       -35.7980
   5   2.0000      -0.942529       -25.6475
   6   2.0000      -0.723306       -19.6822
   7   2.0000      -0.687395       -18.7050
   8   2.0000      -0.632368       -17.2076
   9   2.0000      -0.612883       -16.6774
  10   2.0000      -0.556239       -15.1360
  11   2.0000      -0.521498       -14.1907
  12   2.0000      -0.476497       -12.9661
  13   2.0000      -0.472588       -12.8598
  14   0.0000       0.022338         0.6078
  15   0.0000       0.036323         0.9884
  16   0.0000       0.038977         1.0606
  17   0.0000       0.043731         1.1900
  18   0.0000       0.056670         1.5421

MULLIKEN ATOMIC CHARGES
-----------------------
   0 O :   -0.645505
   1 H :    0.303750
   2 H :    0.259140
   3 O :   -0.629647
   4 H :    0.342791
   5 C :   -0.522702
   6 H :    0.285503
   7 H :    0.350029
   8 H :    0.256640
Sum of atomic charges:    0.0000000

LOEWDIN ATOMIC CHARGES
----------------------
   0 O :    1.613921
   1 H :   -0.787787
   2 H :   -1.088474
   3 O :    1.298182
   4 H :   -0.735939
   5 C :    0.636386
   6 H :   -0.325827
   7 H :   -0.308573
   8 H :   -0.301889

  Mayer bond orders larger than 0.100000
B(  0-O ,  1-H ) :   0.9518 B(  0-O ,  2-H ) :   0.9656 B(  3-O ,  4-H ) :   0.8756
B(  3-O ,  5-C ) :   0.8387 B(  5-C ,  6-H ) :   0.9110 B(  5-C ,  7-H ) :   0.8683
B(  5-C ,  8-H ) :   0.9222

MP2 TOTAL ENERGY:     -191.923793387 Eh
FINAL SINGLE POINT ENERGY      -191.923793386768

DIPOLE MOMENT
-------------
                                X             Y             Z
Electronic contribution:     -0.85082       0.49369       1.38834
Nuclear contribution   :      1.90439      -0.49551      -1.17325
                        -----------------------------------------
Total Dipole Moment    :      1.05357      -0.00182       0.21509
                        -----------------------------------------
Magnitude (a.u.)       :      1.07530
Magnitude (Debye)      :      2.73319

Rotational constants in cm-1:     0.908636     0.157809     0.139986
Rotational constants in MHz : 27240.213236  4730.993928  4196.665024

                             ****ORCA TERMINATED NORMALLY****
TOTAL RUN TIME: 0 days 0 hours 6 minutes 24 seconds 942 msec
