                         Program Version 5.0.4 -  RELEASE  -
|  1> ! ri-mp2 aug-cc-pvdz aug-cc-pvdz/c tightscf
|  2> %pal nprocs 16 end
|  3> %maxcore 3800
|  4> %base "DZ_S66by10_3_1.05_dimer"
|  5> %scf STABPerform true end
|  6>
|  7> *xyz 0 1
|  8> O   -0.68746490   -0.11174433   -0.01962547
|  9> H   -1.04612154    0.77593821    0.01270684
| 10> H    0.27404252    0.02585065   -0.00349726
| 11> N    2.38503788    0.10914295    0.00657440
| 12> H    2.68040231   -0.44349502   -0.78821646
| 13> H    2.69511837   -0.40157814    0.82343390
| 14> C    3.04437315    1.41750692   -0.03366723
| 15> H    2.73383073    1.99923188    0.83084819
| 16> H    4.13568244    1.37821195   -0.04262290
| 17> H    2.71766088    1.95342439   -0.92149105
| 18> *
| 19>
| 20> $new_job
| 21> ! ri-mp2 aug-cc-pvtz aug-cc-pvtz/c tightscf
| 22> %pal nprocs 16 end
| 23> %maxcore 3800
| 24> %base "TZ_S66by10_3_1.05_dimer"
| 25>
| 26> *xyz 0 1
| 27> O   -0.68746490   -0.11174433   -0.01962547
| 28> H   -1.04612154    0.77593821    0.01270684
| 29> H    0.27404252    0.02585065   -0.00349726
| 30> N    2.38503788    0.10914295    0.00657440
| 31> H    2.68040231   -0.44349502   -0.78821646
| 32> H    2.69511837   -0.40157814    0.82343390
| 33> C    3.04437315    1.41750692   -0.03366723
| 34> H    2.73383073    1.99923188    0.83084819
| 35> H    4.13568244    1.37821195   -0.04262290
| 36> H    2.71766088    1.95342439   -0.92149105
| 37> *
| 38>
| 39> $new_job
| 40> ! ri-mp2 aug-cc-pvqz aug-cc-pvqz/c tightscf
| 41> %pal nprocs 16 end
| 42> %maxcore 3800
| 43> %base "QZ_S66by10_3_1.05_dimer"
| 44>
| 45> *xyz 0 1
| 46> O   -0.68746490   -0.11174433   -0.01962547
| 47> H   -1.04612154    0.77593821    0.01270684
| 48> H    0.27404252    0.02585065   -0.00349726
| 49> N    2.38503788    0.10914295    0.00657440
| 50> H    2.68040231   -0.44349502   -0.78821646
| 51> H    2.69511837   -0.40157814    0.82343390
| 52> C    3.04437315    1.41750692   -0.03366723
| 53> H    2.73383073    1.99923188    0.83084819
| 54> H    4.13568244    1.37821195   -0.04262290
| 55> H    2.71766088    1.95342439   -0.92149105
| 56> *
| 57>
| 58>
| 59>
| 60>
| 61>                          ****END OF INPUT****
 Total Charge           Charge          ....    0
 Multiplicity           Mult            ....    1
 Number of Electrons    NEL             ....   28
MP2 TOTAL ENERGY:     -171.845351536 Eh
FINAL SINGLE POINT ENERGY      -171.845351536476
MP2 TOTAL ENERGY:     -172.007112417 Eh
FINAL SINGLE POINT ENERGY      -172.007112416526

CARTESIAN COORDINATES (ANGSTROEM)
---------------------------------
  O     -0.687465   -0.111744   -0.019625
  H     -1.046122    0.775938    0.012707
  H      0.274043    0.025851   -0.003497
  N      2.385038    0.109143    0.006574
  H      2.680402   -0.443495   -0.788216
  H      2.695118   -0.401578    0.823434
  C      3.044373    1.417507   -0.033667
  H      2.733831    1.999232    0.830848
  H      4.135682    1.378212   -0.042623
  H      2.717661    1.953424   -0.921491

 Multiplicity           Mult            ....    1
 Number of Electrons    NEL             ....   28
 Basis Dimension        Dim             ....  562

ORBITAL ENERGIES
----------------

  NO   OCC          E(Eh)            E(eV)
   0   2.0000     -20.527702      -558.5872
   1   2.0000     -15.559195      -423.3872
   2   2.0000     -11.254658      -306.2548
   3   2.0000      -1.314653       -35.7735
   4   2.0000      -1.191059       -32.4104
   5   2.0000      -0.913667       -24.8621
   6   2.0000      -0.681369       -18.5410
   7   2.0000      -0.680610       -18.5203
   8   2.0000      -0.622754       -16.9460
   9   2.0000      -0.574449       -15.6315
  10   2.0000      -0.551872       -15.0172
  11   2.0000      -0.533983       -14.5304
  12   2.0000      -0.475049       -12.9267
  13   2.0000      -0.417409       -11.3583
  14   0.0000       0.021596         0.5876
  15   0.0000       0.033902         0.9225
  16   0.0000       0.036856         1.0029
  17   0.0000       0.039020         1.0618
  18   0.0000       0.054993         1.4964

MULLIKEN ATOMIC CHARGES
-----------------------
   0 O :   -0.627917
   1 H :    0.309714
   2 H :    0.253696
   3 N :   -0.431029
   4 H :    0.201004
   5 H :    0.202280
   6 C :   -0.712950
   7 H :    0.260238
   8 H :    0.283958
   9 H :    0.261005
Sum of atomic charges:   -0.0000000

LOEWDIN ATOMIC CHARGES
----------------------
   0 O :    1.597268
   1 H :   -0.803928
   2 H :   -0.934537
   3 N :    1.260817
   4 H :   -0.494201
   5 H :   -0.494383
   6 C :    0.778615
   7 H :   -0.309436
   8 H :   -0.290890
   9 H :   -0.309325

  Mayer bond orders larger than 0.100000
B(  0-O ,  1-H ) :   0.9373 B(  0-O ,  2-H ) :   0.9781 B(  3-N ,  4-H ) :   0.9948
B(  3-N ,  5-H ) :   0.9956 B(  3-N ,  6-C ) :   1.0064 B(  6-C ,  7-H ) :   0.9326
B(  6-C ,  8-H ) :   0.9216 B(  6-C ,  9-H ) :   0.9323

MP2 TOTAL ENERGY:     -172.058605383 Eh
FINAL SINGLE POINT ENERGY      -172.058605382995

DIPOLE MOMENT
-------------
                                X             Y             Z
Electronic contribution:     -2.23558      -1.38140       0.01599
Nuclear contribution   :      3.47939       1.99341       0.01249
                        -----------------------------------------
Total Dipole Moment    :      1.24381       0.61201       0.02849
                        -----------------------------------------
Magnitude (a.u.)       :      1.38652
Magnitude (Debye)      :      3.52425

Rotational constants in cm-1:     0.995995     0.111480     0.103792
Rotational constants in MHz : 29859.193445  3342.078057  3111.607486

                             ****ORCA TERMINATED NORMALLY****
TOTAL RUN TIME: 0 days 0 hours 9 minutes 21 seconds 778 msec
