                         Program Version 5.0.4 -  RELEASE  -
|  1> ! ri-mp2 aug-cc-pvdz aug-cc-pvdz/c tightscf
|  2> %pal nprocs 16 end
|  3> %maxcore 3800
|  4> %base "DZ_S66by10_42_0.7_dimer"
|  5> %scf STABPerform true end
|  6>
|  7> *xyz 0 1
|  8> N    0.19572959   -0.84468925    0.82384642
|  9> H    0.45039753   -1.79675294    1.04976794
| 10> C   -1.17904919   -0.57368440    0.75948349
| 11> O   -1.99364624   -1.45626527    0.96690066
| 12> C   -1.47671471    0.81115567    0.43755952
| 13> H   -2.50635592    1.11565059    0.36389469
| 14> C   -0.46811280    1.68296245    0.23489084
| 15> H   -0.63843522    2.72164296   -0.00616410
| 16> N    0.84562854    1.30599113    0.32683051
| 17> H    1.58969256    1.96887924    0.18595979
| 18> C    1.25426147    0.01946187    0.63624397
| 19> O    2.42230438   -0.30171639    0.73187948
| 20> C    1.02908115   -0.84844865    3.50178744
| 21> H    1.48293366   -0.94050489    2.51380488
| 22> H    1.57358365   -1.51242892    4.17098511
| 23> C    1.08339462    0.61750335    3.93472342
| 24> H    2.04168461    1.09040228    3.72399913
| 25> H    0.89527933    0.69914089    5.00794655
| 26> C   -0.08395696    1.23031783    3.16395222
| 27> H    0.19034731    1.31909943    2.11048060
| 28> H   -0.36837139    2.22145895    3.51558623
| 29> C   -1.20090146    0.19274592    3.33498053
| 30> H   -1.92644073    0.21635977    2.52360862
| 31> H   -1.74498708    0.39744307    4.25722915
| 32> C   -0.47786511   -1.17380191    3.43863742
| 33> H   -0.72052966   -1.81795804    2.59527774
| 34> H   -0.79297134   -1.70120433    4.33772384
| 35> *
| 36>
| 37> $new_job
| 38> ! ri-mp2 aug-cc-pvtz aug-cc-pvtz/c tightscf
| 39> %pal nprocs 16 end
| 40> %maxcore 3800
| 41> %base "TZ_S66by10_42_0.7_dimer"
| 42>
| 43> *xyz 0 1
| 44> N    0.19572959   -0.84468925    0.82384642
| 45> H    0.45039753   -1.79675294    1.04976794
| 46> C   -1.17904919   -0.57368440    0.75948349
| 47> O   -1.99364624   -1.45626527    0.96690066
| 48> C   -1.47671471    0.81115567    0.43755952
| 49> H   -2.50635592    1.11565059    0.36389469
| 50> C   -0.46811280    1.68296245    0.23489084
| 51> H   -0.63843522    2.72164296   -0.00616410
| 52> N    0.84562854    1.30599113    0.32683051
| 53> H    1.58969256    1.96887924    0.18595979
| 54> C    1.25426147    0.01946187    0.63624397
| 55> O    2.42230438   -0.30171639    0.73187948
| 56> C    1.02908115   -0.84844865    3.50178744
| 57> H    1.48293366   -0.94050489    2.51380488
| 58> H    1.57358365   -1.51242892    4.17098511
| 59> C    1.08339462    0.61750335    3.93472342
| 60> H    2.04168461    1.09040228    3.72399913
| 61> H    0.89527933    0.69914089    5.00794655
| 62> C   -0.08395696    1.23031783    3.16395222
| 63> H    0.19034731    1.31909943    2.11048060
| 64> H   -0.36837139    2.22145895    3.51558623
| 65> C   -1.20090146    0.19274592    3.33498053
| 66> H   -1.92644073    0.21635977    2.52360862
| 67> H   -1.74498708    0.39744307    4.25722915
| 68> C   -0.47786511   -1.17380191    3.43863742
| 69> H   -0.72052966   -1.81795804    2.59527774
| 70> H   -0.79297134   -1.70120433    4.33772384
| 71> *
| 72>
| 73> $new_job
| 74> ! ri-mp2 aug-cc-pvqz aug-cc-pvqz/c tightscf
| 75> %pal nprocs 16 end
| 76> %maxcore 3800
| 77> %base "QZ_S66by10_42_0.7_dimer"
| 78>
| 79> *xyz 0 1
| 80> N    0.19572959   -0.84468925    0.82384642
| 81> H    0.45039753   -1.79675294    1.04976794
| 82> C   -1.17904919   -0.57368440    0.75948349
| 83> O   -1.99364624   -1.45626527    0.96690066
| 84> C   -1.47671471    0.81115567    0.43755952
| 85> H   -2.50635592    1.11565059    0.36389469
| 86> C   -0.46811280    1.68296245    0.23489084
| 87> H   -0.63843522    2.72164296   -0.00616410
| 88> N    0.84562854    1.30599113    0.32683051
| 89> H    1.58969256    1.96887924    0.18595979
| 90> C    1.25426147    0.01946187    0.63624397
| 91> O    2.42230438   -0.30171639    0.73187948
| 92> C    1.02908115   -0.84844865    3.50178744
| 93> H    1.48293366   -0.94050489    2.51380488
| 94> H    1.57358365   -1.51242892    4.17098511
| 95> C    1.08339462    0.61750335    3.93472342
| 96> H    2.04168461    1.09040228    3.72399913
| 97> H    0.89527933    0.69914089    5.00794655
| 98> C   -0.08395696    1.23031783    3.16395222
| 99> H    0.19034731    1.31909943    2.11048060
|100> H   -0.36837139    2.22145895    3.51558623
|101> C   -1.20090146    0.19274592    3.33498053
|102> H   -1.92644073    0.21635977    2.52360862
|103> H   -1.74498708    0.39744307    4.25722915
|104> C   -0.47786511   -1.17380191    3.43863742
|105> H   -0.72052966   -1.81795804    2.59527774
|106> H   -0.79297134   -1.70120433    4.33772384
|107> *
|108>
|109>
|110>
|111>
|112>                          ****END OF INPUT****
 Total Charge           Charge          ....    0
 Multiplicity           Mult            ....    1
 Number of Electrons    NEL             ....   98
MP2 TOTAL ENERGY:     -609.669729465 Eh
FINAL SINGLE POINT ENERGY      -609.669729465328
MP2 TOTAL ENERGY:     -610.204127535 Eh
FINAL SINGLE POINT ENERGY      -610.204127534664

CARTESIAN COORDINATES (ANGSTROEM)
---------------------------------
  N      0.195730   -0.844689    0.823846
  H      0.450398   -1.796753    1.049768
  C     -1.179049   -0.573684    0.759483
  O     -1.993646   -1.456265    0.966901
  C     -1.476715    0.811156    0.437560
  H     -2.506356    1.115651    0.363895
  C     -0.468113    1.682962    0.234891
  H     -0.638435    2.721643   -0.006164
  N      0.845629    1.305991    0.326831
  H      1.589693    1.968879    0.185960
  C      1.254261    0.019462    0.636244
  O      2.422304   -0.301716    0.731879
  C      1.029081   -0.848449    3.501787
  H      1.482934   -0.940505    2.513805
  H      1.573584   -1.512429    4.170985
  C      1.083395    0.617503    3.934723
  H      2.041685    1.090402    3.723999
  H      0.895279    0.699141    5.007947
  C     -0.083957    1.230318    3.163952
  H      0.190347    1.319099    2.110481
  H     -0.368371    2.221459    3.515586
  C     -1.200901    0.192746    3.334981
  H     -1.926441    0.216360    2.523609
  H     -1.744987    0.397443    4.257229
  C     -0.477865   -1.173802    3.438637
  H     -0.720530   -1.817958    2.595278
  H     -0.792971   -1.701204    4.337724

 Multiplicity           Mult            ....    1
 Number of Electrons    NEL             ....   98
 Basis Dimension        Dim             .... 1684

ORBITAL ENERGIES
----------------

  NO   OCC          E(Eh)            E(eV)
   0   2.0000     -20.548135      -559.1432
   1   2.0000     -20.538354      -558.8770
   2   2.0000     -15.640813      -425.6082
   3   2.0000     -15.626164      -425.2096
   4   2.0000     -11.420341      -310.7633
   5   2.0000     -11.382678      -309.7384
   6   2.0000     -11.336535      -308.4828
   7   2.0000     -11.255955      -306.2901
   8   2.0000     -11.205552      -304.9186
   9   2.0000     -11.203422      -304.8606
  10   2.0000     -11.202817      -304.8441
  11   2.0000     -11.197699      -304.7049
  12   2.0000     -11.196644      -304.6762
  13   2.0000      -1.442155       -39.2430
  14   2.0000      -1.403534       -38.1921
  15   2.0000      -1.318310       -35.8730
  16   2.0000      -1.251380       -34.0518
  17   2.0000      -1.115180       -30.3456
  18   2.0000      -1.091869       -29.7113
  19   2.0000      -0.959471       -26.1085
  20   2.0000      -0.955831       -26.0095
  21   2.0000      -0.934467       -25.4281
  22   2.0000      -0.905624       -24.6433
  23   2.0000      -0.812131       -22.0992
  24   2.0000      -0.786316       -21.3967
  25   2.0000      -0.779957       -21.2237
  26   2.0000      -0.754841       -20.5403
  27   2.0000      -0.718332       -19.5468
  28   2.0000      -0.705015       -19.1844
  29   2.0000      -0.681186       -18.5360
  30   2.0000      -0.656949       -17.8765
  31   2.0000      -0.643787       -17.5183
  32   2.0000      -0.627856       -17.0848
  33   2.0000      -0.617343       -16.7987
  34   2.0000      -0.605642       -16.4804
  35   2.0000      -0.597831       -16.2678
  36   2.0000      -0.594993       -16.1906
  37   2.0000      -0.533222       -14.5097
  38   2.0000      -0.509578       -13.8663
  39   2.0000      -0.490783       -13.3549
  40   2.0000      -0.475182       -12.9304
  41   2.0000      -0.470992       -12.8164
  42   2.0000      -0.463129       -12.6024
  43   2.0000      -0.460942       -12.5429
  44   2.0000      -0.455754       -12.4017
  45   2.0000      -0.447634       -12.1807
  46   2.0000      -0.439663       -11.9638
  47   2.0000      -0.427183       -11.6242
  48   2.0000      -0.368238       -10.0203
  49   0.0000       0.011621         0.3162
  50   0.0000       0.027284         0.7424
  51   0.0000       0.028723         0.7816
  52   0.0000       0.032270         0.8781
  53   0.0000       0.040729         1.1083

MULLIKEN ATOMIC CHARGES
-----------------------
   0 N :   -0.637409
   1 H :   -0.023851
   2 C :    1.918896
   3 O :   -1.098971
   4 C :   -0.655240
   5 H :    0.219094
   6 C :   -0.287987
   7 H :    0.349317
   8 N :   -0.704229
   9 H :   -0.016182
  10 C :    2.054627
  11 O :   -1.002160
  12 C :   -0.503652
  13 H :    0.177758
  14 H :    0.300065
  15 C :   -0.596075
  16 H :    0.287952
  17 H :    0.212003
  18 C :   -0.513617
  19 H :    0.513154
  20 H :    0.195115
  21 C :   -0.709290
  22 H :    0.512346
  23 H :    0.170439
  24 C :   -0.626402
  25 H :    0.223507
  26 H :    0.240792
Sum of atomic charges:   -0.0000000

LOEWDIN ATOMIC CHARGES
----------------------
   0 N :    0.843759
   1 H :   -0.509403
   2 C :   -0.839029
   3 O :    0.826190
   4 C :    0.370024
   5 H :   -0.303399
   6 C :    0.263217
   7 H :   -0.262011
   8 N :    0.861067
   9 H :   -0.446339
  10 C :   -0.931174
  11 O :    0.803713
  12 C :    0.549127
  13 H :   -0.527801
  14 H :   -0.233305
  15 C :    0.569738
  16 H :   -0.244208
  17 H :   -0.255390
  18 C :    0.529345
  19 H :   -0.579950
  20 H :   -0.221122
  21 C :    0.555807
  22 H :   -0.435870
  23 H :   -0.238923
  24 C :    0.563280
  25 H :   -0.465987
  26 H :   -0.241356

  Mayer bond orders larger than 0.100000
B(  0-N ,  1-H ) :   1.2300 B(  0-N ,  2-C ) :   1.0691 B(  0-N ,  3-O ) :   0.2754
B(  0-N , 10-C ) :   1.0793 B(  0-N , 11-O ) :   0.3646 B(  1-H ,  2-C ) :  -0.1007
B(  1-H ,  3-O ) :   0.1020 B(  2-C ,  3-O ) :   0.2586 B(  2-C ,  4-C ) :   1.0313
B(  2-C , 21-C ) :  -0.1126 B(  3-O ,  4-C ) :   0.2798 B(  3-O , 21-C ) :   0.1816
B(  4-C ,  5-H ) :   1.0961 B(  4-C ,  6-C ) :   1.6964 B(  4-C , 19-H ) :  -0.1990
B(  4-C , 21-C ) :   0.1234 B(  6-C ,  7-H ) :   0.9950 B(  6-C ,  8-N ) :   1.0494
B(  6-C ,  9-H ) :  -0.1115 B(  6-C , 19-H ) :  -0.1425 B(  8-N ,  9-H ) :   1.2659
B(  8-N , 10-C ) :   1.0849 B(  8-N , 11-O ) :   0.3392 B(  8-N , 19-H ) :  -0.2213
B( 10-C , 11-O ) :   0.3341 B( 12-C , 13-H ) :   0.9105 B( 12-C , 14-H ) :   0.9217
B( 12-C , 15-C ) :   0.9692 B( 12-C , 18-C ) :  -0.1092 B( 12-C , 24-C ) :   0.9372
B( 15-C , 16-H ) :   0.8981 B( 15-C , 17-H ) :   1.0031 B( 15-C , 18-C ) :   0.9701
B( 15-C , 19-H ) :  -0.1234 B( 18-C , 19-H ) :   0.8127 B( 18-C , 20-H ) :   1.0656
B( 18-C , 21-C ) :   0.7245 B( 19-H , 21-C ) :   0.1127 B( 21-C , 22-H ) :   0.8544
B( 21-C , 23-H ) :   1.0657 B( 21-C , 24-C ) :   0.8578 B( 24-C , 25-H ) :   1.0019
B( 24-C , 26-H ) :   0.9695

MP2 TOTAL ENERGY:     -610.374043953 Eh
FINAL SINGLE POINT ENERGY      -610.374043952577

DIPOLE MOMENT
-------------
                                X             Y             Z
Electronic contribution:      0.59059      -1.47117     -11.97639
Nuclear contribution   :     -0.62882       3.28732      11.47066
                        -----------------------------------------
Total Dipole Moment    :     -0.03823       1.81615      -0.50573
                        -----------------------------------------
Magnitude (a.u.)       :      1.88563
Magnitude (Debye)      :      4.79290

Rotational constants in cm-1:     0.034071     0.030055     0.024277
Rotational constants in MHz :  1021.423825   901.032680   727.792389

                             ****ORCA TERMINATED NORMALLY****
TOTAL RUN TIME: 0 days 16 hours 28 minutes 6 seconds 682 msec
