                         Program Version 5.0.4 -  RELEASE  -
|  1> ! ri-mp2 aug-cc-pvdz aug-cc-pvdz/c tightscf
|  2> %pal nprocs 16 end
|  3> %maxcore 3800
|  4> %base "DZ_S66by10_6_0.8_dimer"
|  5> %scf STABPerform true end
|  6>
|  7> *xyz 0 1
|  8> O   -0.70692019    0.04583037    0.00638610
|  9> H    0.26562361    0.07171014    0.00133929
| 10> C   -1.07667067   -1.31391581    0.00161428
| 11> H   -2.16292358   -1.36319577    0.00586542
| 12> H   -0.72340594   -1.84465168   -0.88774350
| 13> H   -0.71607978   -1.85282083    0.88307978
| 14> N    1.83885527   -0.01617519   -0.00246257
| 15> H    2.20947482    0.49160132    0.79066982
| 16> H    2.20959811    0.44816338   -0.82172141
| 17> C    2.31660720   -1.40220864    0.03499863
| 18> H    1.92472237   -1.93623391   -0.82719310
| 19> H    3.40331836   -1.50894380    0.03803313
| 20> H    1.92448080   -1.88893881    0.92463078
| 21> *
| 22>
| 23> $new_job
| 24> ! ri-mp2 aug-cc-pvtz aug-cc-pvtz/c tightscf
| 25> %pal nprocs 16 end
| 26> %maxcore 3800
| 27> %base "TZ_S66by10_6_0.8_dimer"
| 28>
| 29> *xyz 0 1
| 30> O   -0.70692019    0.04583037    0.00638610
| 31> H    0.26562361    0.07171014    0.00133929
| 32> C   -1.07667067   -1.31391581    0.00161428
| 33> H   -2.16292358   -1.36319577    0.00586542
| 34> H   -0.72340594   -1.84465168   -0.88774350
| 35> H   -0.71607978   -1.85282083    0.88307978
| 36> N    1.83885527   -0.01617519   -0.00246257
| 37> H    2.20947482    0.49160132    0.79066982
| 38> H    2.20959811    0.44816338   -0.82172141
| 39> C    2.31660720   -1.40220864    0.03499863
| 40> H    1.92472237   -1.93623391   -0.82719310
| 41> H    3.40331836   -1.50894380    0.03803313
| 42> H    1.92448080   -1.88893881    0.92463078
| 43> *
| 44>
| 45> $new_job
| 46> ! ri-mp2 aug-cc-pvqz aug-cc-pvqz/c tightscf
| 47> %pal nprocs 16 end
| 48> %maxcore 3800
| 49> %base "QZ_S66by10_6_0.8_dimer"
| 50>
| 51> *xyz 0 1
| 52> O   -0.70692019    0.04583037    0.00638610
| 53> H    0.26562361    0.07171014    0.00133929
| 54> C   -1.07667067   -1.31391581    0.00161428
| 55> H   -2.16292358   -1.36319577    0.00586542
| 56> H   -0.72340594   -1.84465168   -0.88774350
| 57> H   -0.71607978   -1.85282083    0.88307978
| 58> N    1.83885527   -0.01617519   -0.00246257
| 59> H    2.20947482    0.49160132    0.79066982
| 60> H    2.20959811    0.44816338   -0.82172141
| 61> C    2.31660720   -1.40220864    0.03499863
| 62> H    1.92472237   -1.93623391   -0.82719310
| 63> H    3.40331836   -1.50894380    0.03803313
| 64> H    1.92448080   -1.88893881    0.92463078
| 65> *
| 66>
| 67>
| 68>
| 69>
| 70>                          ****END OF INPUT****
 Total Charge           Charge          ....    0
 Multiplicity           Mult            ....    1
 Number of Electrons    NEL             ....   36
MP2 TOTAL ENERGY:     -211.002009239 Eh
FINAL SINGLE POINT ENERGY      -211.002009238788
MP2 TOTAL ENERGY:     -211.203232414 Eh
FINAL SINGLE POINT ENERGY      -211.203232413950

CARTESIAN COORDINATES (ANGSTROEM)
---------------------------------
  O     -0.706920    0.045830    0.006386
  H      0.265624    0.071710    0.001339
  C     -1.076671   -1.313916    0.001614
  H     -2.162924   -1.363196    0.005865
  H     -0.723406   -1.844652   -0.887743
  H     -0.716080   -1.852821    0.883080
  N      1.838855   -0.016175   -0.002463
  H      2.209475    0.491601    0.790670
  H      2.209598    0.448163   -0.821721
  C      2.316607   -1.402209    0.034999
  H      1.924722   -1.936234   -0.827193
  H      3.403318   -1.508944    0.038033
  H      1.924481   -1.888939    0.924631

 Multiplicity           Mult            ....    1
 Number of Electrons    NEL             ....   36
 Basis Dimension        Dim             ....  734

ORBITAL ENERGIES
----------------

  NO   OCC          E(Eh)            E(eV)
   0   2.0000     -20.492959      -557.6418
   1   2.0000     -15.569335      -423.6631
   2   2.0000     -11.261935      -306.4528
   3   2.0000     -11.240541      -305.8707
   4   2.0000      -1.311496       -35.6876
   5   2.0000      -1.206422       -32.8284
   6   2.0000      -0.925831       -25.1931
   7   2.0000      -0.891023       -24.2460
   8   2.0000      -0.694824       -18.9071
   9   2.0000      -0.681759       -18.5516
  10   2.0000      -0.623533       -16.9672
  11   2.0000      -0.585907       -15.9434
  12   2.0000      -0.578162       -15.7326
  13   2.0000      -0.555769       -15.1233
  14   2.0000      -0.542899       -14.7730
  15   2.0000      -0.487384       -13.2624
  16   2.0000      -0.407940       -11.1006
  17   2.0000      -0.404925       -11.0186
  18   0.0000       0.019629         0.5341
  19   0.0000       0.033578         0.9137
  20   0.0000       0.035835         0.9751
  21   0.0000       0.036944         1.0053
  22   0.0000       0.051012         1.3881

MULLIKEN ATOMIC CHARGES
-----------------------
   0 O :   -0.756465
   1 H :    0.265027
   2 C :   -0.561996
   3 H :    0.487129
   4 H :    0.198624
   5 H :    0.200525
   6 N :   -0.202403
   7 H :    0.169198
   8 H :    0.168356
   9 C :   -0.849915
  10 H :    0.242011
  11 H :    0.400070
  12 H :    0.239839
Sum of atomic charges:   -0.0000000

LOEWDIN ATOMIC CHARGES
----------------------
   0 O :    1.252883
   1 H :   -1.181010
   2 C :    0.545822
   3 H :   -0.342652
   4 H :   -0.322502
   5 H :   -0.323433
   6 N :    1.286801
   7 H :   -0.430677
   8 H :   -0.430696
   9 C :    0.818011
  10 H :   -0.298465
  11 H :   -0.276049
  12 H :   -0.298033

  Mayer bond orders larger than 0.100000
B(  0-O ,  1-H ) :   0.9141 B(  0-O ,  2-C ) :   0.8461 B(  0-O ,  6-N ) :  -0.1008
B(  1-H ,  6-N ) :   0.1224 B(  2-C ,  3-H ) :   0.7423 B(  2-C ,  4-H ) :   0.9614
B(  2-C ,  5-H ) :   0.9608 B(  6-N ,  7-H ) :   1.0058 B(  6-N ,  8-H ) :   1.0056
B(  6-N ,  9-C ) :   1.0166 B(  9-C , 10-H ) :   0.9623 B(  9-C , 11-H ) :   0.8077
B(  9-C , 12-H ) :   0.9658

MP2 TOTAL ENERGY:     -211.265767429 Eh
FINAL SINGLE POINT ENERGY      -211.265767429334

DIPOLE MOMENT
-------------
                                X             Y             Z
Electronic contribution:     -1.21659       2.76880      -0.02256
Nuclear contribution   :      2.75680      -3.22596       0.01790
                        -----------------------------------------
Total Dipole Moment    :      1.54021      -0.45716      -0.00466
                        -----------------------------------------
Magnitude (a.u.)       :      1.60663
Magnitude (Debye)      :      4.08373

Rotational constants in cm-1:     0.418782     0.112003     0.092689
Rotational constants in MHz : 12554.761224  3357.779147  2778.754721

                             ****ORCA TERMINATED NORMALLY****
TOTAL RUN TIME: 0 days 0 hours 39 minutes 33 seconds 943 msec
