                         Program Version 5.0.4 -  RELEASE  -
|  1> ! ri-mp2 aug-cc-pvdz aug-cc-pvdz/c tightscf
|  2> %pal nprocs 16 end
|  3> %maxcore 3800
|  4> %base "DZ_S66by10_55_0.9_dimer"
|  5>
|  6> *xyz 0 1
|  7> C    0.75974918    1.03127506    0.37377239
|  8> H    1.43501626    1.87566427    0.37470462
|  9> C    1.26661779   -0.26736234    0.42127308
| 10> H    2.33491597   -0.42918019    0.45943234
| 11> C    0.39532054   -1.35599116    0.42490511
| 12> H    0.78866193   -2.36249259    0.46303549
| 13> C   -0.98220564   -1.14665441    0.38127024
| 14> H   -1.65765632   -1.99114019    0.38512100
| 15> C   -1.48934612    0.15114979    0.33757234
| 16> H   -2.55794704    0.31375049    0.30771900
| 17> C   -0.61877516    1.24033121    0.33388373
| 18> H   -1.01176161    2.24710690    0.30436922
| 19> O    0.06810824    0.31794921    3.42950875
| 20> H    0.15420845    0.36782230    2.47231521
| 21> C   -0.82804236   -0.73966486    3.71256379
| 22> H   -0.92376305   -0.79639945    4.79349992
| 23> H   -1.82019195   -0.56796712    3.28877358
| 24> H   -0.46158204   -1.70270593    3.34965227
| 25> *
| 26>
| 27> $new_job
| 28> ! ri-mp2 aug-cc-pvtz aug-cc-pvtz/c tightscf
| 29> %pal nprocs 16 end
| 30> %maxcore 3800
| 31> %base "TZ_S66by10_55_0.9_dimer"
| 32>
| 33> *xyz 0 1
| 34> C    0.75974918    1.03127506    0.37377239
| 35> H    1.43501626    1.87566427    0.37470462
| 36> C    1.26661779   -0.26736234    0.42127308
| 37> H    2.33491597   -0.42918019    0.45943234
| 38> C    0.39532054   -1.35599116    0.42490511
| 39> H    0.78866193   -2.36249259    0.46303549
| 40> C   -0.98220564   -1.14665441    0.38127024
| 41> H   -1.65765632   -1.99114019    0.38512100
| 42> C   -1.48934612    0.15114979    0.33757234
| 43> H   -2.55794704    0.31375049    0.30771900
| 44> C   -0.61877516    1.24033121    0.33388373
| 45> H   -1.01176161    2.24710690    0.30436922
| 46> O    0.06810824    0.31794921    3.42950875
| 47> H    0.15420845    0.36782230    2.47231521
| 48> C   -0.82804236   -0.73966486    3.71256379
| 49> H   -0.92376305   -0.79639945    4.79349992
| 50> H   -1.82019195   -0.56796712    3.28877358
| 51> H   -0.46158204   -1.70270593    3.34965227
| 52> *
| 53>
| 54> $new_job
| 55> ! ri-mp2 aug-cc-pvqz aug-cc-pvqz/c tightscf
| 56> %pal nprocs 16 end
| 57> %maxcore 3800
| 58> %base "QZ_S66by10_55_0.9_dimer"
| 59>
| 60> *xyz 0 1
| 61> C    0.75974918    1.03127506    0.37377239
| 62> H    1.43501626    1.87566427    0.37470462
| 63> C    1.26661779   -0.26736234    0.42127308
| 64> H    2.33491597   -0.42918019    0.45943234
| 65> C    0.39532054   -1.35599116    0.42490511
| 66> H    0.78866193   -2.36249259    0.46303549
| 67> C   -0.98220564   -1.14665441    0.38127024
| 68> H   -1.65765632   -1.99114019    0.38512100
| 69> C   -1.48934612    0.15114979    0.33757234
| 70> H   -2.55794704    0.31375049    0.30771900
| 71> C   -0.61877516    1.24033121    0.33388373
| 72> H   -1.01176161    2.24710690    0.30436922
| 73> O    0.06810824    0.31794921    3.42950875
| 74> H    0.15420845    0.36782230    2.47231521
| 75> C   -0.82804236   -0.73966486    3.71256379
| 76> H   -0.92376305   -0.79639945    4.79349992
| 77> H   -1.82019195   -0.56796712    3.28877358
| 78> H   -0.46158204   -1.70270593    3.34965227
| 79> *
| 80>
| 81>
| 82>
| 83>
| 84>                          ****END OF INPUT****
 Total Charge           Charge          ....    0
 Multiplicity           Mult            ....    1
 Number of Electrons    NEL             ....   60
MP2 TOTAL ENERGY:     -346.970297517 Eh
FINAL SINGLE POINT ENERGY      -346.970297517366
MP2 TOTAL ENERGY:     -347.282234527 Eh
FINAL SINGLE POINT ENERGY      -347.282234526753

CARTESIAN COORDINATES (ANGSTROEM)
---------------------------------
  C      0.759749    1.031275    0.373772
  H      1.435016    1.875664    0.374705
  C      1.266618   -0.267362    0.421273
  H      2.334916   -0.429180    0.459432
  C      0.395321   -1.355991    0.424905
  H      0.788662   -2.362493    0.463035
  C     -0.982206   -1.146654    0.381270
  H     -1.657656   -1.991140    0.385121
  C     -1.489346    0.151150    0.337572
  H     -2.557947    0.313750    0.307719
  C     -0.618775    1.240331    0.333884
  H     -1.011762    2.247107    0.304369
  O      0.068108    0.317949    3.429509
  H      0.154208    0.367822    2.472315
  C     -0.828042   -0.739665    3.712564
  H     -0.923763   -0.796399    4.793500
  H     -1.820192   -0.567967    3.288774
  H     -0.461582   -1.702706    3.349652

 Multiplicity           Mult            ....    1
 Number of Electrons    NEL             ....   60
 Basis Dimension        Dim             .... 1100

ORBITAL ENERGIES
----------------

  NO   OCC          E(Eh)            E(eV)
   0   2.0000     -20.532434      -558.7159
   1   2.0000     -11.252558      -306.1977
   2   2.0000     -11.246563      -306.0345
   3   2.0000     -11.246068      -306.0211
   4   2.0000     -11.245987      -306.0189
   5   2.0000     -11.244677      -305.9832
   6   2.0000     -11.244494      -305.9782
   7   2.0000     -11.243967      -305.9639
   8   2.0000      -1.337681       -36.4001
   9   2.0000      -1.163586       -31.6628
  10   2.0000      -1.027310       -27.9545
  11   2.0000      -1.026696       -27.9378
  12   2.0000      -0.908294       -24.7159
  13   2.0000      -0.835388       -22.7321
  14   2.0000      -0.835385       -22.7320
  15   2.0000      -0.721571       -19.6349
  16   2.0000      -0.677910       -18.4469
  17   2.0000      -0.654690       -17.8150
  18   2.0000      -0.630521       -17.1573
  19   2.0000      -0.603293       -16.4164
  20   2.0000      -0.599625       -16.3166
  21   2.0000      -0.599520       -16.3138
  22   2.0000      -0.575856       -15.6698
  23   2.0000      -0.514352       -13.9962
  24   2.0000      -0.505946       -13.7675
  25   2.0000      -0.505876       -13.7656
  26   2.0000      -0.486092       -13.2272
  27   2.0000      -0.431560       -11.7433
  28   2.0000      -0.349828        -9.5193
  29   2.0000      -0.349599        -9.5131
  30   0.0000       0.023595         0.6421
  31   0.0000       0.028995         0.7890
  32   0.0000       0.029276         0.7966
  33   0.0000       0.038740         1.0542
  34   0.0000       0.041005         1.1158

MULLIKEN ATOMIC CHARGES
-----------------------
   0 C :   -0.172117
   1 H :    0.299335
   2 C :   -0.402508
   3 H :    0.301104
   4 C :   -0.307138
   5 H :    0.294050
   6 C :   -0.297081
   7 H :    0.288037
   8 C :   -0.306201
   9 H :    0.296254
  10 C :   -0.406080
  11 H :    0.296815
  12 O :   -0.790699
  13 H :    0.533796
  14 C :   -0.602762
  15 H :    0.456089
  16 H :    0.260417
  17 H :    0.258689
Sum of atomic charges:   -0.0000000

LOEWDIN ATOMIC CHARGES
----------------------
   0 C :    0.331869
   1 H :   -0.308156
   2 C :    0.338373
   3 H :   -0.309905
   4 C :    0.332855
   5 H :   -0.313462
   6 C :    0.318011
   7 H :   -0.312633
   8 C :    0.332312
   9 H :   -0.313663
  10 C :    0.339062
  11 H :   -0.310220
  12 O :    1.281883
  13 H :   -1.001599
  14 C :    0.567677
  15 H :   -0.332260
  16 H :   -0.320005
  17 H :   -0.320139

  Mayer bond orders larger than 0.100000
B(  0-C ,  1-H ) :   1.0666 B(  0-C ,  2-C ) :   1.1778 B(  0-C ,  6-C ) :   0.1201
B(  0-C , 10-C ) :   1.1763 B(  2-C ,  3-H ) :   1.0669 B(  2-C ,  4-C ) :   1.2538
B(  2-C ,  8-C ) :   0.1435 B(  2-C , 10-C ) :   0.1164 B(  4-C ,  5-H ) :   1.0622
B(  4-C ,  6-C ) :   1.2006 B(  4-C , 10-C ) :   0.1436 B(  6-C ,  7-H ) :   1.0578
B(  6-C ,  8-C ) :   1.1955 B(  8-C ,  9-H ) :   1.0590 B(  8-C , 10-C ) :   1.2569
B( 10-C , 11-H ) :   1.0724 B( 12-O , 13-H ) :   0.7829 B( 12-O , 14-C ) :   0.8280
B( 14-C , 15-H ) :   0.7759 B( 14-C , 16-H ) :   0.9198 B( 14-C , 17-H ) :   0.9209

MP2 TOTAL ENERGY:     -347.380443982 Eh
FINAL SINGLE POINT ENERGY      -347.380443981996

DIPOLE MOMENT
-------------
                                X             Y             Z
Electronic contribution:      1.43780       1.52560      -3.72662
Nuclear contribution   :     -1.72873      -1.91099       3.04236
                        -----------------------------------------
Total Dipole Moment    :     -0.29093      -0.38539      -0.68426
                        -----------------------------------------
Magnitude (a.u.)       :      0.83749
Magnitude (Debye)      :      2.12872

Rotational constants in cm-1:     0.087094     0.051765     0.049748
Rotational constants in MHz :  2611.007263  1551.886605  1491.421258

                             ****ORCA TERMINATED NORMALLY****
TOTAL RUN TIME: 0 days 0 hours 21 minutes 37 seconds 420 msec
