                         Program Version 5.0.4 -  RELEASE  -
|  1> ! ri-mp2 aug-cc-pvdz aug-cc-pvdz/c tightscf
|  2> %pal nprocs 16 end
|  3> %maxcore 3800
|  4> %base "DZ_S66by10_10_0.8_dimer"
|  5> %scf STABPerform true end
|  6>
|  7> *xyz 0 1
|  8> N   -0.63864138    0.47091637    0.04456848
|  9> H    0.18995436   -0.11393716   -0.00577361
| 10> H   -1.30046894    0.08125680   -0.61366848
| 11> C   -1.19865882    0.39139858    1.39194660
| 12> H   -2.09273777    1.00924471    1.45316749
| 13> H   -1.46274551   -0.61584367    1.72945219
| 14> H   -0.48027554    0.79867491    2.10108731
| 15> N    1.98267581   -0.39115845    0.15882867
| 16> H    2.27894448   -0.11662071   -0.76915657
| 17> H    2.60622548   -1.13884877    0.43402353
| 18> C    2.14290579    0.74405214    1.07250397
| 19> H    1.87271549    0.42935636    2.07815708
| 20> H    3.15031610    1.16582870    1.10947571
| 21> H    1.45036541    1.52982763    0.77984673
| 22> *
| 23>
| 24> $new_job
| 25> ! ri-mp2 aug-cc-pvtz aug-cc-pvtz/c tightscf
| 26> %pal nprocs 16 end
| 27> %maxcore 3800
| 28> %base "TZ_S66by10_10_0.8_dimer"
| 29>
| 30> *xyz 0 1
| 31> N   -0.63864138    0.47091637    0.04456848
| 32> H    0.18995436   -0.11393716   -0.00577361
| 33> H   -1.30046894    0.08125680   -0.61366848
| 34> C   -1.19865882    0.39139858    1.39194660
| 35> H   -2.09273777    1.00924471    1.45316749
| 36> H   -1.46274551   -0.61584367    1.72945219
| 37> H   -0.48027554    0.79867491    2.10108731
| 38> N    1.98267581   -0.39115845    0.15882867
| 39> H    2.27894448   -0.11662071   -0.76915657
| 40> H    2.60622548   -1.13884877    0.43402353
| 41> C    2.14290579    0.74405214    1.07250397
| 42> H    1.87271549    0.42935636    2.07815708
| 43> H    3.15031610    1.16582870    1.10947571
| 44> H    1.45036541    1.52982763    0.77984673
| 45> *
| 46>
| 47> $new_job
| 48> ! ri-mp2 aug-cc-pvqz aug-cc-pvqz/c tightscf
| 49> %pal nprocs 16 end
| 50> %maxcore 3800
| 51> %base "QZ_S66by10_10_0.8_dimer"
| 52>
| 53> *xyz 0 1
| 54> N   -0.63864138    0.47091637    0.04456848
| 55> H    0.18995436   -0.11393716   -0.00577361
| 56> H   -1.30046894    0.08125680   -0.61366848
| 57> C   -1.19865882    0.39139858    1.39194660
| 58> H   -2.09273777    1.00924471    1.45316749
| 59> H   -1.46274551   -0.61584367    1.72945219
| 60> H   -0.48027554    0.79867491    2.10108731
| 61> N    1.98267581   -0.39115845    0.15882867
| 62> H    2.27894448   -0.11662071   -0.76915657
| 63> H    2.60622548   -1.13884877    0.43402353
| 64> C    2.14290579    0.74405214    1.07250397
| 65> H    1.87271549    0.42935636    2.07815708
| 66> H    3.15031610    1.16582870    1.10947571
| 67> H    1.45036541    1.52982763    0.77984673
| 68> *
| 69>
| 70>
| 71>
| 72>
| 73>                          ****END OF INPUT****
 Total Charge           Charge          ....    0
 Multiplicity           Mult            ....    1
 Number of Electrons    NEL             ....   36
MP2 TOTAL ENERGY:     -191.149669303 Eh
FINAL SINGLE POINT ENERGY      -191.149669303252
MP2 TOTAL ENERGY:     -191.337142100 Eh
FINAL SINGLE POINT ENERGY      -191.337142100094

CARTESIAN COORDINATES (ANGSTROEM)
---------------------------------
  N     -0.638641    0.470916    0.044568
  H      0.189954   -0.113937   -0.005774
  H     -1.300469    0.081257   -0.613668
  C     -1.198659    0.391399    1.391947
  H     -2.092738    1.009245    1.453167
  H     -1.462746   -0.615844    1.729452
  H     -0.480276    0.798675    2.101087
  N      1.982676   -0.391158    0.158829
  H      2.278944   -0.116621   -0.769157
  H      2.606225   -1.138849    0.434024
  C      2.142906    0.744052    1.072504
  H      1.872715    0.429356    2.078157
  H      3.150316    1.165829    1.109476
  H      1.450365    1.529828    0.779847

 Multiplicity           Mult            ....    1
 Number of Electrons    NEL             ....   36
 Basis Dimension        Dim             ....  780

ORBITAL ENERGIES
----------------

  NO   OCC          E(Eh)            E(eV)
   0   2.0000     -15.548654      -423.1004
   1   2.0000     -15.502755      -421.8514
   2   2.0000     -11.239747      -305.8491
   3   2.0000     -11.222180      -305.3711
   4   2.0000      -1.186649       -32.2904
   5   2.0000      -1.143509       -31.1165
   6   2.0000      -0.902437       -24.5565
   7   2.0000      -0.876890       -23.8614
   8   2.0000      -0.679239       -18.4830
   9   2.0000      -0.654447       -17.8084
  10   2.0000      -0.600647       -16.3444
  11   2.0000      -0.585150       -15.9227
  12   2.0000      -0.559759       -15.2318
  13   2.0000      -0.530545       -14.4369
  14   2.0000      -0.521991       -14.2041
  15   2.0000      -0.501741       -13.6531
  16   2.0000      -0.406139       -11.0516
  17   2.0000      -0.364912        -9.9298
  18   0.0000       0.023697         0.6448
  19   0.0000       0.034937         0.9507
  20   0.0000       0.035953         0.9783
  21   0.0000       0.037593         1.0230
  22   0.0000       0.050716         1.3801

MULLIKEN ATOMIC CHARGES
-----------------------
   0 N :   -0.587778
   1 H :    0.319807
   2 H :    0.138596
   3 C :   -0.807215
   4 H :    0.341754
   5 H :    0.268912
   6 H :    0.283388
   7 N :   -0.450636
   8 H :    0.209104
   9 H :    0.174252
  10 C :   -0.722674
  11 H :    0.230399
  12 H :    0.361761
  13 H :    0.240330
Sum of atomic charges:    0.0000000

LOEWDIN ATOMIC CHARGES
----------------------
   0 N :    1.257545
   1 H :   -0.785090
   2 H :   -0.500739
   3 C :    0.753682
   4 H :   -0.308422
   5 H :   -0.283049
   6 H :   -0.341175
   7 N :    1.282736
   8 H :   -0.466894
   9 H :   -0.475667
  10 C :    0.777800
  11 H :   -0.298432
  12 H :   -0.271792
  13 H :   -0.340503

  Mayer bond orders larger than 0.100000
B(  0-N ,  1-H ) :   0.8195 B(  0-N ,  2-H ) :   1.0265 B(  0-N ,  3-C ) :   0.9608
B(  3-C ,  4-H ) :   0.9025 B(  3-C ,  5-H ) :   0.9268 B(  3-C ,  6-H ) :   0.9037
B(  7-N ,  8-H ) :   0.9520 B(  7-N ,  9-H ) :   1.0102 B(  7-N , 10-C ) :   0.9893
B( 10-C , 11-H ) :   0.9567 B( 10-C , 12-H ) :   0.8415 B( 10-C , 13-H ) :   0.9528

MP2 TOTAL ENERGY:     -191.394338770 Eh
FINAL SINGLE POINT ENERGY      -191.394338769933

DIPOLE MOMENT
-------------
                                X             Y             Z
Electronic contribution:      0.35278      -0.57696      -1.56641
Nuclear contribution   :      0.32704       0.14927       1.61341
                        -----------------------------------------
Total Dipole Moment    :      0.67982      -0.42769       0.04700
                        -----------------------------------------
Magnitude (a.u.)       :      0.80453
Magnitude (Debye)      :      2.04496

Rotational constants in cm-1:     0.403313     0.104787     0.093309
Rotational constants in MHz : 12091.022062  3141.445439  2797.327045

                             ****ORCA TERMINATED NORMALLY****
TOTAL RUN TIME: 0 days 0 hours 36 minutes 23 seconds 772 msec
