                         Program Version 5.0.4 -  RELEASE  -
|  1> ! ri-mp2 aug-cc-pvdz aug-cc-pvdz/c tightscf
|  2> %pal nprocs 16 end
|  3> %maxcore 3800
|  4> %base "DZ_S66by10_20_1.05_dimer"
|  5> %scf STABPerform true end
|  6>
|  7> *xyz 0 1
|  8> C   -1.06170920    1.29714057    0.29206000
|  9> O   -0.35816112    2.27045861    0.53181267
| 10> O   -0.58930352    0.09491776    0.00378881
| 11> H    0.40443566    0.12772262    0.01841184
| 12> C   -2.55842780    1.34254982    0.29625732
| 13> H   -2.89599798    2.34746400    0.51831634
| 14> H   -2.93288928    1.02239045   -0.67299555
| 15> H   -2.93721196    0.64491043    1.03955708
| 16> C    2.88424050    1.10883915    0.27190995
| 17> O    2.18062213    0.13552466    0.03212235
| 18> O    2.41181417    2.31127454    0.55968842
| 19> H    1.41802563    2.27837631    0.54528792
| 20> C    4.38095295    1.06293641    0.26994556
| 21> H    4.71853251    0.06161721    0.03242006
| 22> H    4.76245149    1.77328935   -0.45952334
| 23> H    4.75246926    1.36563092    1.24600092
| 24> *
| 25>
| 26> $new_job
| 27> ! ri-mp2 aug-cc-pvtz aug-cc-pvtz/c tightscf
| 28> %pal nprocs 16 end
| 29> %maxcore 3800
| 30> %base "TZ_S66by10_20_1.05_dimer"
| 31>
| 32> *xyz 0 1
| 33> C   -1.06170920    1.29714057    0.29206000
| 34> O   -0.35816112    2.27045861    0.53181267
| 35> O   -0.58930352    0.09491776    0.00378881
| 36> H    0.40443566    0.12772262    0.01841184
| 37> C   -2.55842780    1.34254982    0.29625732
| 38> H   -2.89599798    2.34746400    0.51831634
| 39> H   -2.93288928    1.02239045   -0.67299555
| 40> H   -2.93721196    0.64491043    1.03955708
| 41> C    2.88424050    1.10883915    0.27190995
| 42> O    2.18062213    0.13552466    0.03212235
| 43> O    2.41181417    2.31127454    0.55968842
| 44> H    1.41802563    2.27837631    0.54528792
| 45> C    4.38095295    1.06293641    0.26994556
| 46> H    4.71853251    0.06161721    0.03242006
| 47> H    4.76245149    1.77328935   -0.45952334
| 48> H    4.75246926    1.36563092    1.24600092
| 49> *
| 50>
| 51> $new_job
| 52> ! ri-mp2 aug-cc-pvqz aug-cc-pvqz/c tightscf
| 53> %pal nprocs 16 end
| 54> %maxcore 3800
| 55> %base "QZ_S66by10_20_1.05_dimer"
| 56>
| 57> *xyz 0 1
| 58> C   -1.06170920    1.29714057    0.29206000
| 59> O   -0.35816112    2.27045861    0.53181267
| 60> O   -0.58930352    0.09491776    0.00378881
| 61> H    0.40443566    0.12772262    0.01841184
| 62> C   -2.55842780    1.34254982    0.29625732
| 63> H   -2.89599798    2.34746400    0.51831634
| 64> H   -2.93288928    1.02239045   -0.67299555
| 65> H   -2.93721196    0.64491043    1.03955708
| 66> C    2.88424050    1.10883915    0.27190995
| 67> O    2.18062213    0.13552466    0.03212235
| 68> O    2.41181417    2.31127454    0.55968842
| 69> H    1.41802563    2.27837631    0.54528792
| 70> C    4.38095295    1.06293641    0.26994556
| 71> H    4.71853251    0.06161721    0.03242006
| 72> H    4.76245149    1.77328935   -0.45952334
| 73> H    4.75246926    1.36563092    1.24600092
| 74> *
| 75>
| 76>
| 77>
| 78>
| 79>                          ****END OF INPUT****
 Total Charge           Charge          ....    0
 Multiplicity           Mult            ....    1
 Number of Electrons    NEL             ....   64
MP2 TOTAL ENERGY:     -457.074090269 Eh
FINAL SINGLE POINT ENERGY      -457.074090269019
MP2 TOTAL ENERGY:     -457.471969867 Eh
FINAL SINGLE POINT ENERGY      -457.471969867398

CARTESIAN COORDINATES (ANGSTROEM)
---------------------------------
  C     -1.061709    1.297141    0.292060
  O     -0.358161    2.270459    0.531813
  O     -0.589304    0.094918    0.003789
  H      0.404436    0.127723    0.018412
  C     -2.558428    1.342550    0.296257
  H     -2.895998    2.347464    0.518316
  H     -2.932889    1.022390   -0.672996
  H     -2.937212    0.644910    1.039557
  C      2.884241    1.108839    0.271910
  O      2.180622    0.135525    0.032122
  O      2.411814    2.311275    0.559688
  H      1.418026    2.278376    0.545288
  C      4.380953    1.062936    0.269946
  H      4.718533    0.061617    0.032420
  H      4.762451    1.773289   -0.459523
  H      4.752469    1.365631    1.246001

 Multiplicity           Mult            ....    1
 Number of Electrons    NEL             ....   64
 Basis Dimension        Dim             .... 1008

ORBITAL ENERGIES
----------------

  NO   OCC          E(Eh)            E(eV)
   0   2.0000     -20.600285      -560.5623
   1   2.0000     -20.600280      -560.5621
   2   2.0000     -20.554141      -559.3066
   3   2.0000     -20.554125      -559.3062
   4   2.0000     -11.395052      -310.0751
   5   2.0000     -11.395033      -310.0746
   6   2.0000     -11.242952      -305.9363
   7   2.0000     -11.242946      -305.9361
   8   2.0000      -1.469800       -39.9953
   9   2.0000      -1.460319       -39.7373
  10   2.0000      -1.366326       -37.1796
  11   2.0000      -1.355750       -36.8918
  12   2.0000      -1.032882       -28.1061
  13   2.0000      -1.026436       -27.9307
  14   2.0000      -0.835857       -22.7448
  15   2.0000      -0.817522       -22.2459
  16   2.0000      -0.739225       -20.1153
  17   2.0000      -0.696593       -18.9553
  18   2.0000      -0.687469       -18.7070
  19   2.0000      -0.676915       -18.4198
  20   2.0000      -0.655507       -17.8373
  21   2.0000      -0.650347       -17.6968
  22   2.0000      -0.588657       -16.0182
  23   2.0000      -0.582129       -15.8405
  24   2.0000      -0.574840       -15.6422
  25   2.0000      -0.561854       -15.2888
  26   2.0000      -0.560624       -15.2553
  27   2.0000      -0.558685       -15.2026
  28   2.0000      -0.491166       -13.3653
  29   2.0000      -0.482397       -13.1267
  30   2.0000      -0.472905       -12.8684
  31   2.0000      -0.455659       -12.3991
  32   0.0000       0.025500         0.6939
  33   0.0000       0.027858         0.7581
  34   0.0000       0.039288         1.0691
  35   0.0000       0.040884         1.1125
  36   0.0000       0.045918         1.2495

MULLIKEN ATOMIC CHARGES
-----------------------
   0 C :    0.925113
   1 O :   -0.678875
   2 O :   -0.678284
   3 H :    0.275504
   4 C :   -0.759689
   5 H :    0.328246
   6 H :    0.292258
   7 H :    0.295727
   8 C :    0.925105
   9 O :   -0.678840
  10 O :   -0.678313
  11 H :    0.275530
  12 C :   -0.759883
  13 H :    0.328379
  14 H :    0.294299
  15 H :    0.293725
Sum of atomic charges:   -0.0000000

LOEWDIN ATOMIC CHARGES
----------------------
   0 C :   -0.955707
   1 O :    0.828873
   2 O :    1.264140
   3 H :   -1.086841
   4 C :    0.878020
   5 H :   -0.323659
   6 H :   -0.302861
   7 H :   -0.301980
   8 C :   -0.955575
   9 O :    0.828843
  10 O :    1.264066
  11 H :   -1.086793
  12 C :    0.878095
  13 H :   -0.323704
  14 H :   -0.302435
  15 H :   -0.302483

  Mayer bond orders larger than 0.100000
B(  0-C ,  1-O ) :   1.5143 B(  0-C ,  2-O ) :   0.9742 B(  0-C ,  4-C ) :   0.7441
B(  1-O , 11-H ) :   0.1081 B(  2-O ,  3-H ) :   0.8888 B(  3-H ,  9-O ) :   0.1081
B(  4-C ,  5-H ) :   0.9656 B(  4-C ,  6-H ) :   0.9376 B(  4-C ,  7-H ) :   0.9289
B(  8-C ,  9-O ) :   1.5143 B(  8-C , 10-O ) :   0.9742 B(  8-C , 12-C ) :   0.7441
B( 10-O , 11-H ) :   0.8889 B( 12-C , 13-H ) :   0.9655 B( 12-C , 14-H ) :   0.9326
B( 12-C , 15-H ) :   0.9339

MP2 TOTAL ENERGY:     -457.601777907 Eh
FINAL SINGLE POINT ENERGY      -457.601777907488

DIPOLE MOMENT
-------------
                                X             Y             Z
Electronic contribution:      0.00031       0.00156      -0.00736
Nuclear contribution   :     -0.00018      -0.00204       0.00898
                        -----------------------------------------
Total Dipole Moment    :      0.00013      -0.00049       0.00162
                        -----------------------------------------
Magnitude (a.u.)       :      0.00170
Magnitude (Debye)      :      0.00431

Rotational constants in cm-1:     0.187946     0.028146     0.024702
Rotational constants in MHz :  5634.480439   843.795258   740.558244

                             ****ORCA TERMINATED NORMALLY****
TOTAL RUN TIME: 0 days 1 hours 45 minutes 55 seconds 32 msec
