                         Program Version 5.0.4 -  RELEASE  -
|  1> ! ri-mp2 aug-cc-pvdz aug-cc-pvdz/c tightscf
|  2> %pal nprocs 16 end
|  3> %maxcore 3800
|  4> %base "DZ_S66by10_16_0.95_dimer"
|  5> %scf STABPerform true end
|  6>
|  7> *xyz 0 1
|  8> C   -0.72430464   -0.70493582    2.28386786
|  9> H    0.33531828   -0.62994325    2.05318235
| 10> H   -0.95169666   -1.71198961    2.62565146
| 11> H   -0.96962784   -0.02207955    3.09376537
| 12> C   -1.61493501   -0.38742925    1.10406897
| 13> O   -2.83732387   -0.41502209    1.19413277
| 14> N   -0.95342037   -0.07640442   -0.04081980
| 15> H    0.05380860   -0.07556651   -0.03664022
| 16> C   -1.65812397    0.25009358   -1.25855306
| 17> H   -2.72037197    0.17694444   -1.04665270
| 18> H   -1.43030493    1.26296263   -1.58809384
| 19> H   -1.40562611   -0.44433518   -2.05858358
| 20> O    2.02737206   -0.05903847   -0.15071805
| 21> H    2.59234935   -0.77199709   -0.45591746
| 22> H    2.60712368    0.70515509   -0.12681956
| 23> *
| 24>
| 25> $new_job
| 26> ! ri-mp2 aug-cc-pvtz aug-cc-pvtz/c tightscf
| 27> %pal nprocs 16 end
| 28> %maxcore 3800
| 29> %base "TZ_S66by10_16_0.95_dimer"
| 30>
| 31> *xyz 0 1
| 32> C   -0.72430464   -0.70493582    2.28386786
| 33> H    0.33531828   -0.62994325    2.05318235
| 34> H   -0.95169666   -1.71198961    2.62565146
| 35> H   -0.96962784   -0.02207955    3.09376537
| 36> C   -1.61493501   -0.38742925    1.10406897
| 37> O   -2.83732387   -0.41502209    1.19413277
| 38> N   -0.95342037   -0.07640442   -0.04081980
| 39> H    0.05380860   -0.07556651   -0.03664022
| 40> C   -1.65812397    0.25009358   -1.25855306
| 41> H   -2.72037197    0.17694444   -1.04665270
| 42> H   -1.43030493    1.26296263   -1.58809384
| 43> H   -1.40562611   -0.44433518   -2.05858358
| 44> O    2.02737206   -0.05903847   -0.15071805
| 45> H    2.59234935   -0.77199709   -0.45591746
| 46> H    2.60712368    0.70515509   -0.12681956
| 47> *
| 48>
| 49> $new_job
| 50> ! ri-mp2 aug-cc-pvqz aug-cc-pvqz/c tightscf
| 51> %pal nprocs 16 end
| 52> %maxcore 3800
| 53> %base "QZ_S66by10_16_0.95_dimer"
| 54>
| 55> *xyz 0 1
| 56> C   -0.72430464   -0.70493582    2.28386786
| 57> H    0.33531828   -0.62994325    2.05318235
| 58> H   -0.95169666   -1.71198961    2.62565146
| 59> H   -0.96962784   -0.02207955    3.09376537
| 60> C   -1.61493501   -0.38742925    1.10406897
| 61> O   -2.83732387   -0.41502209    1.19413277
| 62> N   -0.95342037   -0.07640442   -0.04081980
| 63> H    0.05380860   -0.07556651   -0.03664022
| 64> C   -1.65812397    0.25009358   -1.25855306
| 65> H   -2.72037197    0.17694444   -1.04665270
| 66> H   -1.43030493    1.26296263   -1.58809384
| 67> H   -1.40562611   -0.44433518   -2.05858358
| 68> O    2.02737206   -0.05903847   -0.15071805
| 69> H    2.59234935   -0.77199709   -0.45591746
| 70> H    2.60712368    0.70515509   -0.12681956
| 71> *
| 72>
| 73>
| 74>
| 75>
| 76>                          ****END OF INPUT****
 Total Charge           Charge          ....    0
 Multiplicity           Mult            ....    1
 Number of Electrons    NEL             ....   50
MP2 TOTAL ENERGY:     -324.116551315 Eh
FINAL SINGLE POINT ENERGY      -324.116551314861
MP2 TOTAL ENERGY:     -324.408147479 Eh
FINAL SINGLE POINT ENERGY      -324.408147479064

CARTESIAN COORDINATES (ANGSTROEM)
---------------------------------
  C     -0.724305   -0.704936    2.283868
  H      0.335318   -0.629943    2.053182
  H     -0.951697   -1.711990    2.625651
  H     -0.969628   -0.022080    3.093765
  C     -1.614935   -0.387429    1.104069
  O     -2.837324   -0.415022    1.194133
  N     -0.953420   -0.076404   -0.040820
  H      0.053809   -0.075567   -0.036640
  C     -1.658124    0.250094   -1.258553
  H     -2.720372    0.176944   -1.046653
  H     -1.430305    1.262963   -1.588094
  H     -1.405626   -0.444335   -2.058584
  O      2.027372   -0.059038   -0.150718
  H      2.592349   -0.771997   -0.455917
  H      2.607124    0.705155   -0.126820

 Multiplicity           Mult            ....    1
 Number of Electrons    NEL             ....   50
 Basis Dimension        Dim             ....  894

ORBITAL ENERGIES
----------------

  NO   OCC          E(Eh)            E(eV)
   0   2.0000     -20.600108      -560.5574
   1   2.0000     -20.490954      -557.5872
   2   2.0000     -15.560134      -423.4128
   3   2.0000     -11.328571      -308.2661
   4   2.0000     -11.239746      -305.8490
   5   2.0000     -11.217532      -305.2446
   6   2.0000      -1.389633       -37.8138
   7   2.0000      -1.355096       -36.8740
   8   2.0000      -1.210141       -32.9296
   9   2.0000      -1.001871       -27.2623
  10   2.0000      -0.915401       -24.9093
  11   2.0000      -0.772636       -21.0245
  12   2.0000      -0.751938       -20.4613
  13   2.0000      -0.675890       -18.3919
  14   2.0000      -0.640628       -17.4324
  15   2.0000      -0.623487       -16.9660
  16   2.0000      -0.616597       -16.7784
  17   2.0000      -0.572265       -15.5721
  18   2.0000      -0.561677       -15.2840
  19   2.0000      -0.550129       -14.9698
  20   2.0000      -0.535116       -14.5612
  21   2.0000      -0.526025       -14.3139
  22   2.0000      -0.488514       -13.2932
  23   2.0000      -0.403732       -10.9861
  24   2.0000      -0.372320       -10.1313
  25   0.0000       0.010456         0.2845
  26   0.0000       0.031025         0.8442
  27   0.0000       0.033364         0.9079
  28   0.0000       0.037659         1.0247
  29   0.0000       0.051744         1.4080

MULLIKEN ATOMIC CHARGES
-----------------------
   0 C :   -0.823718
   1 H :    0.305085
   2 H :    0.268356
   3 H :    0.266534
   4 C :    0.902132
   5 O :   -0.855495
   6 N :   -0.385887
   7 H :    0.223822
   8 C :   -0.753704
   9 H :    0.297906
  10 H :    0.281709
  11 H :    0.280202
  12 O :   -0.639695
  13 H :    0.317333
  14 H :    0.315420
Sum of atomic charges:   -0.0000000

LOEWDIN ATOMIC CHARGES
----------------------
   0 C :    0.885579
   1 H :   -0.332685
   2 H :   -0.300438
   3 H :   -0.301036
   4 C :   -0.834302
   5 O :    0.692239
   6 N :    0.822028
   7 H :   -0.699617
   8 C :    0.782124
   9 H :   -0.369472
  10 H :   -0.286757
  11 H :   -0.287180
  12 O :    1.686882
  13 H :   -0.728644
  14 H :   -0.728721

  Mayer bond orders larger than 0.100000
B(  0-C ,  1-H ) :   0.9515 B(  0-C ,  2-H ) :   0.9500 B(  0-C ,  3-H ) :   0.9555
B(  0-C ,  4-C ) :   0.9097 B(  0-C ,  5-O ) :   0.1119 B(  4-C ,  5-O ) :   1.2373
B(  4-C ,  6-N ) :   1.1395 B(  5-O ,  6-N ) :   0.1969 B(  6-N ,  7-H ) :   1.0585
B(  6-N ,  8-C ) :   0.7728 B(  8-C ,  9-H ) :   0.9365 B(  8-C , 10-H ) :   0.9569
B(  8-C , 11-H ) :   0.9566 B( 12-O , 13-H ) :   0.9400 B( 12-O , 14-H ) :   0.9409

MP2 TOTAL ENERGY:     -324.501974161 Eh
FINAL SINGLE POINT ENERGY      -324.501974161341

DIPOLE MOMENT
-------------
                                X             Y             Z
Electronic contribution:     -2.63852      -0.29750       1.12122
Nuclear contribution   :      5.30442       0.46369      -1.78812
                        -----------------------------------------
Total Dipole Moment    :      2.66591       0.16619      -0.66690
                        -----------------------------------------
Magnitude (a.u.)       :      2.75308
Magnitude (Debye)      :      6.99776

Rotational constants in cm-1:     0.131263     0.065488     0.044683
Rotational constants in MHz :  3935.160101  1963.267488  1339.548895

                             ****ORCA TERMINATED NORMALLY****
TOTAL RUN TIME: 0 days 1 hours 5 minutes 52 seconds 639 msec
