                         Program Version 5.0.4 -  RELEASE  -
|  1> ! ri-mp2 aug-cc-pvdz aug-cc-pvdz/c tightscf
|  2> %pal nprocs 16 end
|  3> %maxcore 3800
|  4> %base "DZ_S66by10_32_0.9_dimer"
|  5> %scf STABPerform true end
|  6>
|  7> *xyz 0 1
|  8> N   -0.05545357   -0.94799090    0.01001028
|  9> H   -0.05731609   -1.95771330    0.05505287
| 10> C   -1.31395971   -0.33514498   -0.06458622
| 11> O   -2.32889664   -1.00790087   -0.12310273
| 12> C   -1.24835877    1.11605191   -0.06650860
| 13> H   -2.16434937    1.67533298   -0.14710244
| 14> C   -0.05308010    1.73142748    0.03419541
| 15> H    0.04811054    2.80642986    0.04341968
| 16> N    1.11592628    1.02759107    0.13516893
| 17> H    1.99665515    1.49727976    0.26162029
| 18> C    1.17534700   -0.35380470    0.17616616
| 19> O    2.21463146   -0.96646542    0.33517250
| 20> C    0.69219095   -0.17448397    2.98352275
| 21> H    1.68800921   -0.52846982    2.86930401
| 22> C   -0.45241314    0.21197372    3.08971459
| 23> H   -1.45729570    0.54067406    3.19007875
| 24> *
| 25>
| 26> $new_job
| 27> ! ri-mp2 aug-cc-pvtz aug-cc-pvtz/c tightscf
| 28> %pal nprocs 16 end
| 29> %maxcore 3800
| 30> %base "TZ_S66by10_32_0.9_dimer"
| 31>
| 32> *xyz 0 1
| 33> N   -0.05545357   -0.94799090    0.01001028
| 34> H   -0.05731609   -1.95771330    0.05505287
| 35> C   -1.31395971   -0.33514498   -0.06458622
| 36> O   -2.32889664   -1.00790087   -0.12310273
| 37> C   -1.24835877    1.11605191   -0.06650860
| 38> H   -2.16434937    1.67533298   -0.14710244
| 39> C   -0.05308010    1.73142748    0.03419541
| 40> H    0.04811054    2.80642986    0.04341968
| 41> N    1.11592628    1.02759107    0.13516893
| 42> H    1.99665515    1.49727976    0.26162029
| 43> C    1.17534700   -0.35380470    0.17616616
| 44> O    2.21463146   -0.96646542    0.33517250
| 45> C    0.69219095   -0.17448397    2.98352275
| 46> H    1.68800921   -0.52846982    2.86930401
| 47> C   -0.45241314    0.21197372    3.08971459
| 48> H   -1.45729570    0.54067406    3.19007875
| 49> *
| 50>
| 51> $new_job
| 52> ! ri-mp2 aug-cc-pvqz aug-cc-pvqz/c tightscf
| 53> %pal nprocs 16 end
| 54> %maxcore 3800
| 55> %base "QZ_S66by10_32_0.9_dimer"
| 56>
| 57> *xyz 0 1
| 58> N   -0.05545357   -0.94799090    0.01001028
| 59> H   -0.05731609   -1.95771330    0.05505287
| 60> C   -1.31395971   -0.33514498   -0.06458622
| 61> O   -2.32889664   -1.00790087   -0.12310273
| 62> C   -1.24835877    1.11605191   -0.06650860
| 63> H   -2.16434937    1.67533298   -0.14710244
| 64> C   -0.05308010    1.73142748    0.03419541
| 65> H    0.04811054    2.80642986    0.04341968
| 66> N    1.11592628    1.02759107    0.13516893
| 67> H    1.99665515    1.49727976    0.26162029
| 68> C    1.17534700   -0.35380470    0.17616616
| 69> O    2.21463146   -0.96646542    0.33517250
| 70> C    0.69219095   -0.17448397    2.98352275
| 71> H    1.68800921   -0.52846982    2.86930401
| 72> C   -0.45241314    0.21197372    3.08971459
| 73> H   -1.45729570    0.54067406    3.19007875
| 74> *
| 75>
| 76>
| 77>
| 78>
| 79>                          ****END OF INPUT****
 Total Charge           Charge          ....    0
 Multiplicity           Mult            ....    1
 Number of Electrons    NEL             ....   72
MP2 TOTAL ENERGY:     -490.878373345 Eh
FINAL SINGLE POINT ENERGY      -490.878373344512
MP2 TOTAL ENERGY:     -491.296682352 Eh
FINAL SINGLE POINT ENERGY      -491.296682351667

CARTESIAN COORDINATES (ANGSTROEM)
---------------------------------
  N     -0.055454   -0.947991    0.010010
  H     -0.057316   -1.957713    0.055053
  C     -1.313960   -0.335145   -0.064586
  O     -2.328897   -1.007901   -0.123103
  C     -1.248359    1.116052   -0.066509
  H     -2.164349    1.675333   -0.147102
  C     -0.053080    1.731427    0.034195
  H      0.048111    2.806430    0.043420
  N      1.115926    1.027591    0.135169
  H      1.996655    1.497280    0.261620
  C      1.175347   -0.353805    0.176166
  O      2.214631   -0.966465    0.335172
  C      0.692191   -0.174484    2.983523
  H      1.688009   -0.528470    2.869304
  C     -0.452413    0.211974    3.089715
  H     -1.457296    0.540674    3.190079

 Multiplicity           Mult            ....    1
 Number of Electrons    NEL             ....   72
 Basis Dimension        Dim             .... 1076

ORBITAL ENERGIES
----------------

  NO   OCC          E(Eh)            E(eV)
   0   2.0000     -20.543729      -559.0233
   1   2.0000     -20.536934      -558.8384
   2   2.0000     -15.638838      -425.5544
   3   2.0000     -15.620177      -425.0466
   4   2.0000     -11.416152      -310.6493
   5   2.0000     -11.376780      -309.5779
   6   2.0000     -11.336208      -308.4739
   7   2.0000     -11.251285      -306.1630
   8   2.0000     -11.248012      -306.0740
   9   2.0000     -11.244194      -305.9701
  10   2.0000      -1.434701       -39.0402
  11   2.0000      -1.395482       -37.9730
  12   2.0000      -1.310762       -35.6676
  13   2.0000      -1.242405       -33.8076
  14   2.0000      -1.085346       -29.5338
  15   2.0000      -1.034011       -28.1369
  16   2.0000      -0.930608       -25.3231
  17   2.0000      -0.898556       -24.4509
  18   2.0000      -0.804367       -21.8879
  19   2.0000      -0.774423       -21.0731
  20   2.0000      -0.762775       -20.7562
  21   2.0000      -0.711375       -19.3575
  22   2.0000      -0.688659       -18.7394
  23   2.0000      -0.676026       -18.3956
  24   2.0000      -0.664164       -18.0728
  25   2.0000      -0.651725       -17.7343
  26   2.0000      -0.612985       -16.6802
  27   2.0000      -0.599641       -16.3171
  28   2.0000      -0.568603       -15.4725
  29   2.0000      -0.525266       -14.2932
  30   2.0000      -0.483571       -13.1586
  31   2.0000      -0.447949       -12.1893
  32   2.0000      -0.438181       -11.9235
  33   2.0000      -0.413446       -11.2504
  34   2.0000      -0.411319       -11.1926
  35   2.0000      -0.366676        -9.9778
  36   0.0000       0.013536         0.3683
  37   0.0000       0.027285         0.7425
  38   0.0000       0.034426         0.9368
  39   0.0000       0.037490         1.0202
  40   0.0000       0.043739         1.1902

MULLIKEN ATOMIC CHARGES
-----------------------
   0 N :   -0.689354
   1 H :    0.078851
   2 C :    1.291960
   3 O :   -0.875534
   4 C :   -0.502333
   5 H :    0.259200
   6 C :   -0.142108
   7 H :    0.429770
   8 N :   -0.616208
   9 H :    0.077117
  10 C :    1.626418
  11 O :   -0.880424
  12 C :   -0.519589
  13 H :    0.528136
  14 C :   -0.580281
  15 H :    0.514380
Sum of atomic charges:    0.0000000

LOEWDIN ATOMIC CHARGES
----------------------
   0 N :    0.767751
   1 H :   -0.511805
   2 C :   -0.892587
   3 O :    0.689351
   4 C :    0.310524
   5 H :   -0.349606
   6 C :    0.217259
   7 H :   -0.291730
   8 N :    0.801218
   9 H :   -0.485127
  10 C :   -1.072067
  11 O :    0.708019
  12 C :    0.485446
  13 H :   -0.456341
  14 C :    0.515670
  15 H :   -0.435977

  Mayer bond orders larger than 0.100000
B(  0-N ,  1-H ) :   1.1676 B(  0-N ,  2-C ) :   1.0017 B(  0-N ,  3-O ) :   0.2174
B(  0-N , 10-C ) :   1.0088 B(  0-N , 11-O ) :   0.2094 B(  2-C ,  3-O ) :   0.9400
B(  2-C ,  4-C ) :   1.1204 B(  3-O ,  4-C ) :   0.2678 B(  4-C ,  5-H ) :   1.0440
B(  4-C ,  6-C ) :   1.4838 B(  6-C ,  7-H ) :   0.9079 B(  6-C ,  8-N ) :   0.9062
B(  8-N ,  9-H ) :   1.1695 B(  8-N , 10-C ) :   1.0811 B(  8-N , 11-O ) :   0.1968
B( 10-C , 11-O ) :   0.9835 B( 12-C , 13-H ) :   0.7281 B( 12-C , 14-C ) :   2.5749
B( 14-C , 15-H ) :   0.7524

MP2 TOTAL ENERGY:     -491.432967483 Eh
FINAL SINGLE POINT ENERGY      -491.432967483266

DIPOLE MOMENT
-------------
                                X             Y             Z
Electronic contribution:      0.39074      -1.88781      -2.32288
Nuclear contribution   :      0.10949       3.75667       2.37299
                        -----------------------------------------
Total Dipole Moment    :      0.50023       1.86886       0.05011
                        -----------------------------------------
Magnitude (a.u.)       :      1.93530
Magnitude (Debye)      :      4.91913

Rotational constants in cm-1:     0.054785     0.041678     0.037402
Rotational constants in MHz :  1642.411472  1249.484375  1121.276240

                             ****ORCA TERMINATED NORMALLY****
TOTAL RUN TIME: 0 days 2 hours 44 minutes 21 seconds 621 msec
