                         Program Version 5.0.4 -  RELEASE  -
|  1> ! ri-mp2 aug-cc-pvdz aug-cc-pvdz/c tightscf
|  2> %pal nprocs 16 end
|  3> %maxcore 3800
|  4> %base "DZ_S66by10_64_0.95_dimer"
|  5> %scf STABPerform true end
|  6>
|  7> *xyz 0 1
|  8> C    1.62971482    0.50301252    0.27011189
|  9> H    1.64157338    1.45923792   -0.24808286
| 10> H    2.31531919   -0.18355470   -0.21758635
| 11> H    1.96974564    0.64936024    1.29398105
| 12> C    0.26182776   -0.13286122    0.31456221
| 13> O    0.09925265   -1.30961602    0.61183995
| 14> N   -0.77350225    0.70251214    0.02207590
| 15> H   -0.56901138    1.66655677   -0.16581434
| 16> C   -2.15001214    0.26596865    0.09505328
| 17> H   -2.14473761   -0.81940745    0.10091210
| 18> H   -2.64054318    0.61582035    1.00360442
| 19> H   -2.70774393    0.62075110   -0.76826057
| 20> C   -0.05829786    0.51877199    3.69328155
| 21> H   -0.06317942    1.26094580    4.47916412
| 22> H   -0.70683061    0.68654063    2.84459798
| 23> C    0.71021244   -0.56818994    3.76309116
| 24> H    1.35551741   -0.74001558    4.61321903
| 25> H    0.70510046   -1.30339006    2.97078188
| 26> *
| 27>
| 28> $new_job
| 29> ! ri-mp2 aug-cc-pvtz aug-cc-pvtz/c tightscf
| 30> %pal nprocs 16 end
| 31> %maxcore 3800
| 32> %base "TZ_S66by10_64_0.95_dimer"
| 33>
| 34> *xyz 0 1
| 35> C    1.62971482    0.50301252    0.27011189
| 36> H    1.64157338    1.45923792   -0.24808286
| 37> H    2.31531919   -0.18355470   -0.21758635
| 38> H    1.96974564    0.64936024    1.29398105
| 39> C    0.26182776   -0.13286122    0.31456221
| 40> O    0.09925265   -1.30961602    0.61183995
| 41> N   -0.77350225    0.70251214    0.02207590
| 42> H   -0.56901138    1.66655677   -0.16581434
| 43> C   -2.15001214    0.26596865    0.09505328
| 44> H   -2.14473761   -0.81940745    0.10091210
| 45> H   -2.64054318    0.61582035    1.00360442
| 46> H   -2.70774393    0.62075110   -0.76826057
| 47> C   -0.05829786    0.51877199    3.69328155
| 48> H   -0.06317942    1.26094580    4.47916412
| 49> H   -0.70683061    0.68654063    2.84459798
| 50> C    0.71021244   -0.56818994    3.76309116
| 51> H    1.35551741   -0.74001558    4.61321903
| 52> H    0.70510046   -1.30339006    2.97078188
| 53> *
| 54>
| 55> $new_job
| 56> ! ri-mp2 aug-cc-pvqz aug-cc-pvqz/c tightscf
| 57> %pal nprocs 16 end
| 58> %maxcore 3800
| 59> %base "QZ_S66by10_64_0.95_dimer"
| 60>
| 61> *xyz 0 1
| 62> C    1.62971482    0.50301252    0.27011189
| 63> H    1.64157338    1.45923792   -0.24808286
| 64> H    2.31531919   -0.18355470   -0.21758635
| 65> H    1.96974564    0.64936024    1.29398105
| 66> C    0.26182776   -0.13286122    0.31456221
| 67> O    0.09925265   -1.30961602    0.61183995
| 68> N   -0.77350225    0.70251214    0.02207590
| 69> H   -0.56901138    1.66655677   -0.16581434
| 70> C   -2.15001214    0.26596865    0.09505328
| 71> H   -2.14473761   -0.81940745    0.10091210
| 72> H   -2.64054318    0.61582035    1.00360442
| 73> H   -2.70774393    0.62075110   -0.76826057
| 74> C   -0.05829786    0.51877199    3.69328155
| 75> H   -0.06317942    1.26094580    4.47916412
| 76> H   -0.70683061    0.68654063    2.84459798
| 77> C    0.71021244   -0.56818994    3.76309116
| 78> H    1.35551741   -0.74001558    4.61321903
| 79> H    0.70510046   -1.30339006    2.97078188
| 80> *
| 81>
| 82>
| 83>
| 84>
| 85>                          ****END OF INPUT****
 Total Charge           Charge          ....    0
 Multiplicity           Mult            ....    1
 Number of Electrons    NEL             ....   56
MP2 TOTAL ENERGY:     -326.181684904 Eh
FINAL SINGLE POINT ENERGY      -326.181684904281
MP2 TOTAL ENERGY:     -326.480856055 Eh
FINAL SINGLE POINT ENERGY      -326.480856054879

CARTESIAN COORDINATES (ANGSTROEM)
---------------------------------
  C      1.629715    0.503013    0.270112
  H      1.641573    1.459238   -0.248083
  H      2.315319   -0.183555   -0.217586
  H      1.969746    0.649360    1.293981
  C      0.261828   -0.132861    0.314562
  O      0.099253   -1.309616    0.611840
  N     -0.773502    0.702512    0.022076
  H     -0.569011    1.666557   -0.165814
  C     -2.150012    0.265969    0.095053
  H     -2.144738   -0.819407    0.100912
  H     -2.640543    0.615820    1.003604
  H     -2.707744    0.620751   -0.768261
  C     -0.058298    0.518772    3.693282
  H     -0.063179    1.260946    4.479164
  H     -0.706831    0.686541    2.844598
  C      0.710212   -0.568190    3.763091
  H      1.355517   -0.740016    4.613219
  H      0.705100   -1.303390    2.970782

 Multiplicity           Mult            ....    1
 Number of Electrons    NEL             ....   56
 Basis Dimension        Dim             .... 1066

ORBITAL ENERGIES
----------------

  NO   OCC          E(Eh)            E(eV)
   0   2.0000     -20.510540      -558.1202
   1   2.0000     -15.585737      -424.1095
   2   2.0000     -11.347871      -308.7913
   3   2.0000     -11.257047      -306.3198
   4   2.0000     -11.231184      -305.6161
   5   2.0000     -11.220027      -305.3125
   6   2.0000     -11.217261      -305.2372
   7   2.0000      -1.376205       -37.4484
   8   2.0000      -1.231636       -33.5145
   9   2.0000      -1.025716       -27.9112
  10   2.0000      -1.018332       -27.7102
  11   2.0000      -0.932859       -25.3844
  12   2.0000      -0.791748       -21.5446
  13   2.0000      -0.783132       -21.3101
  14   2.0000      -0.691220       -18.8091
  15   2.0000      -0.654472       -17.8091
  16   2.0000      -0.648703       -17.6521
  17   2.0000      -0.624152       -16.9840
  18   2.0000      -0.587617       -15.9899
  19   2.0000      -0.583075       -15.8663
  20   2.0000      -0.575655       -15.6644
  21   2.0000      -0.555284       -15.1101
  22   2.0000      -0.546055       -14.8589
  23   2.0000      -0.506717       -13.7885
  24   2.0000      -0.498140       -13.5551
  25   2.0000      -0.423286       -11.5182
  26   2.0000      -0.394088       -10.7237
  27   2.0000      -0.368563       -10.0291
  28   0.0000       0.019749         0.5374
  29   0.0000       0.030761         0.8371
  30   0.0000       0.032016         0.8712
  31   0.0000       0.035479         0.9654
  32   0.0000       0.044445         1.2094

MULLIKEN ATOMIC CHARGES
-----------------------
   0 C :   -0.812882
   1 H :    0.240158
   2 H :    0.295759
   3 H :    0.339360
   4 C :    1.116710
   5 O :   -0.956248
   6 N :   -0.537631
   7 H :    0.247232
   8 C :   -0.818209
   9 H :    0.295586
  10 H :    0.273634
  11 H :    0.349008
  12 C :   -1.003949
  13 H :    0.395339
  14 H :    0.526569
  15 C :   -0.932852
  16 H :    0.445693
  17 H :    0.536722
Sum of atomic charges:   -0.0000000

LOEWDIN ATOMIC CHARGES
----------------------
   0 C :    0.891081
   1 H :   -0.305983
   2 H :   -0.299807
   3 H :   -0.311489
   4 C :   -0.859837
   5 O :    0.729760
   6 N :    0.825858
   7 H :   -0.501717
   8 C :    0.784020
   9 H :   -0.352875
  10 H :   -0.284570
  11 H :   -0.286805
  12 C :    0.755412
  13 H :   -0.362455
  14 H :   -0.399591
  15 C :    0.757330
  16 H :   -0.359658
  17 H :   -0.418673

  Mayer bond orders larger than 0.100000
B(  0-C ,  1-H ) :   1.0104 B(  0-C ,  2-H ) :   0.9675 B(  0-C ,  3-H ) :   0.8630
B(  0-C ,  4-C ) :   0.8325 B(  4-C ,  5-O ) :   1.0606 B(  4-C ,  6-N ) :   1.1090
B(  5-O ,  6-N ) :   0.1619 B(  6-N ,  7-H ) :   0.9693 B(  6-N ,  8-C ) :   0.8252
B(  8-C ,  9-H ) :   0.9439 B(  8-C , 10-H ) :   0.9435 B(  8-C , 11-H ) :   0.9103
B( 12-C , 13-H ) :   0.8923 B( 12-C , 14-H ) :   0.6850 B( 12-C , 15-C ) :   1.9289
B( 15-C , 16-H ) :   0.8499 B( 15-C , 17-H ) :   0.6570

MP2 TOTAL ENERGY:     -326.574768770 Eh
FINAL SINGLE POINT ENERGY      -326.574768770421

DIPOLE MOMENT
-------------
                                X             Y             Z
Electronic contribution:      0.16946      -2.19680      -2.70204
Nuclear contribution   :     -0.24615       3.66785       2.27092
                        -----------------------------------------
Total Dipole Moment    :     -0.07668       1.47105      -0.43113
                        -----------------------------------------
Magnitude (a.u.)       :      1.53484
Magnitude (Debye)      :      3.90126

Rotational constants in cm-1:     0.096252     0.051821     0.043002
Rotational constants in MHz :  2885.574153  1553.545878  1289.154356

                             ****ORCA TERMINATED NORMALLY****
TOTAL RUN TIME: 0 days 2 hours 22 minutes 20 seconds 935 msec
