                         Program Version 5.0.4 -  RELEASE  -
|  1> ! ri-mp2 aug-cc-pvdz aug-cc-pvdz/c tightscf
|  2> %pal nprocs 16 end
|  3> %maxcore 3800
|  4> %base "DZ_S66by10_6_1.05_dimer"
|  5> %scf STABPerform true end
|  6>
|  7> *xyz 0 1
|  8> O   -0.70692019    0.04583037    0.00638610
|  9> H    0.26562361    0.07171014    0.00133929
| 10> C   -1.07667067   -1.31391581    0.00161428
| 11> H   -2.16292358   -1.36319577    0.00586542
| 12> H   -0.72340594   -1.84465168   -0.88774350
| 13> H   -0.71607978   -1.85282083    0.88307978
| 14> N    2.33032791   -0.04363029   -0.00365027
| 15> H    2.70094747    0.46414621    0.78948213
| 16> H    2.70107075    0.42070828   -0.82290910
| 17> C    2.80807985   -1.42966374    0.03381094
| 18> H    2.41619501   -1.96368901   -0.82838079
| 19> H    3.89479101   -1.53639891    0.03684544
| 20> H    2.41595345   -1.91639391    0.92344309
| 21> *
| 22>
| 23> $new_job
| 24> ! ri-mp2 aug-cc-pvtz aug-cc-pvtz/c tightscf
| 25> %pal nprocs 16 end
| 26> %maxcore 3800
| 27> %base "TZ_S66by10_6_1.05_dimer"
| 28>
| 29> *xyz 0 1
| 30> O   -0.70692019    0.04583037    0.00638610
| 31> H    0.26562361    0.07171014    0.00133929
| 32> C   -1.07667067   -1.31391581    0.00161428
| 33> H   -2.16292358   -1.36319577    0.00586542
| 34> H   -0.72340594   -1.84465168   -0.88774350
| 35> H   -0.71607978   -1.85282083    0.88307978
| 36> N    2.33032791   -0.04363029   -0.00365027
| 37> H    2.70094747    0.46414621    0.78948213
| 38> H    2.70107075    0.42070828   -0.82290910
| 39> C    2.80807985   -1.42966374    0.03381094
| 40> H    2.41619501   -1.96368901   -0.82838079
| 41> H    3.89479101   -1.53639891    0.03684544
| 42> H    2.41595345   -1.91639391    0.92344309
| 43> *
| 44>
| 45> $new_job
| 46> ! ri-mp2 aug-cc-pvqz aug-cc-pvqz/c tightscf
| 47> %pal nprocs 16 end
| 48> %maxcore 3800
| 49> %base "QZ_S66by10_6_1.05_dimer"
| 50>
| 51> *xyz 0 1
| 52> O   -0.70692019    0.04583037    0.00638610
| 53> H    0.26562361    0.07171014    0.00133929
| 54> C   -1.07667067   -1.31391581    0.00161428
| 55> H   -2.16292358   -1.36319577    0.00586542
| 56> H   -0.72340594   -1.84465168   -0.88774350
| 57> H   -0.71607978   -1.85282083    0.88307978
| 58> N    2.33032791   -0.04363029   -0.00365027
| 59> H    2.70094747    0.46414621    0.78948213
| 60> H    2.70107075    0.42070828   -0.82290910
| 61> C    2.80807985   -1.42966374    0.03381094
| 62> H    2.41619501   -1.96368901   -0.82838079
| 63> H    3.89479101   -1.53639891    0.03684544
| 64> H    2.41595345   -1.91639391    0.92344309
| 65> *
| 66>
| 67>
| 68>
| 69>
| 70>                          ****END OF INPUT****
 Total Charge           Charge          ....    0
 Multiplicity           Mult            ....    1
 Number of Electrons    NEL             ....   36
MP2 TOTAL ENERGY:     -211.007319203 Eh
FINAL SINGLE POINT ENERGY      -211.007319202574
MP2 TOTAL ENERGY:     -211.208111735 Eh
FINAL SINGLE POINT ENERGY      -211.208111735241

CARTESIAN COORDINATES (ANGSTROEM)
---------------------------------
  O     -0.706920    0.045830    0.006386
  H      0.265624    0.071710    0.001339
  C     -1.076671   -1.313916    0.001614
  H     -2.162924   -1.363196    0.005865
  H     -0.723406   -1.844652   -0.887743
  H     -0.716080   -1.852821    0.883080
  N      2.330328   -0.043630   -0.003650
  H      2.700947    0.464146    0.789482
  H      2.701071    0.420708   -0.822909
  C      2.808080   -1.429664    0.033811
  H      2.416195   -1.963689   -0.828381
  H      3.894791   -1.536399    0.036845
  H      2.415953   -1.916394    0.923443

 Multiplicity           Mult            ....    1
 Number of Electrons    NEL             ....   36
 Basis Dimension        Dim             ....  734

ORBITAL ENERGIES
----------------

  NO   OCC          E(Eh)            E(eV)
   0   2.0000     -20.522250      -558.4388
   1   2.0000     -15.561000      -423.4363
   2   2.0000     -11.255585      -306.2800
   3   2.0000     -11.249894      -306.1252
   4   2.0000      -1.327859       -36.1329
   5   2.0000      -1.192735       -32.4560
   6   2.0000      -0.915294       -24.9064
   7   2.0000      -0.901706       -24.5367
   8   2.0000      -0.682994       -18.5852
   9   2.0000      -0.669959       -18.2305
  10   2.0000      -0.622159       -16.9298
  11   2.0000      -0.597608       -16.2617
  12   2.0000      -0.574362       -15.6292
  13   2.0000      -0.569841       -15.5062
  14   2.0000      -0.535201       -14.5635
  15   2.0000      -0.483213       -13.1489
  16   2.0000      -0.422684       -11.5018
  17   2.0000      -0.416594       -11.3361
  18   0.0000       0.021256         0.5784
  19   0.0000       0.033752         0.9185
  20   0.0000       0.036336         0.9887
  21   0.0000       0.036929         1.0049
  22   0.0000       0.049735         1.3534

MULLIKEN ATOMIC CHARGES
-----------------------
   0 O :   -0.719334
   1 H :    0.305111
   2 C :   -0.578333
   3 H :    0.492086
   4 H :    0.217972
   5 H :    0.218324
   6 N :   -0.444386
   7 H :    0.200025
   8 H :    0.199298
   9 C :   -0.816510
  10 H :    0.252425
  11 H :    0.420813
  12 H :    0.252508
Sum of atomic charges:   -0.0000000

LOEWDIN ATOMIC CHARGES
----------------------
   0 O :    1.235110
   1 H :   -0.958128
   2 C :    0.544722
   3 H :   -0.344194
   4 H :   -0.320810
   5 H :   -0.321103
   6 N :    1.267474
   7 H :   -0.488427
   8 H :   -0.488509
   9 C :    0.777234
  10 H :   -0.307922
  11 H :   -0.287647
  12 H :   -0.307800

  Mayer bond orders larger than 0.100000
B(  0-O ,  1-H ) :   0.9342 B(  0-O ,  2-C ) :   0.8512 B(  2-C ,  3-H ) :   0.7356
B(  2-C ,  4-H ) :   0.9487 B(  2-C ,  5-H ) :   0.9488 B(  6-N ,  7-H ) :   0.9966
B(  6-N ,  8-H ) :   0.9967 B(  6-N ,  9-C ) :   1.0185 B(  9-C , 10-H ) :   0.9491
B(  9-C , 11-H ) :   0.7883 B(  9-C , 12-H ) :   0.9507

MP2 TOTAL ENERGY:     -211.270665259 Eh
FINAL SINGLE POINT ENERGY      -211.270665258513

DIPOLE MOMENT
-------------
                                X             Y             Z
Electronic contribution:     -1.68479       2.74377      -0.02210
Nuclear contribution   :      3.01750      -3.24053       0.01727
                        -----------------------------------------
Total Dipole Moment    :      1.33270      -0.49676      -0.00482
                        -----------------------------------------
Magnitude (a.u.)       :      1.42228
Magnitude (Debye)      :      3.61515

Rotational constants in cm-1:     0.418837     0.084134     0.072749
Rotational constants in MHz : 12556.421789  2522.281891  2180.966666

                             ****ORCA TERMINATED NORMALLY****
TOTAL RUN TIME: 0 days 0 hours 25 minutes 16 seconds 869 msec
