                         Program Version 5.0.4 -  RELEASE  -
|  1> ! ri-mp2 aug-cc-pvdz aug-cc-pvdz/c tightscf
|  2> %pal nprocs 16 end
|  3> %maxcore 3800
|  4> %base "DZ_S66by10_3_0.7_dimer"
|  5> %scf STABPerform true end
|  6>
|  7> *xyz 0 1
|  8> O   -0.68746490   -0.11174433   -0.01962547
|  9> H   -1.04612154    0.77593821    0.01270684
| 10> H    0.27404252    0.02585065   -0.00349726
| 11> N    1.68160591    0.08138805    0.00321830
| 12> H    1.97697034   -0.47124992   -0.79157257
| 13> H    1.99168640   -0.42933304    0.82007779
| 14> C    2.34094118    1.38975202   -0.03702334
| 15> H    2.03039876    1.97147698    0.82749208
| 16> H    3.43225047    1.35045704   -0.04597901
| 17> H    2.01422891    1.92566948   -0.92484715
| 18> *
| 19>
| 20> $new_job
| 21> ! ri-mp2 aug-cc-pvtz aug-cc-pvtz/c tightscf
| 22> %pal nprocs 16 end
| 23> %maxcore 3800
| 24> %base "TZ_S66by10_3_0.7_dimer"
| 25>
| 26> *xyz 0 1
| 27> O   -0.68746490   -0.11174433   -0.01962547
| 28> H   -1.04612154    0.77593821    0.01270684
| 29> H    0.27404252    0.02585065   -0.00349726
| 30> N    1.68160591    0.08138805    0.00321830
| 31> H    1.97697034   -0.47124992   -0.79157257
| 32> H    1.99168640   -0.42933304    0.82007779
| 33> C    2.34094118    1.38975202   -0.03702334
| 34> H    2.03039876    1.97147698    0.82749208
| 35> H    3.43225047    1.35045704   -0.04597901
| 36> H    2.01422891    1.92566948   -0.92484715
| 37> *
| 38>
| 39> $new_job
| 40> ! ri-mp2 aug-cc-pvqz aug-cc-pvqz/c tightscf
| 41> %pal nprocs 16 end
| 42> %maxcore 3800
| 43> %base "QZ_S66by10_3_0.7_dimer"
| 44>
| 45> *xyz 0 1
| 46> O   -0.68746490   -0.11174433   -0.01962547
| 47> H   -1.04612154    0.77593821    0.01270684
| 48> H    0.27404252    0.02585065   -0.00349726
| 49> N    1.68160591    0.08138805    0.00321830
| 50> H    1.97697034   -0.47124992   -0.79157257
| 51> H    1.99168640   -0.42933304    0.82007779
| 52> C    2.34094118    1.38975202   -0.03702334
| 53> H    2.03039876    1.97147698    0.82749208
| 54> H    3.43225047    1.35045704   -0.04597901
| 55> H    2.01422891    1.92566948   -0.92484715
| 56> *
| 57>
| 58>
| 59>
| 60>
| 61>                          ****END OF INPUT****
 Total Charge           Charge          ....    0
 Multiplicity           Mult            ....    1
 Number of Electrons    NEL             ....   28
MP2 TOTAL ENERGY:     -171.828357255 Eh
FINAL SINGLE POINT ENERGY      -171.828357255411
MP2 TOTAL ENERGY:     -171.990905949 Eh
FINAL SINGLE POINT ENERGY      -171.990905949121

CARTESIAN COORDINATES (ANGSTROEM)
---------------------------------
  O     -0.687465   -0.111744   -0.019625
  H     -1.046122    0.775938    0.012707
  H      0.274043    0.025851   -0.003497
  N      1.681606    0.081388    0.003218
  H      1.976970   -0.471250   -0.791573
  H      1.991686   -0.429333    0.820078
  C      2.340941    1.389752   -0.037023
  H      2.030399    1.971477    0.827492
  H      3.432250    1.350457   -0.045979
  H      2.014229    1.925669   -0.924847

 Multiplicity           Mult            ....    1
 Number of Electrons    NEL             ....   28
 Basis Dimension        Dim             ....  562

ORBITAL ENERGIES
----------------

  NO   OCC          E(Eh)            E(eV)
   0   2.0000     -20.478130      -557.2383
   1   2.0000     -15.570417      -423.6926
   2   2.0000     -11.265683      -306.5548
   3   2.0000      -1.289118       -35.0787
   4   2.0000      -1.209903       -32.9231
   5   2.0000      -0.929727       -25.2991
   6   2.0000      -0.699439       -19.0327
   7   2.0000      -0.691088       -18.8055
   8   2.0000      -0.633648       -17.2424
   9   2.0000      -0.580030       -15.7834
  10   2.0000      -0.546710       -14.8767
  11   2.0000      -0.531072       -14.4512
  12   2.0000      -0.437564       -11.9067
  13   2.0000      -0.411853       -11.2071
  14   0.0000       0.019345         0.5264
  15   0.0000       0.033417         0.9093
  16   0.0000       0.036038         0.9807
  17   0.0000       0.039496         1.0747
  18   0.0000       0.058465         1.5909

MULLIKEN ATOMIC CHARGES
-----------------------
   0 O :   -0.687726
   1 H :    0.274265
   2 H :    0.224143
   3 N :   -0.147618
   4 H :    0.165236
   5 H :    0.165045
   6 C :   -0.787650
   7 H :    0.253205
   8 H :    0.286704
   9 H :    0.254397
Sum of atomic charges:   -0.0000000

LOEWDIN ATOMIC CHARGES
----------------------
   0 O :    1.611100
   1 H :   -0.781384
   2 H :   -1.299417
   3 N :    1.288479
   4 H :   -0.407834
   5 H :   -0.406918
   6 C :    0.852663
   7 H :   -0.289422
   8 H :   -0.278127
   9 H :   -0.289141

  Mayer bond orders larger than 0.100000
B(  0-O ,  1-H ) :   0.9620 B(  0-O ,  2-H ) :   0.9170 B(  2-H ,  3-N ) :   0.1456
B(  3-N ,  4-H ) :   1.0062 B(  3-N ,  5-H ) :   1.0080 B(  3-N ,  6-C ) :   1.0032
B(  6-C ,  7-H ) :   0.9472 B(  6-C ,  8-H ) :   0.9272 B(  6-C ,  9-H ) :   0.9466

MP2 TOTAL ENERGY:     -172.042488413 Eh
FINAL SINGLE POINT ENERGY      -172.042488413322

DIPOLE MOMENT
-------------
                                X             Y             Z
Electronic contribution:     -1.52477      -1.33501       0.01916
Nuclear contribution   :      3.10856       1.97878       0.01072
                        -----------------------------------------
Total Dipole Moment    :      1.58378       0.64377       0.02988
                        -----------------------------------------
Magnitude (a.u.)       :      1.70988
Magnitude (Debye)      :      4.34618

Rotational constants in cm-1:     1.068603     0.163511     0.148987
Rotational constants in MHz : 32035.910651  4901.927080  4466.518530

                             ****ORCA TERMINATED NORMALLY****
TOTAL RUN TIME: 0 days 0 hours 15 minutes 41 seconds 734 msec
