                         Program Version 5.0.4 -  RELEASE  -
|  1> ! ri-mp2 aug-cc-pvdz aug-cc-pvdz/c tightscf
|  2> %pal nprocs 16 end
|  3> %maxcore 3800
|  4> %base "DZ_S66by10_23_0.9_dimer"
|  5> %scf STABPerform true end
|  6>
|  7> *xyz 0 1
|  8> C   -1.23272700    1.21163896   -0.14162406
|  9> O   -0.57127667    2.24201573    0.02561679
| 10> N   -0.67058051    0.00388878   -0.31428147
| 11> H    0.34384695   -0.09056011   -0.30832667
| 12> H   -1.24421373   -0.80632370   -0.44668271
| 13> C   -2.73824495    1.26675766   -0.15588657
| 14> H   -3.07797534    1.64660511    0.80450159
| 15> H   -3.20211503    0.30286549   -0.34621112
| 16> H   -3.04998747    1.97549049   -0.91859737
| 17> N    4.02714202    1.11489927   -0.12165831
| 18> H    4.51717147    0.23894209   -0.23959678
| 19> C    4.83076804    2.25774421    0.02882339
| 20> O    6.04633006    2.16212188    0.01363861
| 21> C    4.05817586    3.47306069    0.19196733
| 22> H    4.57993885    4.40625355    0.31500245
| 23> C    2.70901515    3.41138516    0.18629057
| 24> H    2.08861110    4.28774555    0.30396747
| 25> N    2.02393304    2.23910365    0.03172480
| 26> H    0.99114256    2.23004259    0.03088748
| 27> C    2.65482301    1.03463415   -0.13053523
| 28> O    2.05763428   -0.02928181   -0.27234272
| 29> *
| 30>
| 31> $new_job
| 32> ! ri-mp2 aug-cc-pvtz aug-cc-pvtz/c tightscf
| 33> %pal nprocs 16 end
| 34> %maxcore 3800
| 35> %base "TZ_S66by10_23_0.9_dimer"
| 36>
| 37> *xyz 0 1
| 38> C   -1.23272700    1.21163896   -0.14162406
| 39> O   -0.57127667    2.24201573    0.02561679
| 40> N   -0.67058051    0.00388878   -0.31428147
| 41> H    0.34384695   -0.09056011   -0.30832667
| 42> H   -1.24421373   -0.80632370   -0.44668271
| 43> C   -2.73824495    1.26675766   -0.15588657
| 44> H   -3.07797534    1.64660511    0.80450159
| 45> H   -3.20211503    0.30286549   -0.34621112
| 46> H   -3.04998747    1.97549049   -0.91859737
| 47> N    4.02714202    1.11489927   -0.12165831
| 48> H    4.51717147    0.23894209   -0.23959678
| 49> C    4.83076804    2.25774421    0.02882339
| 50> O    6.04633006    2.16212188    0.01363861
| 51> C    4.05817586    3.47306069    0.19196733
| 52> H    4.57993885    4.40625355    0.31500245
| 53> C    2.70901515    3.41138516    0.18629057
| 54> H    2.08861110    4.28774555    0.30396747
| 55> N    2.02393304    2.23910365    0.03172480
| 56> H    0.99114256    2.23004259    0.03088748
| 57> C    2.65482301    1.03463415   -0.13053523
| 58> O    2.05763428   -0.02928181   -0.27234272
| 59> *
| 60>
| 61> $new_job
| 62> ! ri-mp2 aug-cc-pvqz aug-cc-pvqz/c tightscf
| 63> %pal nprocs 16 end
| 64> %maxcore 3800
| 65> %base "QZ_S66by10_23_0.9_dimer"
| 66>
| 67> *xyz 0 1
| 68> C   -1.23272700    1.21163896   -0.14162406
| 69> O   -0.57127667    2.24201573    0.02561679
| 70> N   -0.67058051    0.00388878   -0.31428147
| 71> H    0.34384695   -0.09056011   -0.30832667
| 72> H   -1.24421373   -0.80632370   -0.44668271
| 73> C   -2.73824495    1.26675766   -0.15588657
| 74> H   -3.07797534    1.64660511    0.80450159
| 75> H   -3.20211503    0.30286549   -0.34621112
| 76> H   -3.04998747    1.97549049   -0.91859737
| 77> N    4.02714202    1.11489927   -0.12165831
| 78> H    4.51717147    0.23894209   -0.23959678
| 79> C    4.83076804    2.25774421    0.02882339
| 80> O    6.04633006    2.16212188    0.01363861
| 81> C    4.05817586    3.47306069    0.19196733
| 82> H    4.57993885    4.40625355    0.31500245
| 83> C    2.70901515    3.41138516    0.18629057
| 84> H    2.08861110    4.28774555    0.30396747
| 85> N    2.02393304    2.23910365    0.03172480
| 86> H    0.99114256    2.23004259    0.03088748
| 87> C    2.65482301    1.03463415   -0.13053523
| 88> O    2.05763428   -0.02928181   -0.27234272
| 89> *
| 90>
| 91>
| 92>
| 93>
| 94>                          ****END OF INPUT****
 Total Charge           Charge          ....    0
 Multiplicity           Mult            ....    1
 Number of Electrons    NEL             ....   90
MP2 TOTAL ENERGY:     -622.474497849 Eh
FINAL SINGLE POINT ENERGY      -622.474497848916
MP2 TOTAL ENERGY:     -623.007664879 Eh
FINAL SINGLE POINT ENERGY      -623.007664879136

CARTESIAN COORDINATES (ANGSTROEM)
---------------------------------
  C     -1.232727    1.211639   -0.141624
  O     -0.571277    2.242016    0.025617
  N     -0.670581    0.003889   -0.314281
  H      0.343847   -0.090560   -0.308327
  H     -1.244214   -0.806324   -0.446683
  C     -2.738245    1.266758   -0.155887
  H     -3.077975    1.646605    0.804502
  H     -3.202115    0.302865   -0.346211
  H     -3.049987    1.975490   -0.918597
  N      4.027142    1.114899   -0.121658
  H      4.517171    0.238942   -0.239597
  C      4.830768    2.257744    0.028823
  O      6.046330    2.162122    0.013639
  C      4.058176    3.473061    0.191967
  H      4.579939    4.406254    0.315002
  C      2.709015    3.411385    0.186291
  H      2.088611    4.287746    0.303967
  N      2.023933    2.239104    0.031725
  H      0.991143    2.230043    0.030887
  C      2.654823    1.034634   -0.130535
  O      2.057634   -0.029282   -0.272343

 Multiplicity           Mult            ....    1
 Number of Electrons    NEL             ....   90
 Basis Dimension        Dim             .... 1374

ORBITAL ENERGIES
----------------

  NO   OCC          E(Eh)            E(eV)
   0   2.0000     -20.541438      -558.9609
   1   2.0000     -20.537540      -558.8549
   2   2.0000     -20.526930      -558.5662
   3   2.0000     -15.617003      -424.9603
   4   2.0000     -15.605252      -424.6405
   5   2.0000     -15.584757      -424.0828
   6   2.0000     -11.410646      -310.4995
   7   2.0000     -11.374351      -309.5118
   8   2.0000     -11.367668      -309.3300
   9   2.0000     -11.320078      -308.0350
  10   2.0000     -11.249213      -306.1066
  11   2.0000     -11.236781      -305.7684
  12   2.0000      -1.429673       -38.9034
  13   2.0000      -1.402648       -38.1680
  14   2.0000      -1.386685       -37.7336
  15   2.0000      -1.297395       -35.3039
  16   2.0000      -1.231609       -33.5138
  17   2.0000      -1.225320       -33.3427
  18   2.0000      -1.071046       -29.1446
  19   2.0000      -1.021344       -27.7922
  20   2.0000      -0.917722       -24.9725
  21   2.0000      -0.890938       -24.2437
  22   2.0000      -0.816529       -22.2189
  23   2.0000      -0.793940       -21.6042
  24   2.0000      -0.756062       -20.5735
  25   2.0000      -0.740213       -20.1422
  26   2.0000      -0.713326       -19.4106
  27   2.0000      -0.685014       -18.6402
  28   2.0000      -0.664367       -18.0783
  29   2.0000      -0.657906       -17.9025
  30   2.0000      -0.638732       -17.3808
  31   2.0000      -0.633138       -17.2286
  32   2.0000      -0.607213       -16.5231
  33   2.0000      -0.595369       -16.2008
  34   2.0000      -0.586883       -15.9699
  35   2.0000      -0.572621       -15.5818
  36   2.0000      -0.560658       -15.2563
  37   2.0000      -0.542287       -14.7564
  38   2.0000      -0.508884       -13.8474
  39   2.0000      -0.485261       -13.2046
  40   2.0000      -0.449240       -12.2245
  41   2.0000      -0.438340       -11.9278
  42   2.0000      -0.435069       -11.8388
  43   2.0000      -0.429579       -11.6894
  44   2.0000      -0.351289        -9.5590
  45   0.0000       0.016469         0.4481
  46   0.0000       0.026623         0.7245
  47   0.0000       0.031137         0.8473
  48   0.0000       0.036579         0.9954
  49   0.0000       0.039344         1.0706

MULLIKEN ATOMIC CHARGES
-----------------------
   0 C :    0.871939
   1 O :   -0.832032
   2 N :   -0.726373
   3 H :    0.368024
   4 H :    0.229096
   5 C :   -0.646309
   6 H :    0.284808
   7 H :    0.257109
   8 H :    0.276643
   9 N :   -0.648401
  10 H :    0.123259
  11 C :    1.133229
  12 O :   -0.840793
  13 C :   -0.399048
  14 H :    0.277033
  15 C :   -0.310403
  16 H :    0.334009
  17 N :   -0.526728
  18 H :    0.231548
  19 C :    1.341665
  20 O :   -0.798275
Sum of atomic charges:   -0.0000000

LOEWDIN ATOMIC CHARGES
----------------------
   0 C :   -0.679347
   1 O :    0.904499
   2 N :    1.269359
   3 H :   -0.839541
   4 H :   -0.483241
   5 C :    0.906970
   6 H :   -0.295506
   7 H :   -0.311670
   8 H :   -0.297775
   9 N :    0.787434
  10 H :   -0.519524
  11 C :   -0.867021
  12 O :    0.675627
  13 C :    0.334427
  14 H :   -0.357692
  15 C :    0.246976
  16 H :   -0.291670
  17 N :    0.805759
  18 H :   -0.960099
  19 C :   -0.878790
  20 O :    0.850827

  Mayer bond orders larger than 0.100000
B(  0-C ,  1-O ) :   1.3781 B(  0-C ,  2-N ) :   1.1223 B(  0-C ,  5-C ) :   0.6839
B(  0-C ,  7-H ) :  -0.1364 B(  1-O ,  2-N ) :   0.1615 B(  1-O , 17-N ) :  -0.1044
B(  2-N ,  3-H ) :   0.8239 B(  2-N ,  4-H ) :   1.0469 B(  5-C ,  6-H ) :   0.9415
B(  5-C ,  7-H ) :   1.0140 B(  5-C ,  8-H ) :   0.9612 B(  9-N , 10-H ) :   1.1978
B(  9-N , 11-C ) :   1.0319 B(  9-N , 12-O ) :   0.1498 B(  9-N , 19-C ) :   1.0281
B( 10-H , 19-C ) :  -0.1044 B( 11-C , 12-O ) :   1.0117 B( 11-C , 13-C ) :   1.1690
B( 11-C , 15-C ) :  -0.1068 B( 12-O , 13-C ) :   0.2825 B( 13-C , 14-H ) :   1.0128
B( 13-C , 15-C ) :   1.4426 B( 14-H , 15-C ) :  -0.1087 B( 15-C , 16-H ) :   0.9682
B( 15-C , 17-N ) :   1.0828 B( 17-N , 18-H ) :   0.9231 B( 17-N , 19-C ) :   1.2207
B( 17-N , 20-O ) :   0.1988 B( 19-C , 20-O ) :   1.2438

MP2 TOTAL ENERGY:     -623.182079543 Eh
FINAL SINGLE POINT ENERGY      -623.182079543134

DIPOLE MOMENT
-------------
                                X             Y             Z
Electronic contribution:     11.48585       0.47589       0.17953
Nuclear contribution   :    -13.99961      -0.68150      -0.24150
                        -----------------------------------------
Total Dipole Moment    :     -2.51376      -0.20561      -0.06197
                        -----------------------------------------
Magnitude (a.u.)       :      2.52292
Magnitude (Debye)      :      6.41275

Rotational constants in cm-1:     0.089016     0.013808     0.011981
Rotational constants in MHz :  2668.622890   413.951311   359.167952

                             ****ORCA TERMINATED NORMALLY****
TOTAL RUN TIME: 0 days 6 hours 22 minutes 43 seconds 344 msec
