                         Program Version 5.0.4 -  RELEASE  -
|  1> ! ri-mp2 aug-cc-pvdz aug-cc-pvdz/c tightscf
|  2> %pal nprocs 16 end
|  3> %maxcore 3800
|  4> %base "DZ_S66by10_11_2.0_dimer"
|  5> %scf STABPerform true end
|  6>
|  7> *xyz 0 1
|  8> N   -0.56970824    0.81437245    0.10109775
|  9> H    0.13087774    0.56141065   -0.58761455
| 10> H   -1.46125215    0.52691480   -0.28042996
| 11> C   -0.30551437    0.06571030    1.32879173
| 12> H   -1.05714948    0.31427017    2.07595940
| 13> H   -0.28802353   -1.02229248    1.21484626
| 14> H    0.66045772    0.36850913    1.73024224
| 15> C    5.25502474    2.47695020   -0.56035211
| 16> H    5.37964321    2.88812693   -1.55939644
| 17> H    5.76159612    3.11794276    0.15743241
| 18> H    4.18861299    2.45042068   -0.34193068
| 19> C    5.76701644    1.05915252   -0.55805808
| 20> O    5.30703655    0.19341610   -1.29723269
| 21> N    6.75349940    0.78612018    0.33427263
| 22> H    7.15326043    1.54105295    0.85962538
| 23> C    7.34194474   -0.53347037    0.41177220
| 24> H    6.55376813   -1.27480051    0.31875160
| 25> H    8.06320452   -0.70546574   -0.38677219
| 26> H    7.83659826   -0.64933856    1.37171172
| 27> *
| 28>
| 29> $new_job
| 30> ! ri-mp2 aug-cc-pvtz aug-cc-pvtz/c tightscf
| 31> %pal nprocs 16 end
| 32> %maxcore 3800
| 33> %base "TZ_S66by10_11_2.0_dimer"
| 34>
| 35> *xyz 0 1
| 36> N   -0.56970824    0.81437245    0.10109775
| 37> H    0.13087774    0.56141065   -0.58761455
| 38> H   -1.46125215    0.52691480   -0.28042996
| 39> C   -0.30551437    0.06571030    1.32879173
| 40> H   -1.05714948    0.31427017    2.07595940
| 41> H   -0.28802353   -1.02229248    1.21484626
| 42> H    0.66045772    0.36850913    1.73024224
| 43> C    5.25502474    2.47695020   -0.56035211
| 44> H    5.37964321    2.88812693   -1.55939644
| 45> H    5.76159612    3.11794276    0.15743241
| 46> H    4.18861299    2.45042068   -0.34193068
| 47> C    5.76701644    1.05915252   -0.55805808
| 48> O    5.30703655    0.19341610   -1.29723269
| 49> N    6.75349940    0.78612018    0.33427263
| 50> H    7.15326043    1.54105295    0.85962538
| 51> C    7.34194474   -0.53347037    0.41177220
| 52> H    6.55376813   -1.27480051    0.31875160
| 53> H    8.06320452   -0.70546574   -0.38677219
| 54> H    7.83659826   -0.64933856    1.37171172
| 55> *
| 56>
| 57> $new_job
| 58> ! ri-mp2 aug-cc-pvqz aug-cc-pvqz/c tightscf
| 59> %pal nprocs 16 end
| 60> %maxcore 3800
| 61> %base "QZ_S66by10_11_2.0_dimer"
| 62>
| 63> *xyz 0 1
| 64> N   -0.56970824    0.81437245    0.10109775
| 65> H    0.13087774    0.56141065   -0.58761455
| 66> H   -1.46125215    0.52691480   -0.28042996
| 67> C   -0.30551437    0.06571030    1.32879173
| 68> H   -1.05714948    0.31427017    2.07595940
| 69> H   -0.28802353   -1.02229248    1.21484626
| 70> H    0.66045772    0.36850913    1.73024224
| 71> C    5.25502474    2.47695020   -0.56035211
| 72> H    5.37964321    2.88812693   -1.55939644
| 73> H    5.76159612    3.11794276    0.15743241
| 74> H    4.18861299    2.45042068   -0.34193068
| 75> C    5.76701644    1.05915252   -0.55805808
| 76> O    5.30703655    0.19341610   -1.29723269
| 77> N    6.75349940    0.78612018    0.33427263
| 78> H    7.15326043    1.54105295    0.85962538
| 79> C    7.34194474   -0.53347037    0.41177220
| 80> H    6.55376813   -1.27480051    0.31875160
| 81> H    8.06320452   -0.70546574   -0.38677219
| 82> H    7.83659826   -0.64933856    1.37171172
| 83> *
| 84>
| 85>
| 86>
| 87>
| 88>                          ****END OF INPUT****
 Total Charge           Charge          ....    0
 Multiplicity           Mult            ....    1
 Number of Electrons    NEL             ....   58
MP2 TOTAL ENERGY:     -343.420710055 Eh
FINAL SINGLE POINT ENERGY      -343.420710054754
MP2 TOTAL ENERGY:     -343.738385333 Eh
FINAL SINGLE POINT ENERGY      -343.738385333345

CARTESIAN COORDINATES (ANGSTROEM)
---------------------------------
  N     -0.569708    0.814372    0.101098
  H      0.130878    0.561411   -0.587615
  H     -1.461252    0.526915   -0.280430
  C     -0.305514    0.065710    1.328792
  H     -1.057149    0.314270    2.075959
  H     -0.288024   -1.022292    1.214846
  H      0.660458    0.368509    1.730242
  C      5.255025    2.476950   -0.560352
  H      5.379643    2.888127   -1.559396
  H      5.761596    3.117943    0.157432
  H      4.188613    2.450421   -0.341931
  C      5.767016    1.059153   -0.558058
  O      5.307037    0.193416   -1.297233
  N      6.753499    0.786120    0.334273
  H      7.153260    1.541053    0.859625
  C      7.341945   -0.533470    0.411772
  H      6.553768   -1.274801    0.318752
  H      8.063205   -0.705466   -0.386772
  H      7.836598   -0.649339    1.371712

 Multiplicity           Mult            ....    1
 Number of Electrons    NEL             ....   58
 Basis Dimension        Dim             .... 1112

ORBITAL ENERGIES
----------------

  NO   OCC          E(Eh)            E(eV)
   0   2.0000     -20.508124      -558.0544
   1   2.0000     -15.584935      -424.0876
   2   2.0000     -15.534559      -422.7168
   3   2.0000     -11.345148      -308.7172
   4   2.0000     -11.256929      -306.3166
   5   2.0000     -11.235652      -305.7376
   6   2.0000     -11.234328      -305.7016
   7   2.0000      -1.371916       -37.3317
   8   2.0000      -1.229544       -33.4576
   9   2.0000      -1.167174       -31.7604
  10   2.0000      -1.019221       -27.7344
  11   2.0000      -0.933045       -25.3895
  12   2.0000      -0.891514       -24.2593
  13   2.0000      -0.790601       -21.5134
  14   2.0000      -0.690141       -18.7797
  15   2.0000      -0.659129       -17.9358
  16   2.0000      -0.652248       -17.7486
  17   2.0000      -0.634451       -17.2643
  18   2.0000      -0.600089       -16.3293
  19   2.0000      -0.585977       -15.9452
  20   2.0000      -0.579814       -15.7775
  21   2.0000      -0.557472       -15.1696
  22   2.0000      -0.551297       -15.0015
  23   2.0000      -0.547856       -14.9079
  24   2.0000      -0.512920       -13.9573
  25   2.0000      -0.500349       -13.6152
  26   2.0000      -0.421231       -11.4623
  27   2.0000      -0.392739       -10.6870
  28   2.0000      -0.390227       -10.6186
  29   0.0000       0.019433         0.5288
  30   0.0000       0.030343         0.8257
  31   0.0000       0.031077         0.8457
  32   0.0000       0.036283         0.9873
  33   0.0000       0.042477         1.1559

MULLIKEN ATOMIC CHARGES
-----------------------
   0 N :   -0.632036
   1 H :    0.261440
   2 H :    0.241688
   3 C :   -0.692021
   4 H :    0.282138
   5 H :    0.246974
   6 H :    0.291659
   7 C :   -0.773449
   8 H :    0.281056
   9 H :    0.221617
  10 H :    0.296961
  11 C :    0.919357
  12 O :   -0.851901
  13 N :   -0.489671
  14 H :    0.257687
  15 C :   -0.784887
  16 H :    0.300331
  17 H :    0.285903
  18 H :    0.337156
Sum of atomic charges:    0.0000000

LOEWDIN ATOMIC CHARGES
----------------------
   0 N :    1.250633
   1 H :   -0.529955
   2 H :   -0.532227
   3 C :    0.740786
   4 H :   -0.315807
   5 H :   -0.295716
   6 H :   -0.317735
   7 C :    0.891111
   8 H :   -0.298859
   9 H :   -0.315178
  10 H :   -0.298754
  11 C :   -0.847269
  12 O :    0.691639
  13 N :    0.815652
  14 H :   -0.508236
  15 C :    0.773914
  16 H :   -0.325764
  17 H :   -0.282205
  18 H :   -0.296029

  Mayer bond orders larger than 0.100000
B(  0-N ,  1-H ) :   0.9075 B(  0-N ,  2-H ) :   0.9381 B(  0-N ,  3-C ) :   0.9684
B(  3-C ,  4-H ) :   0.9224 B(  3-C ,  5-H ) :   0.9332 B(  3-C ,  6-H ) :   0.9082
B(  7-C ,  8-H ) :   0.9350 B(  7-C ,  9-H ) :   1.0100 B(  7-C , 10-H ) :   0.9128
B(  7-C , 11-C ) :   0.8896 B( 11-C , 12-O ) :   1.2614 B( 11-C , 13-N ) :   1.1481
B( 12-O , 13-N ) :   0.1799 B( 13-N , 14-H ) :   0.9707 B( 13-N , 15-C ) :   0.8019
B( 15-C , 16-H ) :   0.9460 B( 15-C , 17-H ) :   0.9505 B( 15-C , 18-H ) :   0.9086

MP2 TOTAL ENERGY:     -343.838347019 Eh
FINAL SINGLE POINT ENERGY      -343.838347018760

DIPOLE MOMENT
-------------
                                X             Y             Z
Electronic contribution:      7.23249       0.38788      -3.61796
Nuclear contribution   :     -6.38854      -0.01655       4.55187
                        -----------------------------------------
Total Dipole Moment    :      0.84395       0.37132       0.93391
                        -----------------------------------------
Magnitude (a.u.)       :      1.31237
Magnitude (Debye)      :      3.33579

Rotational constants in cm-1:     0.109135     0.016059     0.015176
Rotational constants in MHz :  3271.772598   481.422982   454.963626

                             ****ORCA TERMINATED NORMALLY****
TOTAL RUN TIME: 0 days 1 hours 25 minutes 58 seconds 350 msec
