                         Program Version 5.0.4 -  RELEASE  -
|  1> ! ri-mp2 aug-cc-pvdz aug-cc-pvdz/c tightscf
|  2> %pal nprocs 16 end
|  3> %maxcore 3800
|  4> %base "DZ_S66by10_21_2.0_dimer"
|  5> %scf STABPerform true end
|  6>
|  7> *xyz 0 1
|  8> C   -1.30974974    1.18017617   -0.02517034
|  9> O   -0.72530044    2.15514767    0.45271335
| 10> N   -0.66562116    0.09505470   -0.49199449
| 11> H    0.35458266    0.05144817   -0.45930922
| 12> H   -1.18362704   -0.67359969   -0.87075610
| 13> C   -2.81671934    1.15599865   -0.11060597
| 14> H   -3.22062895    1.26254146    0.89308239
| 15> H   -3.20942754    0.24863402   -0.56190009
| 16> H   -3.14315813    2.01659563   -0.68889311
| 17> C    4.79817531    1.10574311    0.25999330
| 18> O    4.21375355    0.13172268   -0.21973766
| 19> N    4.15408774    2.19048634    0.72783986
| 20> H    3.13398238    2.23492412    0.69353854
| 21> H    4.67211181    2.95844754    1.10796051
| 22> C    6.30517449    1.13002749    0.34521839
| 23> H    6.69704555    2.02967701    0.81240240
| 24> H    6.70873068    1.04248246   -0.66056192
| 25> H    6.63295325    0.25945259    0.90739873
| 26> *
| 27>
| 28> $new_job
| 29> ! ri-mp2 aug-cc-pvtz aug-cc-pvtz/c tightscf
| 30> %pal nprocs 16 end
| 31> %maxcore 3800
| 32> %base "TZ_S66by10_21_2.0_dimer"
| 33>
| 34> *xyz 0 1
| 35> C   -1.30974974    1.18017617   -0.02517034
| 36> O   -0.72530044    2.15514767    0.45271335
| 37> N   -0.66562116    0.09505470   -0.49199449
| 38> H    0.35458266    0.05144817   -0.45930922
| 39> H   -1.18362704   -0.67359969   -0.87075610
| 40> C   -2.81671934    1.15599865   -0.11060597
| 41> H   -3.22062895    1.26254146    0.89308239
| 42> H   -3.20942754    0.24863402   -0.56190009
| 43> H   -3.14315813    2.01659563   -0.68889311
| 44> C    4.79817531    1.10574311    0.25999330
| 45> O    4.21375355    0.13172268   -0.21973766
| 46> N    4.15408774    2.19048634    0.72783986
| 47> H    3.13398238    2.23492412    0.69353854
| 48> H    4.67211181    2.95844754    1.10796051
| 49> C    6.30517449    1.13002749    0.34521839
| 50> H    6.69704555    2.02967701    0.81240240
| 51> H    6.70873068    1.04248246   -0.66056192
| 52> H    6.63295325    0.25945259    0.90739873
| 53> *
| 54>
| 55> $new_job
| 56> ! ri-mp2 aug-cc-pvqz aug-cc-pvqz/c tightscf
| 57> %pal nprocs 16 end
| 58> %maxcore 3800
| 59> %base "QZ_S66by10_21_2.0_dimer"
| 60>
| 61> *xyz 0 1
| 62> C   -1.30974974    1.18017617   -0.02517034
| 63> O   -0.72530044    2.15514767    0.45271335
| 64> N   -0.66562116    0.09505470   -0.49199449
| 65> H    0.35458266    0.05144817   -0.45930922
| 66> H   -1.18362704   -0.67359969   -0.87075610
| 67> C   -2.81671934    1.15599865   -0.11060597
| 68> H   -3.22062895    1.26254146    0.89308239
| 69> H   -3.20942754    0.24863402   -0.56190009
| 70> H   -3.14315813    2.01659563   -0.68889311
| 71> C    4.79817531    1.10574311    0.25999330
| 72> O    4.21375355    0.13172268   -0.21973766
| 73> N    4.15408774    2.19048634    0.72783986
| 74> H    3.13398238    2.23492412    0.69353854
| 75> H    4.67211181    2.95844754    1.10796051
| 76> C    6.30517449    1.13002749    0.34521839
| 77> H    6.69704555    2.02967701    0.81240240
| 78> H    6.70873068    1.04248246   -0.66056192
| 79> H    6.63295325    0.25945259    0.90739873
| 80> *
| 81>
| 82>
| 83>
| 84>
| 85>                          ****END OF INPUT****
 Total Charge           Charge          ....    0
 Multiplicity           Mult            ....    1
 Number of Electrons    NEL             ....   64
MP2 TOTAL ENERGY:     -417.341369093 Eh
FINAL SINGLE POINT ENERGY      -417.341369093056
MP2 TOTAL ENERGY:     -417.711833441 Eh
FINAL SINGLE POINT ENERGY      -417.711833440605

CARTESIAN COORDINATES (ANGSTROEM)
---------------------------------
  C     -1.309750    1.180176   -0.025170
  O     -0.725300    2.155148    0.452713
  N     -0.665621    0.095055   -0.491994
  H      0.354583    0.051448   -0.459309
  H     -1.183627   -0.673600   -0.870756
  C     -2.816719    1.155999   -0.110606
  H     -3.220629    1.262541    0.893082
  H     -3.209428    0.248634   -0.561900
  H     -3.143158    2.016596   -0.688893
  C      4.798175    1.105743    0.259993
  O      4.213754    0.131723   -0.219738
  N      4.154088    2.190486    0.727840
  H      3.133982    2.234924    0.693539
  H      4.672112    2.958448    1.107961
  C      6.305174    1.130027    0.345218
  H      6.697046    2.029677    0.812402
  H      6.708731    1.042482   -0.660562
  H      6.632953    0.259453    0.907399

 Multiplicity           Mult            ....    1
 Number of Electrons    NEL             ....   64
 Basis Dimension        Dim             .... 1100

ORBITAL ENERGIES
----------------

  NO   OCC          E(Eh)            E(eV)
   0   2.0000     -20.507108      -558.0268
   1   2.0000     -20.507092      -558.0263
   2   2.0000     -15.585990      -424.1164
   3   2.0000     -15.585976      -424.1160
   4   2.0000     -11.349400      -308.8329
   5   2.0000     -11.349399      -308.8329
   6   2.0000     -11.234381      -305.7030
   7   2.0000     -11.234380      -305.7030
   8   2.0000      -1.366545       -37.1856
   9   2.0000      -1.366504       -37.1845
  10   2.0000      -1.213672       -33.0257
  11   2.0000      -1.213647       -33.0250
  12   2.0000      -1.003228       -27.2992
  13   2.0000      -1.003175       -27.2978
  14   2.0000      -0.800458       -21.7816
  15   2.0000      -0.800261       -21.7762
  16   2.0000      -0.725821       -19.7506
  17   2.0000      -0.725437       -19.7402
  18   2.0000      -0.661699       -18.0058
  19   2.0000      -0.661223       -17.9928
  20   2.0000      -0.613430       -16.6923
  21   2.0000      -0.613392       -16.6913
  22   2.0000      -0.577801       -15.7228
  23   2.0000      -0.577417       -15.7123
  24   2.0000      -0.562088       -15.2952
  25   2.0000      -0.561997       -15.2927
  26   2.0000      -0.521909       -14.2019
  27   2.0000      -0.521791       -14.1986
  28   2.0000      -0.420914       -11.4537
  29   2.0000      -0.419613       -11.4183
  30   2.0000      -0.411218       -11.1898
  31   2.0000      -0.411020       -11.1844
  32   0.0000       0.022816         0.6209
  33   0.0000       0.025336         0.6894
  34   0.0000       0.036428         0.9913
  35   0.0000       0.040021         1.0890
  36   0.0000       0.043469         1.1828

MULLIKEN ATOMIC CHARGES
-----------------------
   0 C :    0.798399
   1 O :   -0.820405
   2 N :   -0.665710
   3 H :    0.312791
   4 H :    0.284371
   5 C :   -0.700260
   6 H :    0.271434
   7 H :    0.251090
   8 H :    0.268289
   9 C :    0.798305
  10 O :   -0.820200
  11 N :   -0.665700
  12 H :    0.312812
  13 H :    0.284252
  14 C :   -0.700270
  15 H :    0.250940
  16 H :    0.273341
  17 H :    0.266522
Sum of atomic charges:   -0.0000000

LOEWDIN ATOMIC CHARGES
----------------------
   0 C :   -0.857154
   1 O :    0.652437
   2 N :    1.228485
   3 H :   -0.465272
   4 H :   -0.513142
   5 C :    0.875941
   6 H :   -0.301835
   7 H :   -0.316832
   8 H :   -0.302631
   9 C :   -0.857162
  10 O :    0.652471
  11 N :    1.228484
  12 H :   -0.465292
  13 H :   -0.513157
  14 C :    0.875952
  15 H :   -0.316825
  16 H :   -0.301317
  17 H :   -0.303153

  Mayer bond orders larger than 0.100000
B(  0-C ,  1-O ) :   1.3922 B(  0-C ,  2-N ) :   1.0884 B(  0-C ,  5-C ) :   0.8651
B(  1-O ,  2-N ) :   0.1314 B(  2-N ,  3-H ) :   0.8941 B(  2-N ,  4-H ) :   0.9583
B(  5-C ,  6-H ) :   0.9365 B(  5-C ,  7-H ) :   0.9974 B(  5-C ,  8-H ) :   0.9432
B(  9-C , 10-O ) :   1.3924 B(  9-C , 11-N ) :   1.0884 B(  9-C , 14-C ) :   0.8651
B( 10-O , 11-N ) :   0.1313 B( 11-N , 12-H ) :   0.8941 B( 11-N , 13-H ) :   0.9584
B( 14-C , 15-H ) :   0.9975 B( 14-C , 16-H ) :   0.9326 B( 14-C , 17-H ) :   0.9469

MP2 TOTAL ENERGY:     -417.831619324 Eh
FINAL SINGLE POINT ENERGY      -417.831619323750

DIPOLE MOMENT
-------------
                                X             Y             Z
Electronic contribution:     -0.00020      -0.00066       0.00058
Nuclear contribution   :      0.00027      -0.00002       0.00041
                        -----------------------------------------
Total Dipole Moment    :      0.00007      -0.00068       0.00098
                        -----------------------------------------
Magnitude (a.u.)       :      0.00120
Magnitude (Debye)      :      0.00304

Rotational constants in cm-1:     0.178825     0.013416     0.012537
Rotational constants in MHz :  5361.046791   402.193105   375.852104

                             ****ORCA TERMINATED NORMALLY****
TOTAL RUN TIME: 0 days 1 hours 43 minutes 50 seconds 63 msec
