                         Program Version 5.0.4 -  RELEASE  -
|  1> ! ri-mp2 aug-cc-pvdz aug-cc-pvdz/c tightscf
|  2> %pal nprocs 16 end
|  3> %maxcore 3800
|  4> %base "DZ_S66by10_26_0.8_dimer"
|  5> %scf STABPerform true end
|  6>
|  7> *xyz 0 1
|  8> N    1.37690111    0.83974747    0.73462494
|  9> H    1.05181240    1.38622385    1.52335563
| 10> C    1.30898271    1.45752981   -0.52065500
| 11> O    0.92056136    2.61107777   -0.62597673
| 12> N    2.01142293   -1.21320830   -0.09807182
| 13> H    1.72728551    0.99084268   -2.61199556
| 14> C    2.02573687   -0.69717123   -1.36439740
| 15> H    2.29751698   -1.39106004   -2.14564531
| 16> C    1.71451235    0.59193780   -1.61248722
| 17> H    2.12945422   -2.20152091    0.05682913
| 18> C    1.64594503   -0.48520598    1.01871830
| 19> O    1.56111602   -0.97181638    2.12980905
| 20> N   -0.82662661   -0.74474573    0.73462494
| 21> H   -0.50153790   -1.29122212    1.52335563
| 22> C   -0.75870820   -1.36252808   -0.52065500
| 23> O   -0.37028685   -2.51607603   -0.62597673
| 24> N   -1.46114842    1.30821004   -0.09807182
| 25> H   -1.17701100   -0.89584095   -2.61199556
| 26> C   -1.47546236    0.79217296   -1.36439740
| 27> H   -1.74724247    1.48606177   -2.14564531
| 28> C   -1.16423784   -0.49693607   -1.61248722
| 29> H   -1.57917971    2.29652264    0.05682913
| 30> C   -1.09567052    0.58020771    1.01871830
| 31> O   -1.01084151    1.06681811    2.12980905
| 32> *
| 33>
| 34> $new_job
| 35> ! ri-mp2 aug-cc-pvtz aug-cc-pvtz/c tightscf
| 36> %pal nprocs 16 end
| 37> %maxcore 3800
| 38> %base "TZ_S66by10_26_0.8_dimer"
| 39>
| 40> *xyz 0 1
| 41> N    1.37690111    0.83974747    0.73462494
| 42> H    1.05181240    1.38622385    1.52335563
| 43> C    1.30898271    1.45752981   -0.52065500
| 44> O    0.92056136    2.61107777   -0.62597673
| 45> N    2.01142293   -1.21320830   -0.09807182
| 46> H    1.72728551    0.99084268   -2.61199556
| 47> C    2.02573687   -0.69717123   -1.36439740
| 48> H    2.29751698   -1.39106004   -2.14564531
| 49> C    1.71451235    0.59193780   -1.61248722
| 50> H    2.12945422   -2.20152091    0.05682913
| 51> C    1.64594503   -0.48520598    1.01871830
| 52> O    1.56111602   -0.97181638    2.12980905
| 53> N   -0.82662661   -0.74474573    0.73462494
| 54> H   -0.50153790   -1.29122212    1.52335563
| 55> C   -0.75870820   -1.36252808   -0.52065500
| 56> O   -0.37028685   -2.51607603   -0.62597673
| 57> N   -1.46114842    1.30821004   -0.09807182
| 58> H   -1.17701100   -0.89584095   -2.61199556
| 59> C   -1.47546236    0.79217296   -1.36439740
| 60> H   -1.74724247    1.48606177   -2.14564531
| 61> C   -1.16423784   -0.49693607   -1.61248722
| 62> H   -1.57917971    2.29652264    0.05682913
| 63> C   -1.09567052    0.58020771    1.01871830
| 64> O   -1.01084151    1.06681811    2.12980905
| 65> *
| 66>
| 67> $new_job
| 68> ! ri-mp2 aug-cc-pvqz aug-cc-pvqz/c tightscf
| 69> %pal nprocs 16 end
| 70> %maxcore 3800
| 71> %base "QZ_S66by10_26_0.8_dimer"
| 72>
| 73> *xyz 0 1
| 74> N    1.37690111    0.83974747    0.73462494
| 75> H    1.05181240    1.38622385    1.52335563
| 76> C    1.30898271    1.45752981   -0.52065500
| 77> O    0.92056136    2.61107777   -0.62597673
| 78> N    2.01142293   -1.21320830   -0.09807182
| 79> H    1.72728551    0.99084268   -2.61199556
| 80> C    2.02573687   -0.69717123   -1.36439740
| 81> H    2.29751698   -1.39106004   -2.14564531
| 82> C    1.71451235    0.59193780   -1.61248722
| 83> H    2.12945422   -2.20152091    0.05682913
| 84> C    1.64594503   -0.48520598    1.01871830
| 85> O    1.56111602   -0.97181638    2.12980905
| 86> N   -0.82662661   -0.74474573    0.73462494
| 87> H   -0.50153790   -1.29122212    1.52335563
| 88> C   -0.75870820   -1.36252808   -0.52065500
| 89> O   -0.37028685   -2.51607603   -0.62597673
| 90> N   -1.46114842    1.30821004   -0.09807182
| 91> H   -1.17701100   -0.89584095   -2.61199556
| 92> C   -1.47546236    0.79217296   -1.36439740
| 93> H   -1.74724247    1.48606177   -2.14564531
| 94> C   -1.16423784   -0.49693607   -1.61248722
| 95> H   -1.57917971    2.29652264    0.05682913
| 96> C   -1.09567052    0.58020771    1.01871830
| 97> O   -1.01084151    1.06681811    2.12980905
| 98> *
| 99>
|100>
|101>
|102>
|103>                          ****END OF INPUT****
 Total Charge           Charge          ....    0
 Multiplicity           Mult            ....    1
 Number of Electrons    NEL             ....  116
MP2 TOTAL ENERGY:     -827.563556201 Eh
FINAL SINGLE POINT ENERGY      -827.563556200715
MP2 TOTAL ENERGY:     -828.253972496 Eh
FINAL SINGLE POINT ENERGY      -828.253972495926

CARTESIAN COORDINATES (ANGSTROEM)
---------------------------------
  N      1.376901    0.839747    0.734625
  H      1.051812    1.386224    1.523356
  C      1.308983    1.457530   -0.520655
  O      0.920561    2.611078   -0.625977
  N      2.011423   -1.213208   -0.098072
  H      1.727286    0.990843   -2.611996
  C      2.025737   -0.697171   -1.364397
  H      2.297517   -1.391060   -2.145645
  C      1.714512    0.591938   -1.612487
  H      2.129454   -2.201521    0.056829
  C      1.645945   -0.485206    1.018718
  O      1.561116   -0.971816    2.129809
  N     -0.826627   -0.744746    0.734625
  H     -0.501538   -1.291222    1.523356
  C     -0.758708   -1.362528   -0.520655
  O     -0.370287   -2.516076   -0.625977
  N     -1.461148    1.308210   -0.098072
  H     -1.177011   -0.895841   -2.611996
  C     -1.475462    0.792173   -1.364397
  H     -1.747242    1.486062   -2.145645
  C     -1.164238   -0.496936   -1.612487
  H     -1.579180    2.296523    0.056829
  C     -1.095671    0.580208    1.018718
  O     -1.010842    1.066818    2.129809

 Multiplicity           Mult            ....    1
 Number of Electrons    NEL             ....  116
 Basis Dimension        Dim             .... 1648

ORBITAL ENERGIES
----------------

  NO   OCC          E(Eh)            E(eV)
   0   2.0000     -20.546315      -559.0936
   1   2.0000     -20.546315      -559.0936
   2   2.0000     -20.545105      -559.0607
   3   2.0000     -20.545104      -559.0607
   4   2.0000     -15.637664      -425.5225
   5   2.0000     -15.637664      -425.5225
   6   2.0000     -15.623438      -425.1354
   7   2.0000     -15.623428      -425.1351
   8   2.0000     -11.419894      -310.7511
   9   2.0000     -11.419893      -310.7511
  10   2.0000     -11.387194      -309.8613
  11   2.0000     -11.387194      -309.8613
  12   2.0000     -11.338479      -308.5357
  13   2.0000     -11.338477      -308.5356
  14   2.0000     -11.255609      -306.2807
  15   2.0000     -11.255606      -306.2806
  16   2.0000      -1.450208       -39.4622
  17   2.0000      -1.432438       -38.9786
  18   2.0000      -1.408488       -38.3269
  19   2.0000      -1.404775       -38.2259
  20   2.0000      -1.314966       -35.7820
  21   2.0000      -1.314885       -35.7798
  22   2.0000      -1.253417       -34.1072
  23   2.0000      -1.246105       -33.9082
  24   2.0000      -1.096177       -29.8285
  25   2.0000      -1.085870       -29.5480
  26   2.0000      -0.937781       -25.5183
  27   2.0000      -0.934325       -25.4243
  28   2.0000      -0.905984       -24.6531
  29   2.0000      -0.903465       -24.5845
  30   2.0000      -0.809665       -22.0321
  31   2.0000      -0.807037       -21.9606
  32   2.0000      -0.770059       -20.9544
  33   2.0000      -0.766122       -20.8472
  34   2.0000      -0.724551       -19.7160
  35   2.0000      -0.717559       -19.5258
  36   2.0000      -0.711878       -19.3712
  37   2.0000      -0.686173       -18.6717
  38   2.0000      -0.681189       -18.5361
  39   2.0000      -0.657288       -17.8857
  40   2.0000      -0.655120       -17.8267
  41   2.0000      -0.634989       -17.2789
  42   2.0000      -0.619107       -16.8468
  43   2.0000      -0.617588       -16.8054
  44   2.0000      -0.606963       -16.5163
  45   2.0000      -0.605177       -16.4677
  46   2.0000      -0.601691       -16.3728
  47   2.0000      -0.573269       -15.5994
  48   2.0000      -0.526953       -14.3391
  49   2.0000      -0.509717       -13.8701
  50   2.0000      -0.489820       -13.3287
  51   2.0000      -0.484196       -13.1756
  52   2.0000      -0.458962       -12.4890
  53   2.0000      -0.456294       -12.4164
  54   2.0000      -0.447228       -12.1697
  55   2.0000      -0.437540       -11.9061
  56   2.0000      -0.398163       -10.8346
  57   2.0000      -0.346412        -9.4264
  58   0.0000       0.014325         0.3898
  59   0.0000       0.021664         0.5895
  60   0.0000       0.031733         0.8635
  61   0.0000       0.031892         0.8678
  62   0.0000       0.042024         1.1435

MULLIKEN ATOMIC CHARGES
-----------------------
   0 N :   -0.666062
   1 H :    0.045543
   2 C :    1.535601
   3 O :   -1.042576
   4 N :   -0.724463
   5 H :    0.200012
   6 C :   -0.070768
   7 H :    0.366613
   8 C :   -0.491504
   9 H :    0.066539
  10 C :    1.810717
  11 O :   -1.029651
  12 N :   -0.666062
  13 H :    0.045542
  14 C :    1.535601
  15 O :   -1.042576
  16 N :   -0.724463
  17 H :    0.200013
  18 C :   -0.070767
  19 H :    0.366613
  20 C :   -0.491504
  21 H :    0.066539
  22 C :    1.810717
  23 O :   -1.029651
Sum of atomic charges:   -0.0000000

LOEWDIN ATOMIC CHARGES
----------------------
   0 N :    0.771072
   1 H :   -0.614006
   2 C :   -0.890928
   3 O :    0.728666
   4 N :    0.812043
   5 H :   -0.334402
   6 C :    0.218372
   7 H :   -0.275345
   8 C :    0.323117
   9 H :   -0.492719
  10 C :   -1.027547
  11 O :    0.781676
  12 N :    0.771072
  13 H :   -0.614006
  14 C :   -0.890928
  15 O :    0.728666
  16 N :    0.812043
  17 H :   -0.334402
  18 C :    0.218372
  19 H :   -0.275345
  20 C :    0.323117
  21 H :   -0.492719
  22 C :   -1.027547
  23 O :    0.781676

  Mayer bond orders larger than 0.100000
B(  0-N ,  1-H ) :   1.1438 B(  0-N ,  2-C ) :   1.0516 B(  0-N ,  3-O ) :   0.2256
B(  0-N , 10-C ) :   1.0598 B(  0-N , 11-O ) :   0.2728 B(  0-N , 22-C ) :   0.1217
B(  2-C ,  3-O ) :   0.5951 B(  2-C ,  8-C ) :   1.0438 B(  3-O ,  8-C ) :   0.2439
B(  4-N ,  6-C ) :   0.9290 B(  4-N ,  9-H ) :   1.1493 B(  4-N , 10-C ) :   1.0091
B(  4-N , 11-O ) :   0.2437 B(  5-H ,  6-C ) :  -0.1058 B(  5-H ,  8-C ) :   1.0865
B(  6-C ,  7-H ) :   1.0218 B(  6-C ,  8-C ) :   1.4777 B(  7-H ,  8-C ) :  -0.1019
B( 10-C , 11-O ) :   0.5329 B( 10-C , 12-N ) :   0.1217 B( 12-N , 13-H ) :   1.1438
B( 12-N , 14-C ) :   1.0516 B( 12-N , 15-O ) :   0.2256 B( 12-N , 22-C ) :   1.0598
B( 12-N , 23-O ) :   0.2728 B( 14-C , 15-O ) :   0.5951 B( 14-C , 20-C ) :   1.0438
B( 15-O , 20-C ) :   0.2439 B( 16-N , 18-C ) :   0.9290 B( 16-N , 21-H ) :   1.1493
B( 16-N , 22-C ) :   1.0091 B( 16-N , 23-O ) :   0.2437 B( 17-H , 18-C ) :  -0.1058
B( 17-H , 20-C ) :   1.0865 B( 18-C , 19-H ) :   1.0218 B( 18-C , 20-C ) :   1.4777
B( 19-H , 20-C ) :  -0.1019 B( 22-C , 23-O ) :   0.5329

MP2 TOTAL ENERGY:     -828.481886661 Eh
FINAL SINGLE POINT ENERGY      -828.481886660724

DIPOLE MOMENT
-------------
                                X             Y             Z
Electronic contribution:      0.00000      -0.00000       3.64813
Nuclear contribution   :     -0.00000      -0.00000      -5.91054
                        -----------------------------------------
Total Dipole Moment    :      0.00000      -0.00000      -2.26240
                        -----------------------------------------
Magnitude (a.u.)       :      2.26240
Magnitude (Debye)      :      5.75058

Rotational constants in cm-1:     0.023773     0.021901     0.021072
Rotational constants in MHz :   712.699227   656.585286   631.732478

                             ****ORCA TERMINATED NORMALLY****
TOTAL RUN TIME: 0 days 14 hours 43 minutes 16 seconds 446 msec
