                         Program Version 5.0.4 -  RELEASE  -
|  1> ! ri-mp2 aug-cc-pvdz aug-cc-pvdz/c tightscf
|  2> %pal nprocs 16 end
|  3> %maxcore 3800
|  4> %base "DZ_S66by10_17_2.0_dimer"
|  5> %scf STABPerform true end
|  6>
|  7> *xyz 0 1
|  8> N   -0.72999913    0.02276763    0.00091465
|  9> H    0.29842255    0.07400447    0.00162304
| 10> C   -1.29682453   -1.24042682    0.00150234
| 11> O   -0.59409886   -2.25351751    0.00263371
| 12> C   -2.74362229   -1.26233170    0.00047938
| 13> H   -3.24959045   -2.21183517    0.00083311
| 14> C   -3.42201997   -0.09590921   -0.00092259
| 15> H   -4.50089709   -0.04921603   -0.00174546
| 16> N   -2.77483684    1.10540895   -0.00141807
| 17> H   -3.28383807    1.97387739   -0.00248574
| 18> C   -1.39147866    1.23701978   -0.00052538
| 19> O   -0.83984371    2.31703528   -0.00100125
| 20> N    5.92657032   -1.17860409    0.00050842
| 21> H    6.37381410   -0.27203089    0.00089523
| 22> C    6.78261809   -2.29322188   -0.00099146
| 23> O    7.99207011   -2.14151746   -0.00174066
| 24> C    6.06839966   -3.55539542   -0.00149585
| 25> H    6.63498421   -4.47042617   -0.00263449
| 26> C    4.71823068   -3.55921329   -0.00053576
| 27> H    4.14126745   -4.47217805   -0.00085443
| 28> N    3.98023927   -2.40833245    0.00091466
| 29> H    2.95390301   -2.42977525    0.00159172
| 30> C    4.55301021   -1.16366741    0.00146530
| 31> O    3.90268933   -0.12244910    0.00270170
| 32> *
| 33>
| 34> $new_job
| 35> ! ri-mp2 aug-cc-pvtz aug-cc-pvtz/c tightscf
| 36> %pal nprocs 16 end
| 37> %maxcore 3800
| 38> %base "TZ_S66by10_17_2.0_dimer"
| 39>
| 40> *xyz 0 1
| 41> N   -0.72999913    0.02276763    0.00091465
| 42> H    0.29842255    0.07400447    0.00162304
| 43> C   -1.29682453   -1.24042682    0.00150234
| 44> O   -0.59409886   -2.25351751    0.00263371
| 45> C   -2.74362229   -1.26233170    0.00047938
| 46> H   -3.24959045   -2.21183517    0.00083311
| 47> C   -3.42201997   -0.09590921   -0.00092259
| 48> H   -4.50089709   -0.04921603   -0.00174546
| 49> N   -2.77483684    1.10540895   -0.00141807
| 50> H   -3.28383807    1.97387739   -0.00248574
| 51> C   -1.39147866    1.23701978   -0.00052538
| 52> O   -0.83984371    2.31703528   -0.00100125
| 53> N    5.92657032   -1.17860409    0.00050842
| 54> H    6.37381410   -0.27203089    0.00089523
| 55> C    6.78261809   -2.29322188   -0.00099146
| 56> O    7.99207011   -2.14151746   -0.00174066
| 57> C    6.06839966   -3.55539542   -0.00149585
| 58> H    6.63498421   -4.47042617   -0.00263449
| 59> C    4.71823068   -3.55921329   -0.00053576
| 60> H    4.14126745   -4.47217805   -0.00085443
| 61> N    3.98023927   -2.40833245    0.00091466
| 62> H    2.95390301   -2.42977525    0.00159172
| 63> C    4.55301021   -1.16366741    0.00146530
| 64> O    3.90268933   -0.12244910    0.00270170
| 65> *
| 66>
| 67> $new_job
| 68> ! ri-mp2 aug-cc-pvqz aug-cc-pvqz/c tightscf
| 69> %pal nprocs 16 end
| 70> %maxcore 3800
| 71> %base "QZ_S66by10_17_2.0_dimer"
| 72>
| 73> *xyz 0 1
| 74> N   -0.72999913    0.02276763    0.00091465
| 75> H    0.29842255    0.07400447    0.00162304
| 76> C   -1.29682453   -1.24042682    0.00150234
| 77> O   -0.59409886   -2.25351751    0.00263371
| 78> C   -2.74362229   -1.26233170    0.00047938
| 79> H   -3.24959045   -2.21183517    0.00083311
| 80> C   -3.42201997   -0.09590921   -0.00092259
| 81> H   -4.50089709   -0.04921603   -0.00174546
| 82> N   -2.77483684    1.10540895   -0.00141807
| 83> H   -3.28383807    1.97387739   -0.00248574
| 84> C   -1.39147866    1.23701978   -0.00052538
| 85> O   -0.83984371    2.31703528   -0.00100125
| 86> N    5.92657032   -1.17860409    0.00050842
| 87> H    6.37381410   -0.27203089    0.00089523
| 88> C    6.78261809   -2.29322188   -0.00099146
| 89> O    7.99207011   -2.14151746   -0.00174066
| 90> C    6.06839966   -3.55539542   -0.00149585
| 91> H    6.63498421   -4.47042617   -0.00263449
| 92> C    4.71823068   -3.55921329   -0.00053576
| 93> H    4.14126745   -4.47217805   -0.00085443
| 94> N    3.98023927   -2.40833245    0.00091466
| 95> H    2.95390301   -2.42977525    0.00159172
| 96> C    4.55301021   -1.16366741    0.00146530
| 97> O    3.90268933   -0.12244910    0.00270170
| 98> *
| 99>
|100>
|101>
|102>
|103>                          ****END OF INPUT****
 Total Charge           Charge          ....    0
 Multiplicity           Mult            ....    1
 Number of Electrons    NEL             ....  116
MP2 TOTAL ENERGY:     -827.559856244 Eh
FINAL SINGLE POINT ENERGY      -827.559856244436
MP2 TOTAL ENERGY:     -828.254614477 Eh
FINAL SINGLE POINT ENERGY      -828.254614477154

CARTESIAN COORDINATES (ANGSTROEM)
---------------------------------
  N     -0.729999    0.022768    0.000915
  H      0.298423    0.074004    0.001623
  C     -1.296825   -1.240427    0.001502
  O     -0.594099   -2.253518    0.002634
  C     -2.743622   -1.262332    0.000479
  H     -3.249590   -2.211835    0.000833
  C     -3.422020   -0.095909   -0.000923
  H     -4.500897   -0.049216   -0.001745
  N     -2.774837    1.105409   -0.001418
  H     -3.283838    1.973877   -0.002486
  C     -1.391479    1.237020   -0.000525
  O     -0.839844    2.317035   -0.001001
  N      5.926570   -1.178604    0.000508
  H      6.373814   -0.272031    0.000895
  C      6.782618   -2.293222   -0.000991
  O      7.992070   -2.141517   -0.001741
  C      6.068400   -3.555395   -0.001496
  H      6.634984   -4.470426   -0.002634
  C      4.718231   -3.559213   -0.000536
  H      4.141267   -4.472178   -0.000854
  N      3.980239   -2.408332    0.000915
  H      2.953903   -2.429775    0.001592
  C      4.553010   -1.163667    0.001465
  O      3.902689   -0.122449    0.002702

 Multiplicity           Mult            ....    1
 Number of Electrons    NEL             ....  116
 Basis Dimension        Dim             .... 1648

ORBITAL ENERGIES
----------------

  NO   OCC          E(Eh)            E(eV)
   0   2.0000     -20.547851      -559.1354
   1   2.0000     -20.540870      -558.9455
   2   2.0000     -20.535890      -558.8100
   3   2.0000     -20.535081      -558.7880
   4   2.0000     -15.645804      -425.7440
   5   2.0000     -15.639842      -425.5817
   6   2.0000     -15.633291      -425.4035
   7   2.0000     -15.620768      -425.0627
   8   2.0000     -11.421585      -310.7971
   9   2.0000     -11.411485      -310.5223
  10   2.0000     -11.383802      -309.7690
  11   2.0000     -11.375329      -309.5384
  12   2.0000     -11.343025      -308.6594
  13   2.0000     -11.335165      -308.4455
  14   2.0000     -11.256318      -306.3000
  15   2.0000     -11.250162      -306.1325
  16   2.0000      -1.439438       -39.1691
  17   2.0000      -1.427074       -38.8327
  18   2.0000      -1.395158       -37.9642
  19   2.0000      -1.391541       -37.8657
  20   2.0000      -1.316509       -35.8240
  21   2.0000      -1.307039       -35.5664
  22   2.0000      -1.251033       -34.0423
  23   2.0000      -1.240819       -33.7644
  24   2.0000      -1.090704       -29.6796
  25   2.0000      -1.083561       -29.4852
  26   2.0000      -0.936560       -25.4851
  27   2.0000      -0.930853       -25.3298
  28   2.0000      -0.906641       -24.6710
  29   2.0000      -0.895341       -24.3635
  30   2.0000      -0.810267       -22.0485
  31   2.0000      -0.800863       -21.7926
  32   2.0000      -0.769639       -20.9430
  33   2.0000      -0.761571       -20.7234
  34   2.0000      -0.718942       -19.5634
  35   2.0000      -0.709102       -19.2957
  36   2.0000      -0.680913       -18.5286
  37   2.0000      -0.673135       -18.3169
  38   2.0000      -0.671675       -18.2772
  39   2.0000      -0.664931       -18.0937
  40   2.0000      -0.655469       -17.8362
  41   2.0000      -0.645071       -17.5533
  42   2.0000      -0.615779       -16.7562
  43   2.0000      -0.609742       -16.5919
  44   2.0000      -0.605074       -16.4649
  45   2.0000      -0.596744       -16.2382
  46   2.0000      -0.573628       -15.6092
  47   2.0000      -0.566216       -15.4075
  48   2.0000      -0.530186       -14.4271
  49   2.0000      -0.518833       -14.1182
  50   2.0000      -0.486036       -13.2257
  51   2.0000      -0.477268       -12.9871
  52   2.0000      -0.453918       -12.3517
  53   2.0000      -0.444498       -12.0954
  54   2.0000      -0.440711       -11.9924
  55   2.0000      -0.431617       -11.7449
  56   2.0000      -0.371280       -10.1031
  57   2.0000      -0.364801        -9.9267
  58   0.0000       0.009926         0.2701
  59   0.0000       0.020779         0.5654
  60   0.0000       0.028214         0.7677
  61   0.0000       0.035216         0.9583
  62   0.0000       0.039443         1.0733

MULLIKEN ATOMIC CHARGES
-----------------------
   0 N :   -0.765579
   1 H :    0.201278
   2 C :    1.187933
   3 O :   -0.857882
   4 C :   -0.431361
   5 H :    0.320609
   6 C :   -0.157654
   7 H :    0.428535
   8 N :   -0.627612
   9 H :    0.107407
  10 C :    1.354447
  11 O :   -0.761653
  12 N :   -0.670392
  13 H :    0.139180
  14 C :    1.112623
  15 O :   -0.792076
  16 C :   -0.413049
  17 H :    0.308492
  18 C :   -0.219744
  19 H :    0.395072
  20 N :   -0.670533
  21 H :    0.206034
  22 C :    1.415492
  23 O :   -0.809567
Sum of atomic charges:   -0.0000000

LOEWDIN ATOMIC CHARGES
----------------------
   0 N :    0.770176
   1 H :   -0.484812
   2 C :   -0.886473
   3 O :    0.664312
   4 C :    0.324732
   5 H :   -0.355089
   6 C :    0.234447
   7 H :   -0.296752
   8 N :    0.810218
   9 H :   -0.492977
  10 C :   -0.980964
  11 O :    0.694695
  12 N :    0.774236
  13 H :   -0.519572
  14 C :   -0.863880
  15 O :    0.680711
  16 C :    0.334190
  17 H :   -0.354757
  18 C :    0.232432
  19 H :   -0.298863
  20 N :    0.799110
  21 H :   -0.458140
  22 C :   -1.004002
  23 O :    0.677023

  Mayer bond orders larger than 0.100000
B(  0-N ,  1-H ) :   1.0324 B(  0-N ,  2-C ) :   0.9394 B(  0-N ,  3-O ) :   0.2138
B(  0-N , 10-C ) :   1.1635 B(  0-N , 11-O ) :   0.2018 B(  1-H , 11-O ) :   0.1025
B(  2-C ,  3-O ) :   1.1292 B(  2-C ,  4-C ) :   1.0348 B(  2-C ,  6-C ) :  -0.1970
B(  3-O ,  4-C ) :   0.2317 B(  4-C ,  5-H ) :   0.9715 B(  4-C ,  6-C ) :   1.5151
B(  5-H ,  6-C ) :  -0.1012 B(  6-C ,  7-H ) :   0.9088 B(  6-C ,  8-N ) :   0.8994
B(  8-N ,  9-H ) :   1.1909 B(  8-N , 10-C ) :   1.0729 B(  8-N , 11-O ) :   0.1711
B( 10-C , 11-O ) :   1.1618 B( 12-N , 13-H ) :   1.1625 B( 12-N , 14-C ) :   0.9835
B( 12-N , 15-O ) :   0.1749 B( 12-N , 22-C ) :   1.0111 B( 12-N , 23-O ) :   0.1188
B( 14-C , 15-O ) :   1.1145 B( 14-C , 16-C ) :   1.1848 B( 14-C , 18-C ) :  -0.1517
B( 15-O , 16-C ) :   0.2478 B( 16-C , 17-H ) :   0.9911 B( 16-C , 18-C ) :   1.4109
B( 17-H , 18-C ) :  -0.1259 B( 18-C , 19-H ) :   0.9375 B( 18-C , 20-N ) :   0.8875
B( 20-N , 21-H ) :   1.0765 B( 20-N , 22-C ) :   1.1203 B( 20-N , 23-O ) :   0.1886
B( 22-C , 23-O ) :   1.2440

MP2 TOTAL ENERGY:     -828.484827304 Eh
FINAL SINGLE POINT ENERGY      -828.484827304286

DIPOLE MOMENT
-------------
                                X             Y             Z
Electronic contribution:      2.15097       2.62919       0.00201
Nuclear contribution   :     -5.43260      -3.55860      -0.00389
                        -----------------------------------------
Total Dipole Moment    :     -3.28164      -0.92941      -0.00188
                        -----------------------------------------
Magnitude (a.u.)       :      3.41071
Magnitude (Debye)      :      8.66934

Rotational constants in cm-1:     0.045750     0.004815     0.004356
Rotational constants in MHz :  1371.541997   144.347905   130.602665

                             ****ORCA TERMINATED NORMALLY****
TOTAL RUN TIME: 0 days 7 hours 42 minutes 3 seconds 397 msec
