                         Program Version 5.0.4 -  RELEASE  -
|  1> ! ri-mp2 aug-cc-pvdz aug-cc-pvdz/c tightscf
|  2> %pal nprocs 16 end
|  3> %maxcore 3800
|  4> %base "DZ_S66by10_22_0.8_dimer"
|  5> %scf STABPerform true end
|  6>
|  7> *xyz 0 1
|  8> C   -1.11362611    1.32702009    0.27516705
|  9> O   -0.46708264    2.34938778    0.46153746
| 10> O   -0.57808939    0.13692049    0.04961747
| 11> H    0.41332036    0.20325661    0.05548711
| 12> C   -2.61142469    1.28618957    0.27736131
| 13> H   -3.00664872    2.27688545    0.46578983
| 14> H   -2.96425623    0.91525868   -0.68200123
| 15> H   -2.95311421    0.59179821    1.04124041
| 16> N    3.85609966    1.07956176    0.18413593
| 17> H    4.24930478    0.16417153    0.01241651
| 18> C    4.77762757    2.12767738    0.36558904
| 19> O    5.97477395    1.90938157    0.31270908
| 20> C    4.13856150    3.40713976    0.60619619
| 21> H    4.75809626    4.27406464    0.75767347
| 22> C    2.79147730    3.48712991    0.63557743
| 23> H    2.26863711    4.41557692    0.81087564
| 24> N    1.98774655    2.39644793    0.44517140
| 25> H    0.96369471    2.46639562    0.46896166
| 26> C    2.48767903    1.14622514    0.21099918
| 27> O    1.77564659    0.15672026    0.03752900
| 28> *
| 29>
| 30> $new_job
| 31> ! ri-mp2 aug-cc-pvtz aug-cc-pvtz/c tightscf
| 32> %pal nprocs 16 end
| 33> %maxcore 3800
| 34> %base "TZ_S66by10_22_0.8_dimer"
| 35>
| 36> *xyz 0 1
| 37> C   -1.11362611    1.32702009    0.27516705
| 38> O   -0.46708264    2.34938778    0.46153746
| 39> O   -0.57808939    0.13692049    0.04961747
| 40> H    0.41332036    0.20325661    0.05548711
| 41> C   -2.61142469    1.28618957    0.27736131
| 42> H   -3.00664872    2.27688545    0.46578983
| 43> H   -2.96425623    0.91525868   -0.68200123
| 44> H   -2.95311421    0.59179821    1.04124041
| 45> N    3.85609966    1.07956176    0.18413593
| 46> H    4.24930478    0.16417153    0.01241651
| 47> C    4.77762757    2.12767738    0.36558904
| 48> O    5.97477395    1.90938157    0.31270908
| 49> C    4.13856150    3.40713976    0.60619619
| 50> H    4.75809626    4.27406464    0.75767347
| 51> C    2.79147730    3.48712991    0.63557743
| 52> H    2.26863711    4.41557692    0.81087564
| 53> N    1.98774655    2.39644793    0.44517140
| 54> H    0.96369471    2.46639562    0.46896166
| 55> C    2.48767903    1.14622514    0.21099918
| 56> O    1.77564659    0.15672026    0.03752900
| 57> *
| 58>
| 59> $new_job
| 60> ! ri-mp2 aug-cc-pvqz aug-cc-pvqz/c tightscf
| 61> %pal nprocs 16 end
| 62> %maxcore 3800
| 63> %base "QZ_S66by10_22_0.8_dimer"
| 64>
| 65> *xyz 0 1
| 66> C   -1.11362611    1.32702009    0.27516705
| 67> O   -0.46708264    2.34938778    0.46153746
| 68> O   -0.57808939    0.13692049    0.04961747
| 69> H    0.41332036    0.20325661    0.05548711
| 70> C   -2.61142469    1.28618957    0.27736131
| 71> H   -3.00664872    2.27688545    0.46578983
| 72> H   -2.96425623    0.91525868   -0.68200123
| 73> H   -2.95311421    0.59179821    1.04124041
| 74> N    3.85609966    1.07956176    0.18413593
| 75> H    4.24930478    0.16417153    0.01241651
| 76> C    4.77762757    2.12767738    0.36558904
| 77> O    5.97477395    1.90938157    0.31270908
| 78> C    4.13856150    3.40713976    0.60619619
| 79> H    4.75809626    4.27406464    0.75767347
| 80> C    2.79147730    3.48712991    0.63557743
| 81> H    2.26863711    4.41557692    0.81087564
| 82> N    1.98774655    2.39644793    0.44517140
| 83> H    0.96369471    2.46639562    0.46896166
| 84> C    2.48767903    1.14622514    0.21099918
| 85> O    1.77564659    0.15672026    0.03752900
| 86> *
| 87>
| 88>
| 89>
| 90>
| 91>                          ****END OF INPUT****
 Total Charge           Charge          ....    0
 Multiplicity           Mult            ....    1
 Number of Electrons    NEL             ....   90
MP2 TOTAL ENERGY:     -642.316083985 Eh
FINAL SINGLE POINT ENERGY      -642.316083984501
MP2 TOTAL ENERGY:     -642.864133443 Eh
FINAL SINGLE POINT ENERGY      -642.864133443436

CARTESIAN COORDINATES (ANGSTROEM)
---------------------------------
  C     -1.113626    1.327020    0.275167
  O     -0.467083    2.349388    0.461537
  O     -0.578089    0.136920    0.049617
  H      0.413320    0.203257    0.055487
  C     -2.611425    1.286190    0.277361
  H     -3.006649    2.276885    0.465790
  H     -2.964256    0.915259   -0.682001
  H     -2.953114    0.591798    1.041240
  N      3.856100    1.079562    0.184136
  H      4.249305    0.164172    0.012417
  C      4.777628    2.127677    0.365589
  O      5.974774    1.909382    0.312709
  C      4.138561    3.407140    0.606196
  H      4.758096    4.274065    0.757673
  C      2.791477    3.487130    0.635577
  H      2.268637    4.415577    0.810876
  N      1.987747    2.396448    0.445171
  H      0.963695    2.466396    0.468962
  C      2.487679    1.146225    0.210999
  O      1.775647    0.156720    0.037529

 Multiplicity           Mult            ....    1
 Number of Electrons    NEL             ....   90
 Basis Dimension        Dim             .... 1328

ORBITAL ENERGIES
----------------

  NO   OCC          E(Eh)            E(eV)
   0   2.0000     -20.578878      -559.9797
   1   2.0000     -20.563255      -559.5546
   2   2.0000     -20.561342      -559.5026
   3   2.0000     -20.537732      -558.8601
   4   2.0000     -15.631261      -425.3482
   5   2.0000     -15.612055      -424.8256
   6   2.0000     -11.428983      -310.9984
   7   2.0000     -11.401328      -310.2459
   8   2.0000     -11.378800      -309.6329
   9   2.0000     -11.329639      -308.2951
  10   2.0000     -11.247516      -306.0605
  11   2.0000     -11.245385      -306.0025
  12   2.0000      -1.474057       -40.1111
  13   2.0000      -1.447144       -39.3788
  14   2.0000      -1.400055       -38.0974
  15   2.0000      -1.370320       -37.2883
  16   2.0000      -1.310977       -35.6735
  17   2.0000      -1.245304       -33.8864
  18   2.0000      -1.083294       -29.4779
  19   2.0000      -1.034565       -28.1519
  20   2.0000      -0.929752       -25.2998
  21   2.0000      -0.911580       -24.8054
  22   2.0000      -0.833050       -22.6684
  23   2.0000      -0.825133       -22.4530
  24   2.0000      -0.770243       -20.9594
  25   2.0000      -0.740638       -20.1538
  26   2.0000      -0.700698       -19.0670
  27   2.0000      -0.699168       -19.0253
  28   2.0000      -0.677456       -18.4345
  29   2.0000      -0.675167       -18.3722
  30   2.0000      -0.653127       -17.7725
  31   2.0000      -0.647434       -17.6176
  32   2.0000      -0.607711       -16.5367
  33   2.0000      -0.604659       -16.4536
  34   2.0000      -0.582637       -15.8544
  35   2.0000      -0.575379       -15.6568
  36   2.0000      -0.570009       -15.5107
  37   2.0000      -0.559390       -15.2218
  38   2.0000      -0.525334       -14.2951
  39   2.0000      -0.496578       -13.5126
  40   2.0000      -0.490267       -13.3408
  41   2.0000      -0.465236       -12.6597
  42   2.0000      -0.450126       -12.2485
  43   2.0000      -0.449424       -12.2295
  44   2.0000      -0.362509        -9.8644
  45   0.0000       0.018884         0.5139
  46   0.0000       0.026103         0.7103
  47   0.0000       0.032935         0.8962
  48   0.0000       0.038295         1.0421
  49   0.0000       0.039487         1.0745

MULLIKEN ATOMIC CHARGES
-----------------------
   0 C :    0.974383
   1 O :   -0.683981
   2 O :   -0.680152
   3 H :    0.277340
   4 C :   -0.700237
   5 H :    0.328928
   6 H :    0.289631
   7 H :    0.288654
   8 N :   -0.656009
   9 H :    0.129841
  10 C :    1.114153
  11 O :   -0.828702
  12 C :   -0.365187
  13 H :    0.279986
  14 C :   -0.373962
  15 H :    0.300364
  16 N :   -0.570173
  17 H :    0.237743
  18 C :    1.364785
  19 O :   -0.727406
Sum of atomic charges:    0.0000000

LOEWDIN ATOMIC CHARGES
----------------------
   0 C :   -0.839445
   1 O :    0.979230
   2 O :    1.275300
   3 H :   -1.442993
   4 C :    0.892232
   5 H :   -0.322682
   6 H :   -0.301033
   7 H :   -0.301060
   8 N :    0.805889
   9 H :   -0.511177
  10 C :   -0.858803
  11 O :    0.681236
  12 C :    0.338279
  13 H :   -0.355497
  14 C :    0.259353
  15 H :   -0.290040
  16 N :    0.816078
  17 H :   -1.077680
  18 C :   -0.765096
  19 O :    1.017910

  Mayer bond orders larger than 0.100000
B(  0-C ,  1-O ) :   1.5090 B(  0-C ,  2-O ) :   0.9601 B(  0-C ,  4-C ) :   0.6341
B(  0-C ,  5-H ) :  -0.1077 B(  2-O ,  3-H ) :   0.9034 B(  2-O , 19-O ) :  -0.1291
B(  4-C ,  5-H ) :   0.9720 B(  4-C ,  6-H ) :   0.9479 B(  4-C ,  7-H ) :   0.9492
B(  8-N ,  9-H ) :   1.1865 B(  8-N , 10-C ) :   1.0230 B(  8-N , 11-O ) :   0.1604
B(  8-N , 18-C ) :   1.0354 B(  8-N , 19-O ) :   0.1066 B( 10-C , 11-O ) :   1.0227
B( 10-C , 12-C ) :   1.1538 B( 11-O , 12-C ) :   0.2758 B( 12-C , 13-H ) :   1.0149
B( 12-C , 14-C ) :   1.4488 B( 13-H , 14-C ) :  -0.1112 B( 14-C , 15-H ) :   1.0215
B( 14-C , 16-N ) :   1.1196 B( 16-N , 17-H ) :   0.8979 B( 16-N , 18-C ) :   1.2288
B( 16-N , 19-O ) :   0.2052 B( 18-C , 19-O ) :   1.2679

MP2 TOTAL ENERGY:     -643.043827810 Eh
FINAL SINGLE POINT ENERGY      -643.043827809979

DIPOLE MOMENT
-------------
                                X             Y             Z
Electronic contribution:      8.79138      -0.88556      -0.23184
Nuclear contribution   :    -10.39338       1.66446       0.38785
                        -----------------------------------------
Total Dipole Moment    :     -1.60200       0.77890       0.15601
                        -----------------------------------------
Magnitude (a.u.)       :      1.78814
Magnitude (Debye)      :      4.54508

Rotational constants in cm-1:     0.093241     0.014624     0.012671
Rotational constants in MHz :  2795.301014   438.414553   379.859538

                             ****ORCA TERMINATED NORMALLY****
TOTAL RUN TIME: 0 days 6 hours 16 minutes 25 seconds 199 msec
