                         Program Version 5.0.4 -  RELEASE  -
|  1> ! ri-mp2 aug-cc-pvdz aug-cc-pvdz/c tightscf
|  2> %pal nprocs 16 end
|  3> %maxcore 3800
|  4> %base "DZ_S66by10_27_1.05_dimer"
|  5>
|  6> *xyz 0 1
|  7> C    0.81874699    0.86417234    0.18828612
|  8> H    1.46611361    1.71666767    0.34472141
|  9> C    1.36899712   -0.39052394   -0.06669818
| 10> H    2.44303637   -0.51186194   -0.11057444
| 11> C    0.53437860   -1.48849320   -0.27188804
| 12> H    0.96084825   -2.46156422   -0.47550749
| 13> C   -0.84911561   -1.33050735   -0.21989643
| 14> H   -1.49706942   -2.18186028   -0.37955321
| 15> C   -1.39948546   -0.07603020    0.04043417
| 16> H   -2.47268667    0.04490778    0.09338206
| 17> C   -0.56529230    1.02140336    0.24227921
| 18> H   -0.99255667    1.99366131    0.44625817
| 19> N   -2.42051525    0.17295032    3.60074019
| 20> C   -1.80562932    1.33061813    3.88080438
| 21> H   -2.45323337    2.18378958    4.04331648
| 22> C   -0.42341442    1.47146586    3.97097520
| 23> H    0.00843434    2.43511598    4.20219150
| 24> C    0.37753697    0.35448656    3.75676129
| 25> H    1.45510614    0.42487084    3.81159580
| 26> C   -0.24301493   -0.85416848    3.46310171
| 27> H    0.33275958   -1.74979036    3.27902677
| 28> C   -1.63352921   -0.89220636    3.39765229
| 29> H   -2.14238213   -1.82065974    3.16880962
| 30> *
| 31>
| 32> $new_job
| 33> ! ri-mp2 aug-cc-pvtz aug-cc-pvtz/c tightscf
| 34> %pal nprocs 16 end
| 35> %maxcore 3800
| 36> %base "TZ_S66by10_27_1.05_dimer"
| 37>
| 38> *xyz 0 1
| 39> C    0.81874699    0.86417234    0.18828612
| 40> H    1.46611361    1.71666767    0.34472141
| 41> C    1.36899712   -0.39052394   -0.06669818
| 42> H    2.44303637   -0.51186194   -0.11057444
| 43> C    0.53437860   -1.48849320   -0.27188804
| 44> H    0.96084825   -2.46156422   -0.47550749
| 45> C   -0.84911561   -1.33050735   -0.21989643
| 46> H   -1.49706942   -2.18186028   -0.37955321
| 47> C   -1.39948546   -0.07603020    0.04043417
| 48> H   -2.47268667    0.04490778    0.09338206
| 49> C   -0.56529230    1.02140336    0.24227921
| 50> H   -0.99255667    1.99366131    0.44625817
| 51> N   -2.42051525    0.17295032    3.60074019
| 52> C   -1.80562932    1.33061813    3.88080438
| 53> H   -2.45323337    2.18378958    4.04331648
| 54> C   -0.42341442    1.47146586    3.97097520
| 55> H    0.00843434    2.43511598    4.20219150
| 56> C    0.37753697    0.35448656    3.75676129
| 57> H    1.45510614    0.42487084    3.81159580
| 58> C   -0.24301493   -0.85416848    3.46310171
| 59> H    0.33275958   -1.74979036    3.27902677
| 60> C   -1.63352921   -0.89220636    3.39765229
| 61> H   -2.14238213   -1.82065974    3.16880962
| 62> *
| 63>
| 64> $new_job
| 65> ! ri-mp2 aug-cc-pvqz aug-cc-pvqz/c tightscf
| 66> %pal nprocs 16 end
| 67> %maxcore 3800
| 68> %base "QZ_S66by10_27_1.05_dimer"
| 69>
| 70> *xyz 0 1
| 71> C    0.81874699    0.86417234    0.18828612
| 72> H    1.46611361    1.71666767    0.34472141
| 73> C    1.36899712   -0.39052394   -0.06669818
| 74> H    2.44303637   -0.51186194   -0.11057444
| 75> C    0.53437860   -1.48849320   -0.27188804
| 76> H    0.96084825   -2.46156422   -0.47550749
| 77> C   -0.84911561   -1.33050735   -0.21989643
| 78> H   -1.49706942   -2.18186028   -0.37955321
| 79> C   -1.39948546   -0.07603020    0.04043417
| 80> H   -2.47268667    0.04490778    0.09338206
| 81> C   -0.56529230    1.02140336    0.24227921
| 82> H   -0.99255667    1.99366131    0.44625817
| 83> N   -2.42051525    0.17295032    3.60074019
| 84> C   -1.80562932    1.33061813    3.88080438
| 85> H   -2.45323337    2.18378958    4.04331648
| 86> C   -0.42341442    1.47146586    3.97097520
| 87> H    0.00843434    2.43511598    4.20219150
| 88> C    0.37753697    0.35448656    3.75676129
| 89> H    1.45510614    0.42487084    3.81159580
| 90> C   -0.24301493   -0.85416848    3.46310171
| 91> H    0.33275958   -1.74979036    3.27902677
| 92> C   -1.63352921   -0.89220636    3.39765229
| 93> H   -2.14238213   -1.82065974    3.16880962
| 94> *
| 95>
| 96>
| 97>
| 98>
| 99>                          ****END OF INPUT****
 Total Charge           Charge          ....    0
 Multiplicity           Mult            ....    1
 Number of Electrons    NEL             ....   84
MP2 TOTAL ENERGY:     -479.113605424 Eh
FINAL SINGLE POINT ENERGY      -479.113605423857
MP2 TOTAL ENERGY:     -479.531966570 Eh
FINAL SINGLE POINT ENERGY      -479.531966569841

CARTESIAN COORDINATES (ANGSTROEM)
---------------------------------
  C      0.818747    0.864172    0.188286
  H      1.466114    1.716668    0.344721
  C      1.368997   -0.390524   -0.066698
  H      2.443036   -0.511862   -0.110574
  C      0.534379   -1.488493   -0.271888
  H      0.960848   -2.461564   -0.475507
  C     -0.849116   -1.330507   -0.219896
  H     -1.497069   -2.181860   -0.379553
  C     -1.399485   -0.076030    0.040434
  H     -2.472687    0.044908    0.093382
  C     -0.565292    1.021403    0.242279
  H     -0.992557    1.993661    0.446258
  N     -2.420515    0.172950    3.600740
  C     -1.805629    1.330618    3.880804
  H     -2.453233    2.183790    4.043316
  C     -0.423414    1.471466    3.970975
  H      0.008434    2.435116    4.202191
  C      0.377537    0.354487    3.756761
  H      1.455106    0.424871    3.811596
  C     -0.243015   -0.854168    3.463102
  H      0.332760   -1.749790    3.279027
  C     -1.633529   -0.892206    3.397652
  H     -2.142382   -1.820660    3.168810

 Multiplicity           Mult            ....    1
 Number of Electrons    NEL             ....   84
 Basis Dimension        Dim             .... 1466

ORBITAL ENERGIES
----------------

  NO   OCC          E(Eh)            E(eV)
   0   2.0000     -15.559273      -423.3893
   1   2.0000     -11.268865      -306.6414
   2   2.0000     -11.268125      -306.6213
   3   2.0000     -11.252840      -306.2054
   4   2.0000     -11.235281      -305.7275
   5   2.0000     -11.233963      -305.6917
   6   2.0000     -11.233665      -305.6836
   7   2.0000     -11.233162      -305.6699
   8   2.0000     -11.232456      -305.6507
   9   2.0000     -11.231880      -305.6350
  10   2.0000     -11.231159      -305.6154
  11   2.0000     -11.230112      -305.5869
  12   2.0000      -1.250657       -34.0321
  13   2.0000      -1.148458       -31.2511
  14   2.0000      -1.083532       -29.4844
  15   2.0000      -1.027534       -27.9606
  16   2.0000      -1.012993       -27.5649
  17   2.0000      -1.012808       -27.5599
  18   2.0000      -0.853518       -23.2254
  19   2.0000      -0.850044       -23.1309
  20   2.0000      -0.822545       -22.3826
  21   2.0000      -0.822352       -22.3773
  22   2.0000      -0.716576       -19.4990
  23   2.0000      -0.708115       -19.2688
  24   2.0000      -0.654756       -17.8168
  25   2.0000      -0.648672       -17.6513
  26   2.0000      -0.642707       -17.4890
  27   2.0000      -0.617487       -16.8027
  28   2.0000      -0.592665       -16.1272
  29   2.0000      -0.586745       -15.9661
  30   2.0000      -0.586450       -15.9581
  31   2.0000      -0.571581       -15.5535
  32   2.0000      -0.540311       -14.7026
  33   2.0000      -0.514388       -13.9972
  34   2.0000      -0.497437       -13.5360
  35   2.0000      -0.493415       -13.4265
  36   2.0000      -0.493347       -13.4246
  37   2.0000      -0.414967       -11.2918
  38   2.0000      -0.379598       -10.3294
  39   2.0000      -0.345915        -9.4128
  40   2.0000      -0.334818        -9.1109
  41   2.0000      -0.329735        -8.9725
  42   0.0000       0.022335         0.6078
  43   0.0000       0.026440         0.7195
  44   0.0000       0.029928         0.8144
  45   0.0000       0.035467         0.9651
  46   0.0000       0.038506         1.0478

MULLIKEN ATOMIC CHARGES
-----------------------
   0 C :   -0.305121
   1 H :    0.295043
   2 C :   -0.188351
   3 H :    0.320728
   4 C :   -0.359985
   5 H :    0.304011
   6 C :   -0.279318
   7 H :    0.325768
   8 C :   -0.307437
   9 H :    0.275332
  10 C :   -0.371472
  11 H :    0.306734
  12 N :   -0.786631
  13 C :   -0.192631
  14 H :    0.468445
  15 C :   -0.237947
  16 H :    0.302957
  17 C :   -0.301238
  18 H :    0.358967
  19 C :   -0.352984
  20 H :    0.325057
  21 C :   -0.057705
  22 H :    0.457779
Sum of atomic charges:   -0.0000000

LOEWDIN ATOMIC CHARGES
----------------------
   0 C :    0.319961
   1 H :   -0.320225
   2 C :    0.325291
   3 H :   -0.324637
   4 C :    0.325028
   5 H :   -0.324579
   6 C :    0.323205
   7 H :   -0.321174
   8 C :    0.315244
   9 H :   -0.316009
  10 C :    0.314680
  11 H :   -0.317273
  12 N :    0.594348
  13 C :    0.062503
  14 H :   -0.353804
  15 C :    0.320411
  16 H :   -0.327210
  17 C :    0.315495
  18 H :   -0.306549
  19 C :    0.310784
  20 H :   -0.320266
  21 C :    0.051878
  22 H :   -0.347103

  Mayer bond orders larger than 0.100000
B(  0-C ,  1-H ) :   1.0503 B(  0-C ,  2-C ) :   1.1703 B(  0-C ,  6-C ) :   0.1829
B(  0-C , 10-C ) :   1.2046 B(  2-C ,  3-H ) :   1.0401 B(  2-C ,  4-C ) :   1.2365
B(  2-C ,  8-C ) :   0.1891 B(  4-C ,  5-H ) :   1.0456 B(  4-C ,  6-C ) :   1.2061
B(  4-C , 10-C ) :   0.1684 B(  6-C ,  7-H ) :   1.0152 B(  6-C ,  8-C ) :   1.2205
B(  8-C ,  9-H ) :   1.0644 B(  8-C , 10-C ) :   1.2271 B( 10-C , 11-H ) :   1.0209
B( 12-N , 13-C ) :   1.1898 B( 12-N , 14-H ) :  -0.1364 B( 12-N , 15-C ) :   0.1115
B( 12-N , 21-C ) :   1.0570 B( 12-N , 22-H ) :  -0.1591 B( 13-C , 14-H ) :   0.8848
B( 13-C , 15-C ) :   1.2272 B( 13-C , 19-C ) :   0.1253 B( 15-C , 16-H ) :   1.0246
B( 15-C , 17-C ) :   1.1538 B( 17-C , 18-H ) :   0.9498 B( 17-C , 19-C ) :   1.2191
B( 19-C , 20-H ) :   0.9780 B( 19-C , 21-C ) :   1.1291 B( 19-C , 22-H ) :  -0.1101
B( 21-C , 22-H ) :   0.9164

MP2 TOTAL ENERGY:     -479.664768444 Eh
FINAL SINGLE POINT ENERGY      -479.664768444003

DIPOLE MOMENT
-------------
                                X             Y             Z
Electronic contribution:     -1.83142       0.15179       1.72565
Nuclear contribution   :      2.70521      -0.10231      -1.72805
                        -----------------------------------------
Total Dipole Moment    :      0.87379       0.04948      -0.00239
                        -----------------------------------------
Magnitude (a.u.)       :      0.87519
Magnitude (Debye)      :      2.22455

Rotational constants in cm-1:     0.054454     0.022205     0.021126
Rotational constants in MHz :  1632.484255   665.703275   633.332778

                             ****ORCA TERMINATED NORMALLY****
TOTAL RUN TIME: 0 days 1 hours 46 minutes 11 seconds 333 msec
