                         Program Version 5.0.4 -  RELEASE  -
|  1> ! ri-mp2 aug-cc-pvdz aug-cc-pvdz/c tightscf
|  2> %pal nprocs 16 end
|  3> %maxcore 3800
|  4> %base "DZ_S66by10_53_0.7_dimer"
|  5>
|  6> *xyz 0 1
|  7> C    0.85556074    0.35853244    1.04975426
|  8> H    1.51382550    0.90267956    1.71276582
|  9> C    1.34289713   -0.67537866    0.25115740
| 10> H    2.39288384   -0.93334472    0.28196305
| 11> C    0.47780661   -1.37670110   -0.58781577
| 12> H    0.85608399   -2.17890753   -1.20682428
| 13> C   -0.87482983   -1.04255615   -0.63045178
| 14> H   -1.54540573   -1.58570014   -1.28241614
| 15> C   -1.36239729   -0.00701391    0.16584645
| 16> H   -2.41157102    0.25346723    0.13077885
| 17> C   -0.49844404    0.69315695    1.00699199
| 18> H   -0.86611090    1.49033989    1.63803696
| 19> C    0.20133949    0.87608534    4.13097970
| 20> O    0.44782884    1.91951159    3.54374042
| 21> N   -0.10270776   -0.27892119    3.47981236
| 22> H   -0.07750745   -0.28593652    2.47317575
| 23> H   -0.25848424   -1.13441351    3.97551407
| 24> C    0.22418419    0.78119351    5.63939718
| 25> H    1.25589799    0.86540580    5.97447097
| 26> H   -0.19771972   -0.14544948    6.02042285
| 27> H   -0.32528048    1.62503982    6.04616768
| 28> *
| 29>
| 30> $new_job
| 31> ! ri-mp2 aug-cc-pvtz aug-cc-pvtz/c tightscf
| 32> %pal nprocs 16 end
| 33> %maxcore 3800
| 34> %base "TZ_S66by10_53_0.7_dimer"
| 35>
| 36> *xyz 0 1
| 37> C    0.85556074    0.35853244    1.04975426
| 38> H    1.51382550    0.90267956    1.71276582
| 39> C    1.34289713   -0.67537866    0.25115740
| 40> H    2.39288384   -0.93334472    0.28196305
| 41> C    0.47780661   -1.37670110   -0.58781577
| 42> H    0.85608399   -2.17890753   -1.20682428
| 43> C   -0.87482983   -1.04255615   -0.63045178
| 44> H   -1.54540573   -1.58570014   -1.28241614
| 45> C   -1.36239729   -0.00701391    0.16584645
| 46> H   -2.41157102    0.25346723    0.13077885
| 47> C   -0.49844404    0.69315695    1.00699199
| 48> H   -0.86611090    1.49033989    1.63803696
| 49> C    0.20133949    0.87608534    4.13097970
| 50> O    0.44782884    1.91951159    3.54374042
| 51> N   -0.10270776   -0.27892119    3.47981236
| 52> H   -0.07750745   -0.28593652    2.47317575
| 53> H   -0.25848424   -1.13441351    3.97551407
| 54> C    0.22418419    0.78119351    5.63939718
| 55> H    1.25589799    0.86540580    5.97447097
| 56> H   -0.19771972   -0.14544948    6.02042285
| 57> H   -0.32528048    1.62503982    6.04616768
| 58> *
| 59>
| 60> $new_job
| 61> ! ri-mp2 aug-cc-pvqz aug-cc-pvqz/c tightscf
| 62> %pal nprocs 16 end
| 63> %maxcore 3800
| 64> %base "QZ_S66by10_53_0.7_dimer"
| 65>
| 66> *xyz 0 1
| 67> C    0.85556074    0.35853244    1.04975426
| 68> H    1.51382550    0.90267956    1.71276582
| 69> C    1.34289713   -0.67537866    0.25115740
| 70> H    2.39288384   -0.93334472    0.28196305
| 71> C    0.47780661   -1.37670110   -0.58781577
| 72> H    0.85608399   -2.17890753   -1.20682428
| 73> C   -0.87482983   -1.04255615   -0.63045178
| 74> H   -1.54540573   -1.58570014   -1.28241614
| 75> C   -1.36239729   -0.00701391    0.16584645
| 76> H   -2.41157102    0.25346723    0.13077885
| 77> C   -0.49844404    0.69315695    1.00699199
| 78> H   -0.86611090    1.49033989    1.63803696
| 79> C    0.20133949    0.87608534    4.13097970
| 80> O    0.44782884    1.91951159    3.54374042
| 81> N   -0.10270776   -0.27892119    3.47981236
| 82> H   -0.07750745   -0.28593652    2.47317575
| 83> H   -0.25848424   -1.13441351    3.97551407
| 84> C    0.22418419    0.78119351    5.63939718
| 85> H    1.25589799    0.86540580    5.97447097
| 86> H   -0.19771972   -0.14544948    6.02042285
| 87> H   -0.32528048    1.62503982    6.04616768
| 88> *
| 89>
| 90>
| 91>
| 92>
| 93>                          ****END OF INPUT****
 Total Charge           Charge          ....    0
 Multiplicity           Mult            ....    1
 Number of Electrons    NEL             ....   74
MP2 TOTAL ENERGY:     -440.199291888 Eh
FINAL SINGLE POINT ENERGY      -440.199291888443
MP2 TOTAL ENERGY:     -440.589906360 Eh
FINAL SINGLE POINT ENERGY      -440.589906359537

CARTESIAN COORDINATES (ANGSTROEM)
---------------------------------
  C      0.855561    0.358532    1.049754
  H      1.513825    0.902680    1.712766
  C      1.342897   -0.675379    0.251157
  H      2.392884   -0.933345    0.281963
  C      0.477807   -1.376701   -0.587816
  H      0.856084   -2.178908   -1.206824
  C     -0.874830   -1.042556   -0.630452
  H     -1.545406   -1.585700   -1.282416
  C     -1.362397   -0.007014    0.165846
  H     -2.411571    0.253467    0.130779
  C     -0.498444    0.693157    1.006992
  H     -0.866111    1.490340    1.638037
  C      0.201339    0.876085    4.130980
  O      0.447829    1.919512    3.543740
  N     -0.102708   -0.278921    3.479812
  H     -0.077507   -0.285937    2.473176
  H     -0.258484   -1.134414    3.975514
  C      0.224184    0.781194    5.639397
  H      1.255898    0.865406    5.974471
  H     -0.197720   -0.145449    6.020423
  H     -0.325280    1.625040    6.046168

 Multiplicity           Mult            ....    1
 Number of Electrons    NEL             ....   74
 Basis Dimension        Dim             .... 1306

ORBITAL ENERGIES
----------------

  NO   OCC          E(Eh)            E(eV)
   0   2.0000     -20.508701      -558.0701
   1   2.0000     -15.563115      -423.4939
   2   2.0000     -11.347454      -308.7799
   3   2.0000     -11.238050      -305.8029
   4   2.0000     -11.237031      -305.7752
   5   2.0000     -11.235899      -305.7443
   6   2.0000     -11.235682      -305.7385
   7   2.0000     -11.231769      -305.6320
   8   2.0000     -11.229707      -305.5759
   9   2.0000     -11.228427      -305.5410
  10   2.0000      -1.375356       -37.4253
  11   2.0000      -1.206722       -32.8366
  12   2.0000      -1.153800       -31.3965
  13   2.0000      -1.024330       -27.8734
  14   2.0000      -1.016688       -27.6655
  15   2.0000      -0.998372       -27.1671
  16   2.0000      -0.832080       -22.6421
  17   2.0000      -0.825402       -22.4603
  18   2.0000      -0.791452       -21.5365
  19   2.0000      -0.727617       -19.7995
  20   2.0000      -0.706692       -19.2301
  21   2.0000      -0.664915       -18.0932
  22   2.0000      -0.647232       -17.6121
  23   2.0000      -0.620416       -16.8824
  24   2.0000      -0.611686       -16.6448
  25   2.0000      -0.589327       -16.0364
  26   2.0000      -0.587887       -15.9972
  27   2.0000      -0.583316       -15.8728
  28   2.0000      -0.561432       -15.2773
  29   2.0000      -0.523324       -14.2404
  30   2.0000      -0.499067       -13.5803
  31   2.0000      -0.495146       -13.4736
  32   2.0000      -0.490433       -13.3454
  33   2.0000      -0.421430       -11.4677
  34   2.0000      -0.409096       -11.1321
  35   2.0000      -0.339822        -9.2470
  36   2.0000      -0.334993        -9.1156
  37   0.0000       0.020125         0.5476
  38   0.0000       0.026881         0.7315
  39   0.0000       0.029534         0.8036
  40   0.0000       0.036634         0.9969
  41   0.0000       0.039307         1.0696

MULLIKEN ATOMIC CHARGES
-----------------------
   0 C :   -0.094228
   1 H :    0.379933
   2 C :   -0.546112
   3 H :    0.278371
   4 C :   -0.375630
   5 H :    0.331654
   6 C :   -0.368614
   7 H :    0.338510
   8 C :   -0.521677
   9 H :    0.275915
  10 C :   -0.116646
  11 H :    0.362167
  12 C :    1.065529
  13 O :   -0.856381
  14 N :   -0.856609
  15 H :    0.541629
  16 H :    0.187635
  17 C :   -0.766264
  18 H :    0.257531
  19 H :    0.229934
  20 H :    0.253356
Sum of atomic charges:   -0.0000000

LOEWDIN ATOMIC CHARGES
----------------------
   0 C :    0.309007
   1 H :   -0.345479
   2 C :    0.381074
   3 H :   -0.314583
   4 C :    0.344968
   5 H :   -0.325850
   6 C :    0.345293
   7 H :   -0.325854
   8 C :    0.381847
   9 H :   -0.314064
  10 C :    0.309242
  11 H :   -0.343590
  12 C :   -0.787528
  13 O :    0.741982
  14 N :    1.271914
  15 H :   -0.856158
  16 H :   -0.456070
  17 C :    0.899867
  18 H :   -0.295176
  19 H :   -0.313821
  20 H :   -0.307021

  Mayer bond orders larger than 0.100000
B(  0-C ,  1-H ) :   0.9342 B(  0-C ,  2-C ) :   1.1812 B(  0-C ,  4-C ) :  -0.1047
B(  0-C ,  6-C ) :   0.1196 B(  0-C , 10-C ) :   1.1187 B(  2-C ,  3-H ) :   1.0512
B(  2-C ,  4-C ) :   1.2912 B(  2-C ,  8-C ) :   0.1466 B(  4-C ,  5-H ) :   1.0105
B(  4-C ,  6-C ) :   1.1941 B(  4-C , 10-C ) :   0.1285 B(  6-C ,  7-H ) :   1.0012
B(  6-C ,  8-C ) :   1.2783 B(  8-C ,  9-H ) :   1.0568 B(  8-C , 10-C ) :   1.1934
B( 10-C , 11-H ) :   0.9525 B( 12-C , 13-O ) :   1.2238 B( 12-C , 14-N ) :   1.0846
B( 12-C , 17-C ) :   0.7584 B( 13-O , 14-N ) :   0.1768 B( 14-N , 15-H ) :   0.5489
B( 14-N , 16-H ) :   1.1304 B( 17-C , 18-H ) :   0.9457 B( 17-C , 19-H ) :   1.0145
B( 17-C , 20-H ) :   1.0099

MP2 TOTAL ENERGY:     -440.714006071 Eh
FINAL SINGLE POINT ENERGY      -440.714006070562

DIPOLE MOMENT
-------------
                                X             Y             Z
Electronic contribution:      0.19447       1.21777      -3.90622
Nuclear contribution   :     -0.46679      -2.60951       4.35560
                        -----------------------------------------
Total Dipole Moment    :     -0.27232      -1.39174       0.44938
                        -----------------------------------------
Magnitude (a.u.)       :      1.48763
Magnitude (Debye)      :      3.78126

Rotational constants in cm-1:     0.107642     0.022045     0.021378
Rotational constants in MHz :  3227.029387   660.904596   640.885304

                             ****ORCA TERMINATED NORMALLY****
TOTAL RUN TIME: 0 days 0 hours 56 minutes 24 seconds 860 msec
