                         Program Version 5.0.4 -  RELEASE  -
|  1> ! ri-mp2 aug-cc-pvdz aug-cc-pvdz/c tightscf
|  2> %pal nprocs 16 end
|  3> %maxcore 3800
|  4> %base "DZ_S66by10_40_0.7_dimer"
|  5>
|  6> *xyz 0 1
|  7> C    0.31195353    0.56102334    0.49669886
|  8> H    0.74213608    1.55336911    0.48156571
|  9> C    1.14218235   -0.55807461    0.53606185
| 10> H    2.21651131   -0.43425014    0.55235015
| 11> C    0.58780415   -1.83668704    0.55414435
| 12> H    1.23191239   -2.70484153    0.58522179
| 13> C   -0.79665772   -1.99637562    0.53296300
| 14> H   -1.22677442   -2.98844427    0.54863708
| 15> C   -1.62689297   -0.87747365    0.49416828
| 16> H   -2.70112211   -1.00134997    0.47981498
| 17> C   -1.07266525    0.40120590    0.47597397
| 18> H   -1.71697357    1.26940117    0.44591995
| 19> C    0.21200965    0.53932058    3.80570337
| 20> C    1.65825833    0.71810794    3.35074188
| 21> H    2.07411505    1.65138582    3.73416486
| 22> H    2.28165765   -0.10250769    3.70959575
| 23> H    1.71886747    0.73749923    2.26180767
| 24> C    0.15761829    0.50794944    5.33056869
| 25> H   -0.86817174    0.38052902    5.67965646
| 26> H    0.75302419   -0.31773743    5.72312242
| 27> H    0.54591277    1.43583407    5.75347427
| 28> C   -0.33737038   -0.77017139    3.24540735
| 29> H   -1.37224398   -0.92044643    3.55807894
| 30> H    0.24908620   -1.61914516    3.60121862
| 31> H   -0.30859055   -0.77062417    2.15509311
| 32> C   -0.62936313    1.70389227    3.28949790
| 33> H   -0.60782217    1.73992266    2.19949933
| 34> H   -1.66915228    1.60012270    3.60398038
| 35> H   -0.25371053    2.65458674    3.67160481
| 36> *
| 37>
| 38> $new_job
| 39> ! ri-mp2 aug-cc-pvtz aug-cc-pvtz/c tightscf
| 40> %pal nprocs 16 end
| 41> %maxcore 3800
| 42> %base "TZ_S66by10_40_0.7_dimer"
| 43>
| 44> *xyz 0 1
| 45> C    0.31195353    0.56102334    0.49669886
| 46> H    0.74213608    1.55336911    0.48156571
| 47> C    1.14218235   -0.55807461    0.53606185
| 48> H    2.21651131   -0.43425014    0.55235015
| 49> C    0.58780415   -1.83668704    0.55414435
| 50> H    1.23191239   -2.70484153    0.58522179
| 51> C   -0.79665772   -1.99637562    0.53296300
| 52> H   -1.22677442   -2.98844427    0.54863708
| 53> C   -1.62689297   -0.87747365    0.49416828
| 54> H   -2.70112211   -1.00134997    0.47981498
| 55> C   -1.07266525    0.40120590    0.47597397
| 56> H   -1.71697357    1.26940117    0.44591995
| 57> C    0.21200965    0.53932058    3.80570337
| 58> C    1.65825833    0.71810794    3.35074188
| 59> H    2.07411505    1.65138582    3.73416486
| 60> H    2.28165765   -0.10250769    3.70959575
| 61> H    1.71886747    0.73749923    2.26180767
| 62> C    0.15761829    0.50794944    5.33056869
| 63> H   -0.86817174    0.38052902    5.67965646
| 64> H    0.75302419   -0.31773743    5.72312242
| 65> H    0.54591277    1.43583407    5.75347427
| 66> C   -0.33737038   -0.77017139    3.24540735
| 67> H   -1.37224398   -0.92044643    3.55807894
| 68> H    0.24908620   -1.61914516    3.60121862
| 69> H   -0.30859055   -0.77062417    2.15509311
| 70> C   -0.62936313    1.70389227    3.28949790
| 71> H   -0.60782217    1.73992266    2.19949933
| 72> H   -1.66915228    1.60012270    3.60398038
| 73> H   -0.25371053    2.65458674    3.67160481
| 74> *
| 75>
| 76> $new_job
| 77> ! ri-mp2 aug-cc-pvqz aug-cc-pvqz/c tightscf
| 78> %pal nprocs 16 end
| 79> %maxcore 3800
| 80> %base "QZ_S66by10_40_0.7_dimer"
| 81>
| 82> *xyz 0 1
| 83> C    0.31195353    0.56102334    0.49669886
| 84> H    0.74213608    1.55336911    0.48156571
| 85> C    1.14218235   -0.55807461    0.53606185
| 86> H    2.21651131   -0.43425014    0.55235015
| 87> C    0.58780415   -1.83668704    0.55414435
| 88> H    1.23191239   -2.70484153    0.58522179
| 89> C   -0.79665772   -1.99637562    0.53296300
| 90> H   -1.22677442   -2.98844427    0.54863708
| 91> C   -1.62689297   -0.87747365    0.49416828
| 92> H   -2.70112211   -1.00134997    0.47981498
| 93> C   -1.07266525    0.40120590    0.47597397
| 94> H   -1.71697357    1.26940117    0.44591995
| 95> C    0.21200965    0.53932058    3.80570337
| 96> C    1.65825833    0.71810794    3.35074188
| 97> H    2.07411505    1.65138582    3.73416486
| 98> H    2.28165765   -0.10250769    3.70959575
| 99> H    1.71886747    0.73749923    2.26180767
|100> C    0.15761829    0.50794944    5.33056869
|101> H   -0.86817174    0.38052902    5.67965646
|102> H    0.75302419   -0.31773743    5.72312242
|103> H    0.54591277    1.43583407    5.75347427
|104> C   -0.33737038   -0.77017139    3.24540735
|105> H   -1.37224398   -0.92044643    3.55807894
|106> H    0.24908620   -1.61914516    3.60121862
|107> H   -0.30859055   -0.77062417    2.15509311
|108> C   -0.62936313    1.70389227    3.28949790
|109> H   -0.60782217    1.73992266    2.19949933
|110> H   -1.66915228    1.60012270    3.60398038
|111> H   -0.25371053    2.65458674    3.67160481
|112> *
|113>
|114>
|115>
|116>
|117>                          ****END OF INPUT****
 Total Charge           Charge          ....    0
 Multiplicity           Mult            ....    1
 Number of Electrons    NEL             ....   84
MP2 TOTAL ENERGY:     -428.641677449 Eh
FINAL SINGLE POINT ENERGY      -428.641677449465
MP2 TOTAL ENERGY:     -429.040464618 Eh
FINAL SINGLE POINT ENERGY      -429.040464617609

CARTESIAN COORDINATES (ANGSTROEM)
---------------------------------
  C      0.311954    0.561023    0.496699
  H      0.742136    1.553369    0.481566
  C      1.142182   -0.558075    0.536062
  H      2.216511   -0.434250    0.552350
  C      0.587804   -1.836687    0.554144
  H      1.231912   -2.704842    0.585222
  C     -0.796658   -1.996376    0.532963
  H     -1.226774   -2.988444    0.548637
  C     -1.626893   -0.877474    0.494168
  H     -2.701122   -1.001350    0.479815
  C     -1.072665    0.401206    0.475974
  H     -1.716974    1.269401    0.445920
  C      0.212010    0.539321    3.805703
  C      1.658258    0.718108    3.350742
  H      2.074115    1.651386    3.734165
  H      2.281658   -0.102508    3.709596
  H      1.718867    0.737499    2.261808
  C      0.157618    0.507949    5.330569
  H     -0.868172    0.380529    5.679656
  H      0.753024   -0.317737    5.723122
  H      0.545913    1.435834    5.753474
  C     -0.337370   -0.770171    3.245407
  H     -1.372244   -0.920446    3.558079
  H      0.249086   -1.619145    3.601219
  H     -0.308591   -0.770624    2.155093
  C     -0.629363    1.703892    3.289498
  H     -0.607822    1.739923    2.199499
  H     -1.669152    1.600123    3.603980
  H     -0.253711    2.654587    3.671605

 Multiplicity           Mult            ....    1
 Number of Electrons    NEL             ....   84
 Basis Dimension        Dim             .... 1708

ORBITAL ENERGIES
----------------

  NO   OCC          E(Eh)            E(eV)
   0   2.0000     -11.238700      -305.8206
   1   2.0000     -11.237720      -305.7939
   2   2.0000     -11.237170      -305.7789
   3   2.0000     -11.236409      -305.7582
   4   2.0000     -11.235831      -305.7425
   5   2.0000     -11.234887      -305.7168
   6   2.0000     -11.212418      -305.1054
   7   2.0000     -11.194269      -304.6115
   8   2.0000     -11.192476      -304.5627
   9   2.0000     -11.192453      -304.5621
  10   2.0000     -11.176400      -304.1253
  11   2.0000      -1.162299       -31.6278
  12   2.0000      -1.093744       -29.7623
  13   2.0000      -1.023248       -27.8440
  14   2.0000      -1.021795       -27.8044
  15   2.0000      -0.920700       -25.0535
  16   2.0000      -0.919300       -25.0154
  17   2.0000      -0.914012       -24.8715
  18   2.0000      -0.830523       -22.5997
  19   2.0000      -0.829994       -22.5853
  20   2.0000      -0.722180       -19.6515
  21   2.0000      -0.718800       -19.5596
  22   2.0000      -0.650152       -17.6915
  23   2.0000      -0.626526       -17.0486
  24   2.0000      -0.617092       -16.7919
  25   2.0000      -0.603429       -16.4201
  26   2.0000      -0.601858       -16.3774
  27   2.0000      -0.592904       -16.1337
  28   2.0000      -0.592573       -16.1247
  29   2.0000      -0.550709       -14.9856
  30   2.0000      -0.543883       -14.7998
  31   2.0000      -0.517778       -14.0895
  32   2.0000      -0.501727       -13.6527
  33   2.0000      -0.500690       -13.6245
  34   2.0000      -0.500366       -13.6156
  35   2.0000      -0.496002       -13.4969
  36   2.0000      -0.481527       -13.1030
  37   2.0000      -0.441698       -12.0192
  38   2.0000      -0.440067       -11.9748
  39   2.0000      -0.410243       -11.1633
  40   2.0000      -0.341224        -9.2852
  41   2.0000      -0.338524        -9.2117
  42   0.0000       0.021194         0.5767
  43   0.0000       0.027836         0.7575
  44   0.0000       0.028243         0.7685
  45   0.0000       0.032636         0.8881
  46   0.0000       0.039849         1.0844

MULLIKEN ATOMIC CHARGES
-----------------------
   0 C :   -0.028902
   1 H :    0.445237
   2 C :   -0.256826
   3 H :    0.296780
   4 C :   -0.639564
   5 H :    0.198551
   6 C :   -0.282214
   7 H :    0.191426
   8 C :   -0.639099
   9 H :    0.197701
  10 C :   -0.255069
  11 H :    0.297296
  12 C :    2.012293
  13 C :   -1.172667
  14 H :    0.152511
  15 H :    0.129569
  16 H :    0.412510
  17 C :   -1.133985
  18 H :    0.196717
  19 H :    0.196938
  20 H :    0.218623
  21 C :   -0.828224
  22 H :    0.162433
  23 H :    0.163012
  24 H :    0.444016
  25 C :   -1.172347
  26 H :    0.411182
  27 H :    0.129372
  28 H :    0.152730
Sum of atomic charges:    0.0000000

LOEWDIN ATOMIC CHARGES
----------------------
   0 C :    0.348305
   1 H :   -0.273597
   2 C :    0.363043
   3 H :   -0.285364
   4 C :    0.370240
   5 H :   -0.294294
   6 C :    0.355597
   7 H :   -0.296261
   8 C :    0.370460
   9 H :   -0.294311
  10 C :    0.362986
  11 H :   -0.285459
  12 C :   -0.272395
  13 C :    0.915158
  14 H :   -0.253162
  15 H :   -0.250131
  16 H :   -0.423129
  17 C :    0.911457
  18 H :   -0.271071
  19 H :   -0.271046
  20 H :   -0.272339
  21 C :    0.874396
  22 H :   -0.232974
  23 H :   -0.232971
  24 H :   -0.651871
  25 C :    0.915158
  26 H :   -0.423160
  27 H :   -0.250094
  28 H :   -0.253170

  Mayer bond orders larger than 0.100000
B(  0-C ,  1-H ) :   0.9139 B(  0-C ,  2-C ) :   1.2005 B(  0-C ,  6-C ) :   0.1336
B(  0-C , 10-C ) :   1.1996 B(  0-C , 24-H ) :  -0.2443 B(  1-H ,  2-C ) :  -0.1221
B(  1-H , 10-C ) :  -0.1221 B(  2-C ,  3-H ) :   1.0849 B(  2-C ,  4-C ) :   1.2127
B(  2-C ,  5-H ) :  -0.1154 B(  2-C ,  8-C ) :   0.1401 B(  2-C , 21-C ) :  -0.1049
B(  4-C ,  5-H ) :   1.1897 B(  4-C ,  6-C ) :   1.3411 B(  4-C ,  8-C ) :   0.1977
B(  4-C , 10-C ) :   0.1396 B(  4-C , 24-H ) :  -0.1875 B(  6-C ,  7-H ) :   1.1790
B(  6-C ,  8-C ) :   1.3409 B(  6-C , 24-H ) :  -0.4027 B(  8-C ,  9-H ) :   1.1905
B(  8-C , 10-C ) :   1.2113 B(  8-C , 24-H ) :  -0.1868 B(  9-H , 10-C ) :  -0.1154
B( 10-C , 11-H ) :   1.0847 B( 10-C , 21-C ) :  -0.1045 B( 12-C , 13-C ) :   0.2776
B( 12-C , 14-H ) :  -0.1213 B( 12-C , 15-H ) :  -0.1441 B( 12-C , 17-C ) :  -0.1112
B( 12-C , 18-H ) :  -0.2085 B( 12-C , 19-H ) :  -0.2084 B( 12-C , 20-H ) :  -0.1879
B( 12-C , 21-C ) :   0.5942 B( 12-C , 24-H ) :  -0.1129 B( 12-C , 25-C ) :   0.2776
B( 12-C , 27-H ) :  -0.1441 B( 12-C , 28-H ) :  -0.1207 B( 13-C , 14-H ) :   1.1755
B( 13-C , 15-H ) :   1.1622 B( 13-C , 16-H ) :   0.8952 B( 13-C , 17-C ) :   0.1634
B( 13-C , 25-C ) :   0.1345 B( 17-C , 18-H ) :   1.1407 B( 17-C , 19-H ) :   1.1405
B( 17-C , 20-H ) :   1.1087 B( 17-C , 25-C ) :   0.1633 B( 21-C , 22-H ) :   1.0451
B( 21-C , 23-H ) :   1.0446 B( 21-C , 24-H ) :   0.8489 B( 25-C , 26-H ) :   0.8962
B( 25-C , 27-H ) :   1.1620 B( 25-C , 28-H ) :   1.1750

MP2 TOTAL ENERGY:     -429.161658804 Eh
FINAL SINGLE POINT ENERGY      -429.161658803711

DIPOLE MOMENT
-------------
                                X             Y             Z
Electronic contribution:     -1.45825      -4.03635     -10.58864
Nuclear contribution   :      1.42868       3.95405      10.36204
                        -----------------------------------------
Total Dipole Moment    :     -0.02957      -0.08230      -0.22660
                        -----------------------------------------
Magnitude (a.u.)       :      0.24289
Magnitude (Debye)      :      0.61738

Rotational constants in cm-1:     0.061164     0.025011     0.024504
Rotational constants in MHz :  1833.639660   749.818387   734.612967

                             ****ORCA TERMINATED NORMALLY****
TOTAL RUN TIME: 0 days 3 hours 0 minutes 51 seconds 287 msec
