                         Program Version 5.0.4 -  RELEASE  -
|  1> ! ri-mp2 aug-cc-pvdz aug-cc-pvdz/c tightscf
|  2> %pal nprocs 16 end
|  3> %maxcore 3800
|  4> %base "DZ_S66by10_50_0.95_dimer"
|  5>
|  6> *xyz 0 1
|  7> C    0.83661195    1.11485600    0.23100790
|  8> H    1.48545250    1.97968049    0.21470491
|  9> C    1.38418781   -0.16696533    0.26005688
| 10> H    2.45768419   -0.29628753    0.26605977
| 11> C    0.54747934   -1.28184652    0.28693051
| 12> H    0.97191784   -2.27597918    0.31387670
| 13> C   -0.83666710   -1.11500365    0.28456279
| 14> H   -1.48555353   -1.97956851    0.30969784
| 15> C   -1.38416274    0.16685015    0.25560540
| 16> H   -2.45764469    0.29645927    0.25854055
| 17> C   -0.54749833    1.28174826    0.22897743
| 18> H   -0.97214124    2.27600137    0.21116093
| 19> C    0.00563882    0.07079473    3.59380065
| 20> H    0.00262969    0.05323919    2.52972515
| 21> C    0.00929927    0.09037559    4.80617683
| 22> H    0.01241168    0.10754851    5.86737384
| 23> *
| 24>
| 25> $new_job
| 26> ! ri-mp2 aug-cc-pvtz aug-cc-pvtz/c tightscf
| 27> %pal nprocs 16 end
| 28> %maxcore 3800
| 29> %base "TZ_S66by10_50_0.95_dimer"
| 30>
| 31> *xyz 0 1
| 32> C    0.83661195    1.11485600    0.23100790
| 33> H    1.48545250    1.97968049    0.21470491
| 34> C    1.38418781   -0.16696533    0.26005688
| 35> H    2.45768419   -0.29628753    0.26605977
| 36> C    0.54747934   -1.28184652    0.28693051
| 37> H    0.97191784   -2.27597918    0.31387670
| 38> C   -0.83666710   -1.11500365    0.28456279
| 39> H   -1.48555353   -1.97956851    0.30969784
| 40> C   -1.38416274    0.16685015    0.25560540
| 41> H   -2.45764469    0.29645927    0.25854055
| 42> C   -0.54749833    1.28174826    0.22897743
| 43> H   -0.97214124    2.27600137    0.21116093
| 44> C    0.00563882    0.07079473    3.59380065
| 45> H    0.00262969    0.05323919    2.52972515
| 46> C    0.00929927    0.09037559    4.80617683
| 47> H    0.01241168    0.10754851    5.86737384
| 48> *
| 49>
| 50> $new_job
| 51> ! ri-mp2 aug-cc-pvqz aug-cc-pvqz/c tightscf
| 52> %pal nprocs 16 end
| 53> %maxcore 3800
| 54> %base "QZ_S66by10_50_0.95_dimer"
| 55>
| 56> *xyz 0 1
| 57> C    0.83661195    1.11485600    0.23100790
| 58> H    1.48545250    1.97968049    0.21470491
| 59> C    1.38418781   -0.16696533    0.26005688
| 60> H    2.45768419   -0.29628753    0.26605977
| 61> C    0.54747934   -1.28184652    0.28693051
| 62> H    0.97191784   -2.27597918    0.31387670
| 63> C   -0.83666710   -1.11500365    0.28456279
| 64> H   -1.48555353   -1.97956851    0.30969784
| 65> C   -1.38416274    0.16685015    0.25560540
| 66> H   -2.45764469    0.29645927    0.25854055
| 67> C   -0.54749833    1.28174826    0.22897743
| 68> H   -0.97214124    2.27600137    0.21116093
| 69> C    0.00563882    0.07079473    3.59380065
| 70> H    0.00262969    0.05323919    2.52972515
| 71> C    0.00929927    0.09037559    4.80617683
| 72> H    0.01241168    0.10754851    5.86737384
| 73> *
| 74>
| 75>
| 76>
| 77>
| 78>                          ****END OF INPUT****
 Total Charge           Charge          ....    0
 Multiplicity           Mult            ....    1
 Number of Electrons    NEL             ....   56
MP2 TOTAL ENERGY:     -308.639810296 Eh
FINAL SINGLE POINT ENERGY      -308.639810295792
MP2 TOTAL ENERGY:     -308.915646444 Eh
FINAL SINGLE POINT ENERGY      -308.915646444116

CARTESIAN COORDINATES (ANGSTROEM)
---------------------------------
  C      0.836612    1.114856    0.231008
  H      1.485452    1.979680    0.214705
  C      1.384188   -0.166965    0.260057
  H      2.457684   -0.296288    0.266060
  C      0.547479   -1.281847    0.286931
  H      0.971918   -2.275979    0.313877
  C     -0.836667   -1.115004    0.284563
  H     -1.485554   -1.979569    0.309698
  C     -1.384163    0.166850    0.255605
  H     -2.457645    0.296459    0.258541
  C     -0.547498    1.281748    0.228977
  H     -0.972141    2.276001    0.211161
  C      0.005639    0.070795    3.593801
  H      0.002630    0.053239    2.529725
  C      0.009299    0.090376    4.806177
  H      0.012412    0.107549    5.867374

 Multiplicity           Mult            ....    1
 Number of Electrons    NEL             ....   56
 Basis Dimension        Dim             .... 1008

ORBITAL ENERGIES
----------------

  NO   OCC          E(Eh)            E(eV)
   0   2.0000     -11.243245      -305.9442
   1   2.0000     -11.242670      -305.9286
   2   2.0000     -11.242666      -305.9285
   3   2.0000     -11.241426      -305.8947
   4   2.0000     -11.241422      -305.8946
   5   2.0000     -11.240814      -305.8781
   6   2.0000     -11.228560      -305.5446
   7   2.0000     -11.224905      -305.4452
   8   2.0000      -1.159889       -31.5622
   9   2.0000      -1.023204       -27.8428
  10   2.0000      -1.023195       -27.8425
  11   2.0000      -1.012192       -27.5431
  12   2.0000      -0.831913       -22.6375
  13   2.0000      -0.831896       -22.6370
  14   2.0000      -0.754131       -20.5210
  15   2.0000      -0.717833       -19.5332
  16   2.0000      -0.666841       -18.1457
  17   2.0000      -0.651333       -17.7237
  18   2.0000      -0.627168       -17.0661
  19   2.0000      -0.596135       -16.2217
  20   2.0000      -0.596119       -16.2212
  21   2.0000      -0.508280       -13.8310
  22   2.0000      -0.502589       -13.6761
  23   2.0000      -0.502561       -13.6754
  24   2.0000      -0.394955       -10.7473
  25   2.0000      -0.394955       -10.7473
  26   2.0000      -0.346100        -9.4179
  27   2.0000      -0.346094        -9.4177
  28   0.0000       0.023723         0.6455
  29   0.0000       0.030095         0.8189
  30   0.0000       0.030096         0.8189
  31   0.0000       0.031294         0.8516
  32   0.0000       0.042282         1.1505

MULLIKEN ATOMIC CHARGES
-----------------------
   0 C :   -0.307496
   1 H :    0.286952
   2 C :   -0.307343
   3 H :    0.286855
   4 C :   -0.307251
   5 H :    0.286242
   6 C :   -0.307326
   7 H :    0.286628
   8 C :   -0.307411
   9 H :    0.286968
  10 C :   -0.307392
  11 H :    0.287107
  12 C :   -0.676571
  13 H :    1.654541
  14 C :   -1.165554
  15 H :    0.311050
Sum of atomic charges:   -0.0000000

LOEWDIN ATOMIC CHARGES
----------------------
   0 C :    0.323257
   1 H :   -0.317199
   2 C :    0.323252
   3 H :   -0.317180
   4 C :    0.323113
   5 H :   -0.317178
   6 C :    0.323201
   7 H :   -0.317171
   8 C :    0.323274
   9 H :   -0.317194
  10 C :    0.323266
  11 H :   -0.317211
  12 C :    0.505294
  13 H :   -0.574706
  14 C :    0.517666
  15 H :   -0.484484

  Mayer bond orders larger than 0.100000
B(  0-C ,  1-H ) :   1.0811 B(  0-C ,  2-C ) :   1.1879 B(  0-C ,  6-C ) :   0.1320
B(  0-C , 10-C ) :   1.1879 B(  2-C ,  3-H ) :   1.0809 B(  2-C ,  4-C ) :   1.1881
B(  2-C ,  8-C ) :   0.1321 B(  4-C ,  5-H ) :   1.0815 B(  4-C ,  6-C ) :   1.1881
B(  4-C , 10-C ) :   0.1321 B(  6-C ,  7-H ) :   1.0811 B(  6-C ,  8-C ) :   1.1880
B(  8-C ,  9-H ) :   1.0810 B(  8-C , 10-C ) :   1.1879 B( 10-C , 11-H ) :   1.0810
B( 12-C , 13-H ) :  -0.7064 B( 12-C , 14-C ) :   2.2514 B( 12-C , 15-H ) :  -0.1661
B( 13-H , 14-C ) :  -0.4062 B( 13-H , 15-H ) :  -0.2551 B( 14-C , 15-H ) :   1.3343

MP2 TOTAL ENERGY:     -309.001563971 Eh
FINAL SINGLE POINT ENERGY      -309.001563970947

DIPOLE MOMENT
-------------
                                X             Y             Z
Electronic contribution:     -0.00013      -0.00627      -0.26602
Nuclear contribution   :     -0.00011       0.00025       0.02079
                        -----------------------------------------
Total Dipole Moment    :     -0.00024      -0.00602      -0.24523
                        -----------------------------------------
Magnitude (a.u.)       :      0.24530
Magnitude (Debye)      :      0.62351

Rotational constants in cm-1:     0.095168     0.041465     0.041464
Rotational constants in MHz :  2853.059091  1243.095035  1243.074102

                             ****ORCA TERMINATED NORMALLY****
TOTAL RUN TIME: 0 days 0 hours 21 minutes 39 seconds 884 msec
