                         Program Version 5.0.4 -  RELEASE  -
|  1> ! ri-mp2 aug-cc-pvdz aug-cc-pvdz/c tightscf
|  2> %pal nprocs 16 end
|  3> %maxcore 3800
|  4> %base "DZ_S66by10_29_1.25_dimer"
|  5>
|  6> *xyz 0 1
|  7> N    1.21075533    0.02867578    0.32971111
|  8> C    0.61193497   -1.15844901    0.15345176
|  9> H    1.25147791   -2.02952340    0.21929295
| 10> C   -0.75131399   -1.30864956   -0.08883407
| 11> H   -1.17041577   -2.29686932   -0.21338320
| 12> C   -1.54786767   -0.16994027   -0.15646691
| 13> H   -2.61101275   -0.24595469   -0.33875574
| 14> C   -0.94362237    1.07063612    0.01982310
| 15> H   -1.51881431    1.98450028   -0.01164403
| 16> C    0.42771857    1.11610863    0.25734879
| 17> H    0.92469451    2.06805173    0.39754798
| 18> N   -0.63918529   -0.24157988    4.12683471
| 19> H   -1.53407431   -0.67344337    3.94223122
| 20> C   -0.63893040    1.15622991    4.21984571
| 21> O   -1.67881348    1.78442971    4.10499558
| 22> C    0.68056435    1.71531125    4.44740878
| 23> H    0.78188072    2.78253342    4.54327696
| 24> C    1.75043794    0.89661895    4.51892883
| 25> H    2.75431698    1.26528365    4.66735536
| 26> N    1.63237680   -0.46067431    4.40637416
| 27> H    2.44581280   -1.05286166    4.39820652
| 28> C    0.43192986   -1.10790674    4.17999247
| 29> O    0.33979262   -2.31332482    4.04641319
| 30> *
| 31>
| 32> $new_job
| 33> ! ri-mp2 aug-cc-pvtz aug-cc-pvtz/c tightscf
| 34> %pal nprocs 16 end
| 35> %maxcore 3800
| 36> %base "TZ_S66by10_29_1.25_dimer"
| 37>
| 38> *xyz 0 1
| 39> N    1.21075533    0.02867578    0.32971111
| 40> C    0.61193497   -1.15844901    0.15345176
| 41> H    1.25147791   -2.02952340    0.21929295
| 42> C   -0.75131399   -1.30864956   -0.08883407
| 43> H   -1.17041577   -2.29686932   -0.21338320
| 44> C   -1.54786767   -0.16994027   -0.15646691
| 45> H   -2.61101275   -0.24595469   -0.33875574
| 46> C   -0.94362237    1.07063612    0.01982310
| 47> H   -1.51881431    1.98450028   -0.01164403
| 48> C    0.42771857    1.11610863    0.25734879
| 49> H    0.92469451    2.06805173    0.39754798
| 50> N   -0.63918529   -0.24157988    4.12683471
| 51> H   -1.53407431   -0.67344337    3.94223122
| 52> C   -0.63893040    1.15622991    4.21984571
| 53> O   -1.67881348    1.78442971    4.10499558
| 54> C    0.68056435    1.71531125    4.44740878
| 55> H    0.78188072    2.78253342    4.54327696
| 56> C    1.75043794    0.89661895    4.51892883
| 57> H    2.75431698    1.26528365    4.66735536
| 58> N    1.63237680   -0.46067431    4.40637416
| 59> H    2.44581280   -1.05286166    4.39820652
| 60> C    0.43192986   -1.10790674    4.17999247
| 61> O    0.33979262   -2.31332482    4.04641319
| 62> *
| 63>
| 64> $new_job
| 65> ! ri-mp2 aug-cc-pvqz aug-cc-pvqz/c tightscf
| 66> %pal nprocs 16 end
| 67> %maxcore 3800
| 68> %base "QZ_S66by10_29_1.25_dimer"
| 69>
| 70> *xyz 0 1
| 71> N    1.21075533    0.02867578    0.32971111
| 72> C    0.61193497   -1.15844901    0.15345176
| 73> H    1.25147791   -2.02952340    0.21929295
| 74> C   -0.75131399   -1.30864956   -0.08883407
| 75> H   -1.17041577   -2.29686932   -0.21338320
| 76> C   -1.54786767   -0.16994027   -0.15646691
| 77> H   -2.61101275   -0.24595469   -0.33875574
| 78> C   -0.94362237    1.07063612    0.01982310
| 79> H   -1.51881431    1.98450028   -0.01164403
| 80> C    0.42771857    1.11610863    0.25734879
| 81> H    0.92469451    2.06805173    0.39754798
| 82> N   -0.63918529   -0.24157988    4.12683471
| 83> H   -1.53407431   -0.67344337    3.94223122
| 84> C   -0.63893040    1.15622991    4.21984571
| 85> O   -1.67881348    1.78442971    4.10499558
| 86> C    0.68056435    1.71531125    4.44740878
| 87> H    0.78188072    2.78253342    4.54327696
| 88> C    1.75043794    0.89661895    4.51892883
| 89> H    2.75431698    1.26528365    4.66735536
| 90> N    1.63237680   -0.46067431    4.40637416
| 91> H    2.44581280   -1.05286166    4.39820652
| 92> C    0.43192986   -1.10790674    4.17999247
| 93> O    0.33979262   -2.31332482    4.04641319
| 94> *
| 95>
| 96>
| 97>
| 98>
| 99>                          ****END OF INPUT****
 Total Charge           Charge          ....    0
 Multiplicity           Mult            ....    1
 Number of Electrons    NEL             ....  100
MP2 TOTAL ENERGY:     -661.349901596 Eh
FINAL SINGLE POINT ENERGY      -661.349901595860
MP2 TOTAL ENERGY:     -661.910925361 Eh
FINAL SINGLE POINT ENERGY      -661.910925361487

CARTESIAN COORDINATES (ANGSTROEM)
---------------------------------
  N      1.210755    0.028676    0.329711
  C      0.611935   -1.158449    0.153452
  H      1.251478   -2.029523    0.219293
  C     -0.751314   -1.308650   -0.088834
  H     -1.170416   -2.296869   -0.213383
  C     -1.547868   -0.169940   -0.156467
  H     -2.611013   -0.245955   -0.338756
  C     -0.943622    1.070636    0.019823
  H     -1.518814    1.984500   -0.011644
  C      0.427719    1.116109    0.257349
  H      0.924695    2.068052    0.397548
  N     -0.639185   -0.241580    4.126835
  H     -1.534074   -0.673443    3.942231
  C     -0.638930    1.156230    4.219846
  O     -1.678813    1.784430    4.104996
  C      0.680564    1.715311    4.447409
  H      0.781881    2.782533    4.543277
  C      1.750438    0.896619    4.518929
  H      2.754317    1.265284    4.667355
  N      1.632377   -0.460674    4.406374
  H      2.445813   -1.052862    4.398207
  C      0.431930   -1.107907    4.179992
  O      0.339793   -2.313325    4.046413

 Multiplicity           Mult            ....    1
 Number of Electrons    NEL             ....  100
 Basis Dimension        Dim             .... 1534

ORBITAL ENERGIES
----------------

  NO   OCC          E(Eh)            E(eV)
   0   2.0000     -20.539863      -558.9181
   1   2.0000     -20.534705      -558.7777
   2   2.0000     -15.636936      -425.5027
   3   2.0000     -15.620548      -425.0567
   4   2.0000     -15.567226      -423.6058
   5   2.0000     -11.412948      -310.5621
   6   2.0000     -11.375448      -309.5417
   7   2.0000     -11.334745      -308.4341
   8   2.0000     -11.274895      -306.8055
   9   2.0000     -11.274482      -306.7943
  10   2.0000     -11.258861      -306.3692
  11   2.0000     -11.248811      -306.0957
  12   2.0000     -11.240862      -305.8794
  13   2.0000     -11.240500      -305.8695
  14   2.0000      -1.430873       -38.9360
  15   2.0000      -1.392625       -37.8952
  16   2.0000      -1.308640       -35.6099
  17   2.0000      -1.256845       -34.2005
  18   2.0000      -1.240973       -33.7686
  19   2.0000      -1.089357       -29.6429
  20   2.0000      -1.083165       -29.4744
  21   2.0000      -1.033495       -28.1228
  22   2.0000      -0.929143       -25.2833
  23   2.0000      -0.897069       -24.4105
  24   2.0000      -0.859290       -23.3825
  25   2.0000      -0.855710       -23.2851
  26   2.0000      -0.802415       -21.8348
  27   2.0000      -0.760745       -20.7009
  28   2.0000      -0.721978       -19.6460
  29   2.0000      -0.709683       -19.3115
  30   2.0000      -0.673247       -18.3200
  31   2.0000      -0.664448       -18.0806
  32   2.0000      -0.660556       -17.9746
  33   2.0000      -0.653792       -17.7906
  34   2.0000      -0.648420       -17.6444
  35   2.0000      -0.610339       -16.6082
  36   2.0000      -0.598274       -16.2799
  37   2.0000      -0.597224       -16.2513
  38   2.0000      -0.577157       -15.7052
  39   2.0000      -0.566597       -15.4179
  40   2.0000      -0.542162       -14.7530
  41   2.0000      -0.521065       -14.1789
  42   2.0000      -0.519784       -14.1440
  43   2.0000      -0.479637       -13.0516
  44   2.0000      -0.445583       -12.1249
  45   2.0000      -0.432995       -11.7824
  46   2.0000      -0.422008       -11.4834
  47   2.0000      -0.384829       -10.4717
  48   2.0000      -0.364074        -9.9070
  49   2.0000      -0.347778        -9.4635
  50   0.0000       0.016371         0.4455
  51   0.0000       0.027578         0.7504
  52   0.0000       0.029335         0.7982
  53   0.0000       0.035839         0.9752
  54   0.0000       0.037883         1.0309

MULLIKEN ATOMIC CHARGES
-----------------------
   0 N :   -0.681902
   1 C :   -0.224186
   2 H :    0.436550
   3 C :   -0.225093
   4 H :    0.341505
   5 C :   -0.339741
   6 H :    0.348970
   7 C :   -0.281963
   8 H :    0.342212
   9 C :   -0.154197
  10 H :    0.441200
  11 N :   -0.680802
  12 H :    0.099833
  13 C :    1.249489
  14 O :   -0.883453
  15 C :   -0.428949
  16 H :    0.272130
  17 C :   -0.142379
  18 H :    0.443808
  19 N :   -0.660575
  20 H :    0.096405
  21 C :    1.480614
  22 O :   -0.849477
Sum of atomic charges:    0.0000000

LOEWDIN ATOMIC CHARGES
----------------------
   0 N :    0.587257
   1 C :    0.060269
   2 H :   -0.353806
   3 C :    0.326036
   4 H :   -0.328293
   5 C :    0.327659
   6 H :   -0.312645
   7 C :    0.325050
   8 H :   -0.326600
   9 C :    0.057844
  10 H :   -0.355101
  11 N :    0.776460
  12 H :   -0.519874
  13 C :   -0.877860
  14 O :    0.685208
  15 C :    0.327642
  16 H :   -0.353810
  17 C :    0.233171
  18 H :   -0.295681
  19 N :    0.813242
  20 H :   -0.490411
  21 C :   -0.999933
  22 O :    0.694176

  Mayer bond orders larger than 0.100000
B(  0-N ,  1-C ) :   1.2205 B(  0-N ,  2-H ) :  -0.1179 B(  0-N ,  9-C ) :   1.1504
B(  0-N , 10-H ) :  -0.1271 B(  1-C ,  2-H ) :   0.9082 B(  1-C ,  3-C ) :   1.1752
B(  1-C ,  7-C ) :   0.1101 B(  3-C ,  4-H ) :   0.9827 B(  3-C ,  5-C ) :   1.2436
B(  3-C ,  9-C ) :   0.1087 B(  5-C ,  6-H ) :   0.9683 B(  5-C ,  7-C ) :   1.2381
B(  7-C ,  8-H ) :   0.9775 B(  7-C ,  9-C ) :   1.1943 B(  9-C , 10-H ) :   0.9098
B( 11-N , 12-H ) :   1.1751 B( 11-N , 13-C ) :   0.9453 B( 11-N , 14-O ) :   0.2323
B( 11-N , 21-C ) :   1.1070 B( 11-N , 22-O ) :   0.2204 B( 13-C , 14-O ) :   0.9132
B( 13-C , 15-C ) :   1.1549 B( 14-O , 15-C ) :   0.2371 B( 15-C , 16-H ) :   1.0240
B( 15-C , 17-C ) :   1.4948 B( 17-C , 18-H ) :   0.8940 B( 17-C , 19-N ) :   0.8954
B( 19-N , 20-H ) :   1.1773 B( 19-N , 21-C ) :   1.0755 B( 19-N , 22-O ) :   0.2030
B( 21-C , 22-O ) :   1.0037

MP2 TOTAL ENERGY:     -662.094052325 Eh
FINAL SINGLE POINT ENERGY      -662.094052324678

DIPOLE MOMENT
-------------
                                X             Y             Z
Electronic contribution:      0.25299      -0.95928       4.80948
Nuclear contribution   :      0.74446       1.21418      -4.76724
                        -----------------------------------------
Total Dipole Moment    :      0.99745       0.25489       0.04224
                        -----------------------------------------
Magnitude (a.u.)       :      1.03037
Magnitude (Debye)      :      2.61899

Rotational constants in cm-1:     0.031837     0.016408     0.014460
Rotational constants in MHz :   954.448850   491.911025   433.489158

                             ****ORCA TERMINATED NORMALLY****
TOTAL RUN TIME: 0 days 1 hours 39 minutes 28 seconds 554 msec
