                         Program Version 5.0.4 -  RELEASE  -
|  1> ! ri-mp2 aug-cc-pvdz aug-cc-pvdz/c tightscf
|  2> %pal nprocs 16 end
|  3> %maxcore 3800
|  4> %base "DZ_S66by10_15_2.0_dimer"
|  5> %scf STABPerform true end
|  6>
|  7> *xyz 0 1
|  8> C   -0.70150294   -0.29062770    2.40688440
|  9> H   -1.18329596    0.39564777    3.09887422
| 10> H    0.34956157   -0.03032157    2.30783303
| 11> H   -0.79405685   -1.29160545    2.82403929
| 12> C   -1.44854625   -0.24487664    1.09181530
| 13> O   -2.66045000   -0.42847909    1.03434577
| 14> N   -0.67005656    0.00591656    0.00977691
| 15> H    0.32667532    0.12256396    0.14159284
| 16> C   -1.22705457    0.08979374   -1.31996754
| 17> H   -2.29202426   -0.10650119   -1.24087756
| 18> H   -1.07780169    1.07994030   -1.74854354
| 19> H   -0.77662849   -0.64799919   -1.98337273
| 20> C    4.19909263   -2.48354220    0.85518818
| 21> H    4.75731743   -3.39354543    0.64928018
| 22> H    3.27040077   -2.49007165    0.29086276
| 23> H    3.93987370   -2.46009550    1.91212918
| 24> C    4.96672857   -1.22913016    0.51895144
| 25> O    4.42154193   -0.12769335    0.46197905
| 26> N    6.29348678   -1.39794393    0.30520347
| 27> H    6.66980808   -2.32518962    0.38196080
| 28> C    7.18072497   -0.29147795    0.01625494
| 29> H    6.56653259    0.59933182   -0.06356878
| 30> H    7.90813952   -0.15201222    0.81365824
| 31> H    7.70571526   -0.45145968   -0.92288740
| 32> *
| 33>
| 34> $new_job
| 35> ! ri-mp2 aug-cc-pvtz aug-cc-pvtz/c tightscf
| 36> %pal nprocs 16 end
| 37> %maxcore 3800
| 38> %base "TZ_S66by10_15_2.0_dimer"
| 39>
| 40> *xyz 0 1
| 41> C   -0.70150294   -0.29062770    2.40688440
| 42> H   -1.18329596    0.39564777    3.09887422
| 43> H    0.34956157   -0.03032157    2.30783303
| 44> H   -0.79405685   -1.29160545    2.82403929
| 45> C   -1.44854625   -0.24487664    1.09181530
| 46> O   -2.66045000   -0.42847909    1.03434577
| 47> N   -0.67005656    0.00591656    0.00977691
| 48> H    0.32667532    0.12256396    0.14159284
| 49> C   -1.22705457    0.08979374   -1.31996754
| 50> H   -2.29202426   -0.10650119   -1.24087756
| 51> H   -1.07780169    1.07994030   -1.74854354
| 52> H   -0.77662849   -0.64799919   -1.98337273
| 53> C    4.19909263   -2.48354220    0.85518818
| 54> H    4.75731743   -3.39354543    0.64928018
| 55> H    3.27040077   -2.49007165    0.29086276
| 56> H    3.93987370   -2.46009550    1.91212918
| 57> C    4.96672857   -1.22913016    0.51895144
| 58> O    4.42154193   -0.12769335    0.46197905
| 59> N    6.29348678   -1.39794393    0.30520347
| 60> H    6.66980808   -2.32518962    0.38196080
| 61> C    7.18072497   -0.29147795    0.01625494
| 62> H    6.56653259    0.59933182   -0.06356878
| 63> H    7.90813952   -0.15201222    0.81365824
| 64> H    7.70571526   -0.45145968   -0.92288740
| 65> *
| 66>
| 67> $new_job
| 68> ! ri-mp2 aug-cc-pvqz aug-cc-pvqz/c tightscf
| 69> %pal nprocs 16 end
| 70> %maxcore 3800
| 71> %base "QZ_S66by10_15_2.0_dimer"
| 72>
| 73> *xyz 0 1
| 74> C   -0.70150294   -0.29062770    2.40688440
| 75> H   -1.18329596    0.39564777    3.09887422
| 76> H    0.34956157   -0.03032157    2.30783303
| 77> H   -0.79405685   -1.29160545    2.82403929
| 78> C   -1.44854625   -0.24487664    1.09181530
| 79> O   -2.66045000   -0.42847909    1.03434577
| 80> N   -0.67005656    0.00591656    0.00977691
| 81> H    0.32667532    0.12256396    0.14159284
| 82> C   -1.22705457    0.08979374   -1.31996754
| 83> H   -2.29202426   -0.10650119   -1.24087756
| 84> H   -1.07780169    1.07994030   -1.74854354
| 85> H   -0.77662849   -0.64799919   -1.98337273
| 86> C    4.19909263   -2.48354220    0.85518818
| 87> H    4.75731743   -3.39354543    0.64928018
| 88> H    3.27040077   -2.49007165    0.29086276
| 89> H    3.93987370   -2.46009550    1.91212918
| 90> C    4.96672857   -1.22913016    0.51895144
| 91> O    4.42154193   -0.12769335    0.46197905
| 92> N    6.29348678   -1.39794393    0.30520347
| 93> H    6.66980808   -2.32518962    0.38196080
| 94> C    7.18072497   -0.29147795    0.01625494
| 95> H    6.56653259    0.59933182   -0.06356878
| 96> H    7.90813952   -0.15201222    0.81365824
| 97> H    7.70571526   -0.45145968   -0.92288740
| 98> *
| 99>
|100>
|101>
|102>
|103>                          ****END OF INPUT****
 Total Charge           Charge          ....    0
 Multiplicity           Mult            ....    1
 Number of Electrons    NEL             ....   80
MP2 TOTAL ENERGY:     -495.696024861 Eh
FINAL SINGLE POINT ENERGY      -495.696024861198
MP2 TOTAL ENERGY:     -496.143538906 Eh
FINAL SINGLE POINT ENERGY      -496.143538905809

CARTESIAN COORDINATES (ANGSTROEM)
---------------------------------
  C     -0.701503   -0.290628    2.406884
  H     -1.183296    0.395648    3.098874
  H      0.349562   -0.030322    2.307833
  H     -0.794057   -1.291605    2.824039
  C     -1.448546   -0.244877    1.091815
  O     -2.660450   -0.428479    1.034346
  N     -0.670057    0.005917    0.009777
  H      0.326675    0.122564    0.141593
  C     -1.227055    0.089794   -1.319968
  H     -2.292024   -0.106501   -1.240878
  H     -1.077802    1.079940   -1.748544
  H     -0.776628   -0.647999   -1.983373
  C      4.199093   -2.483542    0.855188
  H      4.757317   -3.393545    0.649280
  H      3.270401   -2.490072    0.290863
  H      3.939874   -2.460095    1.912129
  C      4.966729   -1.229130    0.518951
  O      4.421542   -0.127693    0.461979
  N      6.293487   -1.397944    0.305203
  H      6.669808   -2.325190    0.381961
  C      7.180725   -0.291478    0.016255
  H      6.566533    0.599332   -0.063569
  H      7.908140   -0.152012    0.813658
  H      7.705715   -0.451460   -0.922887

 Multiplicity           Mult            ....    1
 Number of Electrons    NEL             ....   80
 Basis Dimension        Dim             .... 1444

ORBITAL ENERGIES
----------------

  NO   OCC          E(Eh)            E(eV)
   0   2.0000     -20.516314      -558.2773
   1   2.0000     -20.500261      -557.8405
   2   2.0000     -15.593587      -424.3231
   3   2.0000     -15.577899      -423.8962
   4   2.0000     -11.355503      -308.9990
   5   2.0000     -11.338551      -308.5377
   6   2.0000     -11.262202      -306.4601
   7   2.0000     -11.247703      -306.0656
   8   2.0000     -11.243538      -305.9522
   9   2.0000     -11.225310      -305.4562
  10   2.0000      -1.379350       -37.5340
  11   2.0000      -1.363768       -37.1100
  12   2.0000      -1.238942       -33.7133
  13   2.0000      -1.222999       -33.2795
  14   2.0000      -1.028262       -27.9804
  15   2.0000      -1.010115       -27.4866
  16   2.0000      -0.941238       -25.6124
  17   2.0000      -0.923914       -25.1410
  18   2.0000      -0.798524       -21.7289
  19   2.0000      -0.781293       -21.2601
  20   2.0000      -0.699618       -19.0376
  21   2.0000      -0.682002       -18.5582
  22   2.0000      -0.660885       -17.9836
  23   2.0000      -0.645117       -17.5545
  24   2.0000      -0.642136       -17.4734
  25   2.0000      -0.625724       -17.0268
  26   2.0000      -0.596026       -16.2187
  27   2.0000      -0.587855       -15.9964
  28   2.0000      -0.579094       -15.7579
  29   2.0000      -0.571605       -15.5542
  30   2.0000      -0.564761       -15.3679
  31   2.0000      -0.552416       -15.0320
  32   2.0000      -0.546782       -14.8787
  33   2.0000      -0.537312       -14.6210
  34   2.0000      -0.513036       -13.9604
  35   2.0000      -0.496406       -13.5079
  36   2.0000      -0.429990       -11.7006
  37   2.0000      -0.412356       -11.2208
  38   2.0000      -0.400195       -10.8899
  39   2.0000      -0.384221       -10.4552
  40   0.0000       0.014786         0.4024
  41   0.0000       0.026520         0.7216
  42   0.0000       0.029465         0.8018
  43   0.0000       0.030875         0.8401
  44   0.0000       0.039126         1.0647

MULLIKEN ATOMIC CHARGES
-----------------------
   0 C :   -0.830955
   1 H :    0.298023
   2 H :    0.282015
   3 H :    0.271957
   4 C :    0.897344
   5 O :   -0.845847
   6 N :   -0.508075
   7 H :    0.339351
   8 C :   -0.790179
   9 H :    0.316319
  10 H :    0.292177
  11 H :    0.277232
  12 C :   -0.835251
  13 H :    0.298863
  14 H :    0.305958
  15 H :    0.286963
  16 C :    0.903262
  17 O :   -0.864566
  18 N :   -0.478194
  19 H :    0.253069
  20 C :   -0.742690
  21 H :    0.323778
  22 H :    0.270310
  23 H :    0.279135
Sum of atomic charges:    0.0000000

LOEWDIN ATOMIC CHARGES
----------------------
   0 C :    0.887601
   1 H :   -0.301911
   2 H :   -0.318940
   3 H :   -0.297551
   4 C :   -0.839190
   5 O :    0.695052
   6 N :    0.822831
   7 H :   -0.493760
   8 C :    0.781992
   9 H :   -0.365983
  10 H :   -0.285820
  11 H :   -0.286713
  12 C :    0.889408
  13 H :   -0.312838
  14 H :   -0.306978
  15 H :   -0.292984
  16 C :   -0.837694
  17 O :    0.691619
  18 N :    0.823250
  19 H :   -0.506988
  20 C :    0.791787
  21 H :   -0.365219
  22 H :   -0.284387
  23 H :   -0.286583

  Mayer bond orders larger than 0.100000
B(  0-C ,  1-H ) :   0.9402 B(  0-C ,  2-H ) :   0.9508 B(  0-C ,  3-H ) :   0.9391
B(  0-C ,  4-C ) :   0.9219 B(  0-C ,  5-O ) :   0.1215 B(  4-C ,  5-O ) :   1.2469
B(  4-C ,  6-N ) :   1.1557 B(  5-O ,  6-N ) :   0.1577 B(  6-N ,  7-H ) :   0.9245
B(  6-N ,  8-C ) :   0.8244 B(  8-C ,  9-H ) :   0.9228 B(  8-C , 10-H ) :   0.9435
B(  8-C , 11-H ) :   0.9509 B( 12-C , 13-H ) :   0.9671 B( 12-C , 14-H ) :   0.9337
B( 12-C , 15-H ) :   0.9002 B( 12-C , 16-C ) :   0.8918 B( 16-C , 17-O ) :   1.2960
B( 16-C , 18-N ) :   1.1369 B( 17-O , 18-N ) :   0.1267 B( 18-N , 19-H ) :   0.9808
B( 18-N , 20-C ) :   0.8398 B( 20-C , 21-H ) :   0.9202 B( 20-C , 22-H ) :   0.9547
B( 20-C , 23-H ) :   0.9530

MP2 TOTAL ENERGY:     -496.285954436 Eh
FINAL SINGLE POINT ENERGY      -496.285954435967

DIPOLE MOMENT
-------------
                                X             Y             Z
Electronic contribution:     -3.61066       1.05030       0.70625
Nuclear contribution   :      6.35035      -2.08878      -0.92012
                        -----------------------------------------
Total Dipole Moment    :      2.73969      -1.03849      -0.21387
                        -----------------------------------------
Magnitude (a.u.)       :      2.93770
Magnitude (Debye)      :      7.46705

Rotational constants in cm-1:     0.080052     0.008808     0.008453
Rotational constants in MHz :  2399.890430   264.066581   253.429381

                             ****ORCA TERMINATED NORMALLY****
TOTAL RUN TIME: 0 days 3 hours 43 minutes 27 seconds 959 msec
