                         Program Version 5.0.4 -  RELEASE  -
|  1> ! ri-mp2 aug-cc-pvdz aug-cc-pvdz/c tightscf
|  2> %pal nprocs 16 end
|  3> %maxcore 3800
|  4> %base "DZ_S66by10_20_0.7_dimer"
|  5> %scf STABPerform true end
|  6>
|  7> *xyz 0 1
|  8> C   -1.06170920    1.29714057    0.29206000
|  9> O   -0.35816112    2.27045861    0.53181267
| 10> O   -0.58930352    0.09491776    0.00378881
| 11> H    0.40443566    0.12772262    0.01841184
| 12> C   -2.55842780    1.34254982    0.29625732
| 13> H   -2.89599798    2.34746400    0.51831634
| 14> H   -2.93288928    1.02239045   -0.67299555
| 15> H   -2.93721196    0.64491043    1.03955708
| 16> C    2.29241179    1.10622023    0.26738078
| 17> O    1.58879342    0.13290574    0.02759318
| 18> O    1.81998545    2.30865562    0.55515925
| 19> H    0.82619691    2.27575738    0.54075874
| 20> C    3.78912424    1.06031748    0.26541638
| 21> H    4.12670380    0.05899829    0.02789089
| 22> H    4.17062278    1.77067042   -0.46405251
| 23> H    4.16064055    1.36301200    1.24147174
| 24> *
| 25>
| 26> $new_job
| 27> ! ri-mp2 aug-cc-pvtz aug-cc-pvtz/c tightscf
| 28> %pal nprocs 16 end
| 29> %maxcore 3800
| 30> %base "TZ_S66by10_20_0.7_dimer"
| 31>
| 32> *xyz 0 1
| 33> C   -1.06170920    1.29714057    0.29206000
| 34> O   -0.35816112    2.27045861    0.53181267
| 35> O   -0.58930352    0.09491776    0.00378881
| 36> H    0.40443566    0.12772262    0.01841184
| 37> C   -2.55842780    1.34254982    0.29625732
| 38> H   -2.89599798    2.34746400    0.51831634
| 39> H   -2.93288928    1.02239045   -0.67299555
| 40> H   -2.93721196    0.64491043    1.03955708
| 41> C    2.29241179    1.10622023    0.26738078
| 42> O    1.58879342    0.13290574    0.02759318
| 43> O    1.81998545    2.30865562    0.55515925
| 44> H    0.82619691    2.27575738    0.54075874
| 45> C    3.78912424    1.06031748    0.26541638
| 46> H    4.12670380    0.05899829    0.02789089
| 47> H    4.17062278    1.77067042   -0.46405251
| 48> H    4.16064055    1.36301200    1.24147174
| 49> *
| 50>
| 51> $new_job
| 52> ! ri-mp2 aug-cc-pvqz aug-cc-pvqz/c tightscf
| 53> %pal nprocs 16 end
| 54> %maxcore 3800
| 55> %base "QZ_S66by10_20_0.7_dimer"
| 56>
| 57> *xyz 0 1
| 58> C   -1.06170920    1.29714057    0.29206000
| 59> O   -0.35816112    2.27045861    0.53181267
| 60> O   -0.58930352    0.09491776    0.00378881
| 61> H    0.40443566    0.12772262    0.01841184
| 62> C   -2.55842780    1.34254982    0.29625732
| 63> H   -2.89599798    2.34746400    0.51831634
| 64> H   -2.93288928    1.02239045   -0.67299555
| 65> H   -2.93721196    0.64491043    1.03955708
| 66> C    2.29241179    1.10622023    0.26738078
| 67> O    1.58879342    0.13290574    0.02759318
| 68> O    1.81998545    2.30865562    0.55515925
| 69> H    0.82619691    2.27575738    0.54075874
| 70> C    3.78912424    1.06031748    0.26541638
| 71> H    4.12670380    0.05899829    0.02789089
| 72> H    4.17062278    1.77067042   -0.46405251
| 73> H    4.16064055    1.36301200    1.24147174
| 74> *
| 75>
| 76>
| 77>
| 78>
| 79>                          ****END OF INPUT****
 Total Charge           Charge          ....    0
 Multiplicity           Mult            ....    1
 Number of Electrons    NEL             ....   64
MP2 TOTAL ENERGY:     -457.022884350 Eh
FINAL SINGLE POINT ENERGY      -457.022884349765
MP2 TOTAL ENERGY:     -457.424002979 Eh
FINAL SINGLE POINT ENERGY      -457.424002978626

CARTESIAN COORDINATES (ANGSTROEM)
---------------------------------
  C     -1.061709    1.297141    0.292060
  O     -0.358161    2.270459    0.531813
  O     -0.589304    0.094918    0.003789
  H      0.404436    0.127723    0.018412
  C     -2.558428    1.342550    0.296257
  H     -2.895998    2.347464    0.518316
  H     -2.932889    1.022390   -0.672996
  H     -2.937212    0.644910    1.039557
  C      2.292412    1.106220    0.267381
  O      1.588793    0.132906    0.027593
  O      1.819985    2.308656    0.555159
  H      0.826197    2.275757    0.540759
  C      3.789124    1.060317    0.265416
  H      4.126704    0.058998    0.027891
  H      4.170623    1.770670   -0.464053
  H      4.160641    1.363012    1.241472

 Multiplicity           Mult            ....    1
 Number of Electrons    NEL             ....   64
 Basis Dimension        Dim             .... 1008

ORBITAL ENERGIES
----------------

  NO   OCC          E(Eh)            E(eV)
   0   2.0000     -20.561789      -559.5147
   1   2.0000     -20.561780      -559.5145
   2   2.0000     -20.558101      -559.4144
   3   2.0000     -20.558094      -559.4142
   4   2.0000     -11.399838      -310.2054
   5   2.0000     -11.399820      -310.2049
   6   2.0000     -11.241791      -305.9047
   7   2.0000     -11.241785      -305.9045
   8   2.0000      -1.495856       -40.7043
   9   2.0000      -1.446587       -39.3636
  10   2.0000      -1.398279       -38.0491
  11   2.0000      -1.341155       -36.4947
  12   2.0000      -1.047806       -28.5122
  13   2.0000      -1.020770       -27.7766
  14   2.0000      -0.876418       -23.8485
  15   2.0000      -0.848549       -23.0902
  16   2.0000      -0.766488       -20.8572
  17   2.0000      -0.705982       -19.2107
  18   2.0000      -0.668133       -18.1808
  19   2.0000      -0.667381       -18.1604
  20   2.0000      -0.661984       -18.0135
  21   2.0000      -0.642694       -17.4886
  22   2.0000      -0.596827       -16.2405
  23   2.0000      -0.582104       -15.8399
  24   2.0000      -0.566929       -15.4269
  25   2.0000      -0.563930       -15.3453
  26   2.0000      -0.552390       -15.0313
  27   2.0000      -0.550625       -14.9833
  28   2.0000      -0.506863       -13.7924
  29   2.0000      -0.471440       -12.8285
  30   2.0000      -0.470308       -12.7977
  31   2.0000      -0.445165       -12.1135
  32   0.0000       0.025336         0.6894
  33   0.0000       0.026768         0.7284
  34   0.0000       0.039205         1.0668
  35   0.0000       0.040410         1.0996
  36   0.0000       0.047079         1.2811

MULLIKEN ATOMIC CHARGES
-----------------------
   0 C :    0.895103
   1 O :   -0.668256
   2 O :   -0.650703
   3 H :    0.265159
   4 C :   -0.730394
   5 H :    0.318111
   6 H :    0.284499
   7 H :    0.286481
   8 C :    0.895123
   9 O :   -0.668217
  10 O :   -0.650727
  11 H :    0.265162
  12 C :   -0.730568
  13 H :    0.318238
  14 H :    0.285605
  15 H :    0.285384
Sum of atomic charges:   -0.0000000

LOEWDIN ATOMIC CHARGES
----------------------
   0 C :   -0.734160
   1 O :    1.130656
   2 O :    1.277840
   3 H :   -1.662546
   4 C :    0.907576
   5 H :   -0.319466
   6 H :   -0.300438
   7 H :   -0.299492
   8 C :   -0.734023
   9 O :    1.130643
  10 O :    1.277771
  11 H :   -1.662489
  12 C :    0.907647
  13 H :   -0.319511
  14 H :   -0.299976
  15 H :   -0.300032

  Mayer bond orders larger than 0.100000
B(  0-C ,  1-O ) :   1.4936 B(  0-C ,  2-O ) :   1.0613 B(  0-C ,  4-C ) :   0.7178
B(  1-O ,  9-O ) :   0.1001 B(  1-O , 11-H ) :   0.2064 B(  2-O ,  3-H ) :   0.7699
B(  3-H ,  9-O ) :   0.2064 B(  4-C ,  5-H ) :   0.9716 B(  4-C ,  6-H ) :   0.9535
B(  4-C ,  7-H ) :   0.9455 B(  8-C ,  9-O ) :   1.4937 B(  8-C , 10-O ) :   1.0613
B(  8-C , 12-C ) :   0.7177 B( 10-O , 11-H ) :   0.7699 B( 12-C , 13-H ) :   0.9715
B( 12-C , 14-H ) :   0.9490 B( 12-C , 15-H ) :   0.9501

MP2 TOTAL ENERGY:     -457.554192452 Eh
FINAL SINGLE POINT ENERGY      -457.554192452218

DIPOLE MOMENT
-------------
                                X             Y             Z
Electronic contribution:      0.00026       0.00154      -0.00729
Nuclear contribution   :     -0.00018      -0.00204       0.00898
                        -----------------------------------------
Total Dipole Moment    :      0.00009      -0.00050       0.00168
                        -----------------------------------------
Magnitude (a.u.)       :      0.00176
Magnitude (Debye)      :      0.00447

Rotational constants in cm-1:     0.187975     0.036229     0.030718
Rotational constants in MHz :  5635.342648  1086.106427   920.891694

                             ****ORCA TERMINATED NORMALLY****
TOTAL RUN TIME: 0 days 1 hours 57 minutes 53 seconds 322 msec
