                         Program Version 5.0.4 -  RELEASE  -
|  1> ! ri-mp2 aug-cc-pvdz aug-cc-pvdz/c tightscf
|  2> %pal nprocs 16 end
|  3> %maxcore 3800
|  4> %base "DZ_S66by10_39_1.05_dimer"
|  5>
|  6> *xyz 0 1
|  7> C    0.76554546    0.86824433    0.82099095
|  8> H    1.43747647    1.68000664    1.06510281
|  9> C    1.23765260   -0.44283807    0.79388795
| 10> H    2.27575877   -0.64853808    1.01771141
| 11> C    0.37223723   -1.48853667    0.47726862
| 12> H    0.73818789   -2.50608012    0.45705609
| 13> C   -0.96493318   -1.22297162    0.18687834
| 14> H   -1.63645949   -2.03456079   -0.05777362
| 15> C   -1.43706509    0.08840558    0.21327714
| 16> H   -2.47468432    0.29430216   -0.01146746
| 17> C   -0.57190649    1.13402416    0.53081281
| 18> H   -0.93769935    2.15171058    0.55107764
| 19> C   -0.75733921   -0.71596059    4.19493667
| 20> H   -0.86359305   -0.54101143    3.12262981
| 21> H   -1.40897678   -1.54522449    4.46808734
| 22> C    0.71220198   -0.97302368    4.53906655
| 23> H    1.20743276   -1.61060873    3.80848227
| 24> H    0.77548116   -1.47323745    5.50653319
| 25> C    1.35233903    0.43237299    4.63001941
| 26> H    2.00260734    0.62504393    3.77816648
| 27> H    1.96520621    0.52154242    5.52574477
| 28> C    0.17329290    1.43155001    4.65689145
| 29> H    0.05614142    1.89052040    3.67460611
| 30> H    0.31888649    2.23305484    5.37929005
| 31> C   -1.06047886    0.57445482    4.95254031
| 32> H   -1.99146737    1.05019227    4.64662717
| 33> H   -1.12590462    0.36513391    6.02307555
| 34> *
| 35>
| 36> $new_job
| 37> ! ri-mp2 aug-cc-pvtz aug-cc-pvtz/c tightscf
| 38> %pal nprocs 16 end
| 39> %maxcore 3800
| 40> %base "TZ_S66by10_39_1.05_dimer"
| 41>
| 42> *xyz 0 1
| 43> C    0.76554546    0.86824433    0.82099095
| 44> H    1.43747647    1.68000664    1.06510281
| 45> C    1.23765260   -0.44283807    0.79388795
| 46> H    2.27575877   -0.64853808    1.01771141
| 47> C    0.37223723   -1.48853667    0.47726862
| 48> H    0.73818789   -2.50608012    0.45705609
| 49> C   -0.96493318   -1.22297162    0.18687834
| 50> H   -1.63645949   -2.03456079   -0.05777362
| 51> C   -1.43706509    0.08840558    0.21327714
| 52> H   -2.47468432    0.29430216   -0.01146746
| 53> C   -0.57190649    1.13402416    0.53081281
| 54> H   -0.93769935    2.15171058    0.55107764
| 55> C   -0.75733921   -0.71596059    4.19493667
| 56> H   -0.86359305   -0.54101143    3.12262981
| 57> H   -1.40897678   -1.54522449    4.46808734
| 58> C    0.71220198   -0.97302368    4.53906655
| 59> H    1.20743276   -1.61060873    3.80848227
| 60> H    0.77548116   -1.47323745    5.50653319
| 61> C    1.35233903    0.43237299    4.63001941
| 62> H    2.00260734    0.62504393    3.77816648
| 63> H    1.96520621    0.52154242    5.52574477
| 64> C    0.17329290    1.43155001    4.65689145
| 65> H    0.05614142    1.89052040    3.67460611
| 66> H    0.31888649    2.23305484    5.37929005
| 67> C   -1.06047886    0.57445482    4.95254031
| 68> H   -1.99146737    1.05019227    4.64662717
| 69> H   -1.12590462    0.36513391    6.02307555
| 70> *
| 71>
| 72> $new_job
| 73> ! ri-mp2 aug-cc-pvqz aug-cc-pvqz/c tightscf
| 74> %pal nprocs 16 end
| 75> %maxcore 3800
| 76> %base "QZ_S66by10_39_1.05_dimer"
| 77>
| 78> *xyz 0 1
| 79> C    0.76554546    0.86824433    0.82099095
| 80> H    1.43747647    1.68000664    1.06510281
| 81> C    1.23765260   -0.44283807    0.79388795
| 82> H    2.27575877   -0.64853808    1.01771141
| 83> C    0.37223723   -1.48853667    0.47726862
| 84> H    0.73818789   -2.50608012    0.45705609
| 85> C   -0.96493318   -1.22297162    0.18687834
| 86> H   -1.63645949   -2.03456079   -0.05777362
| 87> C   -1.43706509    0.08840558    0.21327714
| 88> H   -2.47468432    0.29430216   -0.01146746
| 89> C   -0.57190649    1.13402416    0.53081281
| 90> H   -0.93769935    2.15171058    0.55107764
| 91> C   -0.75733921   -0.71596059    4.19493667
| 92> H   -0.86359305   -0.54101143    3.12262981
| 93> H   -1.40897678   -1.54522449    4.46808734
| 94> C    0.71220198   -0.97302368    4.53906655
| 95> H    1.20743276   -1.61060873    3.80848227
| 96> H    0.77548116   -1.47323745    5.50653319
| 97> C    1.35233903    0.43237299    4.63001941
| 98> H    2.00260734    0.62504393    3.77816648
| 99> H    1.96520621    0.52154242    5.52574477
|100> C    0.17329290    1.43155001    4.65689145
|101> H    0.05614142    1.89052040    3.67460611
|102> H    0.31888649    2.23305484    5.37929005
|103> C   -1.06047886    0.57445482    4.95254031
|104> H   -1.99146737    1.05019227    4.64662717
|105> H   -1.12590462    0.36513391    6.02307555
|106> *
|107>
|108>
|109>
|110>
|111>                          ****END OF INPUT****
 Total Charge           Charge          ....    0
 Multiplicity           Mult            ....    1
 Number of Electrons    NEL             ....   82
MP2 TOTAL ENERGY:     -427.471420325 Eh
FINAL SINGLE POINT ENERGY      -427.471420324546
MP2 TOTAL ENERGY:     -427.864222662 Eh
FINAL SINGLE POINT ENERGY      -427.864222661804

CARTESIAN COORDINATES (ANGSTROEM)
---------------------------------
  C      0.765545    0.868244    0.820991
  H      1.437476    1.680007    1.065103
  C      1.237653   -0.442838    0.793888
  H      2.275759   -0.648538    1.017711
  C      0.372237   -1.488537    0.477269
  H      0.738188   -2.506080    0.457056
  C     -0.964933   -1.222972    0.186878
  H     -1.636459   -2.034561   -0.057774
  C     -1.437065    0.088406    0.213277
  H     -2.474684    0.294302   -0.011467
  C     -0.571906    1.134024    0.530813
  H     -0.937699    2.151711    0.551078
  C     -0.757339   -0.715961    4.194937
  H     -0.863593   -0.541011    3.122630
  H     -1.408977   -1.545224    4.468087
  C      0.712202   -0.973024    4.539067
  H      1.207433   -1.610609    3.808482
  H      0.775481   -1.473237    5.506533
  C      1.352339    0.432373    4.630019
  H      2.002607    0.625044    3.778166
  H      1.965206    0.521542    5.525745
  C      0.173293    1.431550    4.656891
  H      0.056141    1.890520    3.674606
  H      0.318886    2.233055    5.379290
  C     -1.060479    0.574455    4.952540
  H     -1.991467    1.050192    4.646627
  H     -1.125905    0.365134    6.023076

 Multiplicity           Mult            ....    1
 Number of Electrons    NEL             ....   82
 Basis Dimension        Dim             .... 1616

ORBITAL ENERGIES
----------------

  NO   OCC          E(Eh)            E(eV)
   0   2.0000     -11.237138      -305.7781
   1   2.0000     -11.236560      -305.7624
   2   2.0000     -11.236533      -305.7616
   3   2.0000     -11.235329      -305.7288
   4   2.0000     -11.235283      -305.7276
   5   2.0000     -11.234685      -305.7113
   6   2.0000     -11.203434      -304.8609
   7   2.0000     -11.202630      -304.8391
   8   2.0000     -11.201893      -304.8190
   9   2.0000     -11.201662      -304.8127
  10   2.0000     -11.198014      -304.7134
  11   2.0000      -1.152445       -31.3596
  12   2.0000      -1.108922       -30.1753
  13   2.0000      -1.016785       -27.6681
  14   2.0000      -1.016724       -27.6665
  15   2.0000      -0.949553       -25.8386
  16   2.0000      -0.948756       -25.8170
  17   2.0000      -0.826167       -22.4811
  18   2.0000      -0.826146       -22.4806
  19   2.0000      -0.769275       -20.9330
  20   2.0000      -0.760519       -20.6948
  21   2.0000      -0.711964       -19.3735
  22   2.0000      -0.646256       -17.5855
  23   2.0000      -0.643793       -17.5185
  24   2.0000      -0.637663       -17.3517
  25   2.0000      -0.621249       -16.9050
  26   2.0000      -0.590320       -16.0634
  27   2.0000      -0.590288       -16.0625
  28   2.0000      -0.563514       -15.3340
  29   2.0000      -0.562005       -15.2929
  30   2.0000      -0.506494       -13.7824
  31   2.0000      -0.497038       -13.5251
  32   2.0000      -0.497025       -13.5247
  33   2.0000      -0.468215       -12.7408
  34   2.0000      -0.466954       -12.7065
  35   2.0000      -0.457146       -12.4396
  36   2.0000      -0.451765       -12.2932
  37   2.0000      -0.450437       -12.2570
  38   2.0000      -0.442776       -12.0485
  39   2.0000      -0.339362        -9.2345
  40   2.0000      -0.339224        -9.2307
  41   0.0000       0.022647         0.6163
  42   0.0000       0.028376         0.7722
  43   0.0000       0.029063         0.7909
  44   0.0000       0.033032         0.8989
  45   0.0000       0.039485         1.0744

MULLIKEN ATOMIC CHARGES
-----------------------
   0 C :   -0.212416
   1 H :    0.287956
   2 C :   -0.271599
   3 H :    0.257850
   4 C :   -0.347334
   5 H :    0.253408
   6 C :   -0.249347
   7 H :    0.327469
   8 C :   -0.301614
   9 H :    0.304073
  10 C :   -0.370178
  11 H :    0.290984
  12 C :   -0.740543
  13 H :    0.561613
  14 H :    0.341753
  15 C :   -0.688295
  16 H :    0.356899
  17 H :    0.265125
  18 C :   -0.520767
  19 H :    0.206160
  20 H :    0.321329
  21 C :   -0.684203
  22 H :    0.317584
  23 H :    0.317511
  24 C :   -0.578243
  25 H :    0.306317
  26 H :    0.248510
Sum of atomic charges:   -0.0000000

LOEWDIN ATOMIC CHARGES
----------------------
   0 C :    0.319194
   1 H :   -0.317533
   2 C :    0.320945
   3 H :   -0.316697
   4 C :    0.330062
   5 H :   -0.319141
   6 C :    0.331351
   7 H :   -0.321319
   8 C :    0.332246
   9 H :   -0.321588
  10 C :    0.330903
  11 H :   -0.319071
  12 C :    0.515470
  13 H :   -0.310967
  14 H :   -0.247868
  15 C :    0.534485
  16 H :   -0.268452
  17 H :   -0.267508
  18 C :    0.546263
  19 H :   -0.282596
  20 H :   -0.266409
  21 C :    0.532486
  22 H :   -0.288248
  23 H :   -0.257921
  24 C :    0.529198
  25 H :   -0.254378
  26 H :   -0.262908

  Mayer bond orders larger than 0.100000
B(  0-C ,  1-H ) :   1.0451 B(  0-C ,  2-C ) :   1.1465 B(  0-C ,  6-C ) :   0.1520
B(  0-C , 10-C ) :   1.1912 B(  2-C ,  3-H ) :   1.0811 B(  2-C ,  4-C ) :   1.2068
B(  2-C ,  8-C ) :   0.1670 B(  4-C ,  5-H ) :   1.1203 B(  4-C ,  6-C ) :   1.1944
B(  4-C , 10-C ) :   0.2046 B(  6-C ,  7-H ) :   1.0468 B(  6-C ,  8-C ) :   1.1816
B(  8-C ,  9-H ) :   1.0633 B(  8-C , 10-C ) :   1.2223 B( 10-C , 11-H ) :   1.0732
B( 12-C , 13-H ) :   0.6715 B( 12-C , 14-H ) :   0.8893 B( 12-C , 15-C ) :   0.9177
B( 12-C , 24-C ) :   1.0025 B( 15-C , 16-H ) :   0.8363 B( 15-C , 17-H ) :   0.9641
B( 15-C , 18-C ) :   0.9755 B( 18-C , 19-H ) :   0.9733 B( 18-C , 20-H ) :   0.8932
B( 18-C , 21-C ) :   0.9670 B( 21-C , 22-H ) :   0.8520 B( 21-C , 23-H ) :   0.8971
B( 21-C , 24-C ) :   1.0004 B( 24-C , 25-H ) :   0.8568 B( 24-C , 26-H ) :   0.9454

MP2 TOTAL ENERGY:     -427.985265233 Eh
FINAL SINGLE POINT ENERGY      -427.985265232947

DIPOLE MOMENT
-------------
                                X             Y             Z
Electronic contribution:     -0.52795      -0.78391      -9.42864
Nuclear contribution   :      0.49996       0.76034       9.31576
                        -----------------------------------------
Total Dipole Moment    :     -0.02798      -0.02356      -0.11288
                        -----------------------------------------
Magnitude (a.u.)       :      0.11866
Magnitude (Debye)      :      0.30161

Rotational constants in cm-1:     0.057286     0.021312     0.020987
Rotational constants in MHz :  1717.385714   638.922921   629.159870

                             ****ORCA TERMINATED NORMALLY****
TOTAL RUN TIME: 0 days 1 hours 49 minutes 39 seconds 627 msec
