                         Program Version 5.0.4 -  RELEASE  -
|  1> ! ri-mp2 aug-cc-pvdz aug-cc-pvdz/c tightscf
|  2> %pal nprocs 16 end
|  3> %maxcore 3800
|  4> %base "DZ_S66by10_28_1.25_dimer"
|  5>
|  6> *xyz 0 1
|  7> C    0.82576911    1.23652484   -0.04025044
|  8> H    1.52101317    2.06312520   -0.08247145
|  9> C    1.30015992   -0.06294088    0.12725601
| 10> H    2.36365753   -0.24226113    0.20767420
| 11> C    0.40352312   -1.12855218    0.19824486
| 12> H    0.77375338   -2.13742677    0.32412109
| 13> C   -0.96780949   -0.89519049    0.10313994
| 14> H   -1.66520900   -1.71998342    0.16042745
| 15> C   -1.44350838    0.40448328   -0.06244130
| 16> H   -2.50751124    0.58550112   -0.12415016
| 17> C   -0.54575549    1.46876875   -0.13624741
| 18> H   -0.91422190    2.47742220   -0.26785516
| 19> N   -0.24660989    0.59212261    3.96498495
| 20> H   -0.61991728    1.49388403    3.70209198
| 21> C    1.14553679    0.51913570    4.09699829
| 22> O    1.83644711    1.51355939    3.95216422
| 23> C    1.62443691   -0.81494201    4.41510849
| 24> H    2.68148900   -0.96715795    4.54922962
| 25> C    0.74472768   -1.82932319    4.54132501
| 26> H    1.05065520   -2.83774380    4.77784937
| 27> N   -0.60051821   -1.64429127    4.37123287
| 28> H   -1.24926604   -2.40685021    4.47010204
| 29> C   -1.17496652   -0.41949024    4.07181826
| 30> O   -2.37275493   -0.26866696    3.92970606
| 31> *
| 32>
| 33> $new_job
| 34> ! ri-mp2 aug-cc-pvtz aug-cc-pvtz/c tightscf
| 35> %pal nprocs 16 end
| 36> %maxcore 3800
| 37> %base "TZ_S66by10_28_1.25_dimer"
| 38>
| 39> *xyz 0 1
| 40> C    0.82576911    1.23652484   -0.04025044
| 41> H    1.52101317    2.06312520   -0.08247145
| 42> C    1.30015992   -0.06294088    0.12725601
| 43> H    2.36365753   -0.24226113    0.20767420
| 44> C    0.40352312   -1.12855218    0.19824486
| 45> H    0.77375338   -2.13742677    0.32412109
| 46> C   -0.96780949   -0.89519049    0.10313994
| 47> H   -1.66520900   -1.71998342    0.16042745
| 48> C   -1.44350838    0.40448328   -0.06244130
| 49> H   -2.50751124    0.58550112   -0.12415016
| 50> C   -0.54575549    1.46876875   -0.13624741
| 51> H   -0.91422190    2.47742220   -0.26785516
| 52> N   -0.24660989    0.59212261    3.96498495
| 53> H   -0.61991728    1.49388403    3.70209198
| 54> C    1.14553679    0.51913570    4.09699829
| 55> O    1.83644711    1.51355939    3.95216422
| 56> C    1.62443691   -0.81494201    4.41510849
| 57> H    2.68148900   -0.96715795    4.54922962
| 58> C    0.74472768   -1.82932319    4.54132501
| 59> H    1.05065520   -2.83774380    4.77784937
| 60> N   -0.60051821   -1.64429127    4.37123287
| 61> H   -1.24926604   -2.40685021    4.47010204
| 62> C   -1.17496652   -0.41949024    4.07181826
| 63> O   -2.37275493   -0.26866696    3.92970606
| 64> *
| 65>
| 66> $new_job
| 67> ! ri-mp2 aug-cc-pvqz aug-cc-pvqz/c tightscf
| 68> %pal nprocs 16 end
| 69> %maxcore 3800
| 70> %base "QZ_S66by10_28_1.25_dimer"
| 71>
| 72> *xyz 0 1
| 73> C    0.82576911    1.23652484   -0.04025044
| 74> H    1.52101317    2.06312520   -0.08247145
| 75> C    1.30015992   -0.06294088    0.12725601
| 76> H    2.36365753   -0.24226113    0.20767420
| 77> C    0.40352312   -1.12855218    0.19824486
| 78> H    0.77375338   -2.13742677    0.32412109
| 79> C   -0.96780949   -0.89519049    0.10313994
| 80> H   -1.66520900   -1.71998342    0.16042745
| 81> C   -1.44350838    0.40448328   -0.06244130
| 82> H   -2.50751124    0.58550112   -0.12415016
| 83> C   -0.54575549    1.46876875   -0.13624741
| 84> H   -0.91422190    2.47742220   -0.26785516
| 85> N   -0.24660989    0.59212261    3.96498495
| 86> H   -0.61991728    1.49388403    3.70209198
| 87> C    1.14553679    0.51913570    4.09699829
| 88> O    1.83644711    1.51355939    3.95216422
| 89> C    1.62443691   -0.81494201    4.41510849
| 90> H    2.68148900   -0.96715795    4.54922962
| 91> C    0.74472768   -1.82932319    4.54132501
| 92> H    1.05065520   -2.83774380    4.77784937
| 93> N   -0.60051821   -1.64429127    4.37123287
| 94> H   -1.24926604   -2.40685021    4.47010204
| 95> C   -1.17496652   -0.41949024    4.07181826
| 96> O   -2.37275493   -0.26866696    3.92970606
| 97> *
| 98>
| 99>
|100>
|101>
|102>                          ****END OF INPUT****
 Total Charge           Charge          ....    0
 Multiplicity           Mult            ....    1
 Number of Electrons    NEL             ....  100
MP2 TOTAL ENERGY:     -645.325289841 Eh
FINAL SINGLE POINT ENERGY      -645.325289840788
MP2 TOTAL ENERGY:     -645.877572377 Eh
FINAL SINGLE POINT ENERGY      -645.877572377147

CARTESIAN COORDINATES (ANGSTROEM)
---------------------------------
  C      0.825769    1.236525   -0.040250
  H      1.521013    2.063125   -0.082471
  C      1.300160   -0.062941    0.127256
  H      2.363658   -0.242261    0.207674
  C      0.403523   -1.128552    0.198245
  H      0.773753   -2.137427    0.324121
  C     -0.967809   -0.895190    0.103140
  H     -1.665209   -1.719983    0.160427
  C     -1.443508    0.404483   -0.062441
  H     -2.507511    0.585501   -0.124150
  C     -0.545755    1.468769   -0.136247
  H     -0.914222    2.477422   -0.267855
  N     -0.246610    0.592123    3.964985
  H     -0.619917    1.493884    3.702092
  C      1.145537    0.519136    4.096998
  O      1.836447    1.513559    3.952164
  C      1.624437   -0.814942    4.415108
  H      2.681489   -0.967158    4.549230
  C      0.744728   -1.829323    4.541325
  H      1.050655   -2.837744    4.777849
  N     -0.600518   -1.644291    4.371233
  H     -1.249266   -2.406850    4.470102
  C     -1.174967   -0.419490    4.071818
  O     -2.372755   -0.268667    3.929706

 Multiplicity           Mult            ....    1
 Number of Electrons    NEL             ....  100
 Basis Dimension        Dim             .... 1580

ORBITAL ENERGIES
----------------

  NO   OCC          E(Eh)            E(eV)
   0   2.0000     -20.539204      -558.9002
   1   2.0000     -20.533695      -558.7503
   2   2.0000     -15.637396      -425.5152
   3   2.0000     -15.619215      -425.0204
   4   2.0000     -11.412443      -310.5484
   5   2.0000     -11.374531      -309.5167
   6   2.0000     -11.335123      -308.4444
   7   2.0000     -11.249761      -306.1216
   8   2.0000     -11.235715      -305.7394
   9   2.0000     -11.234333      -305.7017
  10   2.0000     -11.233967      -305.6918
  11   2.0000     -11.233280      -305.6731
  12   2.0000     -11.232701      -305.6573
  13   2.0000     -11.232004      -305.6384
  14   2.0000      -1.430293       -38.9202
  15   2.0000      -1.391949       -37.8769
  16   2.0000      -1.307986       -35.5921
  17   2.0000      -1.240435       -33.7540
  18   2.0000      -1.149758       -31.2865
  19   2.0000      -1.083179       -29.4748
  20   2.0000      -1.014245       -27.5990
  21   2.0000      -1.014059       -27.5939
  22   2.0000      -0.928387       -25.2627
  23   2.0000      -0.896724       -24.4011
  24   2.0000      -0.823808       -22.4169
  25   2.0000      -0.823285       -22.4027
  26   2.0000      -0.802369       -21.8336
  27   2.0000      -0.760279       -20.6882
  28   2.0000      -0.709808       -19.3149
  29   2.0000      -0.709199       -19.2983
  30   2.0000      -0.672892       -18.3103
  31   2.0000      -0.663564       -18.0565
  32   2.0000      -0.648183       -17.6380
  33   2.0000      -0.643624       -17.5139
  34   2.0000      -0.618693       -16.8355
  35   2.0000      -0.610364       -16.6088
  36   2.0000      -0.597082       -16.2474
  37   2.0000      -0.587785       -15.9945
  38   2.0000      -0.587499       -15.9867
  39   2.0000      -0.565565       -15.3898
  40   2.0000      -0.521478       -14.1901
  41   2.0000      -0.502429       -13.6718
  42   2.0000      -0.494535       -13.4570
  43   2.0000      -0.494349       -13.4519
  44   2.0000      -0.478718       -13.0266
  45   2.0000      -0.444686       -12.1005
  46   2.0000      -0.431617       -11.7449
  47   2.0000      -0.364430        -9.9166
  48   2.0000      -0.337481        -9.1833
  49   2.0000      -0.336150        -9.1471
  50   0.0000       0.012334         0.3356
  51   0.0000       0.028102         0.7647
  52   0.0000       0.030501         0.8300
  53   0.0000       0.032102         0.8736
  54   0.0000       0.039343         1.0706

MULLIKEN ATOMIC CHARGES
-----------------------
   0 C :   -0.228914
   1 H :    0.318654
   2 C :   -0.388022
   3 H :    0.295288
   4 C :   -0.301003
   5 H :    0.307192
   6 C :   -0.386807
   7 H :    0.302795
   8 C :   -0.229329
   9 H :    0.315268
  10 C :   -0.320744
  11 H :    0.335793
  12 N :   -0.717654
  13 H :    0.125234
  14 C :    1.267403
  15 O :   -0.889693
  16 C :   -0.408243
  17 H :    0.301046
  18 C :   -0.187738
  19 H :    0.419267
  20 N :   -0.664080
  21 H :    0.069008
  22 C :    1.521145
  23 O :   -0.855866
Sum of atomic charges:   -0.0000000

LOEWDIN ATOMIC CHARGES
----------------------
   0 C :    0.328386
   1 H :   -0.322312
   2 C :    0.322406
   3 H :   -0.323181
   4 C :    0.319656
   5 H :   -0.326510
   6 C :    0.321370
   7 H :   -0.324808
   8 C :    0.327169
   9 H :   -0.323207
  10 C :    0.329545
  11 H :   -0.324917
  12 N :    0.778056
  13 H :   -0.517842
  14 C :   -0.877033
  15 O :    0.689479
  16 C :    0.328302
  17 H :   -0.353516
  18 C :    0.231876
  19 H :   -0.297731
  20 N :    0.811356
  21 H :   -0.493116
  22 C :   -0.999619
  23 O :    0.696192

  Mayer bond orders larger than 0.100000
B(  0-C ,  1-H ) :   1.0273 B(  0-C ,  2-C ) :   1.2135 B(  0-C ,  6-C ) :   0.1797
B(  0-C , 10-C ) :   1.2186 B(  2-C ,  3-H ) :   1.0465 B(  2-C ,  4-C ) :   1.2148
B(  2-C ,  8-C ) :   0.1683 B(  4-C ,  5-H ) :   1.0202 B(  4-C ,  6-C ) :   1.2279
B(  4-C , 10-C ) :   0.1707 B(  6-C ,  7-H ) :   1.0408 B(  6-C ,  8-C ) :   1.2050
B(  8-C ,  9-H ) :   1.0351 B(  8-C , 10-C ) :   1.2265 B( 10-C , 11-H ) :   1.0078
B( 12-N , 13-H ) :   1.1366 B( 12-N , 14-C ) :   0.9558 B( 12-N , 15-O ) :   0.2381
B( 12-N , 22-C ) :   1.1211 B( 12-N , 23-O ) :   0.2369 B( 14-C , 15-O ) :   0.9105
B( 14-C , 16-C ) :   1.1321 B( 14-C , 18-C ) :  -0.1106 B( 15-O , 16-C ) :   0.2376
B( 16-C , 17-H ) :   0.9962 B( 16-C , 18-C ) :   1.4972 B( 17-H , 18-C ) :  -0.1011
B( 18-C , 19-H ) :   0.9275 B( 18-C , 20-N ) :   0.8516 B( 20-N , 21-H ) :   1.2184
B( 20-N , 22-C ) :   1.0573 B( 20-N , 23-O ) :   0.2179 B( 22-C , 23-O ) :   0.9573

MP2 TOTAL ENERGY:     -646.057160220 Eh
FINAL SINGLE POINT ENERGY      -646.057160219912

DIPOLE MOMENT
-------------
                                X             Y             Z
Electronic contribution:     -0.92146       0.81578       6.75233
Nuclear contribution   :      1.13668      -2.61757      -6.43442
                        -----------------------------------------
Total Dipole Moment    :      0.21522      -1.80179       0.31790
                        -----------------------------------------
Magnitude (a.u.)       :      1.84224
Magnitude (Debye)      :      4.68260

Rotational constants in cm-1:     0.031667     0.016659     0.014566
Rotational constants in MHz :   949.364387   499.425694   436.676821

                             ****ORCA TERMINATED NORMALLY****
TOTAL RUN TIME: 0 days 1 hours 51 minutes 59 seconds 85 msec
