                         Program Version 5.0.4 -  RELEASE  -
|  1> ! ri-mp2 aug-cc-pvdz aug-cc-pvdz/c tightscf
|  2> %pal nprocs 16 end
|  3> %maxcore 3800
|  4> %base "DZ_S66by10_63_1.0_dimer"
|  5>
|  6> *xyz 0 1
|  7> C    0.60678496    1.33042185    0.31643451
|  8> H    1.24649846    2.20226434    0.33035231
|  9> C    1.11808466    0.08724886    0.68511652
| 10> H    2.15005753   -0.00388678    0.99375824
| 11> C    0.29290229   -1.03608737    0.66910727
| 12> H    0.68849686   -2.00096149    0.95537797
| 13> C   -1.04283174   -0.91671112    0.28818964
| 14> H   -1.68270956   -1.78848825    0.27934903
| 15> C   -1.55358838    0.32734899   -0.07994317
| 16> H   -2.58923495    0.42028908   -0.37734619
| 17> C   -0.72804164    1.45084316   -0.06684834
| 18> H   -1.12362379    2.41565865   -0.35386143
| 19> C    0.41822061   -0.27055440    4.03174704
| 20> O    1.61371328   -0.10660365    4.10826281
| 21> O   -0.16128107   -1.48195936    4.23118539
| 22> H    0.57316979   -2.08306785    4.42422351
| 23> C   -0.60366362    0.77337712    3.71106586
| 24> H   -0.12536920    1.74432347    3.66424309
| 25> H   -1.05646372    0.54018093    2.74835781
| 26> H   -1.38851463    0.76784062    4.46356534
| 27> *
| 28>
| 29> $new_job
| 30> ! ri-mp2 aug-cc-pvtz aug-cc-pvtz/c tightscf
| 31> %pal nprocs 16 end
| 32> %maxcore 3800
| 33> %base "TZ_S66by10_63_1.0_dimer"
| 34>
| 35> *xyz 0 1
| 36> C    0.60678496    1.33042185    0.31643451
| 37> H    1.24649846    2.20226434    0.33035231
| 38> C    1.11808466    0.08724886    0.68511652
| 39> H    2.15005753   -0.00388678    0.99375824
| 40> C    0.29290229   -1.03608737    0.66910727
| 41> H    0.68849686   -2.00096149    0.95537797
| 42> C   -1.04283174   -0.91671112    0.28818964
| 43> H   -1.68270956   -1.78848825    0.27934903
| 44> C   -1.55358838    0.32734899   -0.07994317
| 45> H   -2.58923495    0.42028908   -0.37734619
| 46> C   -0.72804164    1.45084316   -0.06684834
| 47> H   -1.12362379    2.41565865   -0.35386143
| 48> C    0.41822061   -0.27055440    4.03174704
| 49> O    1.61371328   -0.10660365    4.10826281
| 50> O   -0.16128107   -1.48195936    4.23118539
| 51> H    0.57316979   -2.08306785    4.42422351
| 52> C   -0.60366362    0.77337712    3.71106586
| 53> H   -0.12536920    1.74432347    3.66424309
| 54> H   -1.05646372    0.54018093    2.74835781
| 55> H   -1.38851463    0.76784062    4.46356534
| 56> *
| 57>
| 58> $new_job
| 59> ! ri-mp2 aug-cc-pvqz aug-cc-pvqz/c tightscf
| 60> %pal nprocs 16 end
| 61> %maxcore 3800
| 62> %base "QZ_S66by10_63_1.0_dimer"
| 63>
| 64> *xyz 0 1
| 65> C    0.60678496    1.33042185    0.31643451
| 66> H    1.24649846    2.20226434    0.33035231
| 67> C    1.11808466    0.08724886    0.68511652
| 68> H    2.15005753   -0.00388678    0.99375824
| 69> C    0.29290229   -1.03608737    0.66910727
| 70> H    0.68849686   -2.00096149    0.95537797
| 71> C   -1.04283174   -0.91671112    0.28818964
| 72> H   -1.68270956   -1.78848825    0.27934903
| 73> C   -1.55358838    0.32734899   -0.07994317
| 74> H   -2.58923495    0.42028908   -0.37734619
| 75> C   -0.72804164    1.45084316   -0.06684834
| 76> H   -1.12362379    2.41565865   -0.35386143
| 77> C    0.41822061   -0.27055440    4.03174704
| 78> O    1.61371328   -0.10660365    4.10826281
| 79> O   -0.16128107   -1.48195936    4.23118539
| 80> H    0.57316979   -2.08306785    4.42422351
| 81> C   -0.60366362    0.77337712    3.71106586
| 82> H   -0.12536920    1.74432347    3.66424309
| 83> H   -1.05646372    0.54018093    2.74835781
| 84> H   -1.38851463    0.76784062    4.46356534
| 85> *
| 86>
| 87>
| 88>
| 89>
| 90>                          ****END OF INPUT****
 Total Charge           Charge          ....    0
 Multiplicity           Mult            ....    1
 Number of Electrons    NEL             ....   74
MP2 TOTAL ENERGY:     -460.073371162 Eh
FINAL SINGLE POINT ENERGY      -460.073371162056
MP2 TOTAL ENERGY:     -460.476087803 Eh
FINAL SINGLE POINT ENERGY      -460.476087803318

CARTESIAN COORDINATES (ANGSTROEM)
---------------------------------
  C      0.606785    1.330422    0.316435
  H      1.246498    2.202264    0.330352
  C      1.118085    0.087249    0.685117
  H      2.150058   -0.003887    0.993758
  C      0.292902   -1.036087    0.669107
  H      0.688497   -2.000961    0.955378
  C     -1.042832   -0.916711    0.288190
  H     -1.682710   -1.788488    0.279349
  C     -1.553588    0.327349   -0.079943
  H     -2.589235    0.420289   -0.377346
  C     -0.728042    1.450843   -0.066848
  H     -1.123624    2.415659   -0.353861
  C      0.418221   -0.270554    4.031747
  O      1.613713   -0.106604    4.108263
  O     -0.161281   -1.481959    4.231185
  H      0.573170   -2.083068    4.424224
  C     -0.603664    0.773377    3.711066
  H     -0.125369    1.744323    3.664243
  H     -1.056464    0.540181    2.748358
  H     -1.388515    0.767841    4.463565

 Multiplicity           Mult            ....    1
 Number of Electrons    NEL             ....   74
 Basis Dimension        Dim             .... 1260

ORBITAL ENERGIES
----------------

  NO   OCC          E(Eh)            E(eV)
   0   2.0000     -20.606013      -560.7181
   1   2.0000     -20.542181      -558.9812
   2   2.0000     -11.382016      -309.7204
   3   2.0000     -11.239452      -305.8410
   4   2.0000     -11.238792      -305.8231
   5   2.0000     -11.237863      -305.7978
   6   2.0000     -11.237108      -305.7772
   7   2.0000     -11.236691      -305.7659
   8   2.0000     -11.235373      -305.7300
   9   2.0000     -11.231445      -305.6232
  10   2.0000      -1.458980       -39.7009
  11   2.0000      -1.354626       -36.8612
  12   2.0000      -1.154657       -31.4198
  13   2.0000      -1.020411       -27.7668
  14   2.0000      -1.018701       -27.7203
  15   2.0000      -1.018169       -27.7058
  16   2.0000      -0.827851       -22.5270
  17   2.0000      -0.827535       -22.5184
  18   2.0000      -0.813924       -22.1480
  19   2.0000      -0.713458       -19.4142
  20   2.0000      -0.701428       -19.0868
  21   2.0000      -0.673308       -18.3216
  22   2.0000      -0.647413       -17.6170
  23   2.0000      -0.645476       -17.5643
  24   2.0000      -0.622817       -16.9477
  25   2.0000      -0.591963       -16.1081
  26   2.0000      -0.591411       -16.0931
  27   2.0000      -0.579032       -15.7563
  28   2.0000      -0.564857       -15.3705
  29   2.0000      -0.556220       -15.1355
  30   2.0000      -0.502357       -13.6698
  31   2.0000      -0.498621       -13.5682
  32   2.0000      -0.498314       -13.5598
  33   2.0000      -0.479397       -13.0451
  34   2.0000      -0.449744       -12.2382
  35   2.0000      -0.342271        -9.3137
  36   2.0000      -0.341315        -9.2877
  37   0.0000       0.022776         0.6198
  38   0.0000       0.027956         0.7607
  39   0.0000       0.031552         0.8586
  40   0.0000       0.035614         0.9691
  41   0.0000       0.041263         1.1228

MULLIKEN ATOMIC CHARGES
-----------------------
   0 C :   -0.393537
   1 H :    0.310280
   2 C :   -0.261433
   3 H :    0.260644
   4 C :   -0.305514
   5 H :    0.324188
   6 C :   -0.339233
   7 H :    0.287845
   8 C :   -0.293135
   9 H :    0.331529
  10 C :   -0.293815
  11 H :    0.329644
  12 C :    1.212336
  13 O :   -0.855794
  14 O :   -0.757185
  15 H :    0.309481
  16 C :   -0.965500
  17 H :    0.333050
  18 H :    0.423036
  19 H :    0.343115
Sum of atomic charges:    0.0000000

LOEWDIN ATOMIC CHARGES
----------------------
   0 C :    0.327168
   1 H :   -0.318262
   2 C :    0.311384
   3 H :   -0.317883
   4 C :    0.312756
   5 H :   -0.317718
   6 C :    0.327597
   7 H :   -0.318996
   8 C :    0.327869
   9 H :   -0.322376
  10 C :    0.327432
  11 H :   -0.321766
  12 C :   -1.045424
  13 O :    0.703076
  14 O :    1.254114
  15 H :   -0.830697
  16 C :    0.859328
  17 H :   -0.309376
  18 H :   -0.355874
  19 H :   -0.292353

  Mayer bond orders larger than 0.100000
B(  0-C ,  1-H ) :   1.0415 B(  0-C ,  2-C ) :   1.2307 B(  0-C ,  6-C ) :   0.1859
B(  0-C , 10-C ) :   1.2117 B(  2-C ,  3-H ) :   1.0737 B(  2-C ,  4-C ) :   1.1863
B(  2-C ,  8-C ) :   0.1585 B(  4-C ,  5-H ) :   1.0312 B(  4-C ,  6-C ) :   1.1865
B(  4-C , 10-C ) :   0.1470 B(  6-C ,  7-H ) :   1.0910 B(  6-C ,  8-C ) :   1.2120
B(  8-C ,  9-H ) :   1.0441 B(  8-C , 10-C ) :   1.1930 B( 10-C , 11-H ) :   1.0404
B( 12-C , 13-O ) :   1.2688 B( 12-C , 14-O ) :   0.7191 B( 12-C , 16-C ) :   1.0288
B( 14-O , 15-H ) :   0.9094 B( 16-C , 17-H ) :   0.9367 B( 16-C , 18-H ) :   0.7900
B( 16-C , 19-H ) :   0.9289

MP2 TOTAL ENERGY:     -460.605396092 Eh
FINAL SINGLE POINT ENERGY      -460.605396091946

DIPOLE MOMENT
-------------
                                X             Y             Z
Electronic contribution:      2.51166      -2.27087       1.71178
Nuclear contribution   :     -3.21668       2.20456      -1.88910
                        -----------------------------------------
Total Dipole Moment    :     -0.70501      -0.06631      -0.17732
                        -----------------------------------------
Magnitude (a.u.)       :      0.72999
Magnitude (Debye)      :      1.85548

Rotational constants in cm-1:     0.071782     0.026686     0.025563
Rotational constants in MHz :  2151.957053   800.025832   766.354515

                             ****ORCA TERMINATED NORMALLY****
TOTAL RUN TIME: 0 days 1 hours 14 minutes 52 seconds 761 msec
