                         Program Version 5.0.4 -  RELEASE  -
|  1> ! ri-mp2 aug-cc-pvdz aug-cc-pvdz/c tightscf
|  2> %pal nprocs 16 end
|  3> %maxcore 3800
|  4> %base "DZ_S66by10_29_1.1_dimer"
|  5>
|  6> *xyz 0 1
|  7> N    1.21075533    0.02867578    0.32971111
|  8> C    0.61193497   -1.15844901    0.15345176
|  9> H    1.25147791   -2.02952340    0.21929295
| 10> C   -0.75131399   -1.30864956   -0.08883407
| 11> H   -1.17041577   -2.29686932   -0.21338320
| 12> C   -1.54786767   -0.16994027   -0.15646691
| 13> H   -2.61101275   -0.24595469   -0.33875574
| 14> C   -0.94362237    1.07063612    0.01982310
| 15> H   -1.51881431    1.98450028   -0.01164403
| 16> C    0.42771857    1.11610863    0.25734879
| 17> H    0.92469451    2.06805173    0.39754798
| 18> N   -0.68422301   -0.26737285    3.62198015
| 19> H   -1.57911203   -0.69923634    3.43737666
| 20> C   -0.68396813    1.13043694    3.71499115
| 21> O   -1.72385121    1.75863675    3.60014102
| 22> C    0.63552663    1.68951829    3.94255422
| 23> H    0.73684299    2.75674046    4.03842240
| 24> C    1.70540022    0.87082598    4.01407427
| 25> H    2.70927926    1.23949068    4.16250080
| 26> N    1.58733908   -0.48646728    3.90151961
| 27> H    2.40077507   -1.07865463    3.89335197
| 28> C    0.38689214   -1.13369971    3.67513791
| 29> O    0.29475489   -2.33911778    3.54155863
| 30> *
| 31>
| 32> $new_job
| 33> ! ri-mp2 aug-cc-pvtz aug-cc-pvtz/c tightscf
| 34> %pal nprocs 16 end
| 35> %maxcore 3800
| 36> %base "TZ_S66by10_29_1.1_dimer"
| 37>
| 38> *xyz 0 1
| 39> N    1.21075533    0.02867578    0.32971111
| 40> C    0.61193497   -1.15844901    0.15345176
| 41> H    1.25147791   -2.02952340    0.21929295
| 42> C   -0.75131399   -1.30864956   -0.08883407
| 43> H   -1.17041577   -2.29686932   -0.21338320
| 44> C   -1.54786767   -0.16994027   -0.15646691
| 45> H   -2.61101275   -0.24595469   -0.33875574
| 46> C   -0.94362237    1.07063612    0.01982310
| 47> H   -1.51881431    1.98450028   -0.01164403
| 48> C    0.42771857    1.11610863    0.25734879
| 49> H    0.92469451    2.06805173    0.39754798
| 50> N   -0.68422301   -0.26737285    3.62198015
| 51> H   -1.57911203   -0.69923634    3.43737666
| 52> C   -0.68396813    1.13043694    3.71499115
| 53> O   -1.72385121    1.75863675    3.60014102
| 54> C    0.63552663    1.68951829    3.94255422
| 55> H    0.73684299    2.75674046    4.03842240
| 56> C    1.70540022    0.87082598    4.01407427
| 57> H    2.70927926    1.23949068    4.16250080
| 58> N    1.58733908   -0.48646728    3.90151961
| 59> H    2.40077507   -1.07865463    3.89335197
| 60> C    0.38689214   -1.13369971    3.67513791
| 61> O    0.29475489   -2.33911778    3.54155863
| 62> *
| 63>
| 64> $new_job
| 65> ! ri-mp2 aug-cc-pvqz aug-cc-pvqz/c tightscf
| 66> %pal nprocs 16 end
| 67> %maxcore 3800
| 68> %base "QZ_S66by10_29_1.1_dimer"
| 69>
| 70> *xyz 0 1
| 71> N    1.21075533    0.02867578    0.32971111
| 72> C    0.61193497   -1.15844901    0.15345176
| 73> H    1.25147791   -2.02952340    0.21929295
| 74> C   -0.75131399   -1.30864956   -0.08883407
| 75> H   -1.17041577   -2.29686932   -0.21338320
| 76> C   -1.54786767   -0.16994027   -0.15646691
| 77> H   -2.61101275   -0.24595469   -0.33875574
| 78> C   -0.94362237    1.07063612    0.01982310
| 79> H   -1.51881431    1.98450028   -0.01164403
| 80> C    0.42771857    1.11610863    0.25734879
| 81> H    0.92469451    2.06805173    0.39754798
| 82> N   -0.68422301   -0.26737285    3.62198015
| 83> H   -1.57911203   -0.69923634    3.43737666
| 84> C   -0.68396813    1.13043694    3.71499115
| 85> O   -1.72385121    1.75863675    3.60014102
| 86> C    0.63552663    1.68951829    3.94255422
| 87> H    0.73684299    2.75674046    4.03842240
| 88> C    1.70540022    0.87082598    4.01407427
| 89> H    2.70927926    1.23949068    4.16250080
| 90> N    1.58733908   -0.48646728    3.90151961
| 91> H    2.40077507   -1.07865463    3.89335197
| 92> C    0.38689214   -1.13369971    3.67513791
| 93> O    0.29475489   -2.33911778    3.54155863
| 94> *
| 95>
| 96>
| 97>
| 98>
| 99>                          ****END OF INPUT****
 Total Charge           Charge          ....    0
 Multiplicity           Mult            ....    1
 Number of Electrons    NEL             ....  100
MP2 TOTAL ENERGY:     -661.356017720 Eh
FINAL SINGLE POINT ENERGY      -661.356017720117
MP2 TOTAL ENERGY:     -661.915844286 Eh
FINAL SINGLE POINT ENERGY      -661.915844285869

CARTESIAN COORDINATES (ANGSTROEM)
---------------------------------
  N      1.210755    0.028676    0.329711
  C      0.611935   -1.158449    0.153452
  H      1.251478   -2.029523    0.219293
  C     -0.751314   -1.308650   -0.088834
  H     -1.170416   -2.296869   -0.213383
  C     -1.547868   -0.169940   -0.156467
  H     -2.611013   -0.245955   -0.338756
  C     -0.943622    1.070636    0.019823
  H     -1.518814    1.984500   -0.011644
  C      0.427719    1.116109    0.257349
  H      0.924695    2.068052    0.397548
  N     -0.684223   -0.267373    3.621980
  H     -1.579112   -0.699236    3.437377
  C     -0.683968    1.130437    3.714991
  O     -1.723851    1.758637    3.600141
  C      0.635527    1.689518    3.942554
  H      0.736843    2.756740    4.038422
  C      1.705400    0.870826    4.014074
  H      2.709279    1.239491    4.162501
  N      1.587339   -0.486467    3.901520
  H      2.400775   -1.078655    3.893352
  C      0.386892   -1.133700    3.675138
  O      0.294755   -2.339118    3.541559

 Multiplicity           Mult            ....    1
 Number of Electrons    NEL             ....  100
 Basis Dimension        Dim             .... 1534

ORBITAL ENERGIES
----------------

  NO   OCC          E(Eh)            E(eV)
   0   2.0000     -20.538885      -558.8915
   1   2.0000     -20.533720      -558.7509
   2   2.0000     -15.635211      -425.4557
   3   2.0000     -15.619248      -425.0213
   4   2.0000     -15.567965      -423.6259
   5   2.0000     -11.411793      -310.5307
   6   2.0000     -11.374431      -309.5140
   7   2.0000     -11.333325      -308.3954
   8   2.0000     -11.275053      -306.8098
   9   2.0000     -11.274599      -306.7974
  10   2.0000     -11.258814      -306.3679
  11   2.0000     -11.247230      -306.0527
  12   2.0000     -11.240892      -305.8802
  13   2.0000     -11.240233      -305.8623
  14   2.0000      -1.429853       -38.9083
  15   2.0000      -1.391825       -37.8735
  16   2.0000      -1.307189       -35.5704
  17   2.0000      -1.257756       -34.2253
  18   2.0000      -1.239664       -33.7330
  19   2.0000      -1.089656       -29.6511
  20   2.0000      -1.081793       -29.4371
  21   2.0000      -1.033795       -28.1310
  22   2.0000      -0.927715       -25.2444
  23   2.0000      -0.895814       -24.3763
  24   2.0000      -0.859464       -23.3872
  25   2.0000      -0.856064       -23.2947
  26   2.0000      -0.801039       -21.7974
  27   2.0000      -0.759455       -20.6658
  28   2.0000      -0.722294       -19.6546
  29   2.0000      -0.708332       -19.2747
  30   2.0000      -0.672333       -18.2951
  31   2.0000      -0.664067       -18.0702
  32   2.0000      -0.660812       -17.9816
  33   2.0000      -0.653619       -17.7859
  34   2.0000      -0.647505       -17.6195
  35   2.0000      -0.609325       -16.5806
  36   2.0000      -0.598384       -16.2829
  37   2.0000      -0.596118       -16.2212
  38   2.0000      -0.577580       -15.7168
  39   2.0000      -0.566208       -15.4073
  40   2.0000      -0.542132       -14.7522
  41   2.0000      -0.520897       -14.1743
  42   2.0000      -0.518772       -14.1165
  43   2.0000      -0.478777       -13.0282
  44   2.0000      -0.444763       -12.1026
  45   2.0000      -0.432345       -11.7647
  46   2.0000      -0.422891       -11.5075
  47   2.0000      -0.385651       -10.4941
  48   2.0000      -0.362983        -9.8773
  49   2.0000      -0.347463        -9.4549
  50   0.0000       0.016852         0.4586
  51   0.0000       0.027900         0.7592
  52   0.0000       0.029527         0.8035
  53   0.0000       0.035876         0.9762
  54   0.0000       0.038580         1.0498

MULLIKEN ATOMIC CHARGES
-----------------------
   0 N :   -0.803262
   1 C :   -0.139459
   2 H :    0.481798
   3 C :   -0.210937
   4 H :    0.286306
   5 C :   -0.369048
   6 H :    0.359789
   7 C :   -0.313402
   8 H :    0.358093
   9 C :   -0.074564
  10 H :    0.448798
  11 N :   -0.744108
  12 H :    0.092003
  13 C :    1.310076
  14 O :   -0.910962
  15 C :   -0.450080
  16 H :    0.240605
  17 C :   -0.058853
  18 H :    0.422566
  19 N :   -0.703545
  20 H :    0.092922
  21 C :    1.564524
  22 O :   -0.879259
Sum of atomic charges:   -0.0000000

LOEWDIN ATOMIC CHARGES
----------------------
   0 N :    0.590713
   1 C :    0.052673
   2 H :   -0.349977
   3 C :    0.325848
   4 H :   -0.324799
   5 C :    0.329234
   6 H :   -0.310015
   7 C :    0.321729
   8 H :   -0.322356
   9 C :    0.051142
  10 H :   -0.351052
  11 N :    0.776615
  12 H :   -0.518064
  13 C :   -0.886968
  14 O :    0.690171
  15 C :    0.323730
  16 H :   -0.351074
  17 C :    0.230978
  18 H :   -0.293100
  19 N :    0.814221
  20 H :   -0.487759
  21 C :   -1.012031
  22 O :    0.700143

  Mayer bond orders larger than 0.100000
B(  0-N ,  1-C ) :   1.1744 B(  0-N ,  2-H ) :  -0.1470 B(  0-N ,  9-C ) :   1.0921
B(  0-N , 10-H ) :  -0.1465 B(  1-C ,  2-H ) :   0.8751 B(  1-C ,  3-C ) :   1.1361
B(  3-C ,  4-H ) :   1.0408 B(  3-C ,  5-C ) :   1.2612 B(  5-C ,  6-H ) :   0.9595
B(  5-C ,  7-C ) :   1.2291 B(  7-C ,  8-H ) :   0.9728 B(  7-C ,  9-C ) :   1.1659
B(  9-C , 10-H ) :   0.8929 B( 11-N , 12-H ) :   1.1978 B( 11-N , 13-C ) :   0.9456
B( 11-N , 14-O ) :   0.2279 B( 11-N , 21-C ) :   1.0642 B( 11-N , 22-O ) :   0.2142
B( 13-C , 14-O ) :   0.8394 B( 13-C , 15-C ) :   1.1327 B( 14-O , 15-C ) :   0.2278
B( 15-C , 16-H ) :   1.0583 B( 15-C , 17-C ) :   1.4916 B( 17-C , 18-H ) :   0.9234
B( 17-C , 19-N ) :   0.8950 B( 19-N , 20-H ) :   1.1864 B( 19-N , 21-C ) :   1.0594
B( 19-N , 22-O ) :   0.2086 B( 21-C , 22-O ) :   0.9284

MP2 TOTAL ENERGY:     -662.098577791 Eh
FINAL SINGLE POINT ENERGY      -662.098577790944

DIPOLE MOMENT
-------------
                                X             Y             Z
Electronic contribution:      0.19712      -0.99628       4.19536
Nuclear contribution   :      0.79778       1.24471      -4.16954
                        -----------------------------------------
Total Dipole Moment    :      0.99489       0.24843       0.02581
                        -----------------------------------------
Magnitude (a.u.)       :      1.02577
Magnitude (Debye)      :      2.60729

Rotational constants in cm-1:     0.031957     0.020011     0.017152
Rotational constants in MHz :   958.038357   599.919796   514.197961

                             ****ORCA TERMINATED NORMALLY****
TOTAL RUN TIME: 0 days 1 hours 56 minutes 19 seconds 278 msec
