                         Program Version 5.0.4 -  RELEASE  -
|  1> ! ri-mp2 aug-cc-pvdz aug-cc-pvdz/c tightscf
|  2> %pal nprocs 16 end
|  3> %maxcore 3800
|  4> %base "DZ_S66by10_53_0.95_dimer"
|  5>
|  6> *xyz 0 1
|  7> C    0.85556074    0.35853244    1.04975426
|  8> H    1.51382550    0.90267956    1.71276582
|  9> C    1.34289713   -0.67537866    0.25115740
| 10> H    2.39288384   -0.93334472    0.28196305
| 11> C    0.47780661   -1.37670110   -0.58781577
| 12> H    0.85608399   -2.17890753   -1.20682428
| 13> C   -0.87482983   -1.04255615   -0.63045178
| 14> H   -1.54540573   -1.58570014   -1.28241614
| 15> C   -1.36239729   -0.00701391    0.16584645
| 16> H   -2.41157102    0.25346723    0.13077885
| 17> C   -0.49844404    0.69315695    1.00699199
| 18> H   -0.86611090    1.49033989    1.63803696
| 19> C    0.09874484    0.55083922    4.70985052
| 20> O    0.34523419    1.59426546    4.12261123
| 21> N   -0.20530241   -0.60416732    4.05868317
| 22> H   -0.18010209   -0.61118265    3.05204657
| 23> H   -0.36107889   -1.45965963    4.55438488
| 24> C    0.12158954    0.45594739    6.21826799
| 25> H    1.15330334    0.54015967    6.55334178
| 26> H   -0.30031437   -0.47069561    6.59929366
| 27> H   -0.42787512    1.29979370    6.62503850
| 28> *
| 29>
| 30> $new_job
| 31> ! ri-mp2 aug-cc-pvtz aug-cc-pvtz/c tightscf
| 32> %pal nprocs 16 end
| 33> %maxcore 3800
| 34> %base "TZ_S66by10_53_0.95_dimer"
| 35>
| 36> *xyz 0 1
| 37> C    0.85556074    0.35853244    1.04975426
| 38> H    1.51382550    0.90267956    1.71276582
| 39> C    1.34289713   -0.67537866    0.25115740
| 40> H    2.39288384   -0.93334472    0.28196305
| 41> C    0.47780661   -1.37670110   -0.58781577
| 42> H    0.85608399   -2.17890753   -1.20682428
| 43> C   -0.87482983   -1.04255615   -0.63045178
| 44> H   -1.54540573   -1.58570014   -1.28241614
| 45> C   -1.36239729   -0.00701391    0.16584645
| 46> H   -2.41157102    0.25346723    0.13077885
| 47> C   -0.49844404    0.69315695    1.00699199
| 48> H   -0.86611090    1.49033989    1.63803696
| 49> C    0.09874484    0.55083922    4.70985052
| 50> O    0.34523419    1.59426546    4.12261123
| 51> N   -0.20530241   -0.60416732    4.05868317
| 52> H   -0.18010209   -0.61118265    3.05204657
| 53> H   -0.36107889   -1.45965963    4.55438488
| 54> C    0.12158954    0.45594739    6.21826799
| 55> H    1.15330334    0.54015967    6.55334178
| 56> H   -0.30031437   -0.47069561    6.59929366
| 57> H   -0.42787512    1.29979370    6.62503850
| 58> *
| 59>
| 60> $new_job
| 61> ! ri-mp2 aug-cc-pvqz aug-cc-pvqz/c tightscf
| 62> %pal nprocs 16 end
| 63> %maxcore 3800
| 64> %base "QZ_S66by10_53_0.95_dimer"
| 65>
| 66> *xyz 0 1
| 67> C    0.85556074    0.35853244    1.04975426
| 68> H    1.51382550    0.90267956    1.71276582
| 69> C    1.34289713   -0.67537866    0.25115740
| 70> H    2.39288384   -0.93334472    0.28196305
| 71> C    0.47780661   -1.37670110   -0.58781577
| 72> H    0.85608399   -2.17890753   -1.20682428
| 73> C   -0.87482983   -1.04255615   -0.63045178
| 74> H   -1.54540573   -1.58570014   -1.28241614
| 75> C   -1.36239729   -0.00701391    0.16584645
| 76> H   -2.41157102    0.25346723    0.13077885
| 77> C   -0.49844404    0.69315695    1.00699199
| 78> H   -0.86611090    1.49033989    1.63803696
| 79> C    0.09874484    0.55083922    4.70985052
| 80> O    0.34523419    1.59426546    4.12261123
| 81> N   -0.20530241   -0.60416732    4.05868317
| 82> H   -0.18010209   -0.61118265    3.05204657
| 83> H   -0.36107889   -1.45965963    4.55438488
| 84> C    0.12158954    0.45594739    6.21826799
| 85> H    1.15330334    0.54015967    6.55334178
| 86> H   -0.30031437   -0.47069561    6.59929366
| 87> H   -0.42787512    1.29979370    6.62503850
| 88> *
| 89>
| 90>
| 91>
| 92>
| 93>                          ****END OF INPUT****
 Total Charge           Charge          ....    0
 Multiplicity           Mult            ....    1
 Number of Electrons    NEL             ....   74
MP2 TOTAL ENERGY:     -440.217344140 Eh
FINAL SINGLE POINT ENERGY      -440.217344140221
MP2 TOTAL ENERGY:     -440.607739119 Eh
FINAL SINGLE POINT ENERGY      -440.607739119212

CARTESIAN COORDINATES (ANGSTROEM)
---------------------------------
  C      0.855561    0.358532    1.049754
  H      1.513825    0.902680    1.712766
  C      1.342897   -0.675379    0.251157
  H      2.392884   -0.933345    0.281963
  C      0.477807   -1.376701   -0.587816
  H      0.856084   -2.178908   -1.206824
  C     -0.874830   -1.042556   -0.630452
  H     -1.545406   -1.585700   -1.282416
  C     -1.362397   -0.007014    0.165846
  H     -2.411571    0.253467    0.130779
  C     -0.498444    0.693157    1.006992
  H     -0.866111    1.490340    1.638037
  C      0.098745    0.550839    4.709851
  O      0.345234    1.594265    4.122611
  N     -0.205302   -0.604167    4.058683
  H     -0.180102   -0.611183    3.052047
  H     -0.361079   -1.459660    4.554385
  C      0.121590    0.455947    6.218268
  H      1.153303    0.540160    6.553342
  H     -0.300314   -0.470696    6.599294
  H     -0.427875    1.299794    6.625038

 Multiplicity           Mult            ....    1
 Number of Electrons    NEL             ....   74
 Basis Dimension        Dim             .... 1306

ORBITAL ENERGIES
----------------

  NO   OCC          E(Eh)            E(eV)
   0   2.0000     -20.510829      -558.1280
   1   2.0000     -15.577608      -423.8883
   2   2.0000     -11.350491      -308.8626
   3   2.0000     -11.234891      -305.7169
   4   2.0000     -11.234554      -305.7078
   5   2.0000     -11.233980      -305.6921
   6   2.0000     -11.233064      -305.6672
   7   2.0000     -11.232737      -305.6583
   8   2.0000     -11.228951      -305.5553
   9   2.0000     -11.227736      -305.5222
  10   2.0000      -1.374675       -37.4068
  11   2.0000      -1.208744       -32.8916
  12   2.0000      -1.149002       -31.2659
  13   2.0000      -1.013576       -27.5808
  14   2.0000      -1.013211       -27.5709
  15   2.0000      -1.003310       -27.3014
  16   2.0000      -0.822969       -22.3941
  17   2.0000      -0.821411       -22.3517
  18   2.0000      -0.796581       -21.6761
  19   2.0000      -0.724611       -19.7177
  20   2.0000      -0.707005       -19.2386
  21   2.0000      -0.664003       -18.0684
  22   2.0000      -0.641568       -17.4579
  23   2.0000      -0.617164       -16.7939
  24   2.0000      -0.614014       -16.7082
  25   2.0000      -0.586563       -15.9612
  26   2.0000      -0.586432       -15.9576
  27   2.0000      -0.582199       -15.8424
  28   2.0000      -0.561465       -15.2782
  29   2.0000      -0.522930       -14.2297
  30   2.0000      -0.502052       -13.6615
  31   2.0000      -0.492179       -13.3929
  32   2.0000      -0.491750       -13.3812
  33   2.0000      -0.423717       -11.5299
  34   2.0000      -0.411751       -11.2043
  35   2.0000      -0.336954        -9.1690
  36   2.0000      -0.335700        -9.1349
  37   0.0000       0.020167         0.5488
  38   0.0000       0.027569         0.7502
  39   0.0000       0.030378         0.8266
  40   0.0000       0.036410         0.9908
  41   0.0000       0.038801         1.0558

MULLIKEN ATOMIC CHARGES
-----------------------
   0 C :   -0.174809
   1 H :    0.378487
   2 C :   -0.458367
   3 H :    0.299886
   4 C :   -0.375294
   5 H :    0.341826
   6 C :   -0.358085
   7 H :    0.346085
   8 C :   -0.456759
   9 H :    0.299518
  10 C :   -0.183912
  11 H :    0.379063
  12 C :    0.923500
  13 O :   -0.867378
  14 N :   -0.810120
  15 H :    0.424474
  16 H :    0.221674
  17 C :   -0.739954
  18 H :    0.300361
  19 H :    0.236976
  20 H :    0.272827
Sum of atomic charges:   -0.0000000

LOEWDIN ATOMIC CHARGES
----------------------
   0 C :    0.310711
   1 H :   -0.330472
   2 C :    0.341020
   3 H :   -0.323951
   4 C :    0.330351
   5 H :   -0.327770
   6 C :    0.330556
   7 H :   -0.327732
   8 C :    0.341478
   9 H :   -0.323667
  10 C :    0.310707
  11 H :   -0.330161
  12 C :   -0.833890
  13 O :    0.694896
  14 N :    1.254031
  15 H :   -0.593519
  16 H :   -0.491984
  17 C :    0.888299
  18 H :   -0.296320
  19 H :   -0.314763
  20 H :   -0.307819

  Mayer bond orders larger than 0.100000
B(  0-C ,  1-H ) :   0.9531 B(  0-C ,  2-C ) :   1.2163 B(  0-C ,  6-C ) :   0.1181
B(  0-C , 10-C ) :   1.1471 B(  2-C ,  3-H ) :   1.0330 B(  2-C ,  4-C ) :   1.2643
B(  2-C ,  8-C ) :   0.1550 B(  4-C ,  5-H ) :   0.9931 B(  4-C ,  6-C ) :   1.1833
B(  4-C , 10-C ) :   0.1194 B(  6-C ,  7-H ) :   0.9886 B(  6-C ,  8-C ) :   1.2562
B(  8-C ,  9-H ) :   1.0337 B(  8-C , 10-C ) :   1.2199 B( 10-C , 11-H ) :   0.9485
B( 12-C , 13-O ) :   1.3432 B( 12-C , 14-N ) :   1.1167 B( 12-C , 17-C ) :   0.7698
B( 13-O , 14-N ) :   0.1442 B( 14-N , 15-H ) :   0.7069 B( 14-N , 16-H ) :   1.0650
B( 17-C , 18-H ) :   0.9034 B( 17-C , 19-H ) :   1.0030 B( 17-C , 20-H ) :   0.9916

MP2 TOTAL ENERGY:     -440.732045106 Eh
FINAL SINGLE POINT ENERGY      -440.732045106375

DIPOLE MOMENT
-------------
                                X             Y             Z
Electronic contribution:      0.22076       1.29685      -3.94381
Nuclear contribution   :     -0.49335      -2.69371       4.50545
                        -----------------------------------------
Total Dipole Moment    :     -0.27260      -1.39686       0.56164
                        -----------------------------------------
Magnitude (a.u.)       :      1.53002
Magnitude (Debye)      :      3.88900

Rotational constants in cm-1:     0.102052     0.018559     0.018251
Rotational constants in MHz :  3059.430847   556.372203   547.153940

                             ****ORCA TERMINATED NORMALLY****
TOTAL RUN TIME: 0 days 0 hours 47 minutes 42 seconds 742 msec
