                         Program Version 5.0.4 -  RELEASE  -
|  1> ! ri-mp2 aug-cc-pvdz aug-cc-pvdz/c tightscf
|  2> %pal nprocs 16 end
|  3> %maxcore 3800
|  4> %base "DZ_S66by10_53_1.05_dimer"
|  5>
|  6> *xyz 0 1
|  7> C    0.85556074    0.35853244    1.04975426
|  8> H    1.51382550    0.90267956    1.71276582
|  9> C    1.34289713   -0.67537866    0.25115740
| 10> H    2.39288384   -0.93334472    0.28196305
| 11> C    0.47780661   -1.37670110   -0.58781577
| 12> H    0.85608399   -2.17890753   -1.20682428
| 13> C   -0.87482983   -1.04255615   -0.63045178
| 14> H   -1.54540573   -1.58570014   -1.28241614
| 15> C   -1.36239729   -0.00701391    0.16584645
| 16> H   -2.41157102    0.25346723    0.13077885
| 17> C   -0.49844404    0.69315695    1.00699199
| 18> H   -0.86611090    1.49033989    1.63803696
| 19> C    0.05789101    0.42132417    4.94036052
| 20> O    0.30438036    1.46475041    4.35312124
| 21> N   -0.24615624   -0.73368237    4.28919317
| 22> H   -0.22095593   -0.74069770    3.28255657
| 23> H   -0.40193273   -1.58917469    4.78489488
| 24> C    0.08073571    0.32643234    6.44877799
| 25> H    1.11244951    0.41064462    6.78385179
| 26> H   -0.34116820   -0.60021066    6.82980366
| 27> H   -0.46872896    1.17027865    6.85554850
| 28> *
| 29>
| 30> $new_job
| 31> ! ri-mp2 aug-cc-pvtz aug-cc-pvtz/c tightscf
| 32> %pal nprocs 16 end
| 33> %maxcore 3800
| 34> %base "TZ_S66by10_53_1.05_dimer"
| 35>
| 36> *xyz 0 1
| 37> C    0.85556074    0.35853244    1.04975426
| 38> H    1.51382550    0.90267956    1.71276582
| 39> C    1.34289713   -0.67537866    0.25115740
| 40> H    2.39288384   -0.93334472    0.28196305
| 41> C    0.47780661   -1.37670110   -0.58781577
| 42> H    0.85608399   -2.17890753   -1.20682428
| 43> C   -0.87482983   -1.04255615   -0.63045178
| 44> H   -1.54540573   -1.58570014   -1.28241614
| 45> C   -1.36239729   -0.00701391    0.16584645
| 46> H   -2.41157102    0.25346723    0.13077885
| 47> C   -0.49844404    0.69315695    1.00699199
| 48> H   -0.86611090    1.49033989    1.63803696
| 49> C    0.05789101    0.42132417    4.94036052
| 50> O    0.30438036    1.46475041    4.35312124
| 51> N   -0.24615624   -0.73368237    4.28919317
| 52> H   -0.22095593   -0.74069770    3.28255657
| 53> H   -0.40193273   -1.58917469    4.78489488
| 54> C    0.08073571    0.32643234    6.44877799
| 55> H    1.11244951    0.41064462    6.78385179
| 56> H   -0.34116820   -0.60021066    6.82980366
| 57> H   -0.46872896    1.17027865    6.85554850
| 58> *
| 59>
| 60> $new_job
| 61> ! ri-mp2 aug-cc-pvqz aug-cc-pvqz/c tightscf
| 62> %pal nprocs 16 end
| 63> %maxcore 3800
| 64> %base "QZ_S66by10_53_1.05_dimer"
| 65>
| 66> *xyz 0 1
| 67> C    0.85556074    0.35853244    1.04975426
| 68> H    1.51382550    0.90267956    1.71276582
| 69> C    1.34289713   -0.67537866    0.25115740
| 70> H    2.39288384   -0.93334472    0.28196305
| 71> C    0.47780661   -1.37670110   -0.58781577
| 72> H    0.85608399   -2.17890753   -1.20682428
| 73> C   -0.87482983   -1.04255615   -0.63045178
| 74> H   -1.54540573   -1.58570014   -1.28241614
| 75> C   -1.36239729   -0.00701391    0.16584645
| 76> H   -2.41157102    0.25346723    0.13077885
| 77> C   -0.49844404    0.69315695    1.00699199
| 78> H   -0.86611090    1.49033989    1.63803696
| 79> C    0.05789101    0.42132417    4.94036052
| 80> O    0.30438036    1.46475041    4.35312124
| 81> N   -0.24615624   -0.73368237    4.28919317
| 82> H   -0.22095593   -0.74069770    3.28255657
| 83> H   -0.40193273   -1.58917469    4.78489488
| 84> C    0.08073571    0.32643234    6.44877799
| 85> H    1.11244951    0.41064462    6.78385179
| 86> H   -0.34116820   -0.60021066    6.82980366
| 87> H   -0.46872896    1.17027865    6.85554850
| 88> *
| 89>
| 90>
| 91>
| 92>
| 93>                          ****END OF INPUT****
 Total Charge           Charge          ....    0
 Multiplicity           Mult            ....    1
 Number of Electrons    NEL             ....   74
MP2 TOTAL ENERGY:     -440.216650309 Eh
FINAL SINGLE POINT ENERGY      -440.216650309288
MP2 TOTAL ENERGY:     -440.607145632 Eh
FINAL SINGLE POINT ENERGY      -440.607145631697

CARTESIAN COORDINATES (ANGSTROEM)
---------------------------------
  C      0.855561    0.358532    1.049754
  H      1.513825    0.902680    1.712766
  C      1.342897   -0.675379    0.251157
  H      2.392884   -0.933345    0.281963
  C      0.477807   -1.376701   -0.587816
  H      0.856084   -2.178908   -1.206824
  C     -0.874830   -1.042556   -0.630452
  H     -1.545406   -1.585700   -1.282416
  C     -1.362397   -0.007014    0.165846
  H     -2.411571    0.253467    0.130779
  C     -0.498444    0.693157    1.006992
  H     -0.866111    1.490340    1.638037
  C      0.057891    0.421324    4.940361
  O      0.304380    1.464750    4.353121
  N     -0.246156   -0.733682    4.289193
  H     -0.220956   -0.740698    3.282557
  H     -0.401933   -1.589175    4.784895
  C      0.080736    0.326432    6.448778
  H      1.112450    0.410645    6.783852
  H     -0.341168   -0.600211    6.829804
  H     -0.468729    1.170279    6.855549

 Multiplicity           Mult            ....    1
 Number of Electrons    NEL             ....   74
 Basis Dimension        Dim             .... 1306

ORBITAL ENERGIES
----------------

  NO   OCC          E(Eh)            E(eV)
   0   2.0000     -20.511353      -558.1423
   1   2.0000     -15.580051      -423.9547
   2   2.0000     -11.350989      -308.8761
   3   2.0000     -11.235101      -305.7226
   4   2.0000     -11.234034      -305.6936
   5   2.0000     -11.233161      -305.6699
   6   2.0000     -11.232301      -305.6465
   7   2.0000     -11.231931      -305.6364
   8   2.0000     -11.228994      -305.5564
   9   2.0000     -11.227793      -305.5238
  10   2.0000      -1.374676       -37.4068
  11   2.0000      -1.209915       -32.9235
  12   2.0000      -1.147990       -31.2384
  13   2.0000      -1.012395       -27.5487
  14   2.0000      -1.012177       -27.5427
  15   2.0000      -1.004113       -27.3233
  16   2.0000      -0.821884       -22.3646
  17   2.0000      -0.820681       -22.3319
  18   2.0000      -0.797701       -21.7066
  19   2.0000      -0.724973       -19.7275
  20   2.0000      -0.706575       -19.2269
  21   2.0000      -0.663988       -18.0680
  22   2.0000      -0.640827       -17.4378
  23   2.0000      -0.616440       -16.7742
  24   2.0000      -0.614474       -16.7207
  25   2.0000      -0.586050       -15.9472
  26   2.0000      -0.585742       -15.9388
  27   2.0000      -0.582471       -15.8498
  28   2.0000      -0.561734       -15.2856
  29   2.0000      -0.523214       -14.2374
  30   2.0000      -0.501446       -13.6451
  31   2.0000      -0.491586       -13.3767
  32   2.0000      -0.491514       -13.3748
  33   2.0000      -0.423924       -11.5356
  34   2.0000      -0.412570       -11.2266
  35   2.0000      -0.336037        -9.1440
  36   2.0000      -0.334903        -9.1132
  37   0.0000       0.020149         0.5483
  38   0.0000       0.027764         0.7555
  39   0.0000       0.030606         0.8328
  40   0.0000       0.036276         0.9871
  41   0.0000       0.038676         1.0524

MULLIKEN ATOMIC CHARGES
-----------------------
   0 C :   -0.232524
   1 H :    0.366997
   2 C :   -0.405656
   3 H :    0.307440
   4 C :   -0.370548
   5 H :    0.343219
   6 C :   -0.351631
   7 H :    0.347521
   8 C :   -0.409370
   9 H :    0.306765
  10 C :   -0.227904
  11 H :    0.361598
  12 C :    0.901116
  13 O :   -0.859967
  14 N :   -0.777402
  15 H :    0.383503
  16 H :    0.233583
  17 C :   -0.733589
  18 H :    0.304399
  19 H :    0.238539
  20 H :    0.273912
Sum of atomic charges:   -0.0000000

LOEWDIN ATOMIC CHARGES
----------------------
   0 C :    0.315037
   1 H :   -0.327467
   2 C :    0.334563
   3 H :   -0.325861
   4 C :    0.327612
   5 H :   -0.328229
   6 C :    0.327793
   7 H :   -0.328192
   8 C :    0.334951
   9 H :   -0.325640
  10 C :    0.315079
  11 H :   -0.327319
  12 C :   -0.841821
  13 O :    0.684577
  14 N :    1.248410
  15 H :   -0.550739
  16 H :   -0.498543
  17 C :    0.885549
  18 H :   -0.296656
  19 H :   -0.315061
  20 H :   -0.308046

  Mayer bond orders larger than 0.100000
B(  0-C ,  1-H ) :   0.9584 B(  0-C ,  2-C ) :   1.2461 B(  0-C ,  6-C ) :   0.1085
B(  0-C , 10-C ) :   1.1176 B(  2-C ,  3-H ) :   1.0274 B(  2-C ,  4-C ) :   1.2535
B(  2-C ,  8-C ) :   0.1763 B(  4-C ,  5-H ) :   0.9881 B(  4-C ,  6-C ) :   1.1792
B(  4-C , 10-C ) :   0.1084 B(  6-C ,  7-H ) :   0.9835 B(  6-C ,  8-C ) :   1.2480
B(  8-C ,  9-H ) :   1.0283 B(  8-C , 10-C ) :   1.2459 B( 10-C , 11-H ) :   0.9592
B( 12-C , 13-O ) :   1.3526 B( 12-C , 14-N ) :   1.1150 B( 12-C , 17-C ) :   0.7791
B( 13-O , 14-N ) :   0.1463 B( 14-N , 15-H ) :   0.7498 B( 14-N , 16-H ) :   1.0357
B( 17-C , 18-H ) :   0.8994 B( 17-C , 19-H ) :   1.0030 B( 17-C , 20-H ) :   0.9848

MP2 TOTAL ENERGY:     -440.731622105 Eh
FINAL SINGLE POINT ENERGY      -440.731622104934

DIPOLE MOMENT
-------------
                                X             Y             Z
Electronic contribution:      0.22937       1.32164      -3.97572
Nuclear contribution   :     -0.50393      -2.72724       4.56512
                        -----------------------------------------
Total Dipole Moment    :     -0.27455      -1.40560       0.58940
                        -----------------------------------------
Magnitude (a.u.)       :      1.54870
Magnitude (Debye)      :      3.93648

Rotational constants in cm-1:     0.100117     0.017307     0.017095
Rotational constants in MHz :  3001.426586   518.864780   512.491737

                             ****ORCA TERMINATED NORMALLY****
TOTAL RUN TIME: 0 days 0 hours 53 minutes 0 seconds 755 msec
