                         Program Version 5.0.4 -  RELEASE  -
|  1> ! ri-mp2 aug-cc-pvdz aug-cc-pvdz/c tightscf
|  2> %pal nprocs 16 end
|  3> %maxcore 3800
|  4> %base "DZ_S66by10_34_1.1_dimer"
|  5> %scf STABPerform true end
|  6>
|  7> *xyz 0 1
|  8> C   -2.53330865   -0.29487907    0.71314876
|  9> H   -2.56362682   -0.97708181   -0.13642264
| 10> H   -2.56697835   -0.89587590    1.62173177
| 11> H   -3.43442611    0.31595713    0.68410447
| 12> C   -1.27188487    0.55765547    0.67435468
| 13> H   -1.27102630    1.25656571    1.51431940
| 14> H   -1.26663255    1.16789581   -0.23182653
| 15> C   -0.00013504   -0.27841822    0.71960315
| 16> H   -0.00015938   -0.88722952    1.62863709
| 17> H   -0.00036543   -0.98071418   -0.11940439
| 18> C    1.27189476    0.55738219    0.67406108
| 19> H    1.27097175    1.25663331    1.51370541
| 20> H    1.26663649    1.16718250   -0.23238692
| 21> C    2.53340376   -0.29494176    0.71328015
| 22> H    2.56391919   -0.97777410   -0.13577836
| 23> H    3.43430956    0.31625432    0.68359945
| 24> H    2.56755821   -0.89520887    1.62232865
| 25> C    2.53355631    0.28877264    4.81982812
| 26> H    2.56814079    0.88857934    3.91050257
| 27> H    2.56405962    0.97197922    5.66857294
| 28> H    3.43423700   -0.32272467    4.85003706
| 29> C    1.27173011   -0.56311463    4.85913237
| 30> H    1.26628640   -1.17284234    5.76562933
| 31> H    1.27059959   -1.26246838    4.01955131
| 32> C   -0.00004489    0.27298447    4.81351593
| 33> H   -0.00019981    0.97529445    5.65250041
| 34> H    0.00003201    0.88176089    3.90444630
| 35> C   -1.27180572   -0.56315751    4.85878747
| 36> H   -1.26642348   -1.17326696    5.76503758
| 37> H   -1.27069938   -1.26218040    4.01892382
| 38> C   -2.53352495    0.28888880    4.81980977
| 39> H   -2.56771826    0.88942247    3.91093301
| 40> H   -3.43432693   -0.32240956    4.84932295
| 41> H   -2.56406449    0.97147504    5.66907116
| 42> *
| 43>
| 44> $new_job
| 45> ! ri-mp2 aug-cc-pvtz aug-cc-pvtz/c tightscf
| 46> %pal nprocs 16 end
| 47> %maxcore 3800
| 48> %base "TZ_S66by10_34_1.1_dimer"
| 49>
| 50> *xyz 0 1
| 51> C   -2.53330865   -0.29487907    0.71314876
| 52> H   -2.56362682   -0.97708181   -0.13642264
| 53> H   -2.56697835   -0.89587590    1.62173177
| 54> H   -3.43442611    0.31595713    0.68410447
| 55> C   -1.27188487    0.55765547    0.67435468
| 56> H   -1.27102630    1.25656571    1.51431940
| 57> H   -1.26663255    1.16789581   -0.23182653
| 58> C   -0.00013504   -0.27841822    0.71960315
| 59> H   -0.00015938   -0.88722952    1.62863709
| 60> H   -0.00036543   -0.98071418   -0.11940439
| 61> C    1.27189476    0.55738219    0.67406108
| 62> H    1.27097175    1.25663331    1.51370541
| 63> H    1.26663649    1.16718250   -0.23238692
| 64> C    2.53340376   -0.29494176    0.71328015
| 65> H    2.56391919   -0.97777410   -0.13577836
| 66> H    3.43430956    0.31625432    0.68359945
| 67> H    2.56755821   -0.89520887    1.62232865
| 68> C    2.53355631    0.28877264    4.81982812
| 69> H    2.56814079    0.88857934    3.91050257
| 70> H    2.56405962    0.97197922    5.66857294
| 71> H    3.43423700   -0.32272467    4.85003706
| 72> C    1.27173011   -0.56311463    4.85913237
| 73> H    1.26628640   -1.17284234    5.76562933
| 74> H    1.27059959   -1.26246838    4.01955131
| 75> C   -0.00004489    0.27298447    4.81351593
| 76> H   -0.00019981    0.97529445    5.65250041
| 77> H    0.00003201    0.88176089    3.90444630
| 78> C   -1.27180572   -0.56315751    4.85878747
| 79> H   -1.26642348   -1.17326696    5.76503758
| 80> H   -1.27069938   -1.26218040    4.01892382
| 81> C   -2.53352495    0.28888880    4.81980977
| 82> H   -2.56771826    0.88942247    3.91093301
| 83> H   -3.43432693   -0.32240956    4.84932295
| 84> H   -2.56406449    0.97147504    5.66907116
| 85> *
| 86>
| 87> $new_job
| 88> ! ri-mp2 aug-cc-pvqz aug-cc-pvqz/c tightscf
| 89> %pal nprocs 16 end
| 90> %maxcore 3800
| 91> %base "QZ_S66by10_34_1.1_dimer"
| 92>
| 93> *xyz 0 1
| 94> C   -2.53330865   -0.29487907    0.71314876
| 95> H   -2.56362682   -0.97708181   -0.13642264
| 96> H   -2.56697835   -0.89587590    1.62173177
| 97> H   -3.43442611    0.31595713    0.68410447
| 98> C   -1.27188487    0.55765547    0.67435468
| 99> H   -1.27102630    1.25656571    1.51431940
|100> H   -1.26663255    1.16789581   -0.23182653
|101> C   -0.00013504   -0.27841822    0.71960315
|102> H   -0.00015938   -0.88722952    1.62863709
|103> H   -0.00036543   -0.98071418   -0.11940439
|104> C    1.27189476    0.55738219    0.67406108
|105> H    1.27097175    1.25663331    1.51370541
|106> H    1.26663649    1.16718250   -0.23238692
|107> C    2.53340376   -0.29494176    0.71328015
|108> H    2.56391919   -0.97777410   -0.13577836
|109> H    3.43430956    0.31625432    0.68359945
|110> H    2.56755821   -0.89520887    1.62232865
|111> C    2.53355631    0.28877264    4.81982812
|112> H    2.56814079    0.88857934    3.91050257
|113> H    2.56405962    0.97197922    5.66857294
|114> H    3.43423700   -0.32272467    4.85003706
|115> C    1.27173011   -0.56311463    4.85913237
|116> H    1.26628640   -1.17284234    5.76562933
|117> H    1.27059959   -1.26246838    4.01955131
|118> C   -0.00004489    0.27298447    4.81351593
|119> H   -0.00019981    0.97529445    5.65250041
|120> H    0.00003201    0.88176089    3.90444630
|121> C   -1.27180572   -0.56315751    4.85878747
|122> H   -1.26642348   -1.17326696    5.76503758
|123> H   -1.27069938   -1.26218040    4.01892382
|124> C   -2.53352495    0.28888880    4.81980977
|125> H   -2.56771826    0.88942247    3.91093301
|126> H   -3.43432693   -0.32240956    4.84932295
|127> H   -2.56406449    0.97147504    5.66907116
|128> *
|129>
|130>
|131>
|132>
|133>                          ****END OF INPUT****
 Total Charge           Charge          ....    0
 Multiplicity           Mult            ....    1
 Number of Electrons    NEL             ....   84
MP2 TOTAL ENERGY:     -394.234480000 Eh
FINAL SINGLE POINT ENERGY      -394.234479999515
MP2 TOTAL ENERGY:     -394.627212572 Eh
FINAL SINGLE POINT ENERGY      -394.627212572013

CARTESIAN COORDINATES (ANGSTROEM)
---------------------------------
  C     -2.533309   -0.294879    0.713149
  H     -2.563627   -0.977082   -0.136423
  H     -2.566978   -0.895876    1.621732
  H     -3.434426    0.315957    0.684104
  C     -1.271885    0.557655    0.674355
  H     -1.271026    1.256566    1.514319
  H     -1.266633    1.167896   -0.231827
  C     -0.000135   -0.278418    0.719603
  H     -0.000159   -0.887230    1.628637
  H     -0.000365   -0.980714   -0.119404
  C      1.271895    0.557382    0.674061
  H      1.270972    1.256633    1.513705
  H      1.266636    1.167183   -0.232387
  C      2.533404   -0.294942    0.713280
  H      2.563919   -0.977774   -0.135778
  H      3.434310    0.316254    0.683599
  H      2.567558   -0.895209    1.622329
  C      2.533556    0.288773    4.819828
  H      2.568141    0.888579    3.910503
  H      2.564060    0.971979    5.668573
  H      3.434237   -0.322725    4.850037
  C      1.271730   -0.563115    4.859132
  H      1.266286   -1.172842    5.765629
  H      1.270600   -1.262468    4.019551
  C     -0.000045    0.272984    4.813516
  H     -0.000200    0.975294    5.652500
  H      0.000032    0.881761    3.904446
  C     -1.271806   -0.563158    4.858787
  H     -1.266423   -1.173267    5.765038
  H     -1.270699   -1.262180    4.018924
  C     -2.533525    0.288889    4.819810
  H     -2.567718    0.889422    3.910933
  H     -3.434327   -0.322410    4.849323
  H     -2.564064    0.971475    5.669071

 Multiplicity           Mult            ....    1
 Number of Electrons    NEL             ....   84
 Basis Dimension        Dim             .... 1904

ORBITAL ENERGIES
----------------

  NO   OCC          E(Eh)            E(eV)
   0   2.0000     -11.212173      -305.0988
   1   2.0000     -11.212172      -305.0987
   2   2.0000     -11.212103      -305.0968
   3   2.0000     -11.212101      -305.0968
   4   2.0000     -11.209666      -305.0305
   5   2.0000     -11.209665      -305.0305
   6   2.0000     -11.206276      -304.9383
   7   2.0000     -11.206273      -304.9382
   8   2.0000     -11.206272      -304.9382
   9   2.0000     -11.206270      -304.9381
  10   2.0000      -1.082973       -29.4692
  11   2.0000      -1.080515       -29.4023
  12   2.0000      -1.016911       -27.6715
  13   2.0000      -1.014629       -27.6095
  14   2.0000      -0.920498       -25.0480
  15   2.0000      -0.918249       -24.9868
  16   2.0000      -0.820366       -22.3233
  17   2.0000      -0.820351       -22.3229
  18   2.0000      -0.787466       -21.4280
  19   2.0000      -0.784155       -21.3379
  20   2.0000      -0.656702       -17.8698
  21   2.0000      -0.640083       -17.4175
  22   2.0000      -0.600755       -16.3474
  23   2.0000      -0.600060       -16.3285
  24   2.0000      -0.598080       -16.2746
  25   2.0000      -0.586797       -15.9676
  26   2.0000      -0.555179       -15.1072
  27   2.0000      -0.554021       -15.0757
  28   2.0000      -0.548047       -14.9131
  29   2.0000      -0.547783       -14.9059
  30   2.0000      -0.531640       -14.4667
  31   2.0000      -0.521467       -14.1898
  32   2.0000      -0.496027       -13.4976
  33   2.0000      -0.494231       -13.4487
  34   2.0000      -0.478377       -13.0173
  35   2.0000      -0.475203       -12.9309
  36   2.0000      -0.466423       -12.6920
  37   2.0000      -0.465901       -12.6778
  38   2.0000      -0.459009       -12.4903
  39   2.0000      -0.453857       -12.3501
  40   2.0000      -0.447790       -12.1850
  41   2.0000      -0.447099       -12.1662
  42   0.0000       0.025736         0.7003
  43   0.0000       0.027815         0.7569
  44   0.0000       0.028904         0.7865
  45   0.0000       0.029508         0.8030
  46   0.0000       0.038411         1.0452

MULLIKEN ATOMIC CHARGES
-----------------------
   0 C :   -1.097642
   1 H :    0.293876
   2 H :    0.300508
   3 H :    0.222974
   4 C :   -0.474295
   5 H :    0.290290
   6 H :    0.290219
   7 C :   -0.212262
   8 H :    0.281718
   9 H :    0.278915
  10 C :   -0.474624
  11 H :    0.290515
  12 H :    0.290149
  13 C :   -1.097597
  14 H :    0.293761
  15 H :    0.222891
  16 H :    0.300619
  17 C :   -1.097517
  18 H :    0.300682
  19 H :    0.293652
  20 H :    0.222835
  21 C :   -0.474268
  22 H :    0.290067
  23 H :    0.290425
  24 C :   -0.212606
  25 H :    0.278843
  26 H :    0.281887
  27 C :   -0.474026
  28 H :    0.290088
  29 H :    0.290321
  30 C :   -1.097565
  31 H :    0.300570
  32 H :    0.222845
  33 H :    0.293755
Sum of atomic charges:    0.0000000

LOEWDIN ATOMIC CHARGES
----------------------
   0 C :    0.928376
   1 H :   -0.281729
   2 H :   -0.295310
   3 H :   -0.278238
   4 C :    0.504754
   5 H :   -0.281850
   6 H :   -0.268003
   7 C :    0.492494
   8 H :   -0.284379
   9 H :   -0.264099
  10 C :    0.504821
  11 H :   -0.281893
  12 H :   -0.268059
  13 C :    0.928372
  14 H :   -0.281708
  15 H :   -0.278241
  16 H :   -0.295307
  17 C :    0.928411
  18 H :   -0.295319
  19 H :   -0.281727
  20 H :   -0.278244
  21 C :    0.504758
  22 H :   -0.268066
  23 H :   -0.281879
  24 C :    0.492545
  25 H :   -0.264085
  26 H :   -0.284328
  27 C :    0.504737
  28 H :   -0.268047
  29 H :   -0.281884
  30 C :    0.928400
  31 H :   -0.295295
  32 H :   -0.278259
  33 H :   -0.281718

  Mayer bond orders larger than 0.100000
B(  0-C ,  1-H ) :   0.9570 B(  0-C ,  2-H ) :   0.8582 B(  0-C ,  3-H ) :   1.0682
B(  0-C ,  4-C ) :   0.9962 B(  0-C ,  7-C ) :  -0.1111 B(  3-H ,  4-C ) :  -0.1045
B(  4-C ,  5-H ) :   0.8326 B(  4-C ,  6-H ) :   0.8755 B(  4-C ,  7-C ) :   0.8484
B(  7-C ,  8-H ) :   0.8375 B(  7-C ,  9-H ) :   0.9038 B(  7-C , 10-C ) :   0.8483
B(  7-C , 13-C ) :  -0.1110 B( 10-C , 11-H ) :   0.8326 B( 10-C , 12-H ) :   0.8755
B( 10-C , 13-C ) :   0.9960 B( 10-C , 15-H ) :  -0.1047 B( 13-C , 14-H ) :   0.9571
B( 13-C , 15-H ) :   1.0683 B( 13-C , 16-H ) :   0.8580 B( 17-C , 18-H ) :   0.8579
B( 17-C , 19-H ) :   0.9572 B( 17-C , 20-H ) :   1.0684 B( 17-C , 21-C ) :   0.9957
B( 17-C , 24-C ) :  -0.1108 B( 20-H , 21-C ) :  -0.1048 B( 21-C , 22-H ) :   0.8757
B( 21-C , 23-H ) :   0.8327 B( 21-C , 24-C ) :   0.8485 B( 24-C , 25-H ) :   0.9038
B( 24-C , 26-H ) :   0.8373 B( 24-C , 27-C ) :   0.8486 B( 24-C , 30-C ) :  -0.1109
B( 27-C , 28-H ) :   0.8757 B( 27-C , 29-H ) :   0.8326 B( 27-C , 30-C ) :   0.9957
B( 27-C , 32-H ) :  -0.1047 B( 30-C , 31-H ) :   0.8581 B( 30-C , 32-H ) :   1.0684
B( 30-C , 33-H ) :   0.9571

MP2 TOTAL ENERGY:     -394.743118546 Eh
FINAL SINGLE POINT ENERGY      -394.743118546300

DIPOLE MOMENT
-------------
                                X             Y             Z
Electronic contribution:     -0.00031       0.00124       0.00010
Nuclear contribution   :      0.00030      -0.00124      -0.00009
                        -----------------------------------------
Total Dipole Moment    :     -0.00000      -0.00001       0.00001
                        -----------------------------------------
Magnitude (a.u.)       :      0.00001
Magnitude (Debye)      :      0.00002

Rotational constants in cm-1:     0.031031     0.024932     0.014888
Rotational constants in MHz :   930.295912   747.438474   446.330305

                             ****ORCA TERMINATED NORMALLY****
TOTAL RUN TIME: 1 days 7 hours 49 minutes 25 seconds 643 msec
