                         Program Version 5.0.4 -  RELEASE  -
|  1> ! ri-mp2 aug-cc-pvdz aug-cc-pvdz/c tightscf
|  2> %pal nprocs 16 end
|  3> %maxcore 3800
|  4> %base "DZ_S66by10_38_0.95_dimer"
|  5> %scf STABPerform true end
|  6>
|  7> *xyz 0 1
|  8> C    0.95688019   -0.89184563    1.14195000
|  9> H    1.50456597   -1.27835762    0.28342019
| 10> H    1.42138447   -1.31477793    2.03102546
| 11> C    0.99094943    0.65850830    1.14550384
| 12> H    1.51059446    1.02309646    0.25994788
| 13> H    1.51625823    1.05981813    2.01053703
| 14> C   -0.47945194    1.10231879    1.10387910
| 15> H   -0.61626861    2.06487722    0.61356737
| 16> H   -0.87474223    1.18907144    2.11806960
| 17> C   -1.18210650   -0.05279656    0.39334575
| 18> H   -0.94888216   -0.02683030   -0.67380459
| 19> H   -2.26566452   -0.03356474    0.50127403
| 20> C   -0.53065958   -1.27488954    1.03930959
| 21> H   -0.69039061   -2.19702093    0.48299221
| 22> H   -0.95084939   -1.41541197    2.03674782
| 23> C   -1.13516171   -0.39030391    4.91093278
| 24> H   -1.46829621   -0.15360530    3.89834842
| 25> H   -1.93995011   -0.93340238    5.40391929
| 26> C    0.17844474   -1.18584883    4.86317158
| 27> H    0.22838968   -1.84359152    3.99703776
| 28> H    0.25873236   -1.81720646    5.74755688
| 29> C    1.30775996   -0.12314300    4.86376768
| 30> H    1.92902492   -0.18382185    3.97189406
| 31> H    1.96516945   -0.27302604    5.71917285
| 32> C    0.59758659    1.23852575    4.97163451
| 33> H    0.41772342    1.64701753    3.97563539
| 34> H    1.17797055    1.97292925    5.52760778
| 35> C   -0.74446587    0.90405331    5.62144637
| 36> H   -1.48413443    1.69656508    5.51656507
| 37> H   -0.60442594    0.71241326    6.68799533
| 38> *
| 39>
| 40> $new_job
| 41> ! ri-mp2 aug-cc-pvtz aug-cc-pvtz/c tightscf
| 42> %pal nprocs 16 end
| 43> %maxcore 3800
| 44> %base "TZ_S66by10_38_0.95_dimer"
| 45>
| 46> *xyz 0 1
| 47> C    0.95688019   -0.89184563    1.14195000
| 48> H    1.50456597   -1.27835762    0.28342019
| 49> H    1.42138447   -1.31477793    2.03102546
| 50> C    0.99094943    0.65850830    1.14550384
| 51> H    1.51059446    1.02309646    0.25994788
| 52> H    1.51625823    1.05981813    2.01053703
| 53> C   -0.47945194    1.10231879    1.10387910
| 54> H   -0.61626861    2.06487722    0.61356737
| 55> H   -0.87474223    1.18907144    2.11806960
| 56> C   -1.18210650   -0.05279656    0.39334575
| 57> H   -0.94888216   -0.02683030   -0.67380459
| 58> H   -2.26566452   -0.03356474    0.50127403
| 59> C   -0.53065958   -1.27488954    1.03930959
| 60> H   -0.69039061   -2.19702093    0.48299221
| 61> H   -0.95084939   -1.41541197    2.03674782
| 62> C   -1.13516171   -0.39030391    4.91093278
| 63> H   -1.46829621   -0.15360530    3.89834842
| 64> H   -1.93995011   -0.93340238    5.40391929
| 65> C    0.17844474   -1.18584883    4.86317158
| 66> H    0.22838968   -1.84359152    3.99703776
| 67> H    0.25873236   -1.81720646    5.74755688
| 68> C    1.30775996   -0.12314300    4.86376768
| 69> H    1.92902492   -0.18382185    3.97189406
| 70> H    1.96516945   -0.27302604    5.71917285
| 71> C    0.59758659    1.23852575    4.97163451
| 72> H    0.41772342    1.64701753    3.97563539
| 73> H    1.17797055    1.97292925    5.52760778
| 74> C   -0.74446587    0.90405331    5.62144637
| 75> H   -1.48413443    1.69656508    5.51656507
| 76> H   -0.60442594    0.71241326    6.68799533
| 77> *
| 78>
| 79> $new_job
| 80> ! ri-mp2 aug-cc-pvqz aug-cc-pvqz/c tightscf
| 81> %pal nprocs 16 end
| 82> %maxcore 3800
| 83> %base "QZ_S66by10_38_0.95_dimer"
| 84>
| 85> *xyz 0 1
| 86> C    0.95688019   -0.89184563    1.14195000
| 87> H    1.50456597   -1.27835762    0.28342019
| 88> H    1.42138447   -1.31477793    2.03102546
| 89> C    0.99094943    0.65850830    1.14550384
| 90> H    1.51059446    1.02309646    0.25994788
| 91> H    1.51625823    1.05981813    2.01053703
| 92> C   -0.47945194    1.10231879    1.10387910
| 93> H   -0.61626861    2.06487722    0.61356737
| 94> H   -0.87474223    1.18907144    2.11806960
| 95> C   -1.18210650   -0.05279656    0.39334575
| 96> H   -0.94888216   -0.02683030   -0.67380459
| 97> H   -2.26566452   -0.03356474    0.50127403
| 98> C   -0.53065958   -1.27488954    1.03930959
| 99> H   -0.69039061   -2.19702093    0.48299221
|100> H   -0.95084939   -1.41541197    2.03674782
|101> C   -1.13516171   -0.39030391    4.91093278
|102> H   -1.46829621   -0.15360530    3.89834842
|103> H   -1.93995011   -0.93340238    5.40391929
|104> C    0.17844474   -1.18584883    4.86317158
|105> H    0.22838968   -1.84359152    3.99703776
|106> H    0.25873236   -1.81720646    5.74755688
|107> C    1.30775996   -0.12314300    4.86376768
|108> H    1.92902492   -0.18382185    3.97189406
|109> H    1.96516945   -0.27302604    5.71917285
|110> C    0.59758659    1.23852575    4.97163451
|111> H    0.41772342    1.64701753    3.97563539
|112> H    1.17797055    1.97292925    5.52760778
|113> C   -0.74446587    0.90405331    5.62144637
|114> H   -1.48413443    1.69656508    5.51656507
|115> H   -0.60442594    0.71241326    6.68799533
|116> *
|117>
|118>
|119>
|120>
|121>                          ****END OF INPUT****
 Total Charge           Charge          ....    0
 Multiplicity           Mult            ....    1
 Number of Electrons    NEL             ....   80
MP2 TOTAL ENERGY:     -391.852116433 Eh
FINAL SINGLE POINT ENERGY      -391.852116432759
MP2 TOTAL ENERGY:     -392.228302166 Eh
FINAL SINGLE POINT ENERGY      -392.228302165849

CARTESIAN COORDINATES (ANGSTROEM)
---------------------------------
  C      0.956880   -0.891846    1.141950
  H      1.504566   -1.278358    0.283420
  H      1.421384   -1.314778    2.031025
  C      0.990949    0.658508    1.145504
  H      1.510594    1.023096    0.259948
  H      1.516258    1.059818    2.010537
  C     -0.479452    1.102319    1.103879
  H     -0.616269    2.064877    0.613567
  H     -0.874742    1.189071    2.118070
  C     -1.182106   -0.052797    0.393346
  H     -0.948882   -0.026830   -0.673805
  H     -2.265665   -0.033565    0.501274
  C     -0.530660   -1.274890    1.039310
  H     -0.690391   -2.197021    0.482992
  H     -0.950849   -1.415412    2.036748
  C     -1.135162   -0.390304    4.910933
  H     -1.468296   -0.153605    3.898348
  H     -1.939950   -0.933402    5.403919
  C      0.178445   -1.185849    4.863172
  H      0.228390   -1.843592    3.997038
  H      0.258732   -1.817206    5.747557
  C      1.307760   -0.123143    4.863768
  H      1.929025   -0.183822    3.971894
  H      1.965169   -0.273026    5.719173
  C      0.597587    1.238526    4.971635
  H      0.417723    1.647018    3.975635
  H      1.177971    1.972929    5.527608
  C     -0.744466    0.904053    5.621446
  H     -1.484134    1.696565    5.516565
  H     -0.604426    0.712413    6.687995

 Multiplicity           Mult            ....    1
 Number of Electrons    NEL             ....   80
 Basis Dimension        Dim             .... 1720

ORBITAL ENERGIES
----------------

  NO   OCC          E(Eh)            E(eV)
   0   2.0000     -11.209607      -305.0289
   1   2.0000     -11.209604      -305.0288
   2   2.0000     -11.209239      -305.0189
   3   2.0000     -11.209236      -305.0188
   4   2.0000     -11.209033      -305.0133
   5   2.0000     -11.209028      -305.0132
   6   2.0000     -11.208576      -305.0009
   7   2.0000     -11.208573      -305.0008
   8   2.0000     -11.208172      -304.9899
   9   2.0000     -11.208169      -304.9898
  10   2.0000      -1.118639       -30.4397
  11   2.0000      -1.114991       -30.3405
  12   2.0000      -0.959752       -26.1162
  13   2.0000      -0.958877       -26.0924
  14   2.0000      -0.954821       -25.9820
  15   2.0000      -0.954156       -25.9639
  16   2.0000      -0.781608       -21.2686
  17   2.0000      -0.774968       -21.0880
  18   2.0000      -0.767921       -20.8962
  19   2.0000      -0.767538       -20.8858
  20   2.0000      -0.663537       -18.0558
  21   2.0000      -0.646946       -17.6043
  22   2.0000      -0.646115       -17.5817
  23   2.0000      -0.636691       -17.3252
  24   2.0000      -0.581627       -15.8269
  25   2.0000      -0.578875       -15.7520
  26   2.0000      -0.562130       -15.2963
  27   2.0000      -0.557979       -15.1834
  28   2.0000      -0.478351       -13.0166
  29   2.0000      -0.477657       -12.9977
  30   2.0000      -0.476110       -12.9556
  31   2.0000      -0.471937       -12.8421
  32   2.0000      -0.468722       -12.7546
  33   2.0000      -0.464875       -12.6499
  34   2.0000      -0.464458       -12.6386
  35   2.0000      -0.459545       -12.5048
  36   2.0000      -0.459453       -12.5024
  37   2.0000      -0.452442       -12.3116
  38   2.0000      -0.449690       -12.2367
  39   2.0000      -0.447159       -12.1678
  40   0.0000       0.024018         0.6536
  41   0.0000       0.028360         0.7717
  42   0.0000       0.029204         0.7947
  43   0.0000       0.030297         0.8244
  44   0.0000       0.039472         1.0741

MULLIKEN ATOMIC CHARGES
-----------------------
   0 C :   -0.584946
   1 H :    0.278000
   2 H :    0.330193
   3 C :   -0.613406
   4 H :    0.263283
   5 H :    0.396050
   6 C :   -0.707760
   7 H :    0.326844
   8 H :    0.350583
   9 C :   -0.524556
  10 H :    0.235964
  11 H :    0.318412
  12 C :   -0.739543
  13 H :    0.327950
  14 H :    0.342810
  15 C :   -0.707823
  16 H :    0.350638
  17 H :    0.327025
  18 C :   -0.613288
  19 H :    0.395603
  20 H :    0.263347
  21 C :   -0.584795
  22 H :    0.330205
  23 H :    0.278001
  24 C :   -0.739700
  25 H :    0.342969
  26 H :    0.328164
  27 C :   -0.524818
  28 H :    0.318421
  29 H :    0.236174
Sum of atomic charges:    0.0000000

LOEWDIN ATOMIC CHARGES
----------------------
   0 C :    0.559330
   1 H :   -0.261646
   2 H :   -0.295472
   3 C :    0.556779
   4 H :   -0.262079
   5 H :   -0.291373
   6 C :    0.534613
   7 H :   -0.247698
   8 H :   -0.299391
   9 C :    0.537169
  10 H :   -0.260124
  11 H :   -0.251488
  12 C :    0.537182
  13 H :   -0.249100
  14 H :   -0.306713
  15 C :    0.534619
  16 H :   -0.299417
  17 H :   -0.247715
  18 C :    0.556769
  19 H :   -0.291291
  20 H :   -0.262079
  21 C :    0.559361
  22 H :   -0.295565
  23 H :   -0.261663
  24 C :    0.537243
  25 H :   -0.306637
  26 H :   -0.249163
  27 C :    0.537170
  28 H :   -0.251503
  29 H :   -0.260119

  Mayer bond orders larger than 0.100000
B(  0-C ,  1-H ) :   0.9364 B(  0-C ,  2-H ) :   0.8589 B(  0-C ,  3-C ) :   0.9818
B(  0-C ,  9-C ) :  -0.1259 B(  0-C , 12-C ) :   0.9513 B(  3-C ,  4-H ) :   0.9605
B(  3-C ,  5-H ) :   0.7834 B(  3-C ,  6-C ) :   0.9362 B(  3-C ,  9-C ) :  -0.1383
B(  6-C ,  7-H ) :   0.8988 B(  6-C ,  8-H ) :   0.8499 B(  6-C ,  9-C ) :   0.9973
B(  9-C , 10-H ) :   0.9568 B(  9-C , 11-H ) :   0.8357 B(  9-C , 12-C ) :   1.0001
B( 12-C , 13-H ) :   0.8922 B( 12-C , 14-H ) :   0.8261 B( 15-C , 16-H ) :   0.8497
B( 15-C , 17-H ) :   0.8986 B( 15-C , 18-C ) :   0.9360 B( 15-C , 27-C ) :   0.9972
B( 18-C , 19-H ) :   0.7839 B( 18-C , 20-H ) :   0.9604 B( 18-C , 21-C ) :   0.9819
B( 18-C , 27-C ) :  -0.1382 B( 21-C , 22-H ) :   0.8589 B( 21-C , 23-H ) :   0.9364
B( 21-C , 24-C ) :   0.9512 B( 21-C , 27-C ) :  -0.1258 B( 24-C , 25-H ) :   0.8258
B( 24-C , 26-H ) :   0.8921 B( 24-C , 27-C ) :   1.0002 B( 27-C , 28-H ) :   0.8357
B( 27-C , 29-H ) :   0.9566

MP2 TOTAL ENERGY:     -392.341365038 Eh
FINAL SINGLE POINT ENERGY      -392.341365038111

DIPOLE MOMENT
-------------
                                X             Y             Z
Electronic contribution:     -0.14085       0.06254       0.00033
Nuclear contribution   :      0.13388      -0.05944      -0.00030
                        -----------------------------------------
Total Dipole Moment    :     -0.00697       0.00310       0.00004
                        -----------------------------------------
Magnitude (a.u.)       :      0.00763
Magnitude (Debye)      :      0.01939

Rotational constants in cm-1:     0.065551     0.022687     0.022624
Rotational constants in MHz :  1965.164879   680.133691   678.245067

                             ****ORCA TERMINATED NORMALLY****
TOTAL RUN TIME: 0 days 14 hours 26 minutes 9 seconds 659 msec
