                         Program Version 5.0.4 -  RELEASE  -
|  1> ! ri-mp2 aug-cc-pvdz aug-cc-pvdz/c tightscf
|  2> %pal nprocs 16 end
|  3> %maxcore 3800
|  4> %base "DZ_S66by10_21_0.9_dimer"
|  5> %scf STABPerform true end
|  6>
|  7> *xyz 0 1
|  8> C   -1.30974974    1.18017617   -0.02517034
|  9> O   -0.72530044    2.15514767    0.45271335
| 10> N   -0.66562116    0.09505470   -0.49199449
| 11> H    0.35458266    0.05144817   -0.45930922
| 12> H   -1.18362704   -0.67359969   -0.87075610
| 13> C   -2.81671934    1.15599865   -0.11060597
| 14> H   -3.22062895    1.26254146    0.89308239
| 15> H   -3.20942754    0.24863402   -0.56190009
| 16> H   -3.14315813    2.01659563   -0.68889311
| 17> C    2.60850299    1.06033775    0.12370804
| 18> O    2.02408122    0.08631732   -0.35602292
| 19> N    1.96441542    2.14508098    0.59155460
| 20> H    0.94431005    2.18951876    0.55725328
| 21> H    2.48243949    2.91304218    0.97167525
| 22> C    4.11550217    1.08462213    0.20893313
| 23> H    4.50737323    1.98427165    0.67611714
| 24> H    4.51905836    0.99707710   -0.79684718
| 25> H    4.44328093    0.21404723    0.77111347
| 26> *
| 27>
| 28> $new_job
| 29> ! ri-mp2 aug-cc-pvtz aug-cc-pvtz/c tightscf
| 30> %pal nprocs 16 end
| 31> %maxcore 3800
| 32> %base "TZ_S66by10_21_0.9_dimer"
| 33>
| 34> *xyz 0 1
| 35> C   -1.30974974    1.18017617   -0.02517034
| 36> O   -0.72530044    2.15514767    0.45271335
| 37> N   -0.66562116    0.09505470   -0.49199449
| 38> H    0.35458266    0.05144817   -0.45930922
| 39> H   -1.18362704   -0.67359969   -0.87075610
| 40> C   -2.81671934    1.15599865   -0.11060597
| 41> H   -3.22062895    1.26254146    0.89308239
| 42> H   -3.20942754    0.24863402   -0.56190009
| 43> H   -3.14315813    2.01659563   -0.68889311
| 44> C    2.60850299    1.06033775    0.12370804
| 45> O    2.02408122    0.08631732   -0.35602292
| 46> N    1.96441542    2.14508098    0.59155460
| 47> H    0.94431005    2.18951876    0.55725328
| 48> H    2.48243949    2.91304218    0.97167525
| 49> C    4.11550217    1.08462213    0.20893313
| 50> H    4.50737323    1.98427165    0.67611714
| 51> H    4.51905836    0.99707710   -0.79684718
| 52> H    4.44328093    0.21404723    0.77111347
| 53> *
| 54>
| 55> $new_job
| 56> ! ri-mp2 aug-cc-pvqz aug-cc-pvqz/c tightscf
| 57> %pal nprocs 16 end
| 58> %maxcore 3800
| 59> %base "QZ_S66by10_21_0.9_dimer"
| 60>
| 61> *xyz 0 1
| 62> C   -1.30974974    1.18017617   -0.02517034
| 63> O   -0.72530044    2.15514767    0.45271335
| 64> N   -0.66562116    0.09505470   -0.49199449
| 65> H    0.35458266    0.05144817   -0.45930922
| 66> H   -1.18362704   -0.67359969   -0.87075610
| 67> C   -2.81671934    1.15599865   -0.11060597
| 68> H   -3.22062895    1.26254146    0.89308239
| 69> H   -3.20942754    0.24863402   -0.56190009
| 70> H   -3.14315813    2.01659563   -0.68889311
| 71> C    2.60850299    1.06033775    0.12370804
| 72> O    2.02408122    0.08631732   -0.35602292
| 73> N    1.96441542    2.14508098    0.59155460
| 74> H    0.94431005    2.18951876    0.55725328
| 75> H    2.48243949    2.91304218    0.97167525
| 76> C    4.11550217    1.08462213    0.20893313
| 77> H    4.50737323    1.98427165    0.67611714
| 78> H    4.51905836    0.99707710   -0.79684718
| 79> H    4.44328093    0.21404723    0.77111347
| 80> *
| 81>
| 82>
| 83>
| 84>
| 85>                          ****END OF INPUT****
 Total Charge           Charge          ....    0
 Multiplicity           Mult            ....    1
 Number of Electrons    NEL             ....   64
MP2 TOTAL ENERGY:     -417.360847827 Eh
FINAL SINGLE POINT ENERGY      -417.360847827255
MP2 TOTAL ENERGY:     -417.731964525 Eh
FINAL SINGLE POINT ENERGY      -417.731964524664

CARTESIAN COORDINATES (ANGSTROEM)
---------------------------------
  C     -1.309750    1.180176   -0.025170
  O     -0.725300    2.155148    0.452713
  N     -0.665621    0.095055   -0.491994
  H      0.354583    0.051448   -0.459309
  H     -1.183627   -0.673600   -0.870756
  C     -2.816719    1.155999   -0.110606
  H     -3.220629    1.262541    0.893082
  H     -3.209428    0.248634   -0.561900
  H     -3.143158    2.016596   -0.688893
  C      2.608503    1.060338    0.123708
  O      2.024081    0.086317   -0.356023
  N      1.964415    2.145081    0.591555
  H      0.944310    2.189519    0.557253
  H      2.482439    2.913042    0.971675
  C      4.115502    1.084622    0.208933
  H      4.507373    1.984272    0.676117
  H      4.519058    0.997077   -0.796847
  H      4.443281    0.214047    0.771113

 Multiplicity           Mult            ....    1
 Number of Electrons    NEL             ....   64
 Basis Dimension        Dim             .... 1100

ORBITAL ENERGIES
----------------

  NO   OCC          E(Eh)            E(eV)
   0   2.0000     -20.512159      -558.1642
   1   2.0000     -20.512133      -558.1635
   2   2.0000     -15.560006      -423.4093
   3   2.0000     -15.560005      -423.4092
   4   2.0000     -11.350235      -308.8556
   5   2.0000     -11.350225      -308.8553
   6   2.0000     -11.231922      -305.6361
   7   2.0000     -11.231915      -305.6359
   8   2.0000      -1.380378       -37.5620
   9   2.0000      -1.373110       -37.3642
  10   2.0000      -1.206084       -32.8192
  11   2.0000      -1.195876       -32.5414
  12   2.0000      -1.004984       -27.3470
  13   2.0000      -0.997360       -27.1395
  14   2.0000      -0.803901       -21.8753
  15   2.0000      -0.781213       -21.2579
  16   2.0000      -0.726913       -19.7803
  17   2.0000      -0.724329       -19.7100
  18   2.0000      -0.674472       -18.3533
  19   2.0000      -0.641916       -17.4674
  20   2.0000      -0.614466       -16.7205
  21   2.0000      -0.610877       -16.6228
  22   2.0000      -0.590461       -16.0673
  23   2.0000      -0.575007       -15.6467
  24   2.0000      -0.560167       -15.2429
  25   2.0000      -0.550798       -14.9880
  26   2.0000      -0.525204       -14.2915
  27   2.0000      -0.517000       -14.0683
  28   2.0000      -0.440736       -11.9930
  29   2.0000      -0.413570       -11.2538
  30   2.0000      -0.413315       -11.2469
  31   2.0000      -0.398703       -10.8493
  32   0.0000       0.024884         0.6771
  33   0.0000       0.026281         0.7151
  34   0.0000       0.036427         0.9912
  35   0.0000       0.042272         1.1503
  36   0.0000       0.043538         1.1847

MULLIKEN ATOMIC CHARGES
-----------------------
   0 C :    0.858801
   1 O :   -0.833127
   2 N :   -0.703167
   3 H :    0.320673
   4 H :    0.236782
   5 C :   -0.676000
   6 H :    0.275446
   7 H :    0.249486
   8 H :    0.271076
   9 C :    0.858755
  10 O :   -0.832915
  11 N :   -0.703293
  12 H :    0.320800
  13 H :    0.236594
  14 C :   -0.676138
  15 H :    0.249409
  16 H :    0.277711
  17 H :    0.269107
Sum of atomic charges:    0.0000000

LOEWDIN ATOMIC CHARGES
----------------------
   0 C :   -0.719335
   1 O :    0.848215
   2 N :    1.253987
   3 H :   -0.874352
   4 H :   -0.489435
   5 C :    0.896465
   6 H :   -0.299873
   7 H :   -0.315131
   8 H :   -0.300679
   9 C :   -0.719298
  10 O :    0.848311
  11 N :    1.254005
  12 H :   -0.874236
  13 H :   -0.489451
  14 C :    0.896483
  15 H :   -0.315123
  16 H :   -0.299349
  17 H :   -0.301203

  Mayer bond orders larger than 0.100000
B(  0-C ,  1-O ) :   1.3639 B(  0-C ,  2-N ) :   1.1256 B(  0-C ,  5-C ) :   0.7302
B(  0-C ,  7-H ) :  -0.1148 B(  1-O ,  2-N ) :   0.1578 B(  2-N ,  3-H ) :   0.8555
B(  2-N ,  4-H ) :   1.0305 B(  5-C ,  6-H ) :   0.9512 B(  5-C ,  7-H ) :   1.0099
B(  5-C ,  8-H ) :   0.9610 B(  9-C , 10-O ) :   1.3641 B(  9-C , 11-N ) :   1.1257
B(  9-C , 14-C ) :   0.7303 B(  9-C , 15-H ) :  -0.1148 B( 10-O , 11-N ) :   0.1577
B( 11-N , 12-H ) :   0.8553 B( 11-N , 13-H ) :   1.0307 B( 14-C , 15-H ) :   1.0099
B( 14-C , 16-H ) :   0.9461 B( 14-C , 17-H ) :   0.9659

MP2 TOTAL ENERGY:     -417.851388110 Eh
FINAL SINGLE POINT ENERGY      -417.851388109884

DIPOLE MOMENT
-------------
                                X             Y             Z
Electronic contribution:     -0.00006      -0.00059       0.00048
Nuclear contribution   :      0.00027      -0.00002       0.00041
                        -----------------------------------------
Total Dipole Moment    :      0.00021      -0.00061       0.00089
                        -----------------------------------------
Magnitude (a.u.)       :      0.00110
Magnitude (Debye)      :      0.00280

Rotational constants in cm-1:     0.178991     0.028559     0.024854
Rotational constants in MHz :  5366.015006   856.170262   745.115942

                             ****ORCA TERMINATED NORMALLY****
TOTAL RUN TIME: 0 days 2 hours 37 minutes 47 seconds 999 msec
